<event>
 8    1  0.9331162E-006  0.2660571E+03  0.7546771E-02  0.1103558E+00
         21   -1    0    0  504  503  0.00000000000E+00  0.00000000000E+00  0.10727307811E+03  0.10727307811E+03  0.00000000000E+00 0. -1.
         21   -1    0    0  503  504 -0.00000000000E+00 -0.00000000000E+00 -0.16496768112E+03  0.16496768112E+03  0.00000000000E+00 0. -1.
         25    2    1    2    0    0 -0.31914500332E+02 -0.28971821960E+02 -0.43744425635E+02  0.13927922273E+03  0.12500890092E+03 0.  0.
         25    2    1    2    0    0  0.31914500332E+02  0.28971821960E+02 -0.13950177377E+02  0.13296153650E+03  0.12500504366E+03 0.  0.
          5    1    3    3  501    0 -0.16475253038E+02 -0.72737736049E+02  0.86801204118E+00  0.74733229912E+02  0.47000000000E+01 0. -1.
         -5    1    3    3    0  501 -0.15439247294E+02  0.43765914089E+02 -0.44612437677E+02  0.64545992815E+02  0.47000000000E+01 0. -1.
          5    1    4    4  502    0  0.84129834195E+01 -0.14675664677E+02  0.49374977173E+02  0.52403547538E+02  0.47000000000E+01 0. -1.
         -5    1    4    4    0  502  0.23501516913E+02  0.43647486637E+02 -0.63325154550E+02  0.80557988963E+02  0.47000000000E+01 0. -1.
<mgrwt>
<rscale>  0 0.26605707E+03</rscale>
<asrwt>0</asrwt>
<pdfrwt beam="1">  1       21 0.16503551E-01 0.26605707E+03</pdfrwt>
<pdfrwt beam="2">  1       21 0.25379643E-01 0.26605707E+03</pdfrwt>
<totfact> 0.47791638E+05</totfact>
</mgrwt>
</event>
<event>
 8    1  0.9331162E-006  0.2860634E+03  0.7546771E-02  0.1092423E+00
         21   -1    0    0  504  503  0.00000000000E+00  0.00000000000E+00  0.92543292599E+02  0.92543292599E+02  0.00000000000E+00 0.  1.
         21   -1    0    0  503  504 -0.00000000000E+00 -0.00000000000E+00 -0.22106480156E+03  0.22106480156E+03  0.00000000000E+00 0.  1.
         25    2    1    2    0    0 -0.50183237571E+01 -0.33337403738E+01  0.11639895713E+02  0.12570832376E+03  0.12502319021E+03 0.  0.
         25    2    1    2    0    0  0.50183237571E+01  0.33337403738E+01 -0.14016140467E+03  0.18789977040E+03  0.12499922783E+03 0.  0.
          5    1    3    3  501    0  0.59850126621E+02 -0.25622518477E+01  0.40801810721E+01  0.60227407952E+02  0.47000000000E+01 0.  1.
         -5    1    3    3    0  501 -0.64868450378E+02 -0.77148852610E+00  0.75597146407E+01  0.65480915803E+02  0.47000000000E+01 0.  1.
          5    1    4    4  502    0 -0.35525820681E+02  0.50222261864E+02 -0.56401768319E+02  0.83591919414E+02  0.47000000000E+01 0.  1.
         -5    1    4    4    0  502  0.40544144438E+02 -0.46888521490E+02 -0.83759636350E+02  0.10430785099E+03  0.47000000000E+01 0.  1.
<mgrwt>
<rscale>  0 0.28606338E+03</rscale>
<asrwt>0</asrwt>
<pdfrwt beam="1">  1       21 0.14237430E-01 0.28606338E+03</pdfrwt>
<pdfrwt beam="2">  1       21 0.34009970E-01 0.28606338E+03</pdfrwt>
<totfact> 0.35193666E+05</totfact>
</mgrwt>
</event>
<event>
 8    1  0.9331162E-006  0.2637796E+03  0.7546771E-02  0.1104893E+00
         21   -1    0    0  504  503  0.00000000000E+00  0.00000000000E+00  0.19930729431E+03  0.19930729431E+03  0.00000000000E+00 0.  1.
         21   -1    0    0  503  504 -0.00000000000E+00 -0.00000000000E+00 -0.87276860356E+02  0.87276860356E+02  0.00000000000E+00 0.  1.
         25    2    1    2    0    0  0.28829776402E+02 -0.15241649568E+02  0.84904998533E+02  0.15457596715E+03  0.12498562700E+03 0.  0.
         25    2    1    2    0    0 -0.28829776402E+02  0.15241649568E+02  0.27125435419E+02  0.13200818751E+03  0.12500763350E+03 0.  0.
          5    1    3    3  501    0  0.28855553170E+02  0.32540764878E+02  0.95824056516E+02  0.10533700269E+03  0.47000000000E+01 0. -1.
         -5    1    3    3    0  501 -0.25776768133E-01 -0.47782414446E+02 -0.10919057983E+02  0.49238964469E+02  0.47000000000E+01 0. -1.
          5    1    4    4  502    0 -0.54558990708E+02 -0.39504875320E+02  0.61141917127E+01  0.67799645880E+02  0.47000000000E+01 0. -1.
         -5    1    4    4    0  502  0.25729214306E+02  0.54746524888E+02  0.21011243707E+02  0.64208541630E+02  0.47000000000E+01 0. -1.
<mgrwt>
<rscale>  0 0.26377957E+03</rscale>
<asrwt>0</asrwt>
<pdfrwt beam="1">  1       21 0.30662661E-01 0.26377957E+03</pdfrwt>
<pdfrwt beam="2">  1       21 0.13427209E-01 0.26377957E+03</pdfrwt>
<totfact> 0.48288146E+05</totfact>
</mgrwt>
</event>
<event>
 8    1  0.9331162E-006  0.2654592E+03  0.7546771E-02  0.1103907E+00
         21   -1    0    0  504  503  0.00000000000E+00  0.00000000000E+00  0.40276085478E+03  0.40276085478E+03  0.00000000000E+00 0. -1.
         21   -1    0    0  503  504 -0.00000000000E+00 -0.00000000000E+00 -0.43740946173E+02  0.43740946173E+02  0.00000000000E+00 0. -1.
         25    2    1    2    0    0 -0.44562954251E+02 -0.22773498124E+01  0.18233962320E+03  0.22552574773E+03  0.12499232570E+03 0.  0.
         25    2    1    2    0    0  0.44562954251E+02  0.22773498124E+01  0.17668028541E+03  0.22097605323E+03  0.12499379839E+03 0.  0.
          5    1    3    3  501    0 -0.22546727562E+02 -0.33862544418E+02  0.19346503625E+01  0.40998289114E+02  0.47000000000E+01 0.  1.
         -5    1    3    3    0  501 -0.22016226689E+02  0.31585194606E+02  0.18040497284E+03  0.18452745861E+03  0.47000000000E+01 0.  1.
          5    1    4    4  502    0  0.68335781009E+02 -0.36076557408E+02  0.14877685715E+03  0.16771386402E+03  0.47000000000E+01 0.  1.
         -5    1    4    4    0  502 -0.23772826759E+02  0.38353907220E+02  0.27903428256E+02  0.53262189211E+02  0.47000000000E+01 0.  1.
<mgrwt>
<rscale>  0 0.26545916E+03</rscale>
<asrwt>0</asrwt>
<pdfrwt beam="1">  1       21 0.61963206E-01 0.26545916E+03</pdfrwt>
<pdfrwt beam="2">  1       21 0.67293766E-02 0.26545916E+03</pdfrwt>
<totfact> 0.38494129E+05</totfact>
</mgrwt>
</event>
<event>
 8    1  0.9331162E-006  0.2789576E+03  0.7546771E-02  0.1096260E+00
         21   -1    0    0  504  503  0.00000000000E+00  0.00000000000E+00  0.17197229340E+03  0.17197229340E+03  0.00000000000E+00 0.  1.
         21   -1    0    0  503  504 -0.00000000000E+00 -0.00000000000E+00 -0.11312482925E+03  0.11312482925E+03  0.00000000000E+00 0.  1.
         25    2    1    2    0    0  0.37054585610E+02 -0.38011371419E+02  0.61931141292E+02  0.14925972465E+03  0.12500036987E+03 0.  0.
         25    2    1    2    0    0 -0.37054585610E+02  0.38011371419E+02 -0.30836771411E+01  0.13583739800E+03  0.12499753181E+03 0.  0.
          5    1    3    3  501    0 -0.29589922974E+02 -0.34109822948E+02  0.68322812680E+02  0.82031337278E+02  0.47000000000E+01 0. -1.
         -5    1    3    3    0  501  0.66644508584E+02 -0.39015484705E+01 -0.63916713880E+01  0.67228387367E+02  0.47000000000E+01 0. -1.
          5    1    4    4  502    0 -0.38883537035E+02  0.82230520481E+02 -0.56572217559E+01  0.91257230447E+02  0.47000000000E+01 0. -1.
         -5    1    4    4    0  502  0.18289514252E+01 -0.44219149062E+02  0.25735446149E+01  0.44580167552E+02  0.47000000000E+01 0. -1.
<mgrwt>
<rscale>  0 0.27895760E+03</rscale>
<asrwt>0</asrwt>
<pdfrwt beam="1">  1       21 0.26457276E-01 0.27895760E+03</pdfrwt>
<pdfrwt beam="2">  1       21 0.17403820E-01 0.27895760E+03</pdfrwt>
<totfact> 0.39875438E+05</totfact>
</mgrwt>
</event>
<event>
 8    1  0.9331162E-006  0.3299764E+03  0.7546771E-02  0.1071147E+00
         21   -1    0    0  504  503  0.00000000000E+00  0.00000000000E+00  0.51712132785E+03  0.51712132785E+03  0.00000000000E+00 0. -1.
         21   -1    0    0  503  504 -0.00000000000E+00 -0.00000000000E+00 -0.52639679018E+02  0.52639679018E+02  0.00000000000E+00 0. -1.
         25    2    1    2    0    0 -0.23934006373E+02  0.49939967927E+02  0.72770406738E+02  0.15487505306E+03  0.12499565155E+03 0.  0.
         25    2    1    2    0    0  0.23934006373E+02 -0.49939967927E+02  0.39171124209E+03  0.41488595380E+03  0.12500328165E+03 0.  0.
          5    1    3    3  501    0  0.32283533932E+02 -0.25218467722E+02  0.33073560321E+02  0.52859701756E+02  0.47000000000E+01 0.  1.
         -5    1    3    3    0  501 -0.56217540305E+02  0.75158435649E+02  0.39696846417E+02  0.10201535131E+03  0.47000000000E+01 0.  1.
          5    1    4    4  502    0  0.14546196031E+02  0.35194587457E+02  0.21568246484E+03  0.21906909057E+03  0.47000000000E+01 0.  1.
         -5    1    4    4    0  502  0.93878103416E+01 -0.85134555384E+02  0.17602877725E+03  0.19581686323E+03  0.47000000000E+01 0.  1.
<mgrwt>
<rscale>  0 0.32997637E+03</rscale>
<asrwt>0</asrwt>
<pdfrwt beam="1">  1       21 0.79557124E-01 0.32997637E+03</pdfrwt>
<pdfrwt beam="2">  1       21 0.80984125E-02 0.32997637E+03</pdfrwt>
<totfact> 0.15716583E+05</totfact>
</mgrwt>
</event>
<event>
 8    1  0.9331162E-006  0.4000672E+03  0.7546771E-02  0.1043756E+00
         21   -1    0    0  504  503  0.00000000000E+00  0.00000000000E+00  0.33868150432E+03  0.33868150432E+03  0.00000000000E+00 0. -1.
         21   -1    0    0  503  504 -0.00000000000E+00 -0.00000000000E+00 -0.11814477569E+03  0.11814477569E+03  0.00000000000E+00 0. -1.
         25    2    1    2    0    0 -0.94928395554E+02 -0.60414208132E+02 -0.13387232736E+02  0.16871896578E+03  0.12500237832E+03 0.  0.
         25    2    1    2    0    0  0.94928395554E+02  0.60414208132E+02  0.23392396137E+03  0.28810731424E+03  0.12499651191E+03 0.  0.
          5    1    3    3  501    0  0.14496504700E+02 -0.45262969299E+02 -0.30739376909E+02  0.56796869025E+02  0.47000000000E+01 0.  1.
         -5    1    3    3    0  501 -0.10942490025E+03 -0.15151238832E+02  0.17352144172E+02  0.11192209675E+03  0.47000000000E+01 0.  1.
          5    1    4    4  502    0 -0.27035233574E+02  0.22875233111E+02  0.26317237814E+02  0.44371918490E+02  0.47000000000E+01 0.  1.
         -5    1    4    4    0  502  0.12196362913E+03  0.37538975020E+02  0.20760672356E+03  0.24373539575E+03  0.47000000000E+01 0.  1.
<mgrwt>
<rscale>  0 0.40006725E+03</rscale>
<asrwt>0</asrwt>
<pdfrwt beam="1">  1       21 0.52104846E-01 0.40006725E+03</pdfrwt>
<pdfrwt beam="2">  1       21 0.18176119E-01 0.40006725E+03</pdfrwt>
<totfact> 0.90637402E+04</totfact>
</mgrwt>
</event>
<event>
 8    1  0.9331162E-006  0.2570596E+03  0.7546771E-02  0.1108923E+00
         21   -1    0    0  504  503  0.00000000000E+00  0.00000000000E+00  0.89458001750E+03  0.89458001750E+03  0.00000000000E+00 0.  1.
         21   -1    0    0  503  504 -0.00000000000E+00 -0.00000000000E+00 -0.18466661956E+02  0.18466661956E+02  0.00000000000E+00 0.  1.
         25    2    1    2    0    0 -0.24786984312E+02 -0.66061131566E+01  0.38336653447E+03  0.40404575319E+03  0.12500014239E+03 0.  0.
         25    2    1    2    0    0  0.24786984312E+02  0.66061131566E+01  0.49274682107E+03  0.50900092626E+03  0.12499791174E+03 0.  0.
          5    1    3    3  501    0 -0.15526734944E+02 -0.63932386701E+02  0.15678648143E+03  0.17009562112E+03  0.47000000000E+01 0.  1.
         -5    1    3    3    0  501 -0.92602493681E+01  0.57326273544E+02  0.22658005305E+03  0.23395013207E+03  0.47000000000E+01 0.  1.
          5    1    4    4  502    0 -0.27666633905E+02 -0.44893098139E+02  0.23808759746E+03  0.24390290477E+03  0.47000000000E+01 0. -1.
         -5    1    4    4    0  502  0.52453618217E+02  0.51499211295E+02  0.25465922361E+03  0.26509802149E+03  0.47000000000E+01 0. -1.
<mgrwt>
<rscale>  0 0.25705958E+03</rscale>
<asrwt>0</asrwt>
<pdfrwt beam="1">  1       21 0.13762766E+00 0.25705958E+03</pdfrwt>
<pdfrwt beam="2">  1       21 0.28410256E-02 0.25705958E+03</pdfrwt>
<totfact> 0.25331345E+05</totfact>
</mgrwt>
</event>
<event>
 8    1  0.9331162E-006  0.4236462E+03  0.7546771E-02  0.1035886E+00
         21   -1    0    0  504  503  0.00000000000E+00  0.00000000000E+00  0.30952565845E+03  0.30952565845E+03  0.00000000000E+00 0. -1.
         21   -1    0    0  503  504 -0.00000000000E+00 -0.00000000000E+00 -0.14496063075E+03  0.14496063075E+03  0.00000000000E+00 0. -1.
         25    2    1    2    0    0 -0.10234535402E+03  0.73419140540E+02 -0.41825242846E+02  0.18230420285E+03  0.12498211773E+03 0.  0.
         25    2    1    2    0    0  0.10234535402E+03 -0.73419140540E+02  0.20639027055E+03  0.27218208635E+03  0.12498480975E+03 0.  0.
          5    1    3    3  501    0 -0.32891907405E+02 -0.20146022595E+02 -0.52366965032E+02  0.65208349356E+02  0.47000000000E+01 0. -1.
         -5    1    3    3    0  501 -0.69453446614E+02  0.93565163136E+02  0.10541722186E+02  0.11709585350E+03  0.47000000000E+01 0. -1.
          5    1    4    4  502    0  0.22273645296E+02 -0.91040212065E+02  0.12744488936E+03  0.15826789097E+03  0.47000000000E+01 0. -1.
         -5    1    4    4    0  502  0.80071708722E+02  0.17621071525E+02  0.78945381192E+02  0.11391419539E+03  0.47000000000E+01 0. -1.
<mgrwt>
<rscale>  0 0.42364624E+03</rscale>
<asrwt>0</asrwt>
<pdfrwt beam="1">  1       21 0.47619332E-01 0.42364624E+03</pdfrwt>
<pdfrwt beam="2">  1       21 0.22301635E-01 0.42364624E+03</pdfrwt>
<totfact> 0.73994524E+04</totfact>
</mgrwt>
</event>
<event>
 8    1  0.9331162E-006  0.4455799E+03  0.7546771E-02  0.1029048E+00
         21   -1    0    0  504  503  0.00000000000E+00  0.00000000000E+00  0.45436801882E+02  0.45436801882E+02  0.00000000000E+00 0. -1.
         21   -1    0    0  503  504 -0.00000000000E+00 -0.00000000000E+00 -0.10924045521E+04  0.10924045521E+04  0.00000000000E+00 0. -1.
         25    2    1    2    0    0 -0.44956570594E+02  0.25183429274E+02 -0.71300763093E+02  0.15285035084E+03  0.12499653029E+03 0.  0.
         25    2    1    2    0    0  0.44956570594E+02 -0.25183429274E+02 -0.97566698717E+03  0.98499100319E+03  0.12500363260E+03 0.  0.
          5    1    3    3  501    0 -0.62170579805E+02  0.46343539643E+02 -0.14319599797E+01  0.77698424497E+02  0.47000000000E+01 0.  1.
         -5    1    3    3    0  501  0.17214009211E+02 -0.21160110369E+02 -0.69868803113E+02  0.75151926339E+02  0.47000000000E+01 0.  1.
          5    1    4    4  502    0 -0.34842836874E+02 -0.25422706893E+02 -0.56192239749E+03  0.56359489716E+03  0.47000000000E+01 0.  1.
         -5    1    4    4    0  502  0.79799407468E+02  0.23927761856E+00 -0.41374458968E+03  0.42139610603E+03  0.47000000000E+01 0.  1.
<mgrwt>
<rscale>  0 0.44557993E+03</rscale>
<asrwt>0</asrwt>
<pdfrwt beam="1">  1       21 0.69902773E-02 0.44557993E+03</pdfrwt>
<pdfrwt beam="2">  1       21 0.16806224E+00 0.44557993E+03</pdfrwt>
<totfact> 0.29964276E+04</totfact>
</mgrwt>
</event>
<event>
 8    1  0.9331162E-006  0.2903636E+03  0.7546771E-02  0.1090159E+00
         21   -1    0    0  504  503  0.00000000000E+00  0.00000000000E+00  0.23136673524E+03  0.23136673524E+03  0.00000000000E+00 0. -1.
         21   -1    0    0  503  504 -0.00000000000E+00 -0.00000000000E+00 -0.91101049458E+02  0.91101049458E+02  0.00000000000E+00 0. -1.
         25    2    1    2    0    0  0.45904940491E+02  0.45534238262E+02  0.30524705745E+02  0.14400530455E+03  0.12500055865E+03 0.  0.
         25    2    1    2    0    0 -0.45904940491E+02 -0.45534238262E+02  0.10974098004E+03  0.17846248015E+03  0.12500057482E+03 0.  0.
          5    1    3    3  501    0  0.24348980985E+02  0.62240753693E+02 -0.33021429504E+02  0.74694639044E+02  0.47000000000E+01 0. -1.
         -5    1    3    3    0  501  0.21555959505E+02 -0.16706515432E+02  0.63546135250E+02  0.69310665509E+02  0.47000000000E+01 0. -1.
          5    1    4    4  502    0 -0.58417969779E+02  0.98062971942E+01  0.10586170599E+03  0.12139857270E+03  0.47000000000E+01 0. -1.
         -5    1    4    4    0  502  0.12513029288E+02 -0.55340535456E+02  0.38792740489E+01  0.57063907452E+02  0.47000000000E+01 0. -1.
<mgrwt>
<rscale>  0 0.29036358E+03</rscale>
<asrwt>0</asrwt>
<pdfrwt beam="1">  1       21 0.35594882E-01 0.29036358E+03</pdfrwt>
<pdfrwt beam="2">  1       21 0.14015546E-01 0.29036358E+03</pdfrwt>
<totfact> 0.33034673E+05</totfact>
</mgrwt>
</event>
<event>
 8    1  0.9331162E-006  0.3396914E+03  0.7546771E-02  0.1066927E+00
         21   -1    0    0  504  503  0.00000000000E+00  0.00000000000E+00  0.63821833673E+02  0.63821833673E+02  0.00000000000E+00 0.  1.
         21   -1    0    0  503  504 -0.00000000000E+00 -0.00000000000E+00 -0.45200135265E+03  0.45200135265E+03  0.00000000000E+00 0.  1.
         25    2    1    2    0    0  0.79738574314E+02  0.80218225923E+02 -0.16291343390E+03  0.23446512481E+03  0.12505960099E+03 0.  0.
         25    2    1    2    0    0 -0.79738574314E+02 -0.80218225923E+02 -0.22526608507E+03  0.28135806151E+03  0.12499738274E+03 0.  0.
          5    1    3    3  501    0  0.59563145257E+02  0.74151104795E+02 -0.18215718483E+03  0.20554679418E+03  0.47000000000E+01 0. -1.
         -5    1    3    3    0  501  0.20175429057E+02  0.60671211284E+01  0.19243750923E+02  0.28918330623E+02  0.47000000000E+01 0. -1.
          5    1    4    4  502    0 -0.29536259475E+02  0.13756916180E+02 -0.14280093243E+03  0.14654637378E+03  0.47000000000E+01 0.  1.
         -5    1    4    4    0  502 -0.50202314839E+02 -0.93975142103E+02 -0.82465152643E+02  0.13481168773E+03  0.47000000000E+01 0.  1.
<mgrwt>
<rscale>  0 0.33969136E+03</rscale>
<asrwt>0</asrwt>
<pdfrwt beam="1">  1       21 0.98187435E-02 0.33969136E+03</pdfrwt>
<pdfrwt beam="2">  1       21 0.69538670E-01 0.33969136E+03</pdfrwt>
<totfact> 0.15106140E+05</totfact>
</mgrwt>
</event>
<event>
 8    1  0.9331162E-006  0.3154021E+03  0.7546771E-02  0.1077785E+00
         21   -1    0    0  504  503  0.00000000000E+00  0.00000000000E+00  0.35505912195E+02  0.35505912195E+02  0.00000000000E+00 0. -1.
         21   -1    0    0  503  504 -0.00000000000E+00 -0.00000000000E+00 -0.70043603801E+03  0.70043603801E+03  0.00000000000E+00 0. -1.
         25    2    1    2    0    0  0.53746450786E+02  0.74021024732E+02 -0.26335834042E+03  0.30553151623E+03  0.12499639539E+03 0.  0.
         25    2    1    2    0    0 -0.53746450786E+02 -0.74021024732E+02 -0.40157178539E+03  0.43041043398E+03  0.12500179912E+03 0.  0.
          5    1    3    3  501    0 -0.39406628719E+02  0.37421855459E+02 -0.86465811447E+02  0.10223357669E+03  0.47000000000E+01 0.  1.
         -5    1    3    3    0  501  0.93153079505E+02  0.36599169274E+02 -0.17689252898E+03  0.20329793954E+03  0.47000000000E+01 0.  1.
          5    1    4    4  502    0 -0.37059823399E+02 -0.52294247909E+02 -0.39708880470E+03  0.40225579883E+03  0.47000000000E+01 0.  1.
         -5    1    4    4    0  502 -0.16686627387E+02 -0.21726776823E+02 -0.44829806940E+01  0.28154635153E+02  0.47000000000E+01 0.  1.
<mgrwt>
<rscale>  0 0.31540210E+03</rscale>
<asrwt>0</asrwt>
<pdfrwt beam="1">  1       21 0.54624485E-02 0.31540210E+03</pdfrwt>
<pdfrwt beam="2">  1       21 0.10775938E+00 0.31540210E+03</pdfrwt>
<totfact> 0.15273144E+05</totfact>
</mgrwt>
</event>
<event>
 8    1  0.9331162E-006  0.2734757E+03  0.7546771E-02  0.1099307E+00
         21   -1    0    0  504  503  0.00000000000E+00  0.00000000000E+00  0.37215556956E+03  0.37215556956E+03  0.00000000000E+00 0.  1.
         21   -1    0    0  503  504 -0.00000000000E+00 -0.00000000000E+00 -0.50240392398E+02  0.50240392398E+02  0.00000000000E+00 0.  1.
         25    2    1    2    0    0 -0.16642189916E+02  0.43463461868E+02  0.11448148313E+03  0.17577721336E+03  0.12500233499E+03 0.  0.
         25    2    1    2    0    0  0.16642189916E+02 -0.43463461868E+02  0.20743369403E+03  0.24661874860E+03  0.12500413889E+03 0.  0.
          5    1    3    3  501    0 -0.17051662568E+02 -0.23731913146E+02  0.10334762051E+03  0.10750248166E+03  0.47000000000E+01 0.  1.
         -5    1    3    3    0  501  0.40947265236E+00  0.67195375014E+02  0.11133862619E+02  0.68274731694E+02  0.47000000000E+01 0.  1.
          5    1    4    4  502    0 -0.53558518873E+02 -0.12267310500E+02  0.10370726018E+03  0.11745759943E+03  0.47000000000E+01 0.  1.
         -5    1    4    4    0  502  0.70200708789E+02 -0.31196151368E+02  0.10372643385E+03  0.12916114916E+03  0.47000000000E+01 0.  1.
<mgrwt>
<rscale>  0 0.27347572E+03</rscale>
<asrwt>0</asrwt>
<pdfrwt beam="1">  1       21 0.57254701E-01 0.27347572E+03</pdfrwt>
<pdfrwt beam="2">  1       21 0.77292914E-02 0.27347572E+03</pdfrwt>
<totfact> 0.35814429E+05</totfact>
</mgrwt>
</event>
<event>
 8    1  0.9331162E-006  0.3028538E+03  0.7546771E-02  0.1083823E+00
         21   -1    0    0  504  503  0.00000000000E+00  0.00000000000E+00  0.93217113584E+02  0.93217113584E+02  0.00000000000E+00 0.  1.
         21   -1    0    0  503  504 -0.00000000000E+00 -0.00000000000E+00 -0.24598594320E+03  0.24598594320E+03  0.00000000000E+00 0.  1.
         25    2    1    2    0    0  0.29515475375E+02  0.16101555368E+01 -0.16621027955E+03  0.21006004632E+03  0.12500244055E+03 0.  0.
         25    2    1    2    0    0 -0.29515475375E+02 -0.16101555368E+01  0.13441449926E+02  0.12914301047E+03  0.12499395462E+03 0.  0.
          5    1    3    3  501    0  0.20355819170E+02  0.10004831361E+02 -0.18533370170E+03  0.18677560604E+03  0.47000000000E+01 0. -1.
         -5    1    3    3    0  501  0.91596562048E+01 -0.83946758238E+01  0.19123422157E+02  0.23284440276E+02  0.47000000000E+01 0. -1.
          5    1    4    4  502    0  0.24910513177E+02 -0.15895158943E+02 -0.40966645034E+02  0.50730126650E+02  0.47000000000E+01 0.  1.
         -5    1    4    4    0  502 -0.54425988552E+02  0.14285003406E+02  0.54408094960E+02  0.78412883823E+02  0.47000000000E+01 0.  1.
<mgrwt>
<rscale>  0 0.30285376E+03</rscale>
<asrwt>0</asrwt>
<pdfrwt beam="1">  1       21 0.14341094E-01 0.30285376E+03</pdfrwt>
<pdfrwt beam="2">  1       21 0.37843992E-01 0.30285376E+03</pdfrwt>
<totfact> 0.27924038E+05</totfact>
</mgrwt>
</event>
<event>
 8    1  0.9331162E-006  0.3319485E+03  0.7546771E-02  0.1070278E+00
         21   -1    0    0  504  503  0.00000000000E+00  0.00000000000E+00  0.51953719245E+03  0.51953719245E+03  0.00000000000E+00 0.  1.
         21   -1    0    0  503  504 -0.00000000000E+00 -0.00000000000E+00 -0.53023053657E+02  0.53023053657E+02  0.00000000000E+00 0.  1.
         25    2    1    2    0    0  0.98209386621E+02  0.47491419424E+02  0.22499715221E+03  0.27955211124E+03  0.12500058341E+03 0.  0.
         25    2    1    2    0    0 -0.98209386621E+02 -0.47491419424E+02  0.24151698658E+03  0.29300813488E+03  0.12499117471E+03 0.  0.
          5    1    3    3  501    0  0.50439039637E+02  0.33646795349E+02  0.13578333579E+02  0.62311031925E+02  0.47000000000E+01 0.  1.
         -5    1    3    3    0  501  0.47770346984E+02  0.13844624075E+02  0.21141881864E+03  0.21724107931E+03  0.47000000000E+01 0.  1.
          5    1    4    4  502    0  0.31161895863E+01 -0.57968556510E+02  0.53338058295E+02  0.78975329338E+02  0.47000000000E+01 0. -1.
         -5    1    4    4    0  502 -0.10132557621E+03  0.10477137086E+02  0.18817892829E+03  0.21403280554E+03  0.47000000000E+01 0. -1.
<mgrwt>
<rscale>  0 0.33194848E+03</rscale>
<asrwt>0</asrwt>
<pdfrwt beam="1">  1       21 0.79928795E-01 0.33194848E+03</pdfrwt>
<pdfrwt beam="2">  1       21 0.81573932E-02 0.33194848E+03</pdfrwt>
<totfact> 0.15344929E+05</totfact>
</mgrwt>
</event>
<event>
 8    1  0.9331162E-006  0.3154251E+03  0.7546771E-02  0.1077774E+00
         21   -1    0    0  504  503  0.00000000000E+00  0.00000000000E+00  0.66276331951E+02  0.66276331951E+02  0.00000000000E+00 0. -1.
         21   -1    0    0  503  504 -0.00000000000E+00 -0.00000000000E+00 -0.37529602395E+03  0.37529602395E+03  0.00000000000E+00 0. -1.
         25    2    1    2    0    0  0.25343574038E+02  0.92242956682E+02 -0.14066204051E+03  0.21109775923E+03  0.12500157801E+03 0.  0.
         25    2    1    2    0    0 -0.25343574038E+02 -0.92242956682E+02 -0.16835765149E+03  0.23047459668E+03  0.12499272418E+03 0.  0.
          5    1    3    3  501    0 -0.11051389610E+02 -0.22559788579E+02  0.39759604998E+00  0.25560229961E+02  0.47000000000E+01 0.  1.
         -5    1    3    3    0  501  0.36394963647E+02  0.11480274526E+03 -0.14105963656E+03  0.18553752927E+03  0.47000000000E+01 0.  1.
          5    1    4    4  502    0 -0.85277607405E+01 -0.49157039323E+02 -0.17632476106E+03  0.18330752462E+03  0.47000000000E+01 0. -1.
         -5    1    4    4    0  502 -0.16815813297E+02 -0.43085917359E+02  0.79671095767E+01  0.47167072058E+02  0.47000000000E+01 0. -1.
<mgrwt>
<rscale>  0 0.31542507E+03</rscale>
<asrwt>0</asrwt>
<pdfrwt beam="1">  1       21 0.10196359E-01 0.31542507E+03</pdfrwt>
<pdfrwt beam="2">  1       21 0.57737851E-01 0.31542507E+03</pdfrwt>
<totfact> 0.21357766E+05</totfact>
</mgrwt>
</event>
<event>
 8    1  0.9331162E-006  0.2624827E+03  0.7546771E-02  0.1105661E+00
         21   -1    0    0  504  503  0.00000000000E+00  0.00000000000E+00  0.17020948839E+02  0.17020948839E+02  0.00000000000E+00 0. -1.
         21   -1    0    0  503  504 -0.00000000000E+00 -0.00000000000E+00 -0.10119468894E+04  0.10119468894E+04  0.00000000000E+00 0. -1.
         25    2    1    2    0    0 -0.28990889213E+02  0.30944327489E+01 -0.60477496956E+03  0.61824496373E+03  0.12499609676E+03 0.  0.
         25    2    1    2    0    0  0.28990889213E+02 -0.30944327489E+01 -0.39015097097E+03  0.41072287448E+03  0.12500180917E+03 0.  0.
          5    1    3    3  501    0 -0.42512424693E+02  0.11825243588E+02 -0.59880398945E+03  0.60044604289E+03  0.47000000000E+01 0. -1.
         -5    1    3    3    0  501  0.13521535480E+02 -0.87308108395E+01 -0.59709801045E+01  0.17798920840E+02  0.47000000000E+01 0. -1.
          5    1    4    4  502    0 -0.27779174221E+01  0.57294050538E+02 -0.13946627081E+03  0.15087496726E+03  0.47000000000E+01 0.  1.
         -5    1    4    4    0  502  0.31768806635E+02 -0.60388483287E+02 -0.25068470017E+03  0.25984790722E+03  0.47000000000E+01 0.  1.
<mgrwt>
<rscale>  0 0.26248273E+03</rscale>
<asrwt>0</asrwt>
<pdfrwt beam="1">  1       21 0.26186076E-02 0.26248273E+03</pdfrwt>
<pdfrwt beam="2">  1       21 0.15568413E+00 0.26248273E+03</pdfrwt>
<totfact> 0.20892765E+05</totfact>
</mgrwt>
</event>
<event>
 8    1  0.9331162E-006  0.3107915E+03  0.7546771E-02  0.1079967E+00
         21   -1    0    0  504  503  0.00000000000E+00  0.00000000000E+00  0.74058347318E+02  0.74058347318E+02  0.00000000000E+00 0. -1.
         21   -1    0    0  503  504 -0.00000000000E+00 -0.00000000000E+00 -0.32606502916E+03  0.32606502916E+03  0.00000000000E+00 0. -1.
         25    2    1    2    0    0 -0.70546406431E+02  0.17840048160E+02 -0.19917689807E+03  0.24615662197E+03  0.12500633199E+03 0.  0.
         25    2    1    2    0    0  0.70546406431E+02 -0.17840048160E+02 -0.52829783781E+02  0.15396675451E+03  0.12497884886E+03 0.  0.
          5    1    3    3  501    0 -0.42743904804E+02  0.63435316085E+02 -0.61017462505E+02  0.97960713835E+02  0.47000000000E+01 0. -1.
         -5    1    3    3    0  501 -0.27802501627E+02 -0.45595267924E+02 -0.13815943556E+03  0.14819590814E+03  0.47000000000E+01 0. -1.
          5    1    4    4  502    0  0.43426255535E+02  0.47899165682E+02  0.70855709702E+00  0.64828711201E+02  0.47000000000E+01 0. -1.
         -5    1    4    4    0  502  0.27120150896E+02 -0.65739213842E+02 -0.53538340878E+02  0.89138043310E+02  0.47000000000E+01 0. -1.
<mgrwt>
<rscale>  0 0.31079149E+03</rscale>
<asrwt>0</asrwt>
<pdfrwt beam="1">  1       21 0.11393591E-01 0.31079149E+03</pdfrwt>
<pdfrwt beam="2">  1       21 0.50163853E-01 0.31079149E+03</pdfrwt>
<totfact> 0.23645915E+05</totfact>
</mgrwt>
</event>
<event>
 8    1  0.9331162E-006  0.2573061E+03  0.7546771E-02  0.1108773E+00
         21   -1    0    0  504  503  0.00000000000E+00  0.00000000000E+00  0.79425411755E+03  0.79425411755E+03  0.00000000000E+00 0. -1.
         21   -1    0    0  503  504 -0.00000000000E+00 -0.00000000000E+00 -0.20839187657E+02  0.20839187657E+02  0.00000000000E+00 0. -1.
         25    2    1    2    0    0  0.19195220704E+02  0.20705239388E+02  0.42243019622E+03  0.44143785704E+03  0.12499178977E+03 0.  0.
         25    2    1    2    0    0 -0.19195220704E+02 -0.20705239388E+02  0.35098473367E+03  0.37365544817E+03  0.12502378670E+03 0.  0.
          5    1    3    3  501    0 -0.52668277396E+02  0.17971138094E+02  0.17158278149E+03  0.18044292768E+03  0.47000000000E+01 0. -1.
         -5    1    3    3    0  501  0.71863498100E+02  0.27341012940E+01  0.25084741474E+03  0.26099492935E+03  0.47000000000E+01 0. -1.
          5    1    4    4  502    0 -0.59367914321E+01 -0.36210251912E+02  0.35077389811E+03  0.35271921613E+03  0.47000000000E+01 0.  1.
         -5    1    4    4    0  502 -0.13258429272E+02  0.15505012524E+02  0.21083556180E+00  0.20936232034E+02  0.47000000000E+01 0.  1.
<mgrwt>
<rscale>  0 0.25730613E+03</rscale>
<asrwt>0</asrwt>
<pdfrwt beam="1">  1       21 0.12219292E+00 0.25730613E+03</pdfrwt>
<pdfrwt beam="2">  1       21 0.32060295E-02 0.25730613E+03</pdfrwt>
<totfact> 0.28044088E+05</totfact>
</mgrwt>
</event>
<event>
 8    1  0.9331162E-006  0.2661412E+03  0.7546771E-02  0.1103509E+00
         21   -1    0    0  504  503  0.00000000000E+00  0.00000000000E+00  0.46660266612E+03  0.46660266612E+03  0.00000000000E+00 0. -1.
         21   -1    0    0  503  504 -0.00000000000E+00 -0.00000000000E+00 -0.37950464864E+02  0.37950464864E+02  0.00000000000E+00 0. -1.
         25    2    1    2    0    0  0.23692824224E+02  0.34661031341E+02  0.18015523881E+03  0.22326344111E+03  0.12501166766E+03 0.  0.
         25    2    1    2    0    0 -0.23692824224E+02 -0.34661031341E+02  0.24849696245E+03  0.28128968988E+03  0.12494163546E+03 0.  0.
          5    1    3    3  501    0  0.54212016081E+02 -0.27501580754E+02  0.10109823706E+03  0.11806025228E+03  0.47000000000E+01 0.  1.
         -5    1    3    3    0  501 -0.30519191857E+02  0.62162612095E+02  0.79057001748E+02  0.10520318883E+03  0.47000000000E+01 0.  1.
          5    1    4    4  502    0 -0.49875444692E+02 -0.59357171727E+02  0.90890927247E+02  0.11955787082E+03  0.47000000000E+01 0. -1.
         -5    1    4    4    0  502  0.26182620468E+02  0.24696140386E+02  0.15760603520E+03  0.16173181906E+03  0.47000000000E+01 0. -1.
<mgrwt>
<rscale>  0 0.26614123E+03</rscale>
<asrwt>0</asrwt>
<pdfrwt beam="1">  1       21 0.71785022E-01 0.26614123E+03</pdfrwt>
<pdfrwt beam="2">  1       21 0.58385334E-02 0.26614123E+03</pdfrwt>
<totfact> 0.35567441E+05</totfact>
</mgrwt>
</event>
<event>
 8    1  0.9331162E-006  0.2808791E+03  0.7546771E-02  0.1095210E+00
         21   -1    0    0  504  503  0.00000000000E+00  0.00000000000E+00  0.10179873160E+03  0.10179873160E+03  0.00000000000E+00 0.  1.
         21   -1    0    0  503  504 -0.00000000000E+00 -0.00000000000E+00 -0.19374774036E+03  0.19374774036E+03  0.00000000000E+00 0.  1.
         25    2    1    2    0    0 -0.63069631966E+02 -0.25122207233E+01 -0.57265804599E+02  0.15128751678E+03  0.12499780249E+03 0.  0.
         25    2    1    2    0    0  0.63069631966E+02  0.25122207233E+01 -0.34683204155E+02  0.14425895518E+03  0.12499452696E+03 0.  0.
          5    1    3    3  501    0 -0.39213055177E+02 -0.52589718154E+02  0.71437279945E+01  0.66154856220E+02  0.47000000000E+01 0. -1.
         -5    1    3    3    0  501 -0.23856576789E+02  0.50077497431E+02 -0.64409532594E+02  0.85132660560E+02  0.47000000000E+01 0. -1.
          5    1    4    4  502    0  0.16774451540E+02  0.65630386281E+01 -0.78220812976E+02  0.80405480430E+02  0.47000000000E+01 0.  1.
         -5    1    4    4    0  502  0.46295180426E+02 -0.40508179048E+01  0.43537608821E+02  0.63853474754E+02  0.47000000000E+01 0.  1.
<mgrwt>
<rscale>  0 0.28087915E+03</rscale>
<asrwt>0</asrwt>
<pdfrwt beam="1">  1       21 0.15661343E-01 0.28087915E+03</pdfrwt>
<pdfrwt beam="2">  1       21 0.29807345E-01 0.28087915E+03</pdfrwt>
<totfact> 0.38399279E+05</totfact>
</mgrwt>
</event>
<event>
 8    1  0.9331162E-006  0.3014239E+03  0.7546771E-02  0.1084531E+00
         21   -1    0    0  504  503  0.00000000000E+00  0.00000000000E+00  0.68330100831E+02  0.68330100831E+02  0.00000000000E+00 0.  1.
         21   -1    0    0  503  504 -0.00000000000E+00 -0.00000000000E+00 -0.33241713625E+03  0.33241713625E+03  0.00000000000E+00 0.  1.
         25    2    1    2    0    0  0.44272179615E+02  0.69984547838E+02 -0.11181873367E+03  0.18704525727E+03  0.12499854496E+03 0.  0.
         25    2    1    2    0    0 -0.44272179615E+02 -0.69984547838E+02 -0.15226830175E+03  0.21370197981E+03  0.12500015054E+03 0.  0.
          5    1    3    3  501    0  0.33895720562E+02  0.10370128145E+03 -0.61242005056E+02  0.12520203205E+03  0.47000000000E+01 0.  1.
         -5    1    3    3    0  501  0.10376459054E+02 -0.33716733609E+02 -0.50576728614E+02  0.61843225216E+02  0.47000000000E+01 0.  1.
          5    1    4    4  502    0 -0.54269810679E+02  0.13789710642E+02 -0.98935769740E+02  0.11377936986E+03  0.47000000000E+01 0.  1.
         -5    1    4    4    0  502  0.99976310632E+01 -0.83774258480E+02 -0.53332532009E+02  0.99922609960E+02  0.47000000000E+01 0.  1.
<mgrwt>
<rscale>  0 0.30142393E+03</rscale>
<asrwt>0</asrwt>
<pdfrwt beam="1">  1       21 0.10512323E-01 0.30142393E+03</pdfrwt>
<pdfrwt beam="2">  1       21 0.51141098E-01 0.30142393E+03</pdfrwt>
<totfact> 0.26283451E+05</totfact>
</mgrwt>
</event>
<event>
 8    1  0.9331162E-006  0.3240539E+03  0.7546771E-02  0.1073799E+00
         21   -1    0    0  504  503  0.00000000000E+00  0.00000000000E+00  0.58701699487E+03  0.58701699487E+03  0.00000000000E+00 0. -1.
         21   -1    0    0  503  504 -0.00000000000E+00 -0.00000000000E+00 -0.44722257477E+02  0.44722257477E+02  0.00000000000E+00 0. -1.
         25    2    1    2    0    0  0.32534440320E+02  0.52740518902E+02  0.43174592256E+03  0.45372904737E+03  0.12500181855E+03 0.  0.
         25    2    1    2    0    0 -0.32534440320E+02 -0.52740518902E+02  0.11054881483E+03  0.17801020498E+03  0.12500616174E+03 0.  0.
          5    1    3    3  501    0 -0.70847858731E+01 -0.23100004800E+02  0.16266292244E+02  0.29504011184E+02  0.47000000000E+01 0. -1.
         -5    1    3    3    0  501  0.39619226193E+02  0.75840523702E+02  0.41547963032E+03  0.42422503619E+03  0.47000000000E+01 0. -1.
          5    1    4    4  502    0 -0.20884416896E+02 -0.93580197181E+02  0.85038690691E+02  0.12824617378E+03  0.47000000000E+01 0.  1.
         -5    1    4    4    0  502 -0.11650023424E+02  0.40839678279E+02  0.25510124142E+02  0.49764031201E+02  0.47000000000E+01 0.  1.
<mgrwt>
<rscale>  0 0.32405385E+03</rscale>
<asrwt>0</asrwt>
<pdfrwt beam="1">  1       21 0.90310301E-01 0.32405385E+03</pdfrwt>
<pdfrwt beam="2">  1       21 0.68803477E-02 0.32405385E+03</pdfrwt>
<totfact> 0.15609759E+05</totfact>
</mgrwt>
</event>
<event>
 8    1  0.9331162E-006  0.2709942E+03  0.7546771E-02  0.1100712E+00
         21   -1    0    0  504  503  0.00000000000E+00  0.00000000000E+00  0.30342112960E+03  0.30342112960E+03  0.00000000000E+00 0. -1.
         21   -1    0    0  503  504 -0.00000000000E+00 -0.00000000000E+00 -0.60508186708E+02  0.60508186708E+02  0.00000000000E+00 0. -1.
         25    2    1    2    0    0  0.21952884551E+02 -0.44591511410E+02  0.99617304242E+02  0.16738755480E+03  0.12499861666E+03 0.  0.
         25    2    1    2    0    0 -0.21952884551E+02  0.44591511410E+02  0.14329563865E+03  0.19654176151E+03  0.12499876771E+03 0.  0.
          5    1    3    3  501    0 -0.16943152542E+02  0.20866529659E+02  0.85573116642E+02  0.89818320903E+02  0.47000000000E+01 0. -1.
         -5    1    3    3    0  501  0.38896037092E+02 -0.65458041070E+02  0.14044187601E+02  0.77569233898E+02  0.47000000000E+01 0. -1.
          5    1    4    4  502    0  0.26311574279E+02  0.56086453949E+02  0.22859210232E+02  0.66201380273E+02  0.47000000000E+01 0.  1.
         -5    1    4    4    0  502 -0.48264458830E+02 -0.11494942538E+02  0.12043642842E+03  0.13034038123E+03  0.47000000000E+01 0.  1.
<mgrwt>
<rscale>  0 0.27099419E+03</rscale>
<asrwt>0</asrwt>
<pdfrwt beam="1">  1       21 0.46680173E-01 0.27099419E+03</pdfrwt>
<pdfrwt beam="2">  1       21 0.93089519E-02 0.27099419E+03</pdfrwt>
<totfact> 0.39767078E+05</totfact>
</mgrwt>
</event>
<event>
 8    1  0.9331162E-006  0.3301728E+03  0.7546771E-02  0.1071060E+00
         21   -1    0    0  504  503  0.00000000000E+00  0.00000000000E+00  0.57805861006E+02  0.57805861006E+02  0.00000000000E+00 0.  1.
         21   -1    0    0  503  504 -0.00000000000E+00 -0.00000000000E+00 -0.47146631157E+03  0.47146631157E+03  0.00000000000E+00 0.  1.
         25    2    1    2    0    0  0.16864817625E+02  0.23472434021E+02 -0.37336867903E+03  0.39479675073E+03  0.12499970669E+03 0.  0.
         25    2    1    2    0    0 -0.16864817625E+02 -0.23472434021E+02 -0.40291771531E+02  0.13447542184E+03  0.12499933998E+03 0.  0.
          5    1    3    3  501    0  0.58313721098E+02  0.46398856000E+02 -0.28267757205E+03  0.29237312401E+03  0.47000000000E+01 0.  1.
         -5    1    3    3    0  501 -0.41448903473E+02 -0.22926421980E+02 -0.90691106987E+02  0.10242362672E+03  0.47000000000E+01 0.  1.
          5    1    4    4  502    0  0.31739912308E+02 -0.57823136494E+02 -0.34236501007E+02  0.74465865660E+02  0.47000000000E+01 0. -1.
         -5    1    4    4    0  502 -0.48604729933E+02  0.34350702474E+02 -0.60552705239E+01  0.60009556184E+02  0.47000000000E+01 0. -1.
<mgrwt>
<rscale>  0 0.33017278E+03</rscale>
<asrwt>0</asrwt>
<pdfrwt beam="1">  1       21 0.88932099E-02 0.33017278E+03</pdfrwt>
<pdfrwt beam="2">  1       21 0.72533275E-01 0.33017278E+03</pdfrwt>
<totfact> 0.16427693E+05</totfact>
</mgrwt>
</event>
<event>
 8    1  0.9331162E-006  0.3438341E+03  0.7546771E-02  0.1065175E+00
         21   -1    0    0  504  503  0.00000000000E+00  0.00000000000E+00  0.45049286418E+02  0.45049286418E+02  0.00000000000E+00 0. -1.
         21   -1    0    0  503  504 -0.00000000000E+00 -0.00000000000E+00 -0.65606985541E+03  0.65606985541E+03  0.00000000000E+00 0. -1.
         25    2    1    2    0    0 -0.19601584773E+02  0.10696618836E+03 -0.39901578660E+03  0.43205133143E+03  0.12501506894E+03 0.  0.
         25    2    1    2    0    0  0.19601584773E+02 -0.10696618836E+03 -0.21200478239E+03  0.26906781039E+03  0.12500188500E+03 0.  0.
          5    1    3    3  501    0  0.47452455779E+02  0.70589401907E+02 -0.16222436976E+03  0.18323055249E+03  0.47000000000E+01 0. -1.
         -5    1    3    3    0  501 -0.67054040552E+02  0.36376786453E+02 -0.23679141684E+03  0.24882077894E+03  0.47000000000E+01 0. -1.
          5    1    4    4  502    0  0.13084522859E+02 -0.85765724904E+02 -0.40131725874E+02  0.95705850022E+02  0.47000000000E+01 0. -1.
         -5    1    4    4    0  502  0.65170619136E+01 -0.21200463455E+02 -0.17187305652E+03  0.17336196037E+03  0.47000000000E+01 0. -1.
<mgrwt>
<rscale>  0 0.34383414E+03</rscale>
<asrwt>0</asrwt>
<pdfrwt beam="1">  1       21 0.69306603E-02 0.34383414E+03</pdfrwt>
<pdfrwt beam="2">  1       21 0.10093381E+00 0.34383414E+03</pdfrwt>
<totfact> 0.11768463E+05</totfact>
</mgrwt>
</event>
<event>
 8    1  0.9331162E-006  0.2651761E+03  0.7546771E-02  0.1104073E+00
         21   -1    0    0  504  503  0.00000000000E+00  0.00000000000E+00  0.21792084765E+03  0.21792084765E+03  0.00000000000E+00 0.  1.
         21   -1    0    0  503  504 -0.00000000000E+00 -0.00000000000E+00 -0.80669598180E+02  0.80669598180E+02  0.00000000000E+00 0.  1.
         25    2    1    2    0    0  0.13458134948E+02 -0.19557800449E+02  0.26716728742E+02  0.13002783669E+03  0.12501930157E+03 0.  0.
         25    2    1    2    0    0 -0.13458134948E+02  0.19557800449E+02  0.11053452073E+03  0.16856260914E+03  0.12502737290E+03 0.  0.
          5    1    3    3  501    0 -0.21289423200E+02  0.35617128514E+02  0.45746275977E+02  0.61940545279E+02  0.47000000000E+01 0. -1.
         -5    1    3    3    0  501  0.34747558148E+02 -0.55174928963E+02 -0.19029547235E+02  0.68087291409E+02  0.47000000000E+01 0. -1.
          5    1    4    4  502    0 -0.36530862042E+02  0.51101524872E+02  0.11273298728E+03  0.12913824432E+03  0.47000000000E+01 0.  1.
         -5    1    4    4    0  502  0.23072727093E+02 -0.31543724423E+02 -0.21984665537E+01  0.39424364816E+02  0.47000000000E+01 0.  1.
<mgrwt>
<rscale>  0 0.26517607E+03</rscale>
<asrwt>0</asrwt>
<pdfrwt beam="1">  1       21 0.33526284E-01 0.26517607E+03</pdfrwt>
<pdfrwt beam="2">  1       21 0.12410707E-01 0.26517607E+03</pdfrwt>
<totfact> 0.46661243E+05</totfact>
</mgrwt>
</event>
<event>
 8    1  0.9331162E-006  0.2708284E+03  0.7546771E-02  0.1100806E+00
         21   -1    0    0  504  503  0.00000000000E+00  0.00000000000E+00  0.47836066989E+02  0.47836066989E+02  0.00000000000E+00 0.  1.
         21   -1    0    0  503  504 -0.00000000000E+00 -0.00000000000E+00 -0.38333004397E+03  0.38333004397E+03  0.00000000000E+00 0.  1.
         25    2    1    2    0    0 -0.46652903338E+01 -0.11295721878E+02 -0.87149170568E+02  0.15286829520E+03  0.12499751790E+03 0.  0.
         25    2    1    2    0    0  0.46652903338E+01  0.11295721878E+02 -0.24834480641E+03  0.27829781576E+03  0.12500069246E+03 0.  0.
          5    1    3    3  501    0 -0.22598633006E+02 -0.63308373760E+02 -0.64198191557E+02  0.93070651663E+02  0.47000000000E+01 0. -1.
         -5    1    3    3    0  501  0.17933342672E+02  0.52012651882E+02 -0.22950979010E+02  0.59797643538E+02  0.47000000000E+01 0. -1.
          5    1    4    4  502    0  0.10454172822E+02 -0.57031923694E+01 -0.25734866764E+03  0.25766692234E+03  0.47000000000E+01 0.  1.
         -5    1    4    4    0  502 -0.57888824878E+01  0.16998914247E+02  0.90038612286E+01  0.20630893414E+02  0.47000000000E+01 0.  1.
<mgrwt>
<rscale>  0 0.27082837E+03</rscale>
<asrwt>0</asrwt>
<pdfrwt beam="1">  1       21 0.73593950E-02 0.27082837E+03</pdfrwt>
<pdfrwt beam="2">  1       21 0.58973853E-01 0.27082837E+03</pdfrwt>
<totfact> 0.36629800E+05</totfact>
</mgrwt>
</event>
<event>
 8    1  0.9331162E-006  0.3250497E+03  0.7546771E-02  0.1073348E+00
         21   -1    0    0  504  503  0.00000000000E+00  0.00000000000E+00  0.13384269500E+04  0.13384269500E+04  0.00000000000E+00 0. -1.
         21   -1    0    0  503  504 -0.00000000000E+00 -0.00000000000E+00 -0.19735353176E+02  0.19735353176E+02  0.00000000000E+00 0. -1.
         25    2    1    2    0    0  0.41192141022E+02  0.46755650222E+02  0.31207451464E+03  0.34190247329E+03  0.12499566092E+03 0.  0.
         25    2    1    2    0    0 -0.41192141022E+02 -0.46755650222E+02  0.10066170822E+04  0.10162598299E+04  0.12499283328E+03 0.  0.
          5    1    3    3  501    0 -0.37085876350E+02  0.36035410928E+02  0.18540538402E+03  0.19253872205E+03  0.47000000000E+01 0.  1.
         -5    1    3    3    0  501  0.78278017372E+02  0.10720239294E+02  0.12666913062E+03  0.14936375124E+03  0.47000000000E+01 0.  1.
          5    1    4    4  502    0 -0.74381193867E+02 -0.48355172918E+02  0.45317801474E+03  0.46180427434E+03  0.47000000000E+01 0. -1.
         -5    1    4    4    0  502  0.33189052845E+02  0.15995226966E+01  0.55343906748E+03  0.55445555559E+03  0.47000000000E+01 0. -1.
<mgrwt>
<rscale>  0 0.32504971E+03</rscale>
<asrwt>0</asrwt>
<pdfrwt beam="1">  1       21 0.20591177E+00 0.32504971E+03</pdfrwt>
<pdfrwt beam="2">  1       21 0.30362092E-02 0.32504971E+03</pdfrwt>
<totfact> 0.71520670E+04</totfact>
</mgrwt>
</event>
<event>
 8    1  0.9331162E-006  0.3735814E+03  0.7546771E-02  0.1053332E+00
         21   -1    0    0  504  503  0.00000000000E+00  0.00000000000E+00  0.56061587147E+03  0.56061587147E+03  0.00000000000E+00 0. -1.
         21   -1    0    0  503  504 -0.00000000000E+00 -0.00000000000E+00 -0.62236504015E+02  0.62236504015E+02  0.00000000000E+00 0. -1.
         25    2    1    2    0    0 -0.70162388803E+02 -0.11447857964E+03  0.19054399318E+03  0.26449990144E+03  0.12500031410E+03 0.  0.
         25    2    1    2    0    0  0.70162388803E+02  0.11447857964E+03  0.30783537428E+03  0.35835247405E+03  0.12500308797E+03 0.  0.
          5    1    3    3  501    0 -0.82058314752E+02 -0.70505796487E+02  0.19000952063E+03  0.21870149128E+03  0.47000000000E+01 0.  1.
         -5    1    3    3    0  501  0.11895925949E+02 -0.43972783150E+02  0.53447255073E+00  0.45798410158E+02  0.47000000000E+01 0.  1.
          5    1    4    4  502    0 -0.25342358794E+02  0.54726707363E+02  0.56027151243E+02  0.82452285138E+02  0.47000000000E+01 0. -1.
         -5    1    4    4    0  502  0.95504747598E+02  0.59751872273E+02  0.25180822304E+03  0.27590018891E+03  0.47000000000E+01 0. -1.
<mgrwt>
<rscale>  0 0.37358143E+03</rscale>
<asrwt>0</asrwt>
<pdfrwt beam="1">  1       21 0.86248592E-01 0.37358143E+03</pdfrwt>
<pdfrwt beam="2">  1       21 0.95748471E-02 0.37358143E+03</pdfrwt>
<totfact> 0.95886075E+04</totfact>
</mgrwt>
</event>
<event>
 8    1  0.9331162E-006  0.4765609E+03  0.7546771E-02  0.1020085E+00
         21   -1    0    0  504  503  0.00000000000E+00  0.00000000000E+00  0.76250809802E+03  0.76250809802E+03  0.00000000000E+00 0. -1.
         21   -1    0    0  503  504 -0.00000000000E+00 -0.00000000000E+00 -0.74461597826E+02  0.74461597826E+02  0.00000000000E+00 0. -1.
         25    2    1    2    0    0 -0.17994961357E+02 -0.42765686991E+02 -0.28125824176E+01  0.13336156293E+03  0.12499869291E+03 0.  0.
         25    2    1    2    0    0  0.17994961357E+02  0.42765686991E+02  0.69085908261E+03  0.70360813292E+03  0.12500164023E+03 0.  0.
          5    1    3    3  501    0 -0.25695225442E+02 -0.70018878956E+02 -0.41270081281E+02  0.85370941366E+02  0.47000000000E+01 0. -1.
         -5    1    3    3    0  501  0.77002640849E+01  0.27253191965E+02  0.38457498864E+02  0.47990621564E+02  0.47000000000E+01 0. -1.
          5    1    4    4  502    0 -0.41512890959E+02  0.48637980905E+02  0.48399624796E+03  0.48822477542E+03  0.47000000000E+01 0.  1.
         -5    1    4    4    0  502  0.59507852316E+02 -0.58722939142E+01  0.20686283466E+03  0.21538335750E+03  0.47000000000E+01 0.  1.
<mgrwt>
<rscale>  0 0.47656089E+03</rscale>
<asrwt>0</asrwt>
<pdfrwt beam="1">  1       21 0.11730893E+00 0.47656089E+03</pdfrwt>
<pdfrwt beam="2">  1       21 0.11455631E-01 0.47656089E+03</pdfrwt>
<totfact> 0.32094399E+04</totfact>
</mgrwt>
</event>
<event>
 8    1  0.9331162E-006  0.3128888E+03  0.7546771E-02  0.1078969E+00
         21   -1    0    0  504  503  0.00000000000E+00  0.00000000000E+00  0.10900860154E+04  0.10900860154E+04  0.00000000000E+00 0. -1.
         21   -1    0    0  503  504 -0.00000000000E+00 -0.00000000000E+00 -0.22452215264E+02  0.22452215264E+02  0.00000000000E+00 0. -1.
         25    2    1    2    0    0  0.79411363741E+02 -0.19205964406E+02  0.36797528955E+03  0.39712127816E+03  0.12499784832E+03 0.  0.
         25    2    1    2    0    0 -0.79411363741E+02  0.19205964406E+02  0.69965851053E+03  0.71541695246E+03  0.12499740293E+03 0.  0.
          5    1    3    3  501    0  0.29019601094E+02  0.15893174961E+02  0.31234190663E+03  0.31412463592E+03  0.47000000000E+01 0. -1.
         -5    1    3    3    0  501  0.50391762647E+02 -0.35099139367E+02  0.55633382930E+02  0.82996642240E+02  0.47000000000E+01 0. -1.
          5    1    4    4  502    0 -0.92068860119E+02  0.47356149102E+02  0.63737743285E+03  0.64574868313E+03  0.47000000000E+01 0.  1.
         -5    1    4    4    0  502  0.12657496378E+02 -0.28150184695E+02  0.62281077683E+02  0.69668269322E+02  0.47000000000E+01 0.  1.
<mgrwt>
<rscale>  0 0.31288877E+03</rscale>
<asrwt>0</asrwt>
<pdfrwt beam="1">  1       21 0.16770550E+00 0.31288877E+03</pdfrwt>
<pdfrwt beam="2">  1       21 0.34541878E-02 0.31288877E+03</pdfrwt>
<totfact> 0.10547457E+05</totfact>
</mgrwt>
</event>
<event>
 8    1  0.9331162E-006  0.2822260E+03  0.7546771E-02  0.1094479E+00
         21   -1    0    0  504  503  0.00000000000E+00  0.00000000000E+00  0.14553211524E+03  0.14553211524E+03  0.00000000000E+00 0. -1.
         21   -1    0    0  503  504 -0.00000000000E+00 -0.00000000000E+00 -0.13682803951E+03  0.13682803951E+03  0.00000000000E+00 0. -1.
         25    2    1    2    0    0  0.48312857018E+01  0.11644389965E+02 -0.59944183777E+02  0.13920284078E+03  0.12500077029E+03 0.  0.
         25    2    1    2    0    0 -0.48312857018E+01 -0.11644389965E+02  0.68648259502E+02  0.14315731397E+03  0.12498999908E+03 0.  0.
          5    1    3    3  501    0  0.24685404888E+02  0.37859169954E+02 -0.85811890842E+02  0.97100239824E+02  0.47000000000E+01 0. -1.
         -5    1    3    3    0  501 -0.19854119186E+02 -0.26214779989E+02  0.25867707064E+02  0.42102600956E+02  0.47000000000E+01 0. -1.
          5    1    4    4  502    0  0.42730069353E+02 -0.31570767884E+02  0.73872011725E+02  0.91113864631E+02  0.47000000000E+01 0. -1.
         -5    1    4    4    0  502 -0.47561355055E+02  0.19926377919E+02 -0.52237522233E+01  0.52043449337E+02  0.47000000000E+01 0. -1.
<mgrwt>
<rscale>  0 0.28222597E+03</rscale>
<asrwt>0</asrwt>
<pdfrwt beam="1">  1       21 0.22389556E-01 0.28222597E+03</pdfrwt>
<pdfrwt beam="2">  1       21 0.21050468E-01 0.28222597E+03</pdfrwt>
<totfact> 0.38432121E+05</totfact>
</mgrwt>
</event>
<event>
 8    1  0.9331162E-006  0.2704641E+03  0.7546771E-02  0.1101014E+00
         21   -1    0    0  504  503  0.00000000000E+00  0.00000000000E+00  0.39159722097E+03  0.39159722097E+03  0.00000000000E+00 0.  1.
         21   -1    0    0  503  504 -0.00000000000E+00 -0.00000000000E+00 -0.46700285578E+02  0.46700285578E+02  0.00000000000E+00 0.  1.
         25    2    1    2    0    0  0.10375737105E+02 -0.40247454209E+02  0.12286879722E+03  0.18013288871E+03  0.12499441096E+03 0.  0.
         25    2    1    2    0    0 -0.10375737105E+02  0.40247454209E+02  0.22202813817E+03  0.25816461785E+03  0.12499984910E+03 0.  0.
          5    1    3    3  501    0  0.20680899125E+02 -0.11115912028E+02  0.14165580322E+03  0.14366530435E+03  0.47000000000E+01 0.  1.
         -5    1    3    3    0  501 -0.10305162020E+02 -0.29131542180E+02 -0.18787005999E+02  0.36467584352E+02  0.47000000000E+01 0.  1.
          5    1    4    4  502    0  0.49309489916E+02  0.16314684829E+02  0.42068660009E+02  0.67003409553E+02  0.47000000000E+01 0.  1.
         -5    1    4    4    0  502 -0.59685227021E+02  0.23932769380E+02  0.17995947817E+03  0.19116120829E+03  0.47000000000E+01 0.  1.
<mgrwt>
<rscale>  0 0.27046406E+03</rscale>
<asrwt>0</asrwt>
<pdfrwt beam="1">  1       21 0.60245724E-01 0.27046406E+03</pdfrwt>
<pdfrwt beam="2">  1       21 0.71846596E-02 0.27046406E+03</pdfrwt>
<totfact> 0.36477019E+05</totfact>
</mgrwt>
</event>
<event>
 8    1  0.9331162E-006  0.2623550E+03  0.7546771E-02  0.1105737E+00
         21   -1    0    0  504  503  0.00000000000E+00  0.00000000000E+00  0.44899899765E+02  0.44899899765E+02  0.00000000000E+00 0. -1.
         21   -1    0    0  503  504 -0.00000000000E+00 -0.00000000000E+00 -0.38324206951E+03  0.38324206951E+03  0.00000000000E+00 0. -1.
         25    2    1    2    0    0  0.21961342966E+02 -0.31354205506E+02 -0.15153773267E+03  0.20013553738E+03  0.12500064845E+03 0.  0.
         25    2    1    2    0    0 -0.21961342966E+02  0.31354205506E+02 -0.18680443708E+03  0.22800643190E+03  0.12500259392E+03 0.  0.
          5    1    3    3  501    0  0.32341459475E+02  0.19317649784E+02  0.20350579375E+01  0.38018062220E+02  0.47000000000E+01 0.  1.
         -5    1    3    3    0  501 -0.10380116510E+02 -0.50671855291E+02 -0.15357279061E+03  0.16211747516E+03  0.47000000000E+01 0.  1.
          5    1    4    4  502    0 -0.72349345984E+02  0.72844395376E+01 -0.86424171274E+02  0.11304299317E+03  0.47000000000E+01 0.  1.
         -5    1    4    4    0  502  0.50388003019E+02  0.24069765969E+02 -0.10038026581E+03  0.11496343873E+03  0.47000000000E+01 0.  1.
<mgrwt>
<rscale>  0 0.26235495E+03</rscale>
<asrwt>0</asrwt>
<pdfrwt beam="1">  1       21 0.69076769E-02 0.26235495E+03</pdfrwt>
<pdfrwt beam="2">  1       21 0.58960318E-01 0.26235495E+03</pdfrwt>
<totfact> 0.40991716E+05</totfact>
</mgrwt>
</event>
<event>
 8    1  0.9331162E-006  0.4616965E+03  0.7546771E-02  0.1024290E+00
         21   -1    0    0  504  503  0.00000000000E+00  0.00000000000E+00  0.12772619122E+04  0.12772619122E+04  0.00000000000E+00 0.  1.
         21   -1    0    0  503  504 -0.00000000000E+00 -0.00000000000E+00 -0.41722774860E+02  0.41722774860E+02  0.00000000000E+00 0.  1.
         25    2    1    2    0    0 -0.14464637941E+03 -0.96597723232E+02  0.86373891138E+03  0.88990007373E+03  0.12499415578E+03 0.  0.
         25    2    1    2    0    0  0.14464637941E+03  0.96597723232E+02  0.37180022600E+03  0.42908461337E+03  0.12499800866E+03 0.  0.
          5    1    3    3  501    0 -0.96640063899E+02 -0.12466321038E+03  0.60823427897E+03  0.62837190110E+03  0.47000000000E+01 0.  1.
         -5    1    3    3    0  501 -0.48006315513E+02  0.28065487147E+02  0.25550463241E+03  0.26152817264E+03  0.47000000000E+01 0.  1.
          5    1    4    4  502    0 -0.12393263775E+02  0.45823928239E+02  0.10498466234E+03  0.11531389645E+03  0.47000000000E+01 0.  1.
         -5    1    4    4    0  502  0.15703964319E+03  0.50773794993E+02  0.26681556365E+03  0.31377071692E+03  0.47000000000E+01 0.  1.
<mgrwt>
<rscale>  0 0.46169649E+03</rscale>
<asrwt>0</asrwt>
<pdfrwt beam="1">  1       21 0.19650180E+00 0.46169649E+03</pdfrwt>
<pdfrwt beam="2">  1       21 0.64188894E-02 0.46169649E+03</pdfrwt>
<totfact> 0.21883237E+04</totfact>
</mgrwt>
</event>
<event>
 8    1  0.9331162E-006  0.2599154E+03  0.7546771E-02  0.1107194E+00
         21   -1    0    0  504  503  0.00000000000E+00  0.00000000000E+00  0.37337259674E+03  0.37337259674E+03  0.00000000000E+00 0.  1.
         21   -1    0    0  503  504 -0.00000000000E+00 -0.00000000000E+00 -0.45233643067E+02  0.45233643067E+02  0.00000000000E+00 0.  1.
         25    2    1    2    0    0 -0.18072797974E+02  0.38919722708E+01  0.21297422625E+03  0.24763924227E+03  0.12500159914E+03 0.  0.
         25    2    1    2    0    0  0.18072797974E+02 -0.38919722708E+01  0.11516472742E+03  0.17096699754E+03  0.12500010533E+03 0.  0.
          5    1    3    3  501    0  0.23884004014E+02  0.27796321510E+02  0.90737207425E+01  0.38046071352E+02  0.47000000000E+01 0.  1.
         -5    1    3    3    0  501 -0.41956801988E+02 -0.23904349239E+02  0.20390050551E+03  0.20959317091E+03  0.47000000000E+01 0.  1.
          5    1    4    4  502    0 -0.24788303750E+02 -0.53505601193E+02  0.67613936265E+02  0.89838987857E+02  0.47000000000E+01 0.  1.
         -5    1    4    4    0  502  0.42861101725E+02  0.49613628923E+02  0.47550791154E+02  0.81128009684E+02  0.47000000000E+01 0.  1.
<mgrwt>
<rscale>  0 0.25991539E+03</rscale>
<asrwt>0</asrwt>
<pdfrwt beam="1">  1       21 0.57441936E-01 0.25991539E+03</pdfrwt>
<pdfrwt beam="2">  1       21 0.69590223E-02 0.25991539E+03</pdfrwt>
<totfact> 0.42826328E+05</totfact>
</mgrwt>
</event>
<event>
 8    1  0.9331162E-006  0.3313899E+03  0.7546771E-02  0.1070524E+00
         21   -1    0    0  504  503  0.00000000000E+00  0.00000000000E+00  0.12612797806E+03  0.12612797806E+03  0.00000000000E+00 0. -1.
         21   -1    0    0  503  504 -0.00000000000E+00 -0.00000000000E+00 -0.21767428062E+03  0.21767428062E+03  0.00000000000E+00 0. -1.
         25    2    1    2    0    0 -0.69571617428E+02  0.68156809817E+01 -0.13222547985E+03  0.19491965967E+03  0.12499373083E+03 0.  0.
         25    2    1    2    0    0  0.69571617428E+02 -0.68156809817E+01  0.40679177294E+02  0.14888259901E+03  0.12499827745E+03 0.  0.
          5    1    3    3  501    0 -0.81283743273E+02  0.47195989752E+02 -0.11655234147E+03  0.14980336001E+03  0.47000000000E+01 0.  1.
         -5    1    3    3    0  501  0.11712125844E+02 -0.40380308771E+02 -0.15673138383E+02  0.45116299660E+02  0.47000000000E+01 0.  1.
          5    1    4    4  502    0  0.34051656812E+02 -0.79991159022E+01 -0.44306657220E+02  0.56645132720E+02  0.47000000000E+01 0. -1.
         -5    1    4    4    0  502  0.35519960617E+02  0.11834349205E+01  0.84985834514E+02  0.92237466294E+02  0.47000000000E+01 0. -1.
<mgrwt>
<rscale>  0 0.33138990E+03</rscale>
<asrwt>0</asrwt>
<pdfrwt beam="1">  1       21 0.19404304E-01 0.33138990E+03</pdfrwt>
<pdfrwt beam="2">  1       21 0.33488351E-01 0.33138990E+03</pdfrwt>
<totfact> 0.20247124E+05</totfact>
</mgrwt>
</event>
<event>
 8    1  0.9331162E-006  0.5155808E+03  0.7546771E-02  0.1009790E+00
         21   -1    0    0  504  503  0.00000000000E+00  0.00000000000E+00  0.14225264407E+03  0.14225264407E+03  0.00000000000E+00 0. -1.
         21   -1    0    0  503  504 -0.00000000000E+00 -0.00000000000E+00 -0.46716810862E+03  0.46716810862E+03  0.00000000000E+00 0. -1.
         25    2    1    2    0    0  0.16422694628E+03  0.20143785035E+02  0.18565035415E+02  0.20819900159E+03  0.12500360700E+03 0.  0.
         25    2    1    2    0    0 -0.16422694628E+03 -0.20143785035E+02 -0.34348049997E+03  0.40122175111E+03  0.12499511088E+03 0.  0.
          5    1    3    3  501    0  0.27702174778E+02 -0.25706448641E+02  0.47853314856E+02  0.61157679255E+02  0.47000000000E+01 0.  1.
         -5    1    3    3    0  501  0.13652477150E+03  0.45850233676E+02 -0.29288279440E+02  0.14704132233E+03  0.47000000000E+01 0.  1.
          5    1    4    4  502    0 -0.50866914086E+02 -0.28592687083E+02 -0.24130337827E+03  0.24830303073E+03  0.47000000000E+01 0. -1.
         -5    1    4    4    0  502 -0.11336003219E+03  0.84489020482E+01 -0.10217712170E+03  0.15291872038E+03  0.47000000000E+01 0. -1.
<mgrwt>
<rscale>  0 0.51558083E+03</rscale>
<asrwt>0</asrwt>
<pdfrwt beam="1">  1       21 0.21885022E-01 0.51558083E+03</pdfrwt>
<pdfrwt beam="2">  1       21 0.71872017E-01 0.51558083E+03</pdfrwt>
<totfact> 0.30604652E+04</totfact>
</mgrwt>
</event>
<event>
 8    1  0.9331162E-006  0.3058133E+03  0.7546771E-02  0.1082370E+00
         21   -1    0    0  504  503  0.00000000000E+00  0.00000000000E+00  0.84532214429E+03  0.84532214429E+03  0.00000000000E+00 0. -1.
         21   -1    0    0  503  504 -0.00000000000E+00 -0.00000000000E+00 -0.27658615816E+02  0.27658615816E+02  0.00000000000E+00 0. -1.
         25    2    1    2    0    0  0.65091201494E+02 -0.26077591208E+02  0.56087051024E+03  0.57889513211E+03  0.12500775754E+03 0.  0.
         25    2    1    2    0    0 -0.65091201494E+02  0.26077591208E+02  0.25679301823E+03  0.29408562800E+03  0.12500718822E+03 0.  0.
          5    1    3    3  501    0  0.82488094583E+02  0.33297102161E+01  0.20055408950E+03  0.21693179927E+03  0.47000000000E+01 0. -1.
         -5    1    3    3    0  501 -0.17396893089E+02 -0.29407301424E+02  0.36031642074E+03  0.36196333284E+03  0.47000000000E+01 0. -1.
          5    1    4    4  502    0  0.67769751798E+01 -0.36156949132E+02  0.13214368138E+03  0.13724902510E+03  0.47000000000E+01 0.  1.
         -5    1    4    4    0  502 -0.71868176674E+02  0.62234540340E+02  0.12464933685E+03  0.15683660290E+03  0.47000000000E+01 0.  1.
<mgrwt>
<rscale>  0 0.30581328E+03</rscale>
<asrwt>0</asrwt>
<pdfrwt beam="1">  1       21 0.13004954E+00 0.30581328E+03</pdfrwt>
<pdfrwt beam="2">  1       21 0.42551723E-02 0.30581328E+03</pdfrwt>
<totfact> 0.14661500E+05</totfact>
</mgrwt>
</event>
<event>
 8    1  0.9331162E-006  0.2627886E+03  0.7546771E-02  0.1105479E+00
         21   -1    0    0  504  503  0.00000000000E+00  0.00000000000E+00  0.25131125234E+04  0.25131125234E+04  0.00000000000E+00 0.  1.
         21   -1    0    0  503  504 -0.00000000000E+00 -0.00000000000E+00 -0.68697512096E+01  0.68697512096E+01  0.00000000000E+00 0.  1.
         25    2    1    2    0    0 -0.17704223640E+02  0.23045265703E+02  0.98276727642E+03  0.99111131966E+03  0.12500241813E+03 0.  0.
         25    2    1    2    0    0  0.17704223640E+02 -0.23045265703E+02  0.15234754958E+04  0.15288709550E+04  0.12499714752E+03 0.  0.
          5    1    3    3  501    0 -0.13847137728E+02  0.74787775953E+02  0.59478093354E+03  0.59964272993E+03  0.47000000000E+01 0.  1.
         -5    1    3    3    0  501 -0.38570859123E+01 -0.51742510251E+02  0.38798634288E+03  0.39146858973E+03  0.47000000000E+01 0.  1.
          5    1    4    4  502    0 -0.20454628963E+02  0.19750783198E+01  0.45094550985E+02  0.49778522567E+02  0.47000000000E+01 0. -1.
         -5    1    4    4    0  502  0.38158852603E+02 -0.25020344022E+02  0.14783809448E+04  0.14790924324E+04  0.47000000000E+01 0. -1.
<mgrwt>
<rscale>  0 0.26278857E+03</rscale>
<asrwt>0</asrwt>
<pdfrwt beam="1">  1       21 0.38663196E+00 0.26278857E+03</pdfrwt>
<pdfrwt beam="2">  1       21 0.10568868E-02 0.26278857E+03</pdfrwt>
<totfact> 0.33820980E+04</totfact>
</mgrwt>
</event>
<event>
 8    1  0.9331162E-006  0.3224598E+03  0.7546771E-02  0.1074523E+00
         21   -1    0    0  504  503  0.00000000000E+00  0.00000000000E+00  0.21398741239E+02  0.21398741239E+02  0.00000000000E+00 0.  1.
         21   -1    0    0  503  504 -0.00000000000E+00 -0.00000000000E+00 -0.12147948199E+04  0.12147948199E+04  0.00000000000E+00 0.  1.
         25    2    1    2    0    0  0.37105275175E+02 -0.13248425192E+02 -0.23670670342E+03  0.27056928826E+03  0.12500141635E+03 0.  0.
         25    2    1    2    0    0 -0.37105275175E+02  0.13248425192E+02 -0.95668937526E+03  0.96562427290E+03  0.12499341365E+03 0.  0.
          5    1    3    3  501    0  0.66393960350E+02 -0.46066151523E+02 -0.18847873471E+03  0.20512574613E+03  0.47000000000E+01 0.  1.
         -5    1    3    3    0  501 -0.29288685175E+02  0.32817726331E+02 -0.48227968705E+02  0.65443542128E+02  0.47000000000E+01 0.  1.
          5    1    4    4  502    0  0.12352068406E+02  0.18000469191E+02 -0.29039798877E+02  0.36633187192E+02  0.47000000000E+01 0.  1.
         -5    1    4    4    0  502 -0.49457343580E+02 -0.47520439986E+01 -0.92764957638E+03  0.92899108570E+03  0.47000000000E+01 0.  1.
<mgrwt>
<rscale>  0 0.32245980E+03</rscale>
<asrwt>0</asrwt>
<pdfrwt beam="1">  1       21 0.32921147E-02 0.32245980E+03</pdfrwt>
<pdfrwt beam="2">  1       21 0.18689147E+00 0.32245980E+03</pdfrwt>
<totfact> 0.83599649E+04</totfact>
</mgrwt>
</event>
<event>
 8    1  0.9331162E-006  0.3768842E+03  0.7546771E-02  0.1052091E+00
         21   -1    0    0  504  503  0.00000000000E+00  0.00000000000E+00  0.12042639724E+03  0.12042639724E+03  0.00000000000E+00 0. -1.
         21   -1    0    0  503  504 -0.00000000000E+00 -0.00000000000E+00 -0.29487237123E+03  0.29487237123E+03  0.00000000000E+00 0. -1.
         25    2    1    2    0    0 -0.29873864812E+02  0.11446010008E+03 -0.26565111246E+01  0.17212803264E+03  0.12500976066E+03 0.  0.
         25    2    1    2    0    0  0.29873864812E+02 -0.11446010008E+03 -0.17178946286E+03  0.24317073584E+03  0.12500729942E+03 0.  0.
          5    1    3    3  501    0 -0.44204629833E+02 -0.83275635942E+01  0.13899384731E+02  0.47314696554E+02  0.47000000000E+01 0. -1.
         -5    1    3    3    0  501  0.14330765021E+02  0.12278766367E+03 -0.16555895855E+02  0.12481333608E+03  0.47000000000E+01 0. -1.
          5    1    4    4  502    0  0.14494845701E+02 -0.54667957951E+01 -0.12060779995E+03  0.12168943182E+03  0.47000000000E+01 0. -1.
         -5    1    4    4    0  502  0.15379019111E+02 -0.10899330428E+03 -0.51181662912E+02  0.12148130402E+03  0.47000000000E+01 0. -1.
<mgrwt>
<rscale>  0 0.37688416E+03</rscale>
<asrwt>0</asrwt>
<pdfrwt beam="1">  1       21 0.18527138E-01 0.37688416E+03</pdfrwt>
<pdfrwt beam="2">  1       21 0.45364980E-01 0.37688416E+03</pdfrwt>
<totfact> 0.11771989E+05</totfact>
</mgrwt>
</event>
<event>
 8    1  0.9331162E-006  0.6074029E+03  0.7546771E-02  0.9890165E-01
         21   -1    0    0  504  503  0.00000000000E+00  0.00000000000E+00  0.66522972877E+03  0.66522972877E+03  0.00000000000E+00 0. -1.
         21   -1    0    0  503  504 -0.00000000000E+00 -0.00000000000E+00 -0.13865072086E+03  0.13865072086E+03  0.00000000000E+00 0. -1.
         25    2    1    2    0    0  0.26082941828E+03 -0.18576568033E+02  0.38337395540E+03  0.48060171228E+03  0.12500136739E+03 0.  0.
         25    2    1    2    0    0 -0.26082941828E+03  0.18576568033E+02  0.14320505251E+03  0.32327873734E+03  0.12499752250E+03 0.  0.
          5    1    3    3  501    0  0.15025798753E+03 -0.67157730509E+02  0.17936909985E+03  0.24348097988E+03  0.47000000000E+01 0. -1.
         -5    1    3    3    0  501  0.11057143075E+03  0.48581162475E+02  0.20400485555E+03  0.23712073240E+03  0.47000000000E+01 0. -1.
          5    1    4    4  502    0 -0.20727025068E+03 -0.27123643090E+02  0.67331096623E+02  0.21966386914E+03  0.47000000000E+01 0. -1.
         -5    1    4    4    0  502 -0.53559167599E+02  0.45700211124E+02  0.75873955887E+02  0.10361486820E+03  0.47000000000E+01 0. -1.
<mgrwt>
<rscale>  0 0.60740294E+03</rscale>
<asrwt>0</asrwt>
<pdfrwt beam="1">  1       21 0.10234303E+00 0.60740294E+03</pdfrwt>
<pdfrwt beam="2">  1       21 0.21330880E-01 0.60740294E+03</pdfrwt>
<totfact> 0.13697919E+04</totfact>
</mgrwt>
</event>
<event>
 8    1  0.9331162E-006  0.3294804E+03  0.7546771E-02  0.1071367E+00
         21   -1    0    0  504  503  0.00000000000E+00  0.00000000000E+00  0.13761187199E+04  0.13761187199E+04  0.00000000000E+00 0.  1.
         21   -1    0    0  503  504 -0.00000000000E+00 -0.00000000000E+00 -0.19721649316E+02  0.19721649316E+02  0.00000000000E+00 0.  1.
         25    2    1    2    0    0 -0.41235695392E+01 -0.49152008145E+02  0.27449087211E+03  0.30561899344E+03  0.12499922619E+03 0.  0.
         25    2    1    2    0    0  0.41235695392E+01  0.49152008145E+02  0.10819061984E+04  0.10902213758E+04  0.12501480782E+03 0.  0.
          5    1    3    3  501    0 -0.48219060372E+02  0.12771708298E+02  0.60939383051E+02  0.78891651794E+02  0.47000000000E+01 0. -1.
         -5    1    3    3    0  501  0.44095490833E+02 -0.61923716444E+02  0.21355148906E+03  0.22672734164E+03  0.47000000000E+01 0. -1.
          5    1    4    4  502    0 -0.36839428171E+02 -0.16427597628E+02  0.66099489457E+03  0.66224115704E+03  0.47000000000E+01 0.  1.
         -5    1    4    4    0  502  0.40962997710E+02  0.65579605774E+02  0.42091130388E+03  0.42798021871E+03  0.47000000000E+01 0.  1.
<mgrwt>
<rscale>  0 0.32948038E+03</rscale>
<asrwt>0</asrwt>
<pdfrwt beam="1">  1       21 0.21171050E+00 0.32948038E+03</pdfrwt>
<pdfrwt beam="2">  1       21 0.30341010E-02 0.32948038E+03</pdfrwt>
<totfact> 0.65586811E+04</totfact>
</mgrwt>
</event>
<event>
 8    1  0.9331162E-006  0.6013060E+03  0.7546771E-02  0.9902700E-01
         21   -1    0    0  504  503  0.00000000000E+00  0.00000000000E+00  0.10749012643E+03  0.10749012643E+03  0.00000000000E+00 0.  1.
         21   -1    0    0  503  504 -0.00000000000E+00 -0.00000000000E+00 -0.84093521438E+03  0.84093521438E+03  0.00000000000E+00 0.  1.
         25    2    1    2    0    0 -0.69440954214E+02 -0.85868598675E+02  0.27819730222E+02  0.16910347200E+03  0.12500633781E+03 0.  0.
         25    2    1    2    0    0  0.69440954214E+02  0.85868598675E+02 -0.76126481817E+03  0.77932186882E+03  0.12499195762E+03 0.  0.
          5    1    3    3  501    0 -0.30657919122E+02 -0.15462525908E+02  0.70070736593E+02  0.78172858711E+02  0.47000000000E+01 0. -1.
         -5    1    3    3    0  501 -0.38783035092E+02 -0.70406072767E+02 -0.42251006371E+02  0.90930613287E+02  0.47000000000E+01 0. -1.
          5    1    4    4  502    0  0.56258022889E+02  0.11353203029E+03 -0.48412458285E+03  0.50045298357E+03  0.47000000000E+01 0.  1.
         -5    1    4    4    0  502  0.13182931325E+02 -0.27663431614E+02 -0.27714023532E+03  0.27886888525E+03  0.47000000000E+01 0.  1.
<mgrwt>
<rscale>  0 0.60130602E+03</rscale>
<asrwt>0</asrwt>
<pdfrwt beam="1">  1       21 0.16536943E-01 0.60130602E+03</pdfrwt>
<pdfrwt beam="2">  1       21 0.12937464E+00 0.60130602E+03</pdfrwt>
<totfact> 0.12292998E+04</totfact>
</mgrwt>
</event>
<event>
 8    1  0.9331162E-006  0.3724945E+03  0.7546771E-02  0.1053743E+00
         21   -1    0    0  504  503  0.00000000000E+00  0.00000000000E+00  0.39905861788E+02  0.39905861788E+02  0.00000000000E+00 0.  1.
         21   -1    0    0  503  504 -0.00000000000E+00 -0.00000000000E+00 -0.86924682867E+03  0.86924682867E+03  0.00000000000E+00 0.  1.
         25    2    1    2    0    0 -0.13393364371E+02  0.13586334091E+03 -0.46495833764E+03  0.50045005140E+03  0.12500307432E+03 0.  0.
         25    2    1    2    0    0  0.13393364371E+02 -0.13586334091E+03 -0.36438262924E+03  0.40870263906E+03  0.12499966827E+03 0.  0.
          5    1    3    3  501    0 -0.48033070218E+02  0.80774374856E+01 -0.17400665549E+03  0.18075626403E+03  0.47000000000E+01 0.  1.
         -5    1    3    3    0  501  0.34639705848E+02  0.12778590343E+03 -0.29095168215E+03  0.31969378737E+03  0.47000000000E+01 0.  1.
          5    1    4    4  502    0 -0.52432330896E+02 -0.40481255988E+02 -0.16766727917E+03  0.18033936873E+03  0.47000000000E+01 0. -1.
         -5    1    4    4    0  502  0.65825695266E+02 -0.95382084925E+02 -0.19671535007E+03  0.22836327033E+03  0.47000000000E+01 0. -1.
<mgrwt>
<rscale>  0 0.37249453E+03</rscale>
<asrwt>0</asrwt>
<pdfrwt beam="1">  1       21 0.61393636E-02 0.37249453E+03</pdfrwt>
<pdfrwt beam="2">  1       21 0.13373028E+00 0.37249453E+03</pdfrwt>
<totfact> 0.71335283E+04</totfact>
</mgrwt>
</event>
<event>
 8    1  0.9331162E-006  0.2684955E+03  0.7546771E-02  0.1102144E+00
         21   -1    0    0  504  503  0.00000000000E+00  0.00000000000E+00  0.36232524709E+02  0.36232524709E+02  0.00000000000E+00 0.  1.
         21   -1    0    0  503  504 -0.00000000000E+00 -0.00000000000E+00 -0.49741099958E+03  0.49741099958E+03  0.00000000000E+00 0.  1.
         25    2    1    2    0    0  0.36590656882E+02  0.72335575851E+01 -0.29359600005E+03  0.32127115901E+03  0.12500138334E+03 0.  0.
         25    2    1    2    0    0 -0.36590656882E+02 -0.72335575851E+01 -0.16758247482E+03  0.21237236529E+03  0.12500774033E+03 0.  0.
          5    1    3    3  501    0  0.66296946594E+02 -0.34676630447E+02 -0.13398459117E+03  0.15353082589E+03  0.47000000000E+01 0.  1.
         -5    1    3    3    0  501 -0.29706289712E+02  0.41910188032E+02 -0.15961140888E+03  0.16774033312E+03  0.47000000000E+01 0.  1.
          5    1    4    4  502    0 -0.95864129207E+01 -0.55670282506E+02 -0.13834014495E+03  0.14950306141E+03  0.47000000000E+01 0.  1.
         -5    1    4    4    0  502 -0.27004243961E+02  0.48436724921E+02 -0.29242329868E+02  0.62869303870E+02  0.47000000000E+01 0.  1.
<mgrwt>
<rscale>  0 0.26849548E+03</rscale>
<asrwt>0</asrwt>
<pdfrwt beam="1">  1       21 0.55742350E-02 0.26849548E+03</pdfrwt>
<pdfrwt beam="2">  1       21 0.76524763E-01 0.26849548E+03</pdfrwt>
<totfact> 0.33344057E+05</totfact>
</mgrwt>
</event>
<event>
 8    1  0.9331162E-006  0.3417038E+03  0.7546771E-02  0.1066073E+00
         21   -1    0    0  504  503  0.00000000000E+00  0.00000000000E+00  0.17292516838E+03  0.17292516838E+03  0.00000000000E+00 0. -1.
         21   -1    0    0  503  504 -0.00000000000E+00 -0.00000000000E+00 -0.16880347816E+03  0.16880347816E+03  0.00000000000E+00 0. -1.
         25    2    1    2    0    0  0.72689015779E+02  0.39626856136E+02 -0.79869444413E+02  0.16987519918E+03  0.12499789759E+03 0.  0.
         25    2    1    2    0    0 -0.72689015779E+02 -0.39626856136E+02  0.83991134632E+02  0.17185344736E+03  0.12500046372E+03 0.  0.
          5    1    3    3  501    0 -0.66250601116E+01  0.13681941251E+02  0.28726360282E+02  0.32838707541E+02  0.47000000000E+01 0.  1.
         -5    1    3    3    0  501  0.79314075891E+02  0.25944914885E+02 -0.10859580469E+03  0.13703649164E+03  0.47000000000E+01 0.  1.
          5    1    4    4  502    0 -0.56670112246E+02 -0.35713998732E+02 -0.17120820033E+02  0.69297935077E+02  0.47000000000E+01 0. -1.
         -5    1    4    4    0  502 -0.16018903533E+02 -0.39128574048E+01  0.10111195467E+03  0.10255551228E+03  0.47000000000E+01 0. -1.
<mgrwt>
<rscale>  0 0.34170379E+03</rscale>
<asrwt>0</asrwt>
<pdfrwt beam="1">  1       21 0.26603872E-01 0.34170379E+03</pdfrwt>
<pdfrwt beam="2">  1       21 0.25969766E-01 0.34170379E+03</pdfrwt>
<totfact> 0.18219586E+05</totfact>
</mgrwt>
</event>
<event>
 8    1  0.9331162E-006  0.4433298E+03  0.7546771E-02  0.1029730E+00
         21   -1    0    0  504  503  0.00000000000E+00  0.00000000000E+00  0.56658381437E+02  0.56658381437E+02  0.00000000000E+00 0. -1.
         21   -1    0    0  503  504 -0.00000000000E+00 -0.00000000000E+00 -0.86722074095E+03  0.86722074095E+03  0.00000000000E+00 0. -1.
         25    2    1    2    0    0 -0.12319478619E+03 -0.55911209860E+01 -0.12333874170E+03  0.21457701682E+03  0.12499053950E+03 0.  0.
         25    2    1    2    0    0  0.12319478619E+03  0.55911209860E+01 -0.68722361781E+03  0.70930210557E+03  0.12499984044E+03 0.  0.
          5    1    3    3  501    0 -0.42911349250E+02  0.58425238885E+02 -0.46648616154E+02  0.86331198430E+02  0.47000000000E+01 0.  1.
         -5    1    3    3    0  501 -0.80283436938E+02 -0.64016359871E+02 -0.76690125547E+02  0.12824581839E+03  0.47000000000E+01 0.  1.
          5    1    4    4  502    0  0.53423572656E+02  0.34793846744E+02 -0.11081003439E+03  0.12792827525E+03  0.47000000000E+01 0. -1.
         -5    1    4    4    0  502  0.69771213532E+02 -0.29202725758E+02 -0.57641358342E+03  0.58137383032E+03  0.47000000000E+01 0. -1.
<mgrwt>
<rscale>  0 0.44332978E+03</rscale>
<asrwt>0</asrwt>
<pdfrwt beam="1">  1       21 0.87166749E-02 0.44332978E+03</pdfrwt>
<pdfrwt beam="2">  1       21 0.13341856E+00 0.44332978E+03</pdfrwt>
<totfact> 0.38008452E+04</totfact>
</mgrwt>
</event>
<event>
 8    1  0.9331162E-006  0.2854573E+03  0.7546771E-02  0.1092745E+00
         21   -1    0    0  504  503  0.00000000000E+00  0.00000000000E+00  0.83718632349E+02  0.83718632349E+02  0.00000000000E+00 0.  1.
         21   -1    0    0  503  504 -0.00000000000E+00 -0.00000000000E+00 -0.24333260654E+03  0.24333260654E+03  0.00000000000E+00 0.  1.
         25    2    1    2    0    0  0.45787963951E+02  0.40296397111E+02 -0.11668080603E+03  0.18149036323E+03  0.12491598852E+03 0.  0.
         25    2    1    2    0    0 -0.45787963951E+02 -0.40296397111E+02 -0.42933168166E+02  0.14556087566E+03  0.12499749730E+03 0.  0.
          5    1    3    3  501    0  0.92098878922E+01  0.44153185390E+02  0.12544163154E+02  0.47050736915E+02  0.47000000000E+01 0. -1.
         -5    1    3    3    0  501  0.36578076059E+02 -0.38567882788E+01 -0.12922496918E+03  0.13443962632E+03  0.47000000000E+01 0. -1.
          5    1    4    4  502    0 -0.27055857476E+01  0.13772905626E+02 -0.69716663496E+02  0.71270725355E+02  0.47000000000E+01 0.  1.
         -5    1    4    4    0  502 -0.43082378203E+02 -0.54069302737E+02  0.26783495331E+02  0.74290150304E+02  0.47000000000E+01 0.  1.
<mgrwt>
<rscale>  0 0.28545734E+03</rscale>
<asrwt>0</asrwt>
<pdfrwt beam="1">  1       21 0.12879790E-01 0.28545734E+03</pdfrwt>
<pdfrwt beam="2">  1       21 0.37435785E-01 0.28545734E+03</pdfrwt>
<totfact> 0.34843853E+05</totfact>
</mgrwt>
</event>
<event>
 8    1  0.9331162E-006  0.3069737E+03  0.7546771E-02  0.1081806E+00
         21   -1    0    0  504  503  0.00000000000E+00  0.00000000000E+00  0.10201587531E+04  0.10201587531E+04  0.00000000000E+00 0.  1.
         21   -1    0    0  503  504 -0.00000000000E+00 -0.00000000000E+00 -0.23092694738E+02  0.23092694738E+02  0.00000000000E+00 0.  1.
         25    2    1    2    0    0  0.76486193013E+02  0.20313918264E+02  0.63747826190E+03  0.65442087992E+03  0.12500144276E+03 0.  0.
         25    2    1    2    0    0 -0.76486193013E+02 -0.20313918264E+02  0.35958779647E+03  0.38883056792E+03  0.12499213648E+03 0.  0.
          5    1    3    3  501    0  0.63759229248E+02 -0.32651305198E+01  0.11812707115E+03  0.13435771407E+03  0.47000000000E+01 0.  1.
         -5    1    3    3    0  501  0.12726963765E+02  0.23579048783E+02  0.51935119074E+03  0.52006316585E+03  0.47000000000E+01 0.  1.
          5    1    4    4  502    0 -0.48932612195E+02 -0.55052120372E+02  0.32249111220E+03  0.33082887410E+03  0.47000000000E+01 0. -1.
         -5    1    4    4    0  502 -0.27553580818E+02  0.34738202109E+02  0.37096684275E+02  0.58001693818E+02  0.47000000000E+01 0. -1.
<mgrwt>
<rscale>  0 0.30697371E+03</rscale>
<asrwt>0</asrwt>
<pdfrwt beam="1">  1       21 0.15694747E+00 0.30697371E+03</pdfrwt>
<pdfrwt beam="2">  1       21 0.35527231E-02 0.30697371E+03</pdfrwt>
<totfact> 0.12104409E+05</totfact>
</mgrwt>
</event>
<event>
 8    1  0.9331162E-006  0.3321232E+03  0.7546771E-02  0.1070201E+00
         21   -1    0    0  504  503  0.00000000000E+00  0.00000000000E+00  0.15550186198E+03  0.15550186198E+03  0.00000000000E+00 0. -1.
         21   -1    0    0  503  504 -0.00000000000E+00 -0.00000000000E+00 -0.17733838610E+03  0.17733838610E+03  0.00000000000E+00 0. -1.
         25    2    1    2    0    0  0.82149381109E+00  0.48153383683E+02  0.87446719985E+02  0.15996198768E+03  0.12498594102E+03 0.  0.
         25    2    1    2    0    0 -0.82149381109E+00 -0.48153383683E+02 -0.10928324411E+03  0.17287826040E+03  0.12499856904E+03 0.  0.
          5    1    3    3  501    0 -0.60133963137E+02  0.32925367867E+02  0.31067684210E+02  0.75415279446E+02  0.47000000000E+01 0.  1.
         -5    1    3    3    0  501  0.60955456948E+02  0.15228015816E+02  0.56379035775E+02  0.84546708229E+02  0.47000000000E+01 0.  1.
          5    1    4    4  502    0 -0.36755667533E+02 -0.53998043522E+02 -0.90215439659E+01  0.66107836567E+02  0.47000000000E+01 0.  1.
         -5    1    4    4    0  502  0.35934173722E+02  0.58446598394E+01 -0.10026170014E+03  0.10677042383E+03  0.47000000000E+01 0.  1.
<mgrwt>
<rscale>  0 0.33212317E+03</rscale>
<asrwt>0</asrwt>
<pdfrwt beam="1">  1       21 0.23923363E-01 0.33212317E+03</pdfrwt>
<pdfrwt beam="2">  1       21 0.27282829E-01 0.33212317E+03</pdfrwt>
<totfact> 0.20368259E+05</totfact>
</mgrwt>
</event>
<event>
 8    1  0.9331162E-006  0.3733883E+03  0.7546771E-02  0.1053405E+00
         21   -1    0    0  504  503  0.00000000000E+00  0.00000000000E+00  0.21110556202E+03  0.21110556202E+03  0.00000000000E+00 0. -1.
         21   -1    0    0  503  504 -0.00000000000E+00 -0.00000000000E+00 -0.16510562103E+03  0.16510562103E+03  0.00000000000E+00 0. -1.
         25    2    1    2    0    0  0.28784499562E+02 -0.78921338919E+02 -0.88160328356E+02  0.17451389661E+03  0.12500292581E+03 0.  0.
         25    2    1    2    0    0 -0.28784499562E+02  0.78921338919E+02  0.13416026935E+03  0.20169728644E+03  0.12500276931E+03 0.  0.
          5    1    3    3  501    0 -0.51325372483E+01  0.25290762522E+02  0.92481965526E+01  0.27813391505E+02  0.47000000000E+01 0.  1.
         -5    1    3    3    0  501  0.33917036811E+02 -0.10421210144E+03 -0.97408524909E+02  0.14670050510E+03  0.47000000000E+01 0.  1.
          5    1    4    4  502    0 -0.54015359933E+02  0.73742579873E+02  0.33148578583E+02  0.97347549826E+02  0.47000000000E+01 0. -1.
         -5    1    4    4    0  502  0.25230860371E+02  0.51787590459E+01  0.10101169077E+03  0.10434973662E+03  0.47000000000E+01 0. -1.
<mgrwt>
<rscale>  0 0.37338835E+03</rscale>
<asrwt>0</asrwt>
<pdfrwt beam="1">  1       21 0.32477779E-01 0.37338835E+03</pdfrwt>
<pdfrwt beam="2">  1       21 0.25400865E-01 0.37338835E+03</pdfrwt>
<totfact> 0.12749436E+05</totfact>
</mgrwt>
</event>
<event>
 8    1  0.9331162E-006  0.3823014E+03  0.7546771E-02  0.1050086E+00
         21   -1    0    0  504  503  0.00000000000E+00  0.00000000000E+00  0.42220511208E+02  0.42220511208E+02  0.00000000000E+00 0.  1.
         21   -1    0    0  503  504 -0.00000000000E+00 -0.00000000000E+00 -0.86542279580E+03  0.86542279580E+03  0.00000000000E+00 0.  1.
         25    2    1    2    0    0 -0.45281322276E+02 -0.54923797537E+01 -0.85703388494E+02  0.15823518560E+03  0.12495094549E+03 0.  0.
         25    2    1    2    0    0  0.45281322276E+02  0.54923797537E+01 -0.73749889610E+03  0.74940812142E+03  0.12500938489E+03 0.  0.
          5    1    3    3  501    0  0.36706696493E+02  0.25772206207E+02 -0.27079996152E+02  0.52602322874E+02  0.47000000000E+01 0.  1.
         -5    1    3    3    0  501 -0.81988018768E+02 -0.31264585961E+02 -0.58623392343E+02  0.10563286272E+03  0.47000000000E+01 0.  1.
          5    1    4    4  502    0  0.68046010834E+02 -0.31381164851E+02 -0.28184276487E+03  0.29167185535E+03  0.47000000000E+01 0.  1.
         -5    1    4    4    0  502 -0.22764688558E+02  0.36873544605E+02 -0.45565613124E+03  0.45773626606E+03  0.47000000000E+01 0.  1.
<mgrwt>
<rscale>  0 0.38230141E+03</rscale>
<asrwt>0</asrwt>
<pdfrwt beam="1">  1       21 0.64954634E-02 0.38230141E+03</pdfrwt>
<pdfrwt beam="2">  1       21 0.13314197E+00 0.38230141E+03</pdfrwt>
<totfact> 0.65230723E+04</totfact>
</mgrwt>
</event>
<event>
 8    1  0.9331162E-006  0.5647856E+03  0.7546771E-02  0.9981284E-01
         21   -1    0    0  504  503  0.00000000000E+00  0.00000000000E+00  0.18130386669E+03  0.18130386669E+03  0.00000000000E+00 0.  1.
         21   -1    0    0  503  504 -0.00000000000E+00 -0.00000000000E+00 -0.43984551029E+03  0.43984551029E+03  0.00000000000E+00 0.  1.
         25    2    1    2    0    0  0.19858711006E+03  0.10414463067E+01  0.43536213733E+02  0.23864507692E+03  0.12497258076E+03 0.  0.
         25    2    1    2    0    0 -0.19858711006E+03 -0.10414463067E+01 -0.30207785733E+03  0.38250430005E+03  0.12498232987E+03 0.  0.
          5    1    3    3  501    0  0.92933889968E+02 -0.59123580130E+02  0.26276589769E+01  0.11027828537E+03  0.47000000000E+01 0. -1.
         -5    1    3    3    0  501  0.10565322009E+03  0.60165026437E+02  0.40908554756E+02  0.12836679156E+03  0.47000000000E+01 0. -1.
          5    1    4    4  502    0 -0.51594436251E+02  0.40850504468E+02 -0.34844446997E+02  0.74612164249E+02  0.47000000000E+01 0. -1.
         -5    1    4    4    0  502 -0.14699267381E+03 -0.41891950775E+02 -0.26723341033E+03  0.30789213580E+03  0.47000000000E+01 0. -1.
<mgrwt>
<rscale>  0 0.56478559E+03</rscale>
<asrwt>0</asrwt>
<pdfrwt beam="1">  1       21 0.27892903E-01 0.56478559E+03</pdfrwt>
<pdfrwt beam="2">  1       21 0.67668540E-01 0.56478559E+03</pdfrwt>
<totfact> 0.21625426E+04</totfact>
</mgrwt>
</event>
<event>
 8    1  0.9331162E-006  0.4707880E+03  0.7546771E-02  0.1021698E+00
         21   -1    0    0  504  503  0.00000000000E+00  0.00000000000E+00  0.23922065541E+03  0.23922065541E+03  0.00000000000E+00 0. -1.
         21   -1    0    0  503  504 -0.00000000000E+00 -0.00000000000E+00 -0.23162853326E+03  0.23162853326E+03  0.00000000000E+00 0. -1.
         25    2    1    2    0    0  0.10143435637E+02 -0.15120553599E+03  0.13350263205E+03  0.23751575575E+03  0.12499911226E+03 0.  0.
         25    2    1    2    0    0 -0.10143435637E+02  0.15120553599E+03 -0.12591050990E+03  0.23333343292E+03  0.12500012405E+03 0.  0.
          5    1    3    3  501    0  0.22458928421E+02 -0.11375330446E+02  0.85240798891E+02  0.89004974041E+02  0.47000000000E+01 0. -1.
         -5    1    3    3    0  501 -0.12315492783E+02 -0.13983020554E+03  0.48261833157E+02  0.14851078171E+03  0.47000000000E+01 0. -1.
          5    1    4    4  502    0  0.56292325519E+02  0.58132748014E+02 -0.41069709490E+02  0.90868329695E+02  0.47000000000E+01 0. -1.
         -5    1    4    4    0  502 -0.66435761156E+02  0.93072787976E+02 -0.84840800413E+02  0.14246510322E+03  0.47000000000E+01 0. -1.
<mgrwt>
<rscale>  0 0.47078798E+03</rscale>
<asrwt>0</asrwt>
<pdfrwt beam="1">  1       21 0.36803178E-01 0.47078798E+03</pdfrwt>
<pdfrwt beam="2">  1       21 0.35635159E-01 0.47078798E+03</pdfrwt>
<totfact> 0.49578870E+04</totfact>
</mgrwt>
</event>
<event>
 8    1  0.9331162E-006  0.3806229E+03  0.7546771E-02  0.1050704E+00
         21   -1    0    0  504  503  0.00000000000E+00  0.00000000000E+00  0.16110258816E+02  0.16110258816E+02  0.00000000000E+00 0. -1.
         21   -1    0    0  503  504 -0.00000000000E+00 -0.00000000000E+00 -0.22481604800E+04  0.22481604800E+04  0.00000000000E+00 0. -1.
         25    2    1    2    0    0  0.35568250563E+02 -0.10962290366E+03 -0.16246743239E+04  0.16335468315E+04  0.12500524189E+03 0.  0.
         25    2    1    2    0    0 -0.35568250563E+02  0.10962290366E+03 -0.60737589727E+03  0.63072390731E+03  0.12499954082E+03 0.  0.
          5    1    3    3  501    0  0.75942900082E+02 -0.86627155409E+02 -0.13515078862E+04  0.13564170615E+04  0.47000000000E+01 0. -1.
         -5    1    3    3    0  501 -0.40374649518E+02 -0.22995748253E+02 -0.27316643762E+03  0.27712976997E+03  0.47000000000E+01 0. -1.
          5    1    4    4  502    0  0.14953873442E+02  0.64498958211E+01 -0.33037250339E+03  0.33080704419E+03  0.47000000000E+01 0. -1.
         -5    1    4    4    0  502 -0.50522124005E+02  0.10317300784E+03 -0.27700339388E+03  0.29991686312E+03  0.47000000000E+01 0. -1.
<mgrwt>
<rscale>  0 0.38062290E+03</rscale>
<asrwt>0</asrwt>
<pdfrwt beam="1">  1       21 0.24785023E-02 0.38062290E+03</pdfrwt>
<pdfrwt beam="2">  1       21 0.34587072E+00 0.38062290E+03</pdfrwt>
<totfact> 0.13825403E+04</totfact>
</mgrwt>
</event>
<event>
 8    1  0.9331162E-006  0.2996942E+03  0.7546771E-02  0.1085394E+00
         21   -1    0    0  504  503  0.00000000000E+00  0.00000000000E+00  0.15034045469E+03  0.15034045469E+03  0.00000000000E+00 0.  1.
         21   -1    0    0  503  504 -0.00000000000E+00 -0.00000000000E+00 -0.14935538013E+03  0.14935538013E+03  0.00000000000E+00 0.  1.
         25    2    1    2    0    0  0.75372046770E+02 -0.27967479736E+02  0.19520729388E+02  0.14989234501E+03  0.12499412330E+03 0.  0.
         25    2    1    2    0    0 -0.75372046770E+02  0.27967479736E+02 -0.18535654827E+02  0.14980348982E+03  0.12503755317E+03 0.  0.
          5    1    3    3  501    0  0.36680928688E+02 -0.71342094096E+02  0.37768694282E+02  0.88790479147E+02  0.47000000000E+01 0.  1.
         -5    1    3    3    0  501  0.38691118082E+02  0.43374614360E+02 -0.18247964894E+02  0.61101865864E+02  0.47000000000E+01 0.  1.
          5    1    4    4  502    0 -0.18567073955E+02 -0.24850575421E+02  0.41201400857E+02  0.51787380380E+02  0.47000000000E+01 0.  1.
         -5    1    4    4    0  502 -0.56804972816E+02  0.52818055157E+02 -0.59737055684E+02  0.98016109436E+02  0.47000000000E+01 0.  1.
<mgrwt>
<rscale>  0 0.29969422E+03</rscale>
<asrwt>0</asrwt>
<pdfrwt beam="1">  1       21 0.23129301E-01 0.29969422E+03</pdfrwt>
<pdfrwt beam="2">  1       21 0.22977751E-01 0.29969422E+03</pdfrwt>
<totfact> 0.30472530E+05</totfact>
</mgrwt>
</event>
<event>
 8    1  0.9331162E-006  0.2618804E+03  0.7546771E-02  0.1106019E+00
         21   -1    0    0  504  503  0.00000000000E+00  0.00000000000E+00  0.92254812332E+02  0.92254812332E+02  0.00000000000E+00 0. -1.
         21   -1    0    0  503  504 -0.00000000000E+00 -0.00000000000E+00 -0.18584754881E+03  0.18584754881E+03  0.00000000000E+00 0. -1.
         25    2    1    2    0    0  0.58865036672E+01 -0.32221060029E+02 -0.69272114829E+02  0.14661339067E+03  0.12499605113E+03 0.  0.
         25    2    1    2    0    0 -0.58865036672E+01  0.32221060029E+02 -0.24320621648E+02  0.13148897047E+03  0.12500003633E+03 0.  0.
          5    1    3    3  501    0 -0.25806075240E+02  0.17254450103E+02 -0.80682060213E+02  0.86575714885E+02  0.47000000000E+01 0. -1.
         -5    1    3    3    0  501  0.31692578907E+02 -0.49475510132E+02  0.11409945384E+02  0.60037675790E+02  0.47000000000E+01 0. -1.
          5    1    4    4  502    0 -0.32807361849E+01  0.80054960611E+02 -0.79777588434E+01  0.80655406419E+02  0.47000000000E+01 0.  1.
         -5    1    4    4    0  502 -0.26057674823E+01 -0.47833900583E+02 -0.16342862805E+02  0.50833564048E+02  0.47000000000E+01 0.  1.
<mgrwt>
<rscale>  0 0.26188036E+03</rscale>
<asrwt>0</asrwt>
<pdfrwt beam="1">  1       21 0.14193048E-01 0.26188036E+03</pdfrwt>
<pdfrwt beam="2">  1       21 0.28591930E-01 0.26188036E+03</pdfrwt>
<totfact> 0.50075765E+05</totfact>
</mgrwt>
</event>
<event>
 8    1  0.9331162E-006  0.2596097E+03  0.7546771E-02  0.1107378E+00
         21   -1    0    0  504  503  0.00000000000E+00  0.00000000000E+00  0.77606045617E+02  0.77606045617E+02  0.00000000000E+00 0. -1.
         21   -1    0    0  503  504 -0.00000000000E+00 -0.00000000000E+00 -0.21711325505E+03  0.21711325505E+03  0.00000000000E+00 0. -1.
         25    2    1    2    0    0  0.24646553960E+02  0.12645146961E+02 -0.94045094325E+02  0.15885844972E+03  0.12499669963E+03 0.  0.
         25    2    1    2    0    0 -0.24646553960E+02 -0.12645146961E+02 -0.45462115107E+02  0.13586085095E+03  0.12499605812E+03 0.  0.
          5    1    3    3  501    0  0.19262662598E+02  0.65084969858E+02 -0.78108869265E+02  0.10358662525E+03  0.47000000000E+01 0. -1.
         -5    1    3    3    0  501  0.53838913614E+01 -0.52439822897E+02 -0.15936225060E+02  0.55271824476E+02  0.47000000000E+01 0. -1.
          5    1    4    4  502    0 -0.48692720923E+02 -0.58087962189E+02 -0.32675412908E+02  0.82673847321E+02  0.47000000000E+01 0.  1.
         -5    1    4    4    0  502  0.24046166963E+02  0.45442815228E+02 -0.12786702199E+02  0.53187003625E+02  0.47000000000E+01 0.  1.
<mgrwt>
<rscale>  0 0.25960972E+03</rscale>
<asrwt>0</asrwt>
<pdfrwt beam="1">  1       21 0.11939392E-01 0.25960972E+03</pdfrwt>
<pdfrwt beam="2">  1       21 0.33402039E-01 0.25960972E+03</pdfrwt>
<totfact> 0.50455968E+05</totfact>
</mgrwt>
</event>
<event>
 8    1  0.9331162E-006  0.4252491E+03  0.7546771E-02  0.1035371E+00
         21   -1    0    0  504  503  0.00000000000E+00  0.00000000000E+00  0.11485781280E+04  0.11485781280E+04  0.00000000000E+00 0. -1.
         21   -1    0    0  503  504 -0.00000000000E+00 -0.00000000000E+00 -0.39361018662E+02  0.39361018662E+02  0.00000000000E+00 0. -1.
         25    2    1    2    0    0  0.16596006511E+03  0.15897100134E+02  0.67259505848E+03  0.70412494021E+03  0.12494942068E+03 0.  0.
         25    2    1    2    0    0 -0.16596006511E+03 -0.15897100134E+02  0.43662205082E+03  0.48381420641E+03  0.12506762197E+03 0.  0.
          5    1    3    3  501    0  0.17561035860E+03 -0.93820699808E+01  0.51666224611E+03  0.54579207382E+03  0.47000000000E+01 0.  1.
         -5    1    3    3    0  501 -0.96502934970E+01  0.25279170115E+02  0.15593281237E+03  0.15833286639E+03  0.47000000000E+01 0.  1.
          5    1    4    4  502    0 -0.15553219864E+03  0.10130614515E+02  0.42569668341E+03  0.45335708931E+03  0.47000000000E+01 0.  1.
         -5    1    4    4    0  502 -0.10427866470E+02 -0.26027714650E+02  0.10925367404E+02  0.30457117098E+02  0.47000000000E+01 0.  1.
<mgrwt>
<rscale>  0 0.42524913E+03</rscale>
<asrwt>0</asrwt>
<pdfrwt beam="1">  1       21 0.17670430E+00 0.42524913E+03</pdfrwt>
<pdfrwt beam="2">  1       21 0.60555422E-02 0.42524913E+03</pdfrwt>
<totfact> 0.33570115E+04</totfact>
</mgrwt>
</event>
<event>
 8    1  0.9331162E-006  0.3068102E+03  0.7546771E-02  0.1081885E+00
         21   -1    0    0  504  503  0.00000000000E+00  0.00000000000E+00  0.11782799800E+03  0.11782799800E+03  0.00000000000E+00 0. -1.
         21   -1    0    0  503  504 -0.00000000000E+00 -0.00000000000E+00 -0.19972440144E+03  0.19972440144E+03  0.00000000000E+00 0. -1.
         25    2    1    2    0    0 -0.48635220553E+02 -0.73842839365E+02 -0.31014007601E+02  0.15621693804E+03  0.12499485373E+03 0.  0.
         25    2    1    2    0    0  0.48635220553E+02  0.73842839365E+02 -0.50882395840E+02  0.16133546140E+03  0.12498785259E+03 0.  0.
          5    1    3    3  501    0 -0.39717603419E+02  0.14956252349E+02  0.26204923891E+02  0.50099556304E+02  0.47000000000E+01 0.  1.
         -5    1    3    3    0  501 -0.89176171338E+01 -0.88799091713E+02 -0.57218931493E+02  0.10611738173E+03  0.47000000000E+01 0.  1.
          5    1    4    4  502    0  0.37134276205E+02  0.65905240439E+02  0.28216185736E+02  0.80874583919E+02  0.47000000000E+01 0.  1.
         -5    1    4    4    0  502  0.11500944348E+02  0.79375989252E+01 -0.79098581575E+02  0.80460877480E+02  0.47000000000E+01 0.  1.
<mgrwt>
<rscale>  0 0.30681021E+03</rscale>
<asrwt>0</asrwt>
<pdfrwt beam="1">  1       21 0.18127384E-01 0.30681021E+03</pdfrwt>
<pdfrwt beam="2">  1       21 0.30726831E-01 0.30681021E+03</pdfrwt>
<totfact> 0.27433732E+05</totfact>
</mgrwt>
</event>
<event>
 8    1  0.9331162E-006  0.2598881E+03  0.7546771E-02  0.1107210E+00
         21   -1    0    0  504  503  0.00000000000E+00  0.00000000000E+00  0.27542800822E+03  0.27542800822E+03  0.00000000000E+00 0.  1.
         21   -1    0    0  503  504 -0.00000000000E+00 -0.00000000000E+00 -0.61306264994E+02  0.61306264994E+02  0.00000000000E+00 0.  1.
         25    2    1    2    0    0 -0.28072036292E+02  0.21596691958E+02  0.10996949787E+03  0.17021604869E+03  0.12500302574E+03 0.  0.
         25    2    1    2    0    0  0.28072036292E+02 -0.21596691958E+02  0.10415224535E+03  0.16651822452E+03  0.12500469016E+03 0.  0.
          5    1    3    3  501    0  0.47574492307E+02  0.15789263350E+02  0.25014198183E+02  0.56217730887E+02  0.47000000000E+01 0. -1.
         -5    1    3    3    0  501 -0.75646528599E+02  0.58074286088E+01  0.84955299687E+02  0.11399831780E+03  0.47000000000E+01 0. -1.
          5    1    4    4  502    0  0.52639108619E+02 -0.10997890075E+02  0.12241234232E+03  0.13378602653E+03  0.47000000000E+01 0. -1.
         -5    1    4    4    0  502 -0.24567072327E+02 -0.10598801883E+02 -0.18260096970E+02  0.32732197993E+02  0.47000000000E+01 0. -1.
<mgrwt>
<rscale>  0 0.25988815E+03</rscale>
<asrwt>0</asrwt>
<pdfrwt beam="1">  1       21 0.42373539E-01 0.25988815E+03</pdfrwt>
<pdfrwt beam="2">  1       21 0.94317333E-02 0.25988815E+03</pdfrwt>
<totfact> 0.47556229E+05</totfact>
</mgrwt>
</event>
<event>
 8    1  0.9331162E-006  0.2875011E+03  0.7546771E-02  0.1091661E+00
         21   -1    0    0  504  503  0.00000000000E+00  0.00000000000E+00  0.74229762214E+02  0.74229762214E+02  0.00000000000E+00 0. -1.
         21   -1    0    0  503  504 -0.00000000000E+00 -0.00000000000E+00 -0.27838179157E+03  0.27838179157E+03  0.00000000000E+00 0. -1.
         25    2    1    2    0    0  0.42188662354E+02  0.20515844976E+02 -0.16740347140E+03  0.21413076062E+03  0.12500910878E+03 0.  0.
         25    2    1    2    0    0 -0.42188662354E+02 -0.20515844976E+02 -0.36748557952E+02  0.13848079317E+03  0.12500276172E+03 0.  0.
          5    1    3    3  501    0  0.37525507690E+02 -0.11756508097E+02 -0.17574053395E+03  0.18014772961E+03  0.47000000000E+01 0.  1.
         -5    1    3    3    0  501  0.46631546649E+01  0.32272353073E+02  0.83370625484E+01  0.33983031004E+02  0.47000000000E+01 0.  1.
          5    1    4    4  502    0 -0.15084678177E+02 -0.22299370276E+02  0.44756173513E+02  0.52440580641E+02  0.47000000000E+01 0.  1.
         -5    1    4    4    0  502 -0.27103984177E+02  0.17835253003E+01 -0.81504731464E+02  0.86040212528E+02  0.47000000000E+01 0.  1.
<mgrwt>
<rscale>  0 0.28750106E+03</rscale>
<asrwt>0</asrwt>
<pdfrwt beam="1">  1       21 0.11419963E-01 0.28750106E+03</pdfrwt>
<pdfrwt beam="2">  1       21 0.42827968E-01 0.28750106E+03</pdfrwt>
<totfact> 0.32894665E+05</totfact>
</mgrwt>
</event>
<event>
 8    1  0.9331162E-006  0.4998118E+03  0.7546771E-02  0.1013828E+00
         21   -1    0    0  504  503  0.00000000000E+00  0.00000000000E+00  0.15634494923E+03  0.15634494923E+03  0.00000000000E+00 0. -1.
         21   -1    0    0  503  504 -0.00000000000E+00 -0.00000000000E+00 -0.39945615645E+03  0.39945615645E+03  0.00000000000E+00 0. -1.
         25    2    1    2    0    0 -0.12641082419E+03  0.13280282361E+03 -0.24937861112E+03  0.33381361191E+03  0.12500219753E+03 0.  0.
         25    2    1    2    0    0  0.12641082419E+03 -0.13280282361E+03  0.62674038900E+01  0.22198749377E+03  0.12499152214E+03 0.  0.
          5    1    3    3  501    0 -0.15077598170E+02 -0.79019390650E+01  0.85184337071E+01  0.19606843713E+02  0.47000000000E+01 0.  1.
         -5    1    3    3    0  501 -0.11133322602E+03  0.14070476267E+03 -0.25789704482E+03  0.31420676820E+03  0.47000000000E+01 0.  1.
          5    1    4    4  502    0  0.10962612616E+03 -0.24989044066E+02  0.72466445446E+01  0.11276942723E+03  0.47000000000E+01 0. -1.
         -5    1    4    4    0  502  0.16784698034E+02 -0.10781377954E+03 -0.97924065462E+00  0.10921806654E+03  0.47000000000E+01 0. -1.
<mgrwt>
<rscale>  0 0.49981177E+03</rscale>
<asrwt>0</asrwt>
<pdfrwt beam="1">  1       21 0.24053069E-01 0.49981177E+03</pdfrwt>
<pdfrwt beam="2">  1       21 0.61454793E-01 0.49981177E+03</pdfrwt>
<totfact> 0.36311136E+04</totfact>
</mgrwt>
</event>
<event>
 8    1  0.9331162E-006  0.2555646E+03  0.7546771E-02  0.1109838E+00
         21   -1    0    0  504  503  0.00000000000E+00  0.00000000000E+00  0.10202998312E+03  0.10202998312E+03  0.00000000000E+00 0.  1.
         21   -1    0    0  503  504 -0.00000000000E+00 -0.00000000000E+00 -0.16003449756E+03  0.16003449756E+03  0.00000000000E+00 0.  1.
         25    2    1    2    0    0 -0.25199290721E+02 -0.79411390101E+01 -0.26513080889E+02  0.13047712380E+03  0.12499308155E+03 0.  0.
         25    2    1    2    0    0  0.25199290721E+02  0.79411390101E+01 -0.31491433556E+02  0.13158735687E+03  0.12500182463E+03 0.  0.
          5    1    3    3  501    0 -0.45206412157E+00 -0.36961603214E+02 -0.65738799121E+02  0.75564834308E+02  0.47000000000E+01 0.  1.
         -5    1    3    3    0  501 -0.24747226600E+02  0.29020464204E+02  0.39225718232E+02  0.54912289497E+02  0.47000000000E+01 0.  1.
          5    1    4    4  502    0 -0.25142163315E+02 -0.21196439047E+01 -0.65148284309E+02  0.70021498234E+02  0.47000000000E+01 0.  1.
         -5    1    4    4    0  502  0.50341454036E+02  0.10060782915E+02  0.33656850753E+02  0.61565858639E+02  0.47000000000E+01 0.  1.
<mgrwt>
<rscale>  0 0.25556461E+03</rscale>
<asrwt>0</asrwt>
<pdfrwt beam="1">  1       21 0.15696921E-01 0.25556461E+03</pdfrwt>
<pdfrwt beam="2">  1       21 0.24620692E-01 0.25556461E+03</pdfrwt>
<totfact> 0.55668873E+05</totfact>
</mgrwt>
</event>
<event>
 8    1  0.9331162E-006  0.2534383E+03  0.7546771E-02  0.1111151E+00
         21   -1    0    0  504  503  0.00000000000E+00  0.00000000000E+00  0.56051057252E+02  0.56051057252E+02  0.00000000000E+00 0.  1.
         21   -1    0    0  503  504 -0.00000000000E+00 -0.00000000000E+00 -0.28648412819E+03  0.28648412819E+03  0.00000000000E+00 0.  1.
         25    2    1    2    0    0  0.15906609261E+01 -0.19378404977E+02 -0.12525491499E+03  0.17802104330E+03  0.12499858138E+03 0.  0.
         25    2    1    2    0    0 -0.15906609261E+01  0.19378404977E+02 -0.10517815596E+03  0.16451414215E+03  0.12499762276E+03 0.  0.
          5    1    3    3  501    0 -0.31696208224E+01  0.48081021933E+02 -0.19054543054E+02  0.52028807186E+02  0.47000000000E+01 0. -1.
         -5    1    3    3    0  501  0.47602817485E+01 -0.67459426910E+02 -0.10620037193E+03  0.12599223611E+03  0.47000000000E+01 0. -1.
          5    1    4    4  502    0  0.15041938211E+02 -0.45257804912E+02 -0.11306853622E+02  0.49238843909E+02  0.47000000000E+01 0.  1.
         -5    1    4    4    0  502 -0.16632599137E+02  0.64636209890E+02 -0.93871302335E+02  0.11527529824E+03  0.47000000000E+01 0.  1.
<mgrwt>
<rscale>  0 0.25343826E+03</rscale>
<asrwt>0</asrwt>
<pdfrwt beam="1">  1       21 0.86232397E-02 0.25343826E+03</pdfrwt>
<pdfrwt beam="2">  1       21 0.44074480E-01 0.25343826E+03</pdfrwt>
<totfact> 0.51438475E+05</totfact>
</mgrwt>
</event>
<event>
 8    1  0.9331162E-006  0.3596440E+03  0.7546771E-02  0.1058725E+00
         21   -1    0    0  504  503  0.00000000000E+00  0.00000000000E+00  0.43511910319E+03  0.43511910319E+03  0.00000000000E+00 0. -1.
         21   -1    0    0  503  504 -0.00000000000E+00 -0.00000000000E+00 -0.74315192449E+02  0.74315192449E+02  0.00000000000E+00 0. -1.
         25    2    1    2    0    0  0.10679176964E+03  0.63117511743E+02  0.23191107747E+03  0.29120072978E+03  0.12500725907E+03 0.  0.
         25    2    1    2    0    0 -0.10679176964E+03 -0.63117511743E+02  0.12889283327E+03  0.21823356586E+03  0.12499689775E+03 0.  0.
          5    1    3    3  501    0  0.85150019094E+02 -0.20580693130E+02  0.13749469705E+03  0.16309804535E+03  0.47000000000E+01 0. -1.
         -5    1    3    3    0  501  0.21641750546E+02  0.83698204873E+02  0.94416380423E+02  0.12810268443E+03  0.47000000000E+01 0. -1.
          5    1    4    4  502    0  0.24696345586E+02 -0.27638909816E+02  0.13689021457E+02  0.39790678928E+02  0.47000000000E+01 0.  1.
         -5    1    4    4    0  502 -0.13148811523E+03 -0.35478601928E+02  0.11520381182E+03  0.17844288693E+03  0.47000000000E+01 0.  1.
<mgrwt>
<rscale>  0 0.35964405E+03</rscale>
<asrwt>0</asrwt>
<pdfrwt beam="1">  1       21 0.66941399E-01 0.35964405E+03</pdfrwt>
<pdfrwt beam="2">  1       21 0.11433107E-01 0.35964405E+03</pdfrwt>
<totfact> 0.12452674E+05</totfact>
</mgrwt>
</event>
<event>
 8    1  0.9331162E-006  0.2668269E+03  0.7546771E-02  0.1103110E+00
         21   -1    0    0  504  503  0.00000000000E+00  0.00000000000E+00  0.10639628279E+03  0.10639628279E+03  0.00000000000E+00 0.  1.
         21   -1    0    0  503  504 -0.00000000000E+00 -0.00000000000E+00 -0.16729104156E+03  0.16729104156E+03  0.00000000000E+00 0.  1.
         25    2    1    2    0    0 -0.42184559372E+02  0.47999441101E+01 -0.10693934253E+02  0.13244817783E+03  0.12500233225E+03 0.  0.
         25    2    1    2    0    0  0.42184559372E+02 -0.47999441101E+01 -0.50200824517E+02  0.14123914652E+03  0.12500318882E+03 0.  0.
          5    1    3    3  501    0  0.41496875731E+01 -0.42162457440E+02  0.32370725574E+02  0.53524261775E+02  0.47000000000E+01 0.  1.
         -5    1    3    3    0  501 -0.46334246945E+02  0.46962401550E+02 -0.43064659827E+02  0.78923916054E+02  0.47000000000E+01 0.  1.
          5    1    4    4  502    0 -0.84099687782E+01  0.35734263768E+02  0.22819589656E+02  0.43479752230E+02  0.47000000000E+01 0.  1.
         -5    1    4    4    0  502  0.50594528150E+02 -0.40534207878E+02 -0.73020414172E+02  0.97759394295E+02  0.47000000000E+01 0.  1.
<mgrwt>
<rscale>  0 0.26682687E+03</rscale>
<asrwt>0</asrwt>
<pdfrwt beam="1">  1       21 0.16368659E-01 0.26682687E+03</pdfrwt>
<pdfrwt beam="2">  1       21 0.25737083E-01 0.26682687E+03</pdfrwt>
<totfact> 0.47224872E+05</totfact>
</mgrwt>
</event>
<event>
 8    1  0.9331162E-006  0.2955953E+03  0.7546771E-02  0.1087463E+00
         21   -1    0    0  504  503  0.00000000000E+00  0.00000000000E+00  0.12930776659E+03  0.12930776659E+03  0.00000000000E+00 0.  1.
         21   -1    0    0  503  504 -0.00000000000E+00 -0.00000000000E+00 -0.16893147803E+03  0.16893147803E+03  0.00000000000E+00 0.  1.
         25    2    1    2    0    0  0.47933993614E+02  0.32521384099E+02  0.34177319676E+02  0.14194611794E+03  0.12500121220E+03 0.  0.
         25    2    1    2    0    0 -0.47933993614E+02 -0.32521384099E+02 -0.73801031110E+02  0.15629312667E+03  0.12500256432E+03 0.  0.
          5    1    3    3  501    0  0.38809460090E+02  0.42952202106E+02 -0.37274465027E+02  0.69011170120E+02  0.47000000000E+01 0. -1.
         -5    1    3    3    0  501  0.91245335239E+01 -0.10430818008E+02  0.71451784704E+02  0.72934947821E+02  0.47000000000E+01 0. -1.
          5    1    4    4  502    0 -0.10302866644E+02  0.35749751153E+02  0.12850745291E+02  0.39641208649E+02  0.47000000000E+01 0. -1.
         -5    1    4    4    0  502 -0.37631126971E+02 -0.68271135252E+02 -0.86651776401E+02  0.11665191803E+03  0.47000000000E+01 0. -1.
<mgrwt>
<rscale>  0 0.29559535E+03</rscale>
<asrwt>0</asrwt>
<pdfrwt beam="1">  1       21 0.19893502E-01 0.29559535E+03</pdfrwt>
<pdfrwt beam="2">  1       21 0.25989458E-01 0.29559535E+03</pdfrwt>
<totfact> 0.32036822E+05</totfact>
</mgrwt>
</event>
<event>
 8    1  0.9331162E-006  0.2731480E+03  0.7546771E-02  0.1099491E+00
         21   -1    0    0  504  503  0.00000000000E+00  0.00000000000E+00  0.39315641925E+02  0.39315641925E+02  0.00000000000E+00 0.  1.
         21   -1    0    0  503  504 -0.00000000000E+00 -0.00000000000E+00 -0.47442842274E+03  0.47442842274E+03  0.00000000000E+00 0.  1.
         25    2    1    2    0    0  0.49357559962E+02 -0.20194741001E+02 -0.24303064527E+03  0.27844650109E+03  0.12499825256E+03 0.  0.
         25    2    1    2    0    0 -0.49357559962E+02  0.20194741001E+02 -0.19208213555E+03  0.23529756357E+03  0.12500160134E+03 0.  0.
          5    1    3    3  501    0  0.45924591741E+02  0.25876225610E+02 -0.22063076376E+03  0.22688911630E+03  0.47000000000E+01 0.  1.
         -5    1    3    3    0  501  0.34329682211E+01 -0.46070966611E+02 -0.22399881512E+02  0.51557384796E+02  0.47000000000E+01 0.  1.
          5    1    4    4  502    0  0.37832337040E+02  0.11296062417E+02 -0.26171225417E+02  0.47601573418E+02  0.47000000000E+01 0. -1.
         -5    1    4    4    0  502 -0.87189897003E+02  0.88986785837E+01 -0.16591091013E+03  0.18769599016E+03  0.47000000000E+01 0. -1.
<mgrwt>
<rscale>  0 0.27314800E+03</rscale>
<asrwt>0</asrwt>
<pdfrwt beam="1">  1       21 0.60485603E-02 0.27314800E+03</pdfrwt>
<pdfrwt beam="2">  1       21 0.72988988E-01 0.27314800E+03</pdfrwt>
<totfact> 0.32194500E+05</totfact>
</mgrwt>
</event>
<event>
 8    1  0.9331162E-006  0.2839468E+03  0.7546771E-02  0.1093553E+00
         21   -1    0    0  504  503  0.00000000000E+00  0.00000000000E+00  0.79590106705E+02  0.79590106705E+02  0.00000000000E+00 0.  1.
         21   -1    0    0  503  504 -0.00000000000E+00 -0.00000000000E+00 -0.25325323473E+03  0.25325323473E+03  0.00000000000E+00 0.  1.
         25    2    1    2    0    0 -0.18765575569E+02 -0.64229434284E+02 -0.78265757356E+02  0.16194946408E+03  0.12499813234E+03 0.  0.
         25    2    1    2    0    0  0.18765575569E+02  0.64229434284E+02 -0.95397370668E+02  0.17089387735E+03  0.12500596758E+03 0.  0.
          5    1    3    3  501    0  0.27569540879E+01  0.28831668124E+02  0.10798666677E+02  0.31266069223E+02  0.47000000000E+01 0.  1.
         -5    1    3    3    0  501 -0.21522529657E+02 -0.93061102408E+02 -0.89064424033E+02  0.13068339486E+03  0.47000000000E+01 0.  1.
          5    1    4    4  502    0  0.53469011463E+00 -0.28833837040E+02 -0.64889109111E+02  0.71164334699E+02  0.47000000000E+01 0.  1.
         -5    1    4    4    0  502  0.18230885454E+02  0.93063271324E+02 -0.30508261557E+02  0.99729542650E+02  0.47000000000E+01 0.  1.
<mgrwt>
<rscale>  0 0.28394684E+03</rscale>
<asrwt>0</asrwt>
<pdfrwt beam="1">  1       21 0.12244632E-01 0.28394684E+03</pdfrwt>
<pdfrwt beam="2">  1       21 0.38962036E-01 0.28394684E+03</pdfrwt>
<totfact> 0.35226695E+05</totfact>
</mgrwt>
</event>
<event>
 8    1  0.9331162E-006  0.3139396E+03  0.7546771E-02  0.1078473E+00
         21   -1    0    0  504  503  0.00000000000E+00  0.00000000000E+00  0.13979147148E+04  0.13979147148E+04  0.00000000000E+00 0. -1.
         21   -1    0    0  503  504 -0.00000000000E+00 -0.00000000000E+00 -0.17625908686E+02  0.17625908686E+02  0.00000000000E+00 0. -1.
         25    2    1    2    0    0 -0.47724929035E+02 -0.63962207702E+02  0.45822165453E+03  0.48162335852E+03  0.12500056771E+03 0.  0.
         25    2    1    2    0    0  0.47724929035E+02  0.63962207702E+02  0.92206715160E+03  0.93391726498E+03  0.12499917162E+03 0.  0.
          5    1    3    3  501    0  0.41990816833E+02 -0.27040632017E+02  0.18364802725E+03  0.19037623904E+03  0.47000000000E+01 0.  1.
         -5    1    3    3    0  501 -0.89715745869E+02 -0.36921575686E+02  0.27457362727E+03  0.29124711947E+03  0.47000000000E+01 0.  1.
          5    1    4    4  502    0  0.52048470274E+02  0.72224598081E+02  0.91859746340E+03  0.92291322755E+03  0.47000000000E+01 0.  1.
         -5    1    4    4    0  502 -0.43235412382E+01 -0.82623903782E+01  0.34696882025E+01  0.11004037433E+02  0.47000000000E+01 0.  1.
<mgrwt>
<rscale>  0 0.31393959E+03</rscale>
<asrwt>0</asrwt>
<pdfrwt beam="1">  1       21 0.21506371E+00 0.31393959E+03</pdfrwt>
<pdfrwt beam="2">  1       21 0.27116794E-02 0.31393959E+03</pdfrwt>
<totfact> 0.75786076E+04</totfact>
</mgrwt>
</event>
<event>
 8    1  0.9331162E-006  0.2780873E+03  0.7546771E-02  0.1096738E+00
         21   -1    0    0  504  503  0.00000000000E+00  0.00000000000E+00  0.37038911161E+03  0.37038911161E+03  0.00000000000E+00 0.  1.
         21   -1    0    0  503  504 -0.00000000000E+00 -0.00000000000E+00 -0.52196827156E+02  0.52196827156E+02  0.00000000000E+00 0.  1.
         25    2    1    2    0    0 -0.19113592117E+02  0.56808899651E+02  0.14270382207E+03  0.19894764630E+03  0.12499281840E+03 0.  0.
         25    2    1    2    0    0  0.19113592117E+02 -0.56808899651E+02  0.17548846238E+03  0.22363829246E+03  0.12500121977E+03 0.  0.
          5    1    3    3  501    0 -0.86437604297E+01 -0.31682696030E+02  0.88567850304E+02  0.94577280198E+02  0.47000000000E+01 0. -1.
         -5    1    3    3    0  501 -0.10469831687E+02  0.88491595681E+02  0.54135971769E+02  0.10437036611E+03  0.47000000000E+01 0. -1.
          5    1    4    4  502    0 -0.44354477749E+01 -0.47024465109E+02  0.12520718248E+01  0.47482956939E+02  0.47000000000E+01 0.  1.
         -5    1    4    4    0  502  0.23549039892E+02 -0.97844345419E+01  0.17423639056E+03  0.17615533552E+03  0.47000000000E+01 0.  1.
<mgrwt>
<rscale>  0 0.27808730E+03</rscale>
<asrwt>0</asrwt>
<pdfrwt beam="1">  1       21 0.56982939E-01 0.27808730E+03</pdfrwt>
<pdfrwt beam="2">  1       21 0.80302813E-02 0.27808730E+03</pdfrwt>
<totfact> 0.33806939E+05</totfact>
</mgrwt>
</event>
<event>
 8    1  0.9331162E-006  0.3482959E+03  0.7546771E-02  0.1063317E+00
         21   -1    0    0  504  503  0.00000000000E+00  0.00000000000E+00  0.20819106249E+03  0.20819106249E+03  0.00000000000E+00 0.  1.
         21   -1    0    0  503  504 -0.00000000000E+00 -0.00000000000E+00 -0.14567151581E+03  0.14567151581E+03  0.00000000000E+00 0.  1.
         25    2    1    2    0    0 -0.98786397409E+02  0.66463238712E+02  0.79584166242E+01  0.17281613570E+03  0.12500386374E+03 0.  0.
         25    2    1    2    0    0  0.98786397409E+02 -0.66463238712E+02  0.54561130061E+02  0.18104644261E+03  0.12499913221E+03 0.  0.
          5    1    3    3  501    0 -0.83696705150E+02  0.92140184325E+02 -0.26159465483E+02  0.12728456173E+03  0.47000000000E+01 0.  1.
         -5    1    3    3    0  501 -0.15089692260E+02 -0.25676945613E+02  0.34117882107E+02  0.45531573968E+02  0.47000000000E+01 0.  1.
          5    1    4    4  502    0  0.25832329859E+02 -0.63835588130E+02 -0.24584583054E+02  0.73271981697E+02  0.47000000000E+01 0. -1.
         -5    1    4    4    0  502  0.72954067551E+02 -0.26276505815E+01  0.79145713115E+02  0.10777446091E+03  0.47000000000E+01 0. -1.
<mgrwt>
<rscale>  0 0.34829590E+03</rscale>
<asrwt>0</asrwt>
<pdfrwt beam="1">  1       21 0.32029394E-01 0.34829590E+03</pdfrwt>
<pdfrwt beam="2">  1       21 0.22411002E-01 0.34829590E+03</pdfrwt>
<totfact> 0.16772955E+05</totfact>
</mgrwt>
</event>
<event>
 8    1  0.9331162E-006  0.3268368E+03  0.7546771E-02  0.1072545E+00
         21   -1    0    0  504  503  0.00000000000E+00  0.00000000000E+00  0.18495072716E+03  0.18495072716E+03  0.00000000000E+00 0. -1.
         21   -1    0    0  503  504 -0.00000000000E+00 -0.00000000000E+00 -0.14439291493E+03  0.14439291493E+03  0.00000000000E+00 0. -1.
         25    2    1    2    0    0  0.92603528568E+02  0.37647694921E+02 -0.13007681814E+02  0.16056596575E+03  0.12497786658E+03 0.  0.
         25    2    1    2    0    0 -0.92603528568E+02 -0.37647694921E+02  0.53565494040E+02  0.16877767635E+03  0.12499551770E+03 0.  0.
          5    1    3    3  501    0 -0.22591050671E+02  0.34064327011E+02 -0.18450523319E+02  0.45091526431E+02  0.47000000000E+01 0. -1.
         -5    1    3    3    0  501  0.11519457924E+03  0.35833679094E+01  0.54428415048E+01  0.11547443932E+03  0.47000000000E+01 0. -1.
          5    1    4    4  502    0 -0.61994123953E+02 -0.80260455445E+02  0.56188115900E+02  0.11603536737E+03  0.47000000000E+01 0.  1.
         -5    1    4    4    0  502 -0.30609404616E+02  0.42612760525E+02 -0.26226218598E+01  0.52742308974E+02  0.47000000000E+01 0.  1.
<mgrwt>
<rscale>  0 0.32683681E+03</rscale>
<asrwt>0</asrwt>
<pdfrwt beam="1">  1       21 0.28453958E-01 0.32683681E+03</pdfrwt>
<pdfrwt beam="2">  1       21 0.22214295E-01 0.32683681E+03</pdfrwt>
<totfact> 0.21647037E+05</totfact>
</mgrwt>
</event>
<event>
 8    1  0.9331162E-006  0.2610451E+03  0.7546771E-02  0.1106517E+00
         21   -1    0    0  504  503  0.00000000000E+00  0.00000000000E+00  0.82530744667E+03  0.82530744667E+03  0.00000000000E+00 0.  1.
         21   -1    0    0  503  504 -0.00000000000E+00 -0.00000000000E+00 -0.20642163373E+02  0.20642163373E+02  0.00000000000E+00 0.  1.
         25    2    1    2    0    0  0.34782790633E+02  0.10035596467E+02  0.36881666288E+03  0.39108832629E+03  0.12495516165E+03 0.  0.
         25    2    1    2    0    0 -0.34782790633E+02 -0.10035596467E+02  0.43584862042E+03  0.45486128375E+03  0.12499684723E+03 0.  0.
          5    1    3    3  501    0 -0.44593498529E+02  0.55248067565E+01  0.19066402267E+03  0.19594377546E+03  0.47000000000E+01 0. -1.
         -5    1    3    3    0  501  0.79376289162E+02  0.45107897106E+01  0.17815264021E+03  0.19514455083E+03  0.47000000000E+01 0. -1.
          5    1    4    4  502    0 -0.56021098676E+02  0.44282919028E+02  0.23304835886E+03  0.24378877739E+03  0.47000000000E+01 0.  1.
         -5    1    4    4    0  502  0.21238308043E+02 -0.54318515495E+02  0.20280026156E+03  0.21107250636E+03  0.47000000000E+01 0.  1.
<mgrwt>
<rscale>  0 0.26104506E+03</rscale>
<asrwt>0</asrwt>
<pdfrwt beam="1">  1       21 0.12697035E+00 0.26104506E+03</pdfrwt>
<pdfrwt beam="2">  1       21 0.31757181E-02 0.26104506E+03</pdfrwt>
<totfact> 0.25834946E+05</totfact>
</mgrwt>
</event>
<event>
 8    1  0.9331162E-006  0.6465550E+03  0.7546771E-02  0.9813265E-01
         21   -1    0    0  504  503  0.00000000000E+00  0.00000000000E+00  0.15654661369E+04  0.15654661369E+04  0.00000000000E+00 0. -1.
         21   -1    0    0  503  504 -0.00000000000E+00 -0.00000000000E+00 -0.66758600477E+02  0.66758600477E+02  0.00000000000E+00 0. -1.
         25    2    1    2    0    0 -0.34773879336E+02  0.12081298861E+03  0.14318193626E+04  0.14427532721E+04  0.12500126377E+03 0.  0.
         25    2    1    2    0    0  0.34773879336E+02 -0.12081298861E+03  0.66888173798E+02  0.18947146532E+03  0.12498162855E+03 0.  0.
          5    1    3    3  501    0 -0.79234727562E+02  0.93726480835E+02  0.89352478699E+03  0.90192651044E+03  0.47000000000E+01 0. -1.
         -5    1    3    3    0  501  0.44460848226E+02  0.27086507775E+02  0.53829457564E+03  0.54082676162E+03  0.47000000000E+01 0. -1.
          5    1    4    4  502    0  0.44493619401E+02 -0.87121336873E+02  0.10074361655E+03  0.14050329456E+03  0.47000000000E+01 0.  1.
         -5    1    4    4    0  502 -0.97197400645E+01 -0.33691651736E+02 -0.33855442753E+02  0.48968170760E+02  0.47000000000E+01 0.  1.
<mgrwt>
<rscale>  0 0.64655496E+03</rscale>
<asrwt>0</asrwt>
<pdfrwt beam="1">  1       21 0.24084092E+00 0.64655496E+03</pdfrwt>
<pdfrwt beam="2">  1       21 0.10270555E-01 0.64655496E+03</pdfrwt>
<totfact> 0.46246537E+03</totfact>
</mgrwt>
</event>
<event>
 8    1  0.9331162E-006  0.4599490E+03  0.7546771E-02  0.1024796E+00
         21   -1    0    0  504  503  0.00000000000E+00  0.00000000000E+00  0.40051049484E+03  0.40051049484E+03  0.00000000000E+00 0.  1.
         21   -1    0    0  503  504 -0.00000000000E+00 -0.00000000000E+00 -0.13205217226E+03  0.13205217226E+03  0.00000000000E+00 0.  1.
         25    2    1    2    0    0 -0.14701909777E+03  0.76081688327E+02  0.19253378581E+02  0.20832266941E+03  0.12499841438E+03 0.  0.
         25    2    1    2    0    0  0.14701909777E+03 -0.76081688327E+02  0.24920494400E+03  0.32423999769E+03  0.12500173430E+03 0.  0.
          5    1    3    3  501    0 -0.37414802893E+02  0.38953943753E+02 -0.49686593016E+02  0.73539953325E+02  0.47000000000E+01 0.  1.
         -5    1    3    3    0  501 -0.10960429488E+03  0.37127744574E+02  0.68939971598E+02  0.13478271609E+03  0.47000000000E+01 0.  1.
          5    1    4    4  502    0  0.26791154372E+02  0.32612689643E+02  0.31929646902E+02  0.53131401540E+02  0.47000000000E+01 0.  1.
         -5    1    4    4    0  502  0.12022794340E+03 -0.10869437797E+03  0.21727529710E+03  0.27110859615E+03  0.47000000000E+01 0.  1.
<mgrwt>
<rscale>  0 0.45994904E+03</rscale>
<asrwt>0</asrwt>
<pdfrwt beam="1">  1       21 0.61616999E-01 0.45994904E+03</pdfrwt>
<pdfrwt beam="2">  1       21 0.20315719E-01 0.45994904E+03</pdfrwt>
<totfact> 0.50387427E+04</totfact>
</mgrwt>
</event>
<event>
 8    1  0.9331162E-006  0.2744937E+03  0.7546771E-02  0.1098735E+00
         21   -1    0    0  504  503  0.00000000000E+00  0.00000000000E+00  0.50395572171E+03  0.50395572171E+03  0.00000000000E+00 0. -1.
         21   -1    0    0  503  504 -0.00000000000E+00 -0.00000000000E+00 -0.37377671893E+02  0.37377671893E+02  0.00000000000E+00 0. -1.
         25    2    1    2    0    0  0.12798652031E+02  0.51083852515E+02  0.19202450835E+03  0.23509878085E+03  0.12499863787E+03 0.  0.
         25    2    1    2    0    0 -0.12798652031E+02 -0.51083852515E+02  0.27455354147E+03  0.30623461276E+03  0.12500650157E+03 0.  0.
          5    1    3    3  501    0 -0.43868056438E+02  0.46636574510E+02  0.47899781829E+02  0.80099035930E+02  0.47000000000E+01 0. -1.
         -5    1    3    3    0  501  0.56666708469E+02  0.44472780050E+01  0.14412472652E+03  0.15499974492E+03  0.47000000000E+01 0. -1.
          5    1    4    4  502    0 -0.13915646057E+02 -0.19017311533E+02  0.27269646062E+03  0.27375308762E+03  0.47000000000E+01 0.  1.
         -5    1    4    4    0  502  0.11169940257E+01 -0.32066540982E+02  0.18570808476E+01  0.32481525141E+02  0.47000000000E+01 0.  1.
<mgrwt>
<rscale>  0 0.27449365E+03</rscale>
<asrwt>0</asrwt>
<pdfrwt beam="1">  1       21 0.77531644E-01 0.27449365E+03</pdfrwt>
<pdfrwt beam="2">  1       21 0.57504114E-02 0.27449365E+03</pdfrwt>
<totfact> 0.30644706E+05</totfact>
</mgrwt>
</event>
<event>
 8    1  0.9331162E-006  0.3263888E+03  0.7546771E-02  0.1072746E+00
         21   -1    0    0  504  503  0.00000000000E+00  0.00000000000E+00  0.40002757194E+03  0.40002757194E+03  0.00000000000E+00 0.  1.
         21   -1    0    0  503  504 -0.00000000000E+00 -0.00000000000E+00 -0.66576431207E+02  0.66576431207E+02  0.00000000000E+00 0.  1.
         25    2    1    2    0    0 -0.31195987852E+02 -0.31292370330E+02  0.30277007231E+03  0.33052252930E+03  0.12499209410E+03 0.  0.
         25    2    1    2    0    0  0.31195987852E+02  0.31292370330E+02  0.30681068429E+02  0.13608147385E+03  0.12499774985E+03 0.  0.
          5    1    3    3  501    0 -0.79200817008E+02 -0.10608764195E+02  0.18701592148E+03  0.20342654738E+03  0.47000000000E+01 0.  1.
         -5    1    3    3    0  501  0.48004829155E+02 -0.20683606135E+02  0.11575415083E+03  0.12709598192E+03  0.47000000000E+01 0.  1.
          5    1    4    4  502    0  0.14068879282E+02  0.77508074767E+02  0.35110631998E+02  0.86372921090E+02  0.47000000000E+01 0.  1.
         -5    1    4    4    0  502  0.17127108570E+02 -0.46215704437E+02 -0.44295635695E+01  0.49708552765E+02  0.47000000000E+01 0.  1.
<mgrwt>
<rscale>  0 0.32638878E+03</rscale>
<asrwt>0</asrwt>
<pdfrwt beam="1">  1       21 0.61542702E-01 0.32638878E+03</pdfrwt>
<pdfrwt beam="2">  1       21 0.10242528E-01 0.32638878E+03</pdfrwt>
<totfact> 0.18399681E+05</totfact>
</mgrwt>
</event>
<event>
 8    1  0.9331162E-006  0.2901561E+03  0.7546771E-02  0.1090268E+00
         21   -1    0    0  504  503  0.00000000000E+00  0.00000000000E+00  0.33785395742E+03  0.33785395742E+03  0.00000000000E+00 0. -1.
         21   -1    0    0  503  504 -0.00000000000E+00 -0.00000000000E+00 -0.62298022242E+02  0.62298022242E+02  0.00000000000E+00 0. -1.
         25    2    1    2    0    0  0.43630125737E+02  0.55646054353E+02  0.16614703391E+03  0.21961339071E+03  0.12500053306E+03 0.  0.
         25    2    1    2    0    0 -0.43630125737E+02 -0.55646054353E+02  0.10940890127E+03  0.18053858896E+03  0.12499521266E+03 0.  0.
          5    1    3    3  501    0  0.18058296638E+02  0.17410266464E+02 -0.17036245143E+02  0.30684574372E+02  0.47000000000E+01 0.  1.
         -5    1    3    3    0  501  0.25571829099E+02  0.38235787888E+02  0.18318327905E+03  0.18892881634E+03  0.47000000000E+01 0.  1.
          5    1    4    4  502    0 -0.77193510179E+02 -0.70686293047E+02  0.92595343242E+02  0.13982624084E+03  0.47000000000E+01 0.  1.
         -5    1    4    4    0  502  0.33563384442E+02  0.15040238694E+02  0.16813558031E+02  0.40712348113E+02  0.47000000000E+01 0.  1.
<mgrwt>
<rscale>  0 0.29015605E+03</rscale>
<asrwt>0</asrwt>
<pdfrwt beam="1">  1       21 0.51977531E-01 0.29015605E+03</pdfrwt>
<pdfrwt beam="2">  1       21 0.95843113E-02 0.29015605E+03</pdfrwt>
<totfact> 0.30017894E+05</totfact>
</mgrwt>
</event>
<event>
 8    1  0.9331162E-006  0.3954524E+03  0.7546771E-02  0.1045366E+00
         21   -1    0    0  504  503  0.00000000000E+00  0.00000000000E+00  0.20514268282E+03  0.20514268282E+03  0.00000000000E+00 0. -1.
         21   -1    0    0  503  504 -0.00000000000E+00 -0.00000000000E+00 -0.19057780783E+03  0.19057780783E+03  0.00000000000E+00 0. -1.
         25    2    1    2    0    0  0.11728628534E+03 -0.36909654969E+02 -0.84181775297E+02  0.19449624254E+03  0.12499528675E+03 0.  0.
         25    2    1    2    0    0 -0.11728628534E+03  0.36909654969E+02  0.98746650285E+02  0.20122424810E+03  0.12498760628E+03 0.  0.
          5    1    3    3  501    0  0.73352685690E+02 -0.53302377124E+02  0.78146058485E+01  0.91131322659E+02  0.47000000000E+01 0.  1.
         -5    1    3    3    0  501  0.43933599651E+02  0.16392722156E+02 -0.91996381146E+02  0.10336491988E+03  0.47000000000E+01 0.  1.
          5    1    4    4  502    0 -0.60748354226E+02  0.82172944697E+02  0.50586393963E+02  0.11412199015E+03  0.47000000000E+01 0. -1.
         -5    1    4    4    0  502 -0.56537931116E+02 -0.45263289729E+02  0.48160256322E+02  0.87102257955E+02  0.47000000000E+01 0. -1.
<mgrwt>
<rscale>  0 0.39545236E+03</rscale>
<asrwt>0</asrwt>
<pdfrwt beam="1">  1       21 0.31560412E-01 0.39545236E+03</pdfrwt>
<pdfrwt beam="2">  1       21 0.29319663E-01 0.39545236E+03</pdfrwt>
<totfact> 0.10145907E+05</totfact>
</mgrwt>
</event>
<event>
 8    1  0.9331162E-006  0.2879997E+03  0.7546771E-02  0.1091398E+00
         21   -1    0    0  504  503  0.00000000000E+00  0.00000000000E+00  0.10594060771E+03  0.10594060771E+03  0.00000000000E+00 0. -1.
         21   -1    0    0  503  504 -0.00000000000E+00 -0.00000000000E+00 -0.19573183960E+03  0.19573183960E+03  0.00000000000E+00 0. -1.
         25    2    1    2    0    0  0.22258152232E+01  0.69892485649E+02 -0.60309182246E+02  0.15543223995E+03  0.12502827659E+03 0.  0.
         25    2    1    2    0    0 -0.22258152232E+01 -0.69892485649E+02 -0.29482049648E+02  0.14624020736E+03  0.12500837249E+03 0.  0.
          5    1    3    3  501    0 -0.34402405087E+01  0.98306873436E+02 -0.12414547298E+02  0.99258690320E+02  0.47000000000E+01 0. -1.
         -5    1    3    3    0  501  0.56660557319E+01 -0.28414387787E+02 -0.47894634948E+02  0.56173549627E+02  0.47000000000E+01 0. -1.
          5    1    4    4  502    0  0.28417431698E+02 -0.17729225655E+02 -0.66890668824E+02  0.74955503083E+02  0.47000000000E+01 0.  1.
         -5    1    4    4    0  502 -0.30643246921E+02 -0.52163259994E+02  0.37408619177E+02  0.71284704276E+02  0.47000000000E+01 0.  1.
<mgrwt>
<rscale>  0 0.28799965E+03</rscale>
<asrwt>0</asrwt>
<pdfrwt beam="1">  1       21 0.16298555E-01 0.28799965E+03</pdfrwt>
<pdfrwt beam="2">  1       21 0.30112591E-01 0.28799965E+03</pdfrwt>
<totfact> 0.34918416E+05</totfact>
</mgrwt>
</event>
<event>
 8    1  0.9331162E-006  0.3378659E+03  0.7546771E-02  0.1067709E+00
         21   -1    0    0  504  503  0.00000000000E+00  0.00000000000E+00  0.21186393173E+03  0.21186393173E+03  0.00000000000E+00 0. -1.
         21   -1    0    0  503  504 -0.00000000000E+00 -0.00000000000E+00 -0.13470125291E+03  0.13470125291E+03  0.00000000000E+00 0. -1.
         25    2    1    2    0    0  0.10391970516E+03 -0.18265108655E+02  0.81999723837E+02  0.18297884159E+03  0.12499752975E+03 0.  0.
         25    2    1    2    0    0 -0.10391970516E+03  0.18265108655E+02 -0.48370450116E+01  0.16358634305E+03  0.12491667348E+03 0.  0.
          5    1    3    3  501    0  0.66501993502E+02  0.22260924191E+00 -0.22493736753E+02  0.70360662928E+02  0.47000000000E+01 0. -1.
         -5    1    3    3    0  501  0.37417711660E+02 -0.18487717897E+02  0.10449346059E+03  0.11261817866E+03  0.47000000000E+01 0. -1.
          5    1    4    4  502    0 -0.12491777109E+03  0.26348845060E+01  0.20676324733E+02  0.12673197132E+03  0.47000000000E+01 0.  1.
         -5    1    4    4    0  502  0.20998065931E+02  0.15630224149E+02 -0.25513369745E+02  0.36854371729E+02  0.47000000000E+01 0.  1.
<mgrwt>
<rscale>  0 0.33786587E+03</rscale>
<asrwt>0</asrwt>
<pdfrwt beam="1">  1       21 0.32594451E-01 0.33786587E+03</pdfrwt>
<pdfrwt beam="2">  1       21 0.20723270E-01 0.33786587E+03</pdfrwt>
<totfact> 0.18845904E+05</totfact>
</mgrwt>
</event>
<event>
 8    1  0.9331162E-006  0.4184136E+03  0.7546771E-02  0.1037584E+00
         21   -1    0    0  504  503  0.00000000000E+00  0.00000000000E+00  0.65454752237E+03  0.65454752237E+03  0.00000000000E+00 0.  1.
         21   -1    0    0  503  504 -0.00000000000E+00 -0.00000000000E+00 -0.66866787491E+02  0.66866787491E+02  0.00000000000E+00 0.  1.
         25    2    1    2    0    0 -0.14345655956E+03 -0.28777203240E+02  0.15235607484E+03  0.24545020537E+03  0.12500207145E+03 0.  0.
         25    2    1    2    0    0  0.14345655956E+03  0.28777203240E+02  0.43532466003E+03  0.47596410449E+03  0.12500542877E+03 0.  0.
          5    1    3    3  501    0 -0.88044893538E+02 -0.70198728972E+02  0.53646461300E+02  0.12481905959E+03  0.47000000000E+01 0.  1.
         -5    1    3    3    0  501 -0.55411666024E+02  0.41421525732E+02  0.98709613543E+02  0.12063114578E+03  0.47000000000E+01 0.  1.
          5    1    4    4  502    0  0.84098262492E+02 -0.18576350465E+02  0.99734048248E+02  0.13185813942E+03  0.47000000000E+01 0.  1.
         -5    1    4    4    0  502  0.59358297070E+02  0.47353553705E+02  0.33559061178E+03  0.34410596507E+03  0.47000000000E+01 0.  1.
<mgrwt>
<rscale>  0 0.41841362E+03</rscale>
<asrwt>0</asrwt>
<pdfrwt beam="1">  1       21 0.10069961E+00 0.41841362E+03</pdfrwt>
<pdfrwt beam="2">  1       21 0.10287199E-01 0.41841362E+03</pdfrwt>
<totfact> 0.57694919E+04</totfact>
</mgrwt>
</event>
<event>
 8    1  0.9331162E-006  0.3004587E+03  0.7546771E-02  0.1085012E+00
         21   -1    0    0  504  503  0.00000000000E+00  0.00000000000E+00  0.49353442948E+02  0.49353442948E+02  0.00000000000E+00 0.  1.
         21   -1    0    0  503  504 -0.00000000000E+00 -0.00000000000E+00 -0.45729039129E+03  0.45729039129E+03  0.00000000000E+00 0.  1.
         25    2    1    2    0    0 -0.65563118077E+02 -0.17235124987E+02 -0.28570977530E+03  0.31913985245E+03  0.12499839094E+03 0.  0.
         25    2    1    2    0    0  0.65563118077E+02  0.17235124987E+02 -0.12222717304E+03  0.18750398179E+03  0.12499075714E+03 0.  0.
          5    1    3    3  501    0 -0.34608120592E+02  0.43545544123E+02 -0.54429659733E+02  0.77965468527E+02  0.47000000000E+01 0.  1.
         -5    1    3    3    0  501 -0.30954997485E+02 -0.60780669109E+02 -0.23128011557E+03  0.24117438393E+03  0.47000000000E+01 0.  1.
          5    1    4    4  502    0 -0.18662373219E+02 -0.33925186691E+02 -0.14982838853E+02  0.41782507420E+02  0.47000000000E+01 0. -1.
         -5    1    4    4    0  502  0.84225491296E+02  0.51160311678E+02 -0.10724433419E+03  0.14572147437E+03  0.47000000000E+01 0. -1.
<mgrwt>
<rscale>  0 0.30045868E+03</rscale>
<asrwt>0</asrwt>
<pdfrwt beam="1">  1       21 0.75928372E-02 0.30045868E+03</pdfrwt>
<pdfrwt beam="2">  1       21 0.70352370E-01 0.30045868E+03</pdfrwt>
<totfact> 0.23398361E+05</totfact>
</mgrwt>
</event>
<event>
 8    1  0.9331162E-006  0.3475241E+03  0.7546771E-02  0.1063636E+00
         21   -1    0    0  504  503  0.00000000000E+00  0.00000000000E+00  0.14211060795E+03  0.14211060795E+03  0.00000000000E+00 0.  1.
         21   -1    0    0  503  504 -0.00000000000E+00 -0.00000000000E+00 -0.21246300068E+03  0.21246300068E+03  0.00000000000E+00 0.  1.
         25    2    1    2    0    0 -0.11528442309E+03  0.34005520650E+02 -0.23902641948E+02  0.17505241383E+03  0.12500055062E+03 0.  0.
         25    2    1    2    0    0  0.11528442309E+03 -0.34005520650E+02 -0.46449750776E+02  0.17952119480E+03  0.12499362541E+03 0.  0.
          5    1    3    3  501    0 -0.37477843000E+02  0.13546284447E+02  0.51092933812E+02  0.64966671639E+02  0.47000000000E+01 0.  1.
         -5    1    3    3    0  501 -0.77806580088E+02  0.20459236203E+02 -0.74995575760E+02  0.11008574219E+03  0.47000000000E+01 0.  1.
          5    1    4    4  502    0  0.32022624568E+02 -0.63229419306E+02  0.14076993145E+02  0.72413118190E+02  0.47000000000E+01 0. -1.
         -5    1    4    4    0  502  0.83261798520E+02  0.29223898655E+02 -0.60526743921E+02  0.10710807661E+03  0.47000000000E+01 0. -1.
<mgrwt>
<rscale>  0 0.34752408E+03</rscale>
<asrwt>0</asrwt>
<pdfrwt beam="1">  1       21 0.21863171E-01 0.34752408E+03</pdfrwt>
<pdfrwt beam="2">  1       21 0.32686615E-01 0.34752408E+03</pdfrwt>
<totfact> 0.16890423E+05</totfact>
</mgrwt>
</event>
<event>
 8    1  0.9331162E-006  0.4013741E+03  0.7546771E-02  0.1043305E+00
         21   -1    0    0  504  503  0.00000000000E+00  0.00000000000E+00  0.33078319522E+02  0.33078319522E+02  0.00000000000E+00 0.  1.
         21   -1    0    0  503  504 -0.00000000000E+00 -0.00000000000E+00 -0.12175738952E+04  0.12175738952E+04  0.00000000000E+00 0.  1.
         25    2    1    2    0    0  0.99419083713E+02  0.21915403226E+02 -0.21981316777E+03  0.27259296737E+03  0.12499863212E+03 0.  0.
         25    2    1    2    0    0 -0.99419083713E+02 -0.21915403226E+02 -0.96468240789E+03  0.97805924733E+03  0.12499321617E+03 0.  0.
          5    1    3    3  501    0  0.67797811277E+02 -0.11903865769E+02 -0.21500931666E+03  0.22580819623E+03  0.47000000000E+01 0. -1.
         -5    1    3    3    0  501  0.31621272435E+02  0.33819268996E+02 -0.48038511128E+01  0.46784771148E+02  0.47000000000E+01 0. -1.
          5    1    4    4  502    0 -0.92175266167E+02  0.36935430600E+00 -0.32289139209E+03  0.33582340181E+03  0.47000000000E+01 0. -1.
         -5    1    4    4    0  502 -0.72438175453E+01 -0.22284757532E+02 -0.64179101581E+03  0.64223584553E+03  0.47000000000E+01 0. -1.
<mgrwt>
<rscale>  0 0.40137413E+03</rscale>
<asrwt>0</asrwt>
<pdfrwt beam="1">  1       21 0.50889725E-02 0.40137413E+03</pdfrwt>
<pdfrwt beam="2">  1       21 0.18731905E+00 0.40137413E+03</pdfrwt>
<totfact> 0.38535958E+04</totfact>
</mgrwt>
</event>
<event>
 8    1  0.9331162E-006  0.2507149E+03  0.7546771E-02  0.1112854E+00
         21   -1    0    0  504  503  0.00000000000E+00  0.00000000000E+00  0.45735273037E+03  0.45735273037E+03  0.00000000000E+00 0. -1.
         21   -1    0    0  503  504 -0.00000000000E+00 -0.00000000000E+00 -0.34359667471E+02  0.34359667471E+02  0.00000000000E+00 0. -1.
         25    2    1    2    0    0  0.96986063400E+00 -0.79741851508E+01  0.20178343786E+03  0.23749754172E+03  0.12499599303E+03 0.  0.
         25    2    1    2    0    0 -0.96986063400E+00  0.79741851508E+01  0.22120962505E+03  0.25421485612E+03  0.12500786615E+03 0.  0.
          5    1    3    3  501    0 -0.38832056097E+02  0.40858004710E+02  0.60994366301E+02  0.83184781361E+02  0.47000000000E+01 0.  1.
         -5    1    3    3    0  501  0.39801916731E+02 -0.48832189860E+02  0.14078907155E+03  0.15431276036E+03  0.47000000000E+01 0.  1.
          5    1    4    4  502    0 -0.13964877592E+02  0.53178286238E+02  0.43326945673E+02  0.70158835186E+02  0.47000000000E+01 0. -1.
         -5    1    4    4    0  502  0.12995016958E+02 -0.45204101087E+02  0.17788267937E+03  0.18405602093E+03  0.47000000000E+01 0. -1.
<mgrwt>
<rscale>  0 0.25071488E+03</rscale>
<asrwt>0</asrwt>
<pdfrwt beam="1">  1       21 0.70361954E-01 0.25071488E+03</pdfrwt>
<pdfrwt beam="2">  1       21 0.52861030E-02 0.25071488E+03</pdfrwt>
<totfact> 0.44247882E+05</totfact>
</mgrwt>
</event>
<event>
 8    1  0.9331162E-006  0.2780588E+03  0.7546771E-02  0.1096754E+00
         21   -1    0    0  504  503  0.00000000000E+00  0.00000000000E+00  0.46364421849E+03  0.46364421849E+03  0.00000000000E+00 0. -1.
         21   -1    0    0  503  504 -0.00000000000E+00 -0.00000000000E+00 -0.41689663334E+02  0.41689663334E+02  0.00000000000E+00 0. -1.
         25    2    1    2    0    0 -0.22420022402E+02  0.45726337167E+02  0.27152361143E+03  0.30322702909E+03  0.12501201661E+03 0.  0.
         25    2    1    2    0    0  0.22420022402E+02 -0.45726337167E+02  0.15043094373E+03  0.20210685273E+03  0.12499662305E+03 0.  0.
          5    1    3    3  501    0 -0.83482555186E+01 -0.36502717822E+02  0.15693748747E+03  0.16141129685E+03  0.47000000000E+01 0. -1.
         -5    1    3    3    0  501 -0.14071766883E+02  0.82229054989E+02  0.11458612396E+03  0.14181573224E+03  0.47000000000E+01 0. -1.
          5    1    4    4  502    0  0.37274612273E+02 -0.75501845744E+02  0.54376587516E+02  0.10034355336E+03  0.47000000000E+01 0.  1.
         -5    1    4    4    0  502 -0.14854589871E+02  0.29775508577E+02  0.96054356214E+02  0.10176329937E+03  0.47000000000E+01 0.  1.
<mgrwt>
<rscale>  0 0.27805878E+03</rscale>
<asrwt>0</asrwt>
<pdfrwt beam="1">  1       21 0.71329876E-01 0.27805878E+03</pdfrwt>
<pdfrwt beam="2">  1       21 0.64137947E-02 0.27805878E+03</pdfrwt>
<totfact> 0.30593858E+05</totfact>
</mgrwt>
</event>
<event>
 8    1  0.9331162E-006  0.4489946E+03  0.7546771E-02  0.1028022E+00
         21   -1    0    0  504  503  0.00000000000E+00  0.00000000000E+00  0.10494632838E+04  0.10494632838E+04  0.00000000000E+00 0. -1.
         21   -1    0    0  503  504 -0.00000000000E+00 -0.00000000000E+00 -0.48023621640E+02  0.48023621640E+02  0.00000000000E+00 0. -1.
         25    2    1    2    0    0  0.23719211670E+02  0.12083916247E+03  0.84300718578E+03  0.86107490414E+03  0.12499668426E+03 0.  0.
         25    2    1    2    0    0 -0.23719211670E+02 -0.12083916247E+03  0.15843247637E+03  0.23641200129E+03  0.12500032238E+03 0.  0.
          5    1    3    3  501    0 -0.33373443724E+02  0.42762113846E+02  0.12205888695E+03  0.13365196224E+03  0.47000000000E+01 0.  1.
         -5    1    3    3    0  501  0.57092655394E+02  0.78077048625E+02  0.72094829883E+03  0.72742294190E+03  0.47000000000E+01 0.  1.
          5    1    4    4  502    0 -0.42914177254E+01 -0.64768649181E+02  0.16417995947E+03  0.17660844621E+03  0.47000000000E+01 0. -1.
         -5    1    4    4    0  502 -0.19427793945E+02 -0.56070513290E+02 -0.57474830941E+01  0.59803555079E+02  0.47000000000E+01 0. -1.
<mgrwt>
<rscale>  0 0.44899456E+03</rscale>
<asrwt>0</asrwt>
<pdfrwt beam="1">  1       21 0.16145587E+00 0.44899456E+03</pdfrwt>
<pdfrwt beam="2">  1       21 0.73882502E-02 0.44899456E+03</pdfrwt>
<totfact> 0.30398655E+04</totfact>
</mgrwt>
</event>
<event>
 8    1  0.9331162E-006  0.2709581E+03  0.7546771E-02  0.1100733E+00
         21   -1    0    0  504  503  0.00000000000E+00  0.00000000000E+00  0.70791542084E+02  0.70791542084E+02  0.00000000000E+00 0. -1.
         21   -1    0    0  503  504 -0.00000000000E+00 -0.00000000000E+00 -0.25927629919E+03  0.25927629919E+03  0.00000000000E+00 0. -1.
         25    2    1    2    0    0  0.44780217505E+02  0.16561007166E+02 -0.12007437481E+03  0.17978555520E+03  0.12500182213E+03 0.  0.
         25    2    1    2    0    0 -0.44780217505E+02 -0.16561007166E+02 -0.68410382299E+02  0.15028228607E+03  0.12500100105E+03 0.  0.
          5    1    3    3  501    0 -0.37004297241E+02  0.29559497999E+01 -0.48149867467E+01  0.37727042700E+02  0.47000000000E+01 0. -1.
         -5    1    3    3    0  501  0.81784514746E+02  0.13605057367E+02 -0.11525938806E+03  0.14205851250E+03  0.47000000000E+01 0. -1.
          5    1    4    4  502    0  0.37183066091E+02 -0.10140111326E+02  0.60092104068E+01  0.39288711755E+02  0.47000000000E+01 0. -1.
         -5    1    4    4    0  502 -0.81963283596E+02 -0.64208958402E+01 -0.74419592706E+02  0.11099357432E+03  0.47000000000E+01 0. -1.
<mgrwt>
<rscale>  0 0.27095807E+03</rscale>
<asrwt>0</asrwt>
<pdfrwt beam="1">  1       21 0.10891007E-01 0.27095807E+03</pdfrwt>
<pdfrwt beam="2">  1       21 0.39888661E-01 0.27095807E+03</pdfrwt>
<totfact> 0.41562155E+05</totfact>
</mgrwt>
</event>
<event>
 8    1  0.9331162E-006  0.3313578E+03  0.7546771E-02  0.1070538E+00
         21   -1    0    0  504  503  0.00000000000E+00  0.00000000000E+00  0.53177505812E+02  0.53177505812E+02  0.00000000000E+00 0.  1.
         21   -1    0    0  503  504 -0.00000000000E+00 -0.00000000000E+00 -0.51618640205E+03  0.51618640205E+03  0.00000000000E+00 0.  1.
         25    2    1    2    0    0  0.42425432558E+02  0.76732499655E+02 -0.34201343030E+03  0.37454785488E+03  0.12500046104E+03 0.  0.
         25    2    1    2    0    0 -0.42425432558E+02 -0.76732499655E+02 -0.12099546594E+03  0.19481605299E+03  0.12500239154E+03 0.  0.
          5    1    3    3  501    0  0.78100971138E+02  0.13686453503E+02 -0.19604895372E+03  0.21152863389E+03  0.47000000000E+01 0. -1.
         -5    1    3    3    0  501 -0.35675538580E+02  0.63046046151E+02 -0.14596447658E+03  0.16301922099E+03  0.47000000000E+01 0. -1.
          5    1    4    4  502    0 -0.60805826365E+02  0.11795879037E+02 -0.47299773487E+02  0.78075923652E+02  0.47000000000E+01 0. -1.
         -5    1    4    4    0  502  0.18380393806E+02 -0.88528378691E+02 -0.73695692458E+02  0.11674012933E+03  0.47000000000E+01 0. -1.
<mgrwt>
<rscale>  0 0.33135785E+03</rscale>
<asrwt>0</asrwt>
<pdfrwt beam="1">  1       21 0.81811547E-02 0.33135785E+03</pdfrwt>
<pdfrwt beam="2">  1       21 0.79413293E-01 0.33135785E+03</pdfrwt>
<totfact> 0.15496523E+05</totfact>
</mgrwt>
</event>
<event>
 8    1  0.9331162E-006  0.3566220E+03  0.7546771E-02  0.1059929E+00
         21   -1    0    0  504  503  0.00000000000E+00  0.00000000000E+00  0.62191499479E+02  0.62191499479E+02  0.00000000000E+00 0. -1.
         21   -1    0    0  503  504 -0.00000000000E+00 -0.00000000000E+00 -0.51124038707E+03  0.51124038707E+03  0.00000000000E+00 0. -1.
         25    2    1    2    0    0 -0.70137017366E+01  0.12695468176E+03 -0.22269779675E+03  0.28530078476E+03  0.12504217639E+03 0.  0.
         25    2    1    2    0    0  0.70137017366E+01 -0.12695468176E+03 -0.22635109084E+03  0.28813110179E+03  0.12497212594E+03 0.  0.
          5    1    3    3  501    0  0.16502565295E+02  0.11282211438E+03 -0.22979744209E+03  0.25657380721E+03  0.47000000000E+01 0. -1.
         -5    1    3    3    0  501 -0.23516267032E+02  0.14132567378E+02  0.70996453331E+01  0.28726977559E+02  0.47000000000E+01 0. -1.
          5    1    4    4  502    0 -0.14927098355E+02 -0.13899201203E+03 -0.13918723671E+03  0.19732403436E+03  0.47000000000E+01 0.  1.
         -5    1    4    4    0  502  0.21940800092E+02  0.12037330269E+02 -0.87163854122E+02  0.90807067424E+02  0.47000000000E+01 0.  1.
<mgrwt>
<rscale>  0 0.35662196E+03</rscale>
<asrwt>0</asrwt>
<pdfrwt beam="1">  1       21 0.95679232E-02 0.35662196E+03</pdfrwt>
<pdfrwt beam="2">  1       21 0.78652365E-01 0.35662196E+03</pdfrwt>
<totfact> 0.11929197E+05</totfact>
</mgrwt>
</event>
<event>
 8    1  0.9331162E-006  0.5395353E+03  0.7546771E-02  0.1003946E+00
         21   -1    0    0  504  503  0.00000000000E+00  0.00000000000E+00  0.31363279339E+02  0.31363279339E+02  0.00000000000E+00 0. -1.
         21   -1    0    0  503  504 -0.00000000000E+00 -0.00000000000E+00 -0.23203752760E+04  0.23203752760E+04  0.00000000000E+00 0. -1.
         25    2    1    2    0    0  0.15482497342E+03  0.18203890481E+03 -0.11727848111E+04  0.12033931311E+04  0.12498751807E+03 0.  0.
         25    2    1    2    0    0 -0.15482497342E+03 -0.18203890481E+03 -0.11162271856E+04  0.11483454242E+04  0.12500059292E+03 0.  0.
          5    1    3    3  501    0  0.19780967804E+02  0.93003467330E+02 -0.62491142073E+03  0.63212127426E+03  0.47000000000E+01 0. -1.
         -5    1    3    3    0  501  0.13504400562E+03  0.89035437480E+02 -0.54787339036E+03  0.57127185687E+03  0.47000000000E+01 0. -1.
          5    1    4    4  502    0 -0.70739392499E+02 -0.13269071258E+03 -0.43769008805E+03  0.46282349771E+03  0.47000000000E+01 0. -1.
         -5    1    4    4    0  502 -0.84085580924E+02 -0.49348192235E+02 -0.67853709753E+03  0.68552192651E+03  0.47000000000E+01 0. -1.
<mgrwt>
<rscale>  0 0.53953527E+03</rscale>
<asrwt>0</asrwt>
<pdfrwt beam="1">  1       21 0.48251191E-02 0.53953527E+03</pdfrwt>
<pdfrwt beam="2">  1       21 0.35698087E+00 0.53953527E+03</pdfrwt>
<totfact> 0.35358777E+03</totfact>
</mgrwt>
</event>
<event>
 8    1  0.9331162E-006  0.4773240E+03  0.7546771E-02  0.1019873E+00
         21   -1    0    0  504  503  0.00000000000E+00  0.00000000000E+00  0.13671134288E+03  0.13671134288E+03  0.00000000000E+00 0. -1.
         21   -1    0    0  503  504 -0.00000000000E+00 -0.00000000000E+00 -0.41664103124E+03  0.41664103124E+03  0.00000000000E+00 0. -1.
         25    2    1    2    0    0 -0.15382347891E+03 -0.14358614026E+02  0.13227084943E+02  0.19918703284E+03  0.12503073947E+03 0.  0.
         25    2    1    2    0    0  0.15382347891E+03  0.14358614026E+02 -0.29315677330E+03  0.35416534129E+03  0.12499745106E+03 0.  0.
          5    1    3    3  501    0 -0.52917533536E+02  0.28033240906E+02  0.55481652712E+02  0.81770604369E+02  0.47000000000E+01 0. -1.
         -5    1    3    3    0  501 -0.10090594537E+03 -0.42391854932E+02 -0.42254567769E+02  0.11741642847E+03  0.47000000000E+01 0. -1.
          5    1    4    4  502    0  0.14141188127E+03  0.57967079667E+02 -0.23295310140E+03  0.27865164622E+03  0.47000000000E+01 0. -1.
         -5    1    4    4    0  502  0.12411597639E+02 -0.43608465641E+02 -0.60203671909E+02  0.75513695068E+02  0.47000000000E+01 0. -1.
<mgrwt>
<rscale>  0 0.47732402E+03</rscale>
<asrwt>0</asrwt>
<pdfrwt beam="1">  1       21 0.21032514E-01 0.47732402E+03</pdfrwt>
<pdfrwt beam="2">  1       21 0.64098620E-01 0.47732402E+03</pdfrwt>
<totfact> 0.43054027E+04</totfact>
</mgrwt>
</event>
<event>
 8    1  0.9331162E-006  0.2732375E+03  0.7546771E-02  0.1099441E+00
         21   -1    0    0  504  503  0.00000000000E+00  0.00000000000E+00  0.26018051710E+03  0.26018051710E+03  0.00000000000E+00 0.  1.
         21   -1    0    0  503  504 -0.00000000000E+00 -0.00000000000E+00 -0.71737417460E+02  0.71737417460E+02  0.00000000000E+00 0.  1.
         25    2    1    2    0    0 -0.25112334442E+02  0.48808692684E+02  0.87989282570E+02  0.16241886518E+03  0.12499942439E+03 0.  0.
         25    2    1    2    0    0  0.25112334442E+02 -0.48808692684E+02  0.10045381707E+03  0.16949906938E+03  0.12500418926E+03 0.  0.
          5    1    3    3  501    0 -0.51997242479E+02  0.24578041740E+02  0.10677552106E+03  0.12137089956E+03  0.47000000000E+01 0.  1.
         -5    1    3    3    0  501  0.26884908037E+02  0.24230650944E+02 -0.18786238493E+02  0.41047965626E+02  0.47000000000E+01 0.  1.
          5    1    4    4  502    0 -0.27480128271E+01 -0.79946916034E+02  0.26449605127E+02  0.84384433217E+02  0.47000000000E+01 0.  1.
         -5    1    4    4    0  502  0.27860347269E+02  0.31138223350E+02  0.74004211943E+02  0.85114636160E+02  0.47000000000E+01 0.  1.
<mgrwt>
<rscale>  0 0.27323747E+03</rscale>
<asrwt>0</asrwt>
<pdfrwt beam="1">  1       21 0.40027771E-01 0.27323747E+03</pdfrwt>
<pdfrwt beam="2">  1       21 0.11036526E-01 0.27323747E+03</pdfrwt>
<totfact> 0.40281611E+05</totfact>
</mgrwt>
</event>
<event>
 8    1  0.9331162E-006  0.2627813E+03  0.7546771E-02  0.1105484E+00
         21   -1    0    0  504  503  0.00000000000E+00  0.00000000000E+00  0.18017920817E+03  0.18017920817E+03  0.00000000000E+00 0. -1.
         21   -1    0    0  503  504 -0.00000000000E+00 -0.00000000000E+00 -0.95812958275E+02  0.95812958275E+02  0.00000000000E+00 0. -1.
         25    2    1    2    0    0 -0.20451769654E+02 -0.32013969493E+02  0.27485913532E+02  0.13350348215E+03  0.12499814070E+03 0.  0.
         25    2    1    2    0    0  0.20451769654E+02  0.32013969493E+02  0.56880336367E+02  0.14248868430E+03  0.12499793343E+03 0.  0.
          5    1    3    3  501    0 -0.61015383405E+02 -0.22413411451E+02  0.53349351321E+02  0.84222807548E+02  0.47000000000E+01 0.  1.
         -5    1    3    3    0  501  0.40563613751E+02 -0.96005580414E+01 -0.25863437789E+02  0.49280674605E+02  0.47000000000E+01 0.  1.
          5    1    4    4  502    0  0.66799739928E+02  0.37523416806E+02  0.56946573547E+02  0.95578315020E+02  0.47000000000E+01 0.  1.
         -5    1    4    4    0  502 -0.46347970274E+02 -0.55094473136E+01 -0.66237180811E-01  0.46910369276E+02  0.47000000000E+01 0.  1.
<mgrwt>
<rscale>  0 0.26278130E+03</rscale>
<asrwt>0</asrwt>
<pdfrwt beam="1">  1       21 0.27719878E-01 0.26278130E+03</pdfrwt>
<pdfrwt beam="2">  1       21 0.14740455E-01 0.26278130E+03</pdfrwt>
<totfact> 0.49628367E+05</totfact>
</mgrwt>
</event>
<event>
 8    1  0.9331162E-006  0.5522217E+03  0.7546771E-02  0.1000981E+00
         21   -1    0    0  504  503  0.00000000000E+00  0.00000000000E+00  0.16943167124E+03  0.16943167124E+03  0.00000000000E+00 0. -1.
         21   -1    0    0  503  504 -0.00000000000E+00 -0.00000000000E+00 -0.44995831590E+03  0.44995831590E+03  0.00000000000E+00 0. -1.
         25    2    1    2    0    0 -0.20497120249E+03  0.39942562654E+02  0.59878561611E+01  0.24345837785E+03  0.12501010024E+03 0.  0.
         25    2    1    2    0    0  0.20497120249E+03 -0.39942562654E+02 -0.28651450083E+03  0.37593160929E+03  0.12500165407E+03 0.  0.
          5    1    3    3  501    0 -0.54192343802E+02 -0.29227829292E+02 -0.37051415634E+02  0.72013703782E+02  0.47000000000E+01 0.  1.
         -5    1    3    3    0  501 -0.15077885869E+03  0.69170391946E+02  0.43039271795E+02  0.17144467407E+03  0.47000000000E+01 0.  1.
          5    1    4    4  502    0  0.10260387497E+03 -0.70870840639E+01 -0.23512397034E+03  0.25667713834E+03  0.47000000000E+01 0.  1.
         -5    1    4    4    0  502  0.10236732752E+03 -0.32855478591E+02 -0.51390530484E+02  0.11925447095E+03  0.47000000000E+01 0.  1.
<mgrwt>
<rscale>  0 0.55222166E+03</rscale>
<asrwt>0</asrwt>
<pdfrwt beam="1">  1       21 0.26066411E-01 0.55222166E+03</pdfrwt>
<pdfrwt beam="2">  1       21 0.69224355E-01 0.55222166E+03</pdfrwt>
<totfact> 0.23539693E+04</totfact>
</mgrwt>
</event>
<event>
 8    1  0.9331162E-006  0.2886440E+03  0.7546771E-02  0.1091059E+00
         21   -1    0    0  504  503  0.00000000000E+00  0.00000000000E+00  0.16888428365E+04  0.16888428365E+04  0.00000000000E+00 0.  1.
         21   -1    0    0  503  504 -0.00000000000E+00 -0.00000000000E+00 -0.12333204914E+02  0.12333204914E+02  0.00000000000E+00 0.  1.
         25    2    1    2    0    0  0.43129023416E+02 -0.35138774465E+02  0.56743702572E+03  0.58369590131E+03  0.12498512277E+03 0.  0.
         25    2    1    2    0    0 -0.43129023416E+02  0.35138774465E+02  0.11090726058E+04  0.11174801401E+04  0.12499988928E+03 0.  0.
          5    1    3    3  501    0  0.53603336077E+02 -0.33834220872E+02  0.56854638443E+03  0.57208841396E+03  0.47000000000E+01 0.  1.
         -5    1    3    3    0  501 -0.10474312661E+02 -0.13045535923E+01 -0.11093587082E+01  0.11607487348E+02  0.47000000000E+01 0.  1.
          5    1    4    4  502    0 -0.58252531224E+02  0.33464714818E+02  0.10922170677E+04  0.10942913037E+04  0.47000000000E+01 0.  1.
         -5    1    4    4    0  502  0.15123507808E+02  0.16740596466E+01  0.16855538193E+02  0.23188836364E+02  0.47000000000E+01 0.  1.
<mgrwt>
<rscale>  0 0.28864404E+03</rscale>
<asrwt>0</asrwt>
<pdfrwt beam="1">  1       21 0.25982179E+00 0.28864404E+03</pdfrwt>
<pdfrwt beam="2">  1       21 0.18974175E-02 0.28864404E+03</pdfrwt>
<totfact> 0.73537882E+04</totfact>
</mgrwt>
</event>
<event>
 8    1  0.9331162E-006  0.2658264E+03  0.7546771E-02  0.1103692E+00
         21   -1    0    0  504  503  0.00000000000E+00  0.00000000000E+00  0.55085967053E+03  0.55085967053E+03  0.00000000000E+00 0. -1.
         21   -1    0    0  503  504 -0.00000000000E+00 -0.00000000000E+00 -0.32069728766E+02  0.32069728766E+02  0.00000000000E+00 0. -1.
         25    2    1    2    0    0 -0.20453854858E+02 -0.33538444191E+01  0.34735680255E+03  0.36974476569E+03  0.12499934010E+03 0.  0.
         25    2    1    2    0    0  0.20453854858E+02  0.33538444191E+01  0.17143313921E+03  0.21318463360E+03  0.12501503244E+03 0.  0.
          5    1    3    3  501    0  0.18582531017E+02  0.21881669110E+02  0.12528877061E+02  0.31673027365E+02  0.47000000000E+01 0. -1.
         -5    1    3    3    0  501 -0.39036385875E+02 -0.25235513529E+02  0.33482792549E+03  0.33807173833E+03  0.47000000000E+01 0. -1.
          5    1    4    4  502    0  0.34943696577E+02  0.32742659946E+02  0.10981630369E+02  0.49354127653E+02  0.47000000000E+01 0. -1.
         -5    1    4    4    0  502 -0.14489841719E+02 -0.29388815527E+02  0.16045150884E+03  0.16383050595E+03  0.47000000000E+01 0. -1.
<mgrwt>
<rscale>  0 0.26582641E+03</rscale>
<asrwt>0</asrwt>
<pdfrwt beam="1">  1       21 0.84747635E-01 0.26582641E+03</pdfrwt>
<pdfrwt beam="2">  1       21 0.49338048E-02 0.26582641E+03</pdfrwt>
<totfact> 0.32567902E+05</totfact>
</mgrwt>
</event>
<event>
 8    1  0.9331162E-006  0.4106691E+03  0.7546771E-02  0.1040147E+00
         21   -1    0    0  504  503  0.00000000000E+00  0.00000000000E+00  0.72866531067E+02  0.72866531067E+02  0.00000000000E+00 0. -1.
         21   -1    0    0  503  504 -0.00000000000E+00 -0.00000000000E+00 -0.57862323498E+03  0.57862323498E+03  0.00000000000E+00 0. -1.
         25    2    1    2    0    0 -0.13416507558E+03 -0.80460458053E+01 -0.10686318042E+03  0.21239189765E+03  0.12500228998E+03 0.  0.
         25    2    1    2    0    0  0.13416507558E+03  0.80460458053E+01 -0.39889352349E+03  0.43909786840E+03  0.12500355432E+03 0.  0.
          5    1    3    3  501    0 -0.58485440139E+02  0.16280280042E+02  0.18707793966E+02  0.63699809902E+02  0.47000000000E+01 0.  1.
         -5    1    3    3    0  501 -0.75679635436E+02 -0.24326325848E+02 -0.12557097439E+03  0.14869208775E+03  0.47000000000E+01 0.  1.
          5    1    4    4  502    0  0.52170486581E+02  0.13140560350E+02 -0.31327101551E+02  0.62433254665E+02  0.47000000000E+01 0.  1.
         -5    1    4    4    0  502  0.81994588994E+02 -0.50945145451E+01 -0.36756642194E+03  0.37666461374E+03  0.47000000000E+01 0.  1.
<mgrwt>
<rscale>  0 0.41066905E+03</rscale>
<asrwt>0</asrwt>
<pdfrwt beam="1">  1       21 0.11210235E-01 0.41066905E+03</pdfrwt>
<pdfrwt beam="2">  1       21 0.89018960E-01 0.41066905E+03</pdfrwt>
<totfact> 0.66464912E+04</totfact>
</mgrwt>
</event>
<event>
 8    1  0.9331162E-006  0.4912601E+03  0.7546771E-02  0.1016086E+00
         21   -1    0    0  504  503  0.00000000000E+00  0.00000000000E+00  0.26469440483E+03  0.26469440483E+03  0.00000000000E+00 0. -1.
         21   -1    0    0  503  504 -0.00000000000E+00 -0.00000000000E+00 -0.22793881074E+03  0.22793881074E+03  0.00000000000E+00 0. -1.
         25    2    1    2    0    0  0.75534934234E+02  0.18991294261E+03 -0.35960614433E+02  0.24225982105E+03  0.12499681213E+03 0.  0.
         25    2    1    2    0    0 -0.75534934234E+02 -0.18991294261E+03  0.72716208530E+02  0.25037339452E+03  0.12500695037E+03 0.  0.
          5    1    3    3  501    0  0.77467511384E+02  0.36299327572E+02 -0.17612885325E+02  0.87470910774E+02  0.47000000000E+01 0. -1.
         -5    1    3    3    0  501 -0.19325771503E+01  0.15361361504E+03 -0.18347729108E+02  0.15478891027E+03  0.47000000000E+01 0. -1.
          5    1    4    4  502    0 -0.61886440214E+02 -0.15762529513E+02  0.28670075909E+02  0.70160188652E+02  0.47000000000E+01 0. -1.
         -5    1    4    4    0  502 -0.13648494020E+02 -0.17415041310E+03  0.44046132621E+02  0.18021320587E+03  0.47000000000E+01 0. -1.
<mgrwt>
<rscale>  0 0.49126013E+03</rscale>
<asrwt>0</asrwt>
<pdfrwt beam="1">  1       21 0.40722216E-01 0.49126013E+03</pdfrwt>
<pdfrwt beam="2">  1       21 0.35067509E-01 0.49126013E+03</pdfrwt>
<totfact> 0.41434741E+04</totfact>
</mgrwt>
</event>
<event>
 8    1  0.9331162E-006  0.3835701E+03  0.7546771E-02  0.1049622E+00
         21   -1    0    0  504  503  0.00000000000E+00  0.00000000000E+00  0.15555984666E+03  0.15555984666E+03  0.00000000000E+00 0.  1.
         21   -1    0    0  503  504 -0.00000000000E+00 -0.00000000000E+00 -0.23644605840E+03  0.23644605840E+03  0.00000000000E+00 0.  1.
         25    2    1    2    0    0  0.34261981810E+02 -0.13499790603E+03  0.24147441683E+01  0.18716016140E+03  0.12499910798E+03 0.  0.
         25    2    1    2    0    0 -0.34261981810E+02  0.13499790603E+03 -0.83300955904E+02  0.20484574366E+03  0.12499764562E+03 0.  0.
          5    1    3    3  501    0 -0.19610429439E+02 -0.32080808314E+01 -0.34420689013E+02  0.40021676096E+02  0.47000000000E+01 0.  1.
         -5    1    3    3    0  501  0.53872411249E+02 -0.13178982520E+03  0.36835433181E+02  0.14713848530E+03  0.47000000000E+01 0.  1.
          5    1    4    4  502    0 -0.45672199100E+02  0.88059635253E+02  0.98622034129E+01  0.99798808549E+02  0.47000000000E+01 0.  1.
         -5    1    4    4    0  502  0.11410217290E+02  0.46938270775E+02 -0.93163159317E+02  0.10504693511E+03  0.47000000000E+01 0.  1.
<mgrwt>
<rscale>  0 0.38357014E+03</rscale>
<asrwt>0</asrwt>
<pdfrwt beam="1">  1       21 0.23932284E-01 0.38357014E+03</pdfrwt>
<pdfrwt beam="2">  1       21 0.36376317E-01 0.38357014E+03</pdfrwt>
<totfact> 0.11365773E+05</totfact>
</mgrwt>
</event>
<event>
 8    1  0.9331162E-006  0.3987474E+03  0.7546771E-02  0.1044214E+00
         21   -1    0    0  504  503  0.00000000000E+00  0.00000000000E+00  0.13188471553E+03  0.13188471553E+03  0.00000000000E+00 0.  1.
         21   -1    0    0  503  504 -0.00000000000E+00 -0.00000000000E+00 -0.30139861535E+03  0.30139861535E+03  0.00000000000E+00 0.  1.
         25    2    1    2    0    0  0.15086754151E+03 -0.36814231198E+02 -0.87558444971E+02  0.21773345914E+03  0.12500030097E+03 0.  0.
         25    2    1    2    0    0 -0.15086754151E+03  0.36814231198E+02 -0.81955454848E+02  0.21554987174E+03  0.12501499082E+03 0.  0.
          5    1    3    3  501    0  0.18755259495E+02 -0.61716505033E+02 -0.24404969290E+02  0.69125822081E+02  0.47000000000E+01 0.  1.
         -5    1    3    3    0  501  0.13211228201E+03  0.24902273835E+02 -0.63153475681E+02  0.14860763705E+03  0.47000000000E+01 0.  1.
          5    1    4    4  502    0 -0.57408534451E+02 -0.38332306032E+02  0.17762003337E+01  0.69212357286E+02  0.47000000000E+01 0.  1.
         -5    1    4    4    0  502 -0.93459007056E+02  0.75146537230E+02 -0.83731655181E+02  0.14633751446E+03  0.47000000000E+01 0.  1.
<mgrwt>
<rscale>  0 0.39874739E+03</rscale>
<asrwt>0</asrwt>
<pdfrwt beam="1">  1       21 0.20289957E-01 0.39874739E+03</pdfrwt>
<pdfrwt beam="2">  1       21 0.46369017E-01 0.39874739E+03</pdfrwt>
<totfact> 0.94244570E+04</totfact>
</mgrwt>
</event>
<event>
 8    1  0.9331162E-006  0.2997299E+03  0.7546771E-02  0.1085376E+00
         21   -1    0    0  504  503  0.00000000000E+00  0.00000000000E+00  0.33177096096E+03  0.33177096096E+03  0.00000000000E+00 0. -1.
         21   -1    0    0  503  504 -0.00000000000E+00 -0.00000000000E+00 -0.67695788600E+02  0.67695788600E+02  0.00000000000E+00 0. -1.
         25    2    1    2    0    0 -0.68611070827E+02  0.25111696018E+02  0.80488459946E+02  0.16565355723E+03  0.12499853007E+03 0.  0.
         25    2    1    2    0    0  0.68611070827E+02 -0.25111696018E+02  0.18358671241E+03  0.23381319233E+03  0.12500580633E+03 0.  0.
          5    1    3    3  501    0 -0.28795420901E+02  0.63550069214E+02  0.25818278999E+01  0.69975305625E+02  0.47000000000E+01 0.  1.
         -5    1    3    3    0  501 -0.39815649925E+02 -0.38438373195E+02  0.77906632047E+02  0.95678251603E+02  0.47000000000E+01 0.  1.
          5    1    4    4  502    0  0.49119361487E+02  0.47335445945E+02  0.72251211920E+02  0.99477051322E+02  0.47000000000E+01 0.  1.
         -5    1    4    4    0  502  0.19491709339E+02 -0.72447141963E+02  0.11133550049E+03  0.13433614101E+03  0.47000000000E+01 0.  1.
<mgrwt>
<rscale>  0 0.29972986E+03</rscale>
<asrwt>0</asrwt>
<pdfrwt beam="1">  1       21 0.51041685E-01 0.29972986E+03</pdfrwt>
<pdfrwt beam="2">  1       21 0.10414737E-01 0.29972986E+03</pdfrwt>
<totfact> 0.26845393E+05</totfact>
</mgrwt>
</event>
<event>
 8    1  0.9331162E-006  0.2758950E+03  0.7546771E-02  0.1097952E+00
         21   -1    0    0  504  503  0.00000000000E+00  0.00000000000E+00  0.77850910359E+02  0.77850910359E+02  0.00000000000E+00 0.  1.
         21   -1    0    0  503  504 -0.00000000000E+00 -0.00000000000E+00 -0.24443533912E+03  0.24443533912E+03  0.00000000000E+00 0.  1.
         25    2    1    2    0    0  0.36776065648E+02  0.12883836557E+02 -0.32571432502E+02  0.13493044183E+03  0.12500741445E+03 0.  0.
         25    2    1    2    0    0 -0.36776065648E+02 -0.12883836557E+02 -0.13401299626E+03  0.18735580765E+03  0.12499697295E+03 0.  0.
          5    1    3    3  501    0  0.51588130317E+01 -0.40243647822E+02  0.26988722679E+02  0.48955548140E+02  0.47000000000E+01 0. -1.
         -5    1    3    3    0  501  0.31617252617E+02  0.53127484379E+02 -0.59560155181E+02  0.85974893687E+02  0.47000000000E+01 0. -1.
          5    1    4    4  502    0 -0.50588656533E+02 -0.61323237300E+02 -0.72322311694E+02  0.10757489657E+03  0.47000000000E+01 0. -1.
         -5    1    4    4    0  502  0.13812590885E+02  0.48439400743E+02 -0.61690684568E+02  0.79780911086E+02  0.47000000000E+01 0. -1.
<mgrwt>
<rscale>  0 0.27589501E+03</rscale>
<asrwt>0</asrwt>
<pdfrwt beam="1">  1       21 0.11977063E-01 0.27589501E+03</pdfrwt>
<pdfrwt beam="2">  1       21 0.37605436E-01 0.27589501E+03</pdfrwt>
<totfact> 0.39448276E+05</totfact>
</mgrwt>
</event>
<event>
 8    1  0.9331162E-006  0.2585271E+03  0.7546771E-02  0.1108031E+00
         21   -1    0    0  504  503  0.00000000000E+00  0.00000000000E+00  0.71947661258E+03  0.71947661258E+03  0.00000000000E+00 0.  1.
         21   -1    0    0  503  504 -0.00000000000E+00 -0.00000000000E+00 -0.23223918017E+02  0.23223918017E+02  0.00000000000E+00 0.  1.
         25    2    1    2    0    0  0.24691718904E+02  0.12799002443E+02  0.39877810331E+03  0.41883397843E+03  0.12499772145E+03 0.  0.
         25    2    1    2    0    0 -0.24691718904E+02 -0.12799002443E+02  0.29747459125E+03  0.32386655216E+03  0.12499966289E+03 0.  0.
          5    1    3    3  501    0 -0.42092855261E+02  0.17892539134E+02  0.73486102810E+02  0.86684766406E+02  0.47000000000E+01 0.  1.
         -5    1    3    3    0  501  0.66784574165E+02 -0.50935366916E+01  0.32529200050E+03  0.33214921203E+03  0.47000000000E+01 0.  1.
          5    1    4    4  502    0 -0.65430985517E+02 -0.25941992811E+02  0.10406835930E+03  0.12572396058E+03  0.47000000000E+01 0. -1.
         -5    1    4    4    0  502  0.40739266613E+02  0.13142990368E+02  0.19340623195E+03  0.19814259158E+03  0.47000000000E+01 0. -1.
<mgrwt>
<rscale>  0 0.25852710E+03</rscale>
<asrwt>0</asrwt>
<pdfrwt beam="1">  1       21 0.11068869E+00 0.25852710E+03</pdfrwt>
<pdfrwt beam="2">  1       21 0.35729110E-02 0.25852710E+03</pdfrwt>
<totfact> 0.29864017E+05</totfact>
</mgrwt>
</event>
<event>
 8    1  0.9331162E-006  0.4946485E+03  0.7546771E-02  0.1015185E+00
         21   -1    0    0  504  503  0.00000000000E+00  0.00000000000E+00  0.13961118125E+03  0.13961118125E+03  0.00000000000E+00 0.  1.
         21   -1    0    0  503  504 -0.00000000000E+00 -0.00000000000E+00 -0.43814035202E+03  0.43814035202E+03  0.00000000000E+00 0.  1.
         25    2    1    2    0    0 -0.11294027808E+03  0.14218504928E+03 -0.18336776609E+02  0.22123203602E+03  0.12504112017E+03 0.  0.
         25    2    1    2    0    0  0.11294027808E+03 -0.14218504928E+03 -0.28019239416E+03  0.35651949725E+03  0.12500511800E+03 0.  0.
          5    1    3    3  501    0 -0.12580276238E+03  0.11538964591E+03 -0.49609889557E+02  0.17783232706E+03  0.47000000000E+01 0. -1.
         -5    1    3    3    0  501  0.12862484304E+02  0.26795403374E+02  0.31273112948E+02  0.43399708961E+02  0.47000000000E+01 0. -1.
          5    1    4    4  502    0  0.12455144657E+03 -0.14778258846E+03 -0.21180154606E+03  0.28676600428E+03  0.47000000000E+01 0.  1.
         -5    1    4    4    0  502 -0.11611168498E+02  0.55975391797E+01 -0.68390848098E+02  0.69753492975E+02  0.47000000000E+01 0.  1.
<mgrwt>
<rscale>  0 0.49464853E+03</rscale>
<asrwt>0</asrwt>
<pdfrwt beam="1">  1       21 0.21478644E-01 0.49464853E+03</pdfrwt>
<pdfrwt beam="2">  1       21 0.67406207E-01 0.49464853E+03</pdfrwt>
<totfact> 0.36828950E+04</totfact>
</mgrwt>
</event>
<event>
 8    1  0.9331162E-006  0.2570380E+03  0.7546771E-02  0.1108936E+00
         21   -1    0    0  504  503  0.00000000000E+00  0.00000000000E+00  0.26268220421E+03  0.26268220421E+03  0.00000000000E+00 0.  1.
         21   -1    0    0  503  504 -0.00000000000E+00 -0.00000000000E+00 -0.62878789849E+02  0.62878789849E+02  0.00000000000E+00 0.  1.
         25    2    1    2    0    0 -0.27357828274E+02 -0.37846206302E+01  0.85518744209E+02  0.15395631464E+03  0.12500526823E+03 0.  0.
         25    2    1    2    0    0  0.27357828274E+02  0.37846206302E+01  0.11428467015E+03  0.17160467942E+03  0.12499762416E+03 0.  0.
          5    1    3    3  501    0 -0.74389879918E+02 -0.12991717284E+02  0.32538923061E+02  0.82362069341E+02  0.47000000000E+01 0.  1.
         -5    1    3    3    0  501  0.47032051644E+02  0.92070966539E+01  0.52979821147E+02  0.71594245296E+02  0.47000000000E+01 0.  1.
          5    1    4    4  502    0 -0.49092870877E+02  0.12181530000E+02  0.41253245338E+02  0.65440200909E+02  0.47000000000E+01 0. -1.
         -5    1    4    4    0  502  0.76450699151E+02 -0.83969093695E+01  0.73031424815E+02  0.10616447851E+03  0.47000000000E+01 0. -1.
<mgrwt>
<rscale>  0 0.25703804E+03</rscale>
<asrwt>0</asrwt>
<pdfrwt beam="1">  1       21 0.40412646E-01 0.25703804E+03</pdfrwt>
<pdfrwt beam="2">  1       21 0.96736601E-02 0.25703804E+03</pdfrwt>
<totfact> 0.50118794E+05</totfact>
</mgrwt>
</event>
<event>
 8    1  0.9331162E-006  0.3102205E+03  0.7546771E-02  0.1080240E+00
         21   -1    0    0  504  503  0.00000000000E+00  0.00000000000E+00  0.15004191047E+03  0.15004191047E+03  0.00000000000E+00 0.  1.
         21   -1    0    0  503  504 -0.00000000000E+00 -0.00000000000E+00 -0.16034983836E+03  0.16034983836E+03  0.00000000000E+00 0.  1.
         25    2    1    2    0    0  0.88930970495E+02  0.14946536488E+02  0.12250278216E+02  0.15461812843E+03  0.12499831941E+03 0.  0.
         25    2    1    2    0    0 -0.88930970495E+02 -0.14946536488E+02 -0.22558206110E+02  0.15577362040E+03  0.12499772672E+03 0.  0.
          5    1    3    3  501    0  0.42325669231E+02 -0.49969002316E+01 -0.55334957589E+02  0.70003420054E+02  0.47000000000E+01 0.  1.
         -5    1    3    3    0  501  0.46605301263E+02  0.19943436720E+02  0.67585235805E+02  0.84614708372E+02  0.47000000000E+01 0.  1.
          5    1    4    4  502    0 -0.69074522499E+02 -0.17923020774E+02 -0.72441692033E+02  0.10179593841E+03  0.47000000000E+01 0. -1.
         -5    1    4    4    0  502 -0.19856447995E+02  0.29764842857E+01  0.49883485923E+02  0.53977681995E+02  0.47000000000E+01 0. -1.
<mgrwt>
<rscale>  0 0.31022054E+03</rscale>
<asrwt>0</asrwt>
<pdfrwt beam="1">  1       21 0.23083371E-01 0.31022054E+03</pdfrwt>
<pdfrwt beam="2">  1       21 0.24669206E-01 0.31022054E+03</pdfrwt>
<totfact> 0.26634847E+05</totfact>
</mgrwt>
</event>
<event>
 8    1  0.9331162E-006  0.2718722E+03  0.7546771E-02  0.1100213E+00
         21   -1    0    0  504  503  0.00000000000E+00  0.00000000000E+00  0.18074001090E+02  0.18074001090E+02  0.00000000000E+00 0.  1.
         21   -1    0    0  503  504 -0.00000000000E+00 -0.00000000000E+00 -0.10223867685E+04  0.10223867685E+04  0.00000000000E+00 0.  1.
         25    2    1    2    0    0 -0.41921784931E+02 -0.45803842539E+01 -0.37658235791E+03  0.39902053287E+03  0.12499878954E+03 0.  0.
         25    2    1    2    0    0  0.41921784931E+02  0.45803842539E+01 -0.62773040952E+03  0.64144023674E+03  0.12498677653E+03 0.  0.
          5    1    3    3  501    0  0.36214483099E+02 -0.29147093337E+02 -0.18087521096E+03  0.18681267028E+03  0.47000000000E+01 0.  1.
         -5    1    3    3    0  501 -0.78136268029E+02  0.24566709083E+02 -0.19570714695E+03  0.21220786259E+03  0.47000000000E+01 0.  1.
          5    1    4    4  502    0  0.35096051193E+02 -0.45624221224E+02 -0.50899511307E+03  0.51226108334E+03  0.47000000000E+01 0.  1.
         -5    1    4    4    0  502  0.68257337375E+01  0.50204605478E+02 -0.11873529644E+03  0.12917915340E+03  0.47000000000E+01 0.  1.
<mgrwt>
<rscale>  0 0.27187217E+03</rscale>
<asrwt>0</asrwt>
<pdfrwt beam="1">  1       21 0.27806159E-02 0.27187217E+03</pdfrwt>
<pdfrwt beam="2">  1       21 0.15729025E+00 0.27187217E+03</pdfrwt>
<totfact> 0.18336056E+05</totfact>
</mgrwt>
</event>
<event>
 8    1  0.9331162E-006  0.8448491E+03  0.7546771E-02  0.9497276E-01
         21   -1    0    0  504  503  0.00000000000E+00  0.00000000000E+00  0.15336124305E+03  0.15336124305E+03  0.00000000000E+00 0.  1.
         21   -1    0    0  503  504 -0.00000000000E+00 -0.00000000000E+00 -0.11635437090E+04  0.11635437090E+04  0.00000000000E+00 0.  1.
         25    2    1    2    0    0  0.17127003991E+03  0.33863876843E+03 -0.71885961261E+03  0.82243212290E+03  0.12500324826E+03 0.  0.
         25    2    1    2    0    0 -0.17127003991E+03 -0.33863876843E+03 -0.29132285338E+03  0.49447282919E+03  0.12499892740E+03 0.  0.
          5    1    3    3  501    0 -0.10154790742E+02  0.24645353158E+01 -0.57763322217E+02  0.58888751921E+02  0.47000000000E+01 0. -1.
         -5    1    3    3    0  501  0.18142483065E+03  0.33617423312E+03 -0.66109629040E+03  0.76354337098E+03  0.47000000000E+01 0. -1.
          5    1    4    4  502    0 -0.42057859049E+02 -0.10146538064E+03 -0.15996326584E+03  0.19409900411E+03  0.47000000000E+01 0. -1.
         -5    1    4    4    0  502 -0.12921218086E+03 -0.23717338779E+03 -0.13135958755E+03  0.30037382509E+03  0.47000000000E+01 0. -1.
<mgrwt>
<rscale>  0 0.84484912E+03</rscale>
<asrwt>0</asrwt>
<pdfrwt beam="1">  1       21 0.23594037E-01 0.84484912E+03</pdfrwt>
<pdfrwt beam="2">  1       21 0.17900673E+00 0.84484912E+03</pdfrwt>
<totfact> 0.23913389E+03</totfact>
</mgrwt>
</event>
<event>
 8    1  0.9331162E-006  0.3249405E+03  0.7546771E-02  0.1073398E+00
         21   -1    0    0  504  503  0.00000000000E+00  0.00000000000E+00  0.47267434353E+03  0.47267434353E+03  0.00000000000E+00 0. -1.
         21   -1    0    0  503  504 -0.00000000000E+00 -0.00000000000E+00 -0.55845169365E+02  0.55845169365E+02  0.00000000000E+00 0. -1.
         25    2    1    2    0    0 -0.38159873341E+02 -0.14613797572E+01  0.51449885433E+02  0.14046680195E+03  0.12500208069E+03 0.  0.
         25    2    1    2    0    0  0.38159873341E+02  0.14613797572E+01  0.36537928874E+03  0.38805271095E+03  0.12499828107E+03 0.  0.
          5    1    3    3  501    0 -0.16792509201E+02 -0.23910051181E+02  0.87691097197E+02  0.92549972666E+02  0.47000000000E+01 0.  1.
         -5    1    3    3    0  501 -0.21367364140E+02  0.22448671424E+02 -0.36241211764E+02  0.47916829289E+02  0.47000000000E+01 0.  1.
          5    1    4    4  502    0 -0.20281371964E+02  0.26994654517E+02  0.27630650930E+03  0.27840154903E+03  0.47000000000E+01 0.  1.
         -5    1    4    4    0  502  0.58441245305E+02 -0.25533274760E+02  0.89072779440E+02  0.10965116192E+03  0.47000000000E+01 0.  1.
<mgrwt>
<rscale>  0 0.32494048E+03</rscale>
<asrwt>0</asrwt>
<pdfrwt beam="1">  1       21 0.72719127E-01 0.32494048E+03</pdfrwt>
<pdfrwt beam="2">  1       21 0.85915648E-02 0.32494048E+03</pdfrwt>
<totfact> 0.17383070E+05</totfact>
</mgrwt>
</event>
<event>
 8    1  0.9331162E-006  0.3417471E+03  0.7546771E-02  0.1066054E+00
         21   -1    0    0  504  503  0.00000000000E+00  0.00000000000E+00  0.96224964687E+02  0.96224964687E+02  0.00000000000E+00 0.  1.
         21   -1    0    0  503  504 -0.00000000000E+00 -0.00000000000E+00 -0.30343238235E+03  0.30343238235E+03  0.00000000000E+00 0.  1.
         25    2    1    2    0    0  0.67922018650E+02 -0.62090378535E+02 -0.18715653393E+03  0.24314741309E+03  0.12499792228E+03 0.  0.
         25    2    1    2    0    0 -0.67922018650E+02  0.62090378535E+02 -0.20050883732E+02  0.15650993395E+03  0.12499882304E+03 0.  0.
          5    1    3    3  501    0  0.79194970189E+02 -0.27772580060E+02 -0.42913384219E+02  0.94375887024E+02  0.47000000000E+01 0. -1.
         -5    1    3    3    0  501 -0.11272951540E+02 -0.34317798476E+02 -0.14424314971E+03  0.14877152606E+03  0.47000000000E+01 0. -1.
          5    1    4    4  502    0 -0.73283830744E+02  0.93117820355E+02  0.54766546664E+00  0.11859105469E+03  0.47000000000E+01 0. -1.
         -5    1    4    4    0  502  0.53618120941E+01 -0.31027441820E+02 -0.20598549199E+02  0.37918879254E+02  0.47000000000E+01 0. -1.
<mgrwt>
<rscale>  0 0.34174710E+03</rscale>
<asrwt>0</asrwt>
<pdfrwt beam="1">  1       21 0.14803841E-01 0.34174710E+03</pdfrwt>
<pdfrwt beam="2">  1       21 0.46681905E-01 0.34174710E+03</pdfrwt>
<totfact> 0.16961828E+05</totfact>
</mgrwt>
</event>
<event>
 8    1  0.9331162E-006  0.2626156E+03  0.7546771E-02  0.1105582E+00
         21   -1    0    0  504  503  0.00000000000E+00  0.00000000000E+00  0.19056253925E+04  0.19056253925E+04  0.00000000000E+00 0. -1.
         21   -1    0    0  503  504 -0.00000000000E+00 -0.00000000000E+00 -0.90478103798E+01  0.90478103798E+01  0.00000000000E+00 0. -1.
         25    2    1    2    0    0 -0.20313564644E+02 -0.14399086456E+02  0.11784756429E+04  0.11853480772E+04  0.12500099447E+03 0.  0.
         25    2    1    2    0    0  0.20313564644E+02  0.14399086456E+02  0.71810193916E+03  0.72932512561E+03  0.12499907693E+03 0.  0.
          5    1    3    3  501    0  0.27693628235E+02  0.60618581584E+01  0.96875334710E+03  0.96917945743E+03  0.47000000000E+01 0. -1.
         -5    1    3    3    0  501 -0.48007192880E+02 -0.20460944615E+02  0.20972229583E+03  0.21616861981E+03  0.47000000000E+01 0. -1.
          5    1    4    4  502    0 -0.39966756517E+02  0.35114525655E+02  0.18980396919E+03  0.19717507007E+03  0.47000000000E+01 0. -1.
         -5    1    4    4    0  502  0.60280321162E+02 -0.20715439199E+02  0.52829796997E+03  0.53215005554E+03  0.47000000000E+01 0. -1.
<mgrwt>
<rscale>  0 0.26261559E+03</rscale>
<asrwt>0</asrwt>
<pdfrwt beam="1">  1       21 0.29317282E+00 0.26261559E+03</pdfrwt>
<pdfrwt beam="2">  1       21 0.13919723E-02 0.26261559E+03</pdfrwt>
<totfact> 0.78570717E+04</totfact>
</mgrwt>
</event>
<event>
 8    1  0.9331162E-006  0.3522505E+03  0.7546771E-02  0.1061695E+00
         21   -1    0    0  504  503  0.00000000000E+00  0.00000000000E+00  0.79866152720E+02  0.79866152720E+02  0.00000000000E+00 0.  1.
         21   -1    0    0  503  504 -0.00000000000E+00 -0.00000000000E+00 -0.38840120868E+03  0.38840120868E+03  0.00000000000E+00 0.  1.
         25    2    1    2    0    0 -0.24920211128E+02 -0.94245200028E+02 -0.25630020838E+03  0.30136305593E+03  0.12500687987E+03 0.  0.
         25    2    1    2    0    0  0.24920211128E+02  0.94245200028E+02 -0.52234847579E+02  0.16690430547E+03  0.12500157291E+03 0.  0.
          5    1    3    3  501    0 -0.33207826831E+01  0.27515598699E+02 -0.19613338679E+02  0.34276943030E+02  0.47000000000E+01 0.  1.
         -5    1    3    3    0  501 -0.21599428445E+02 -0.12176079873E+03 -0.23668686970E+03  0.26708611290E+03  0.47000000000E+01 0.  1.
          5    1    4    4  502    0  0.35288970998E+02  0.56167726722E+02  0.31974679059E+02  0.73787499620E+02  0.47000000000E+01 0.  1.
         -5    1    4    4    0  502 -0.10368759870E+02  0.38077473306E+02 -0.84209526638E+02  0.93116805847E+02  0.47000000000E+01 0.  1.
<mgrwt>
<rscale>  0 0.35225054E+03</rscale>
<asrwt>0</asrwt>
<pdfrwt beam="1">  1       21 0.12287101E-01 0.35225054E+03</pdfrwt>
<pdfrwt beam="2">  1       21 0.59754031E-01 0.35225054E+03</pdfrwt>
<totfact> 0.14053794E+05</totfact>
</mgrwt>
</event>
<event>
 8    1  0.9331162E-006  0.2524738E+03  0.7546771E-02  0.1111751E+00
         21   -1    0    0  504  503  0.00000000000E+00  0.00000000000E+00  0.20965335572E+03  0.20965335572E+03  0.00000000000E+00 0.  1.
         21   -1    0    0  503  504 -0.00000000000E+00 -0.00000000000E+00 -0.76010002803E+02  0.76010002803E+02  0.00000000000E+00 0.  1.
         25    2    1    2    0    0 -0.82149310530E+01  0.15461972785E+02  0.63665083778E+02  0.14134497584E+03  0.12497440382E+03 0.  0.
         25    2    1    2    0    0  0.82149310530E+01 -0.15461972785E+02  0.69978269142E+02  0.14431838268E+03  0.12499711890E+03 0.  0.
          5    1    3    3  501    0  0.17030815179E+02 -0.34841975562E+02 -0.17220139734E+02  0.42692331152E+02  0.47000000000E+01 0.  1.
         -5    1    3    3    0  501 -0.25245746232E+02  0.50303948347E+02  0.80885223512E+02  0.98652644691E+02  0.47000000000E+01 0.  1.
          5    1    4    4  502    0  0.42368649176E+01  0.44899119843E+02 -0.74482394975E+01  0.45950497915E+02  0.47000000000E+01 0. -1.
         -5    1    4    4    0  502  0.39780661354E+01 -0.60361092627E+02  0.77426508640E+02  0.98367884767E+02  0.47000000000E+01 0. -1.
<mgrwt>
<rscale>  0 0.25247378E+03</rscale>
<asrwt>0</asrwt>
<pdfrwt beam="1">  1       21 0.32254362E-01 0.25247378E+03</pdfrwt>
<pdfrwt beam="2">  1       21 0.11693847E-01 0.25247378E+03</pdfrwt>
<totfact> 0.56206649E+05</totfact>
</mgrwt>
</event>
<event>
 8    1  0.9331162E-006  0.3531404E+03  0.7546771E-02  0.1061333E+00
         21   -1    0    0  504  503  0.00000000000E+00  0.00000000000E+00  0.28212453263E+02  0.28212453263E+02  0.00000000000E+00 0.  1.
         21   -1    0    0  503  504 -0.00000000000E+00 -0.00000000000E+00 -0.11050804886E+04  0.11050804886E+04  0.00000000000E+00 0.  1.
         25    2    1    2    0    0 -0.71719360357E+02 -0.82751898843E+02 -0.34690907877E+03  0.38465439336E+03  0.12498619917E+03 0.  0.
         25    2    1    2    0    0  0.71719360357E+02  0.82751898843E+02 -0.72995895662E+03  0.74863854856E+03  0.12501221792E+03 0.  0.
          5    1    3    3  501    0  0.13442133429E+02  0.61868529484E+01  0.10088624537E+01  0.15558788641E+02  0.47000000000E+01 0.  1.
         -5    1    3    3    0  501 -0.85161493786E+02 -0.88938751792E+02 -0.34791794122E+03  0.36909560471E+03  0.47000000000E+01 0.  1.
          5    1    4    4  502    0  0.98843636639E+02  0.90748868101E+02 -0.64929967357E+03  0.66303663373E+03  0.47000000000E+01 0. -1.
         -5    1    4    4    0  502 -0.27124276282E+02 -0.79969692574E+01 -0.80659283047E+02  0.85601914832E+02  0.47000000000E+01 0. -1.
<mgrwt>
<rscale>  0 0.35314038E+03</rscale>
<asrwt>0</asrwt>
<pdfrwt beam="1">  1       21 0.43403774E-02 0.35314038E+03</pdfrwt>
<pdfrwt beam="2">  1       21 0.17001238E+00 0.35314038E+03</pdfrwt>
<totfact> 0.68046011E+04</totfact>
</mgrwt>
</event>
<event>
 8    1  0.9331162E-006  0.3562112E+03  0.7546771E-02  0.1060094E+00
         21   -1    0    0  504  503  0.00000000000E+00  0.00000000000E+00  0.10057660653E+03  0.10057660653E+03  0.00000000000E+00 0.  1.
         21   -1    0    0  503  504 -0.00000000000E+00 -0.00000000000E+00 -0.31539747894E+03  0.31539747894E+03  0.00000000000E+00 0.  1.
         25    2    1    2    0    0  0.81652558733E+02  0.45735961605E+02 -0.73590866926E+01  0.15631155675E+03  0.12498091089E+03 0.  0.
         25    2    1    2    0    0 -0.81652558733E+02 -0.45735961605E+02 -0.20746178572E+03  0.25966252871E+03  0.12500127101E+03 0.  0.
          5    1    3    3  501    0  0.65251196915E+01  0.74911764098E+02 -0.12928514773E+01  0.75353241816E+02  0.47000000000E+01 0.  1.
         -5    1    3    3    0  501  0.75127439042E+02 -0.29175802493E+02 -0.60662352153E+01  0.80958314939E+02  0.47000000000E+01 0.  1.
          5    1    4    4  502    0 -0.48970839203E+02 -0.69710465879E+02 -0.20098796950E+03  0.21834822195E+03  0.47000000000E+01 0. -1.
         -5    1    4    4    0  502 -0.32681719530E+02  0.23974504274E+02 -0.64738162105E+01  0.41314306759E+02  0.47000000000E+01 0. -1.
<mgrwt>
<rscale>  0 0.35621122E+03</rscale>
<asrwt>0</asrwt>
<pdfrwt beam="1">  1       21 0.15473324E-01 0.35621122E+03</pdfrwt>
<pdfrwt beam="2">  1       21 0.48522689E-01 0.35621122E+03</pdfrwt>
<totfact> 0.14368330E+05</totfact>
</mgrwt>
</event>
<event>
 8    1  0.9331162E-006  0.2905330E+03  0.7546771E-02  0.1090071E+00
         21   -1    0    0  504  503  0.00000000000E+00  0.00000000000E+00  0.86279217286E+02  0.86279217286E+02  0.00000000000E+00 0.  1.
         21   -1    0    0  503  504 -0.00000000000E+00 -0.00000000000E+00 -0.24458209646E+03  0.24458209646E+03  0.00000000000E+00 0.  1.
         25    2    1    2    0    0 -0.42034001944E+02 -0.19723570090E+01 -0.98208448414E+01  0.13225870567E+03  0.12500067488E+03 0.  0.
         25    2    1    2    0    0  0.42034001944E+02  0.19723570090E+01 -0.14848203433E+03  0.19860260808E+03  0.12500133561E+03 0.  0.
          5    1    3    3  501    0 -0.14887616856E+01  0.25964095027E+01  0.55130343939E+02  0.55411213455E+02  0.47000000000E+01 0. -1.
         -5    1    3    3    0  501 -0.40545240259E+02 -0.45687665117E+01 -0.64951188781E+02  0.76847492211E+02  0.47000000000E+01 0. -1.
          5    1    4    4  502    0  0.53210185087E+02 -0.16528895343E+01 -0.40270889102E+01  0.53594433348E+02  0.47000000000E+01 0. -1.
         -5    1    4    4    0  502 -0.11176183142E+02  0.36252465434E+01 -0.14445494542E+03  0.14500817473E+03  0.47000000000E+01 0. -1.
<mgrwt>
<rscale>  0 0.29053297E+03</rscale>
<asrwt>0</asrwt>
<pdfrwt beam="1">  1       21 0.13273726E-01 0.29053297E+03</pdfrwt>
<pdfrwt beam="2">  1       21 0.37628014E-01 0.29053297E+03</pdfrwt>
<totfact> 0.32615042E+05</totfact>
</mgrwt>
</event>
<event>
 8    1  0.9331162E-006  0.3114279E+03  0.7546771E-02  0.1079663E+00
         21   -1    0    0  504  503  0.00000000000E+00  0.00000000000E+00  0.16301436848E+03  0.16301436848E+03  0.00000000000E+00 0.  1.
         21   -1    0    0  503  504 -0.00000000000E+00 -0.00000000000E+00 -0.14874049814E+03  0.14874049814E+03  0.00000000000E+00 0.  1.
         25    2    1    2    0    0  0.84276693610E+02 -0.27800930657E+02  0.34486395433E+02  0.15713086175E+03  0.12500137364E+03 0.  0.
         25    2    1    2    0    0 -0.84276693610E+02  0.27800930657E+02 -0.20212525099E+02  0.15462400487E+03  0.12499833551E+03 0.  0.
          5    1    3    3  501    0 -0.22576680595E+02 -0.38403959599E+02  0.19704637117E+01  0.44839082805E+02  0.47000000000E+01 0.  1.
         -5    1    3    3    0  501  0.10685337421E+03  0.10603028942E+02  0.32515931722E+02  0.11229177894E+03  0.47000000000E+01 0.  1.
          5    1    4    4  502    0 -0.36385615462E+02 -0.18382235202E+02  0.45307602174E+02  0.61128458171E+02  0.47000000000E+01 0. -1.
         -5    1    4    4    0  502 -0.47891078148E+02  0.46183165859E+02 -0.65520127273E+02  0.93495546700E+02  0.47000000000E+01 0. -1.
<mgrwt>
<rscale>  0 0.31142793E+03</rscale>
<asrwt>0</asrwt>
<pdfrwt beam="1">  1       21 0.25079133E-01 0.31142793E+03</pdfrwt>
<pdfrwt beam="2">  1       21 0.22883154E-01 0.31142793E+03</pdfrwt>
<totfact> 0.26228901E+05</totfact>
</mgrwt>
</event>
<event>
 8    1  0.9331162E-006  0.2545749E+03  0.7546771E-02  0.1110447E+00
         21   -1    0    0  504  503  0.00000000000E+00  0.00000000000E+00  0.40534025286E+03  0.40534025286E+03  0.00000000000E+00 0. -1.
         21   -1    0    0  503  504 -0.00000000000E+00 -0.00000000000E+00 -0.39971575640E+02  0.39971575640E+02  0.00000000000E+00 0. -1.
         25    2    1    2    0    0 -0.30397560399E+01 -0.42520803514E+01  0.22370754476E+03  0.25631318444E+03  0.12499625048E+03 0.  0.
         25    2    1    2    0    0  0.30397560399E+01  0.42520803514E+01  0.14166113246E+03  0.18899864406E+03  0.12500116280E+03 0.  0.
          5    1    3    3  501    0 -0.39054892088E+02  0.25564097905E+02  0.27122378058E+02  0.54189676962E+02  0.47000000000E+01 0.  1.
         -5    1    3    3    0  501  0.36015136048E+02 -0.29816178257E+02  0.19658516670E+03  0.20212350748E+03  0.47000000000E+01 0.  1.
          5    1    4    4  502    0 -0.20700721047E+02 -0.26877922760E+02  0.14541100812E+03  0.14939007285E+03  0.47000000000E+01 0.  1.
         -5    1    4    4    0  502  0.23740477087E+02  0.31130003111E+02 -0.37498756525E+01  0.39608571212E+02  0.47000000000E+01 0.  1.
<mgrwt>
<rscale>  0 0.25457485E+03</rscale>
<asrwt>0</asrwt>
<pdfrwt beam="1">  1       21 0.62360036E-01 0.25457485E+03</pdfrwt>
<pdfrwt beam="2">  1       21 0.61494734E-02 0.25457485E+03</pdfrwt>
<totfact> 0.44466369E+05</totfact>
</mgrwt>
</event>
<event>
 8    1  0.9331162E-006  0.3032270E+03  0.7546771E-02  0.1083639E+00
         21   -1    0    0  504  503  0.00000000000E+00  0.00000000000E+00  0.28911587216E+03  0.28911587216E+03  0.00000000000E+00 0. -1.
         21   -1    0    0  503  504 -0.00000000000E+00 -0.00000000000E+00 -0.79506700941E+02  0.79506700941E+02  0.00000000000E+00 0. -1.
         25    2    1    2    0    0 -0.59740432179E+02  0.52791397000E+02  0.66249368229E+02  0.16239053725E+03  0.12500342781E+03 0.  0.
         25    2    1    2    0    0  0.59740432179E+02 -0.52791397000E+02  0.14335980299E+03  0.20623203585E+03  0.12499507456E+03 0.  0.
          5    1    3    3  501    0  0.37338508687E+02  0.30701574014E+02  0.20364156469E+02  0.52664406828E+02  0.47000000000E+01 0. -1.
         -5    1    3    3    0  501 -0.97078940866E+02  0.22089822986E+02  0.45885211761E+02  0.10972613042E+03  0.47000000000E+01 0. -1.
          5    1    4    4  502    0  0.68068702575E+02 -0.37657848500E+02  0.18504317169E+02  0.80099697739E+02  0.47000000000E+01 0. -1.
         -5    1    4    4    0  502 -0.83282703961E+01 -0.15133548500E+02  0.12485548582E+03  0.12613233811E+03  0.47000000000E+01 0. -1.
<mgrwt>
<rscale>  0 0.30322697E+03</rscale>
<asrwt>0</asrwt>
<pdfrwt beam="1">  1       21 0.44479365E-01 0.30322697E+03</pdfrwt>
<pdfrwt beam="2">  1       21 0.12231800E-01 0.30322697E+03</pdfrwt>
<totfact> 0.26791712E+05</totfact>
</mgrwt>
</event>
<event>
 8    1  0.9331162E-006  0.3816162E+03  0.7546771E-02  0.1050338E+00
         21   -1    0    0  504  503  0.00000000000E+00  0.00000000000E+00  0.51352810108E+02  0.51352810108E+02  0.00000000000E+00 0.  1.
         21   -1    0    0  503  504 -0.00000000000E+00 -0.00000000000E+00 -0.70897236706E+03  0.70897236706E+03  0.00000000000E+00 0.  1.
         25    2    1    2    0    0  0.21472438922E+02 -0.51608994489E+02 -0.59358876038E+03  0.60917793219E+03  0.12500233069E+03 0.  0.
         25    2    1    2    0    0 -0.21472438922E+02  0.51608994489E+02 -0.64030796581E+02  0.15114724498E+03  0.12498397021E+03 0.  0.
          5    1    3    3  501    0 -0.49342950449E+02 -0.30242856313E+01 -0.25855404009E+03  0.26327961317E+03  0.47000000000E+01 0. -1.
         -5    1    3    3    0  501  0.70815389371E+02 -0.48584708858E+02 -0.33503472028E+03  0.34589831902E+03  0.47000000000E+01 0. -1.
          5    1    4    4  502    0 -0.10878288197E+02  0.55736956450E+02 -0.98916504963E+02  0.11415564122E+03  0.47000000000E+01 0.  1.
         -5    1    4    4    0  502 -0.10594150725E+02 -0.41279619611E+01  0.34885708382E+02  0.36991603762E+02  0.47000000000E+01 0.  1.
<mgrwt>
<rscale>  0 0.38161616E+03</rscale>
<asrwt>0</asrwt>
<pdfrwt beam="1">  1       21 0.79004331E-02 0.38161616E+03</pdfrwt>
<pdfrwt beam="2">  1       21 0.10907266E+00 0.38161616E+03</pdfrwt>
<totfact> 0.76620756E+04</totfact>
</mgrwt>
</event>
<event>
 8    1  0.9331162E-006  0.4282961E+03  0.7546771E-02  0.1034400E+00
         21   -1    0    0  504  503  0.00000000000E+00  0.00000000000E+00  0.94872550598E+02  0.94872550598E+02  0.00000000000E+00 0.  1.
         21   -1    0    0  503  504 -0.00000000000E+00 -0.00000000000E+00 -0.48337895094E+03  0.48337895094E+03  0.00000000000E+00 0.  1.
         25    2    1    2    0    0 -0.59767692914E+02 -0.13507701471E+03 -0.70380506443E+02  0.20589555230E+03  0.12498634225E+03 0.  0.
         25    2    1    2    0    0  0.59767692914E+02  0.13507701471E+03 -0.31812589390E+03  0.37235594924E+03  0.12500756595E+03 0.  0.
          5    1    3    3  501    0 -0.63316534623E+02 -0.29817861184E+02 -0.71917639037E+02  0.10046056543E+03  0.47000000000E+01 0.  1.
         -5    1    3    3    0  501  0.35488417094E+01 -0.10525915353E+03  0.15371325942E+01  0.10543498687E+03  0.47000000000E+01 0.  1.
          5    1    4    4  502    0 -0.69872463131E+01  0.64400512260E+02 -0.36758138699E+02  0.74629071755E+02  0.47000000000E+01 0.  1.
         -5    1    4    4    0  502  0.66754939227E+02  0.70676502452E+02 -0.28136775520E+03  0.29772687749E+03  0.47000000000E+01 0.  1.
<mgrwt>
<rscale>  0 0.42829613E+03</rscale>
<asrwt>0</asrwt>
<pdfrwt beam="1">  1       21 0.14595777E-01 0.42829613E+03</pdfrwt>
<pdfrwt beam="2">  1       21 0.74365990E-01 0.42829613E+03</pdfrwt>
<totfact> 0.61951164E+04</totfact>
</mgrwt>
</event>
<event>
 8    1  0.9331162E-006  0.5140753E+03  0.7546771E-02  0.1010169E+00
         21   -1    0    0  504  503  0.00000000000E+00  0.00000000000E+00  0.44144677806E+03  0.44144677806E+03  0.00000000000E+00 0. -1.
         21   -1    0    0  503  504 -0.00000000000E+00 -0.00000000000E+00 -0.14966324840E+03  0.14966324840E+03  0.00000000000E+00 0. -1.
         25    2    1    2    0    0 -0.14110695996E+03 -0.13938996686E+03  0.26704587214E+03  0.35536207751E+03  0.12501188462E+03 0.  0.
         25    2    1    2    0    0  0.14110695996E+03  0.13938996686E+03  0.24737657522E+02  0.23574794895E+03  0.12499762686E+03 0.  0.
          5    1    3    3  501    0 -0.35204483952E+02 -0.12165811200E+03  0.13650088295E+03  0.18626495364E+03  0.47000000000E+01 0.  1.
         -5    1    3    3    0  501 -0.10590247601E+03 -0.17731854860E+02  0.13054498918E+03  0.16909712388E+03  0.47000000000E+01 0.  1.
          5    1    4    4  502    0 -0.36376304668E+00  0.62234207948E+02 -0.24706485763E+02  0.67124730176E+02  0.47000000000E+01 0. -1.
         -5    1    4    4    0  502  0.14147072301E+03  0.77155758917E+02  0.49444143285E+02  0.16862321877E+03  0.47000000000E+01 0. -1.
<mgrwt>
<rscale>  0 0.51407532E+03</rscale>
<asrwt>0</asrwt>
<pdfrwt beam="1">  1       21 0.67914888E-01 0.51407532E+03</pdfrwt>
<pdfrwt beam="2">  1       21 0.23025115E-01 0.51407532E+03</pdfrwt>
<totfact> 0.31542423E+04</totfact>
</mgrwt>
</event>
<event>
 8    1  0.9331162E-006  0.2621594E+03  0.7546771E-02  0.1105853E+00
         21   -1    0    0  504  503  0.00000000000E+00  0.00000000000E+00  0.25596289591E+03  0.25596289591E+03  0.00000000000E+00 0.  1.
         21   -1    0    0  503  504 -0.00000000000E+00 -0.00000000000E+00 -0.67126483623E+02  0.67126483623E+02  0.00000000000E+00 0.  1.
         25    2    1    2    0    0  0.60283832293E+01  0.24413126323E+02  0.56941693387E+02  0.13963870695E+03  0.12499707953E+03 0.  0.
         25    2    1    2    0    0 -0.60283832293E+01 -0.24413126323E+02  0.13189471890E+03  0.18345067259E+03  0.12500236101E+03 0.  0.
          5    1    3    3  501    0  0.17807529867E+02  0.25697712428E+02  0.94672880075E+02  0.99812447949E+02  0.47000000000E+01 0.  1.
         -5    1    3    3    0  501 -0.11779146637E+02 -0.12845861046E+01 -0.37731186688E+02  0.39826258999E+02  0.47000000000E+01 0.  1.
          5    1    4    4  502    0  0.58989165560E+01 -0.36703223315E+02 -0.11317077203E+02  0.39141921959E+02  0.47000000000E+01 0.  1.
         -5    1    4    4    0  502 -0.11927299785E+02  0.12290096992E+02  0.14321179610E+03  0.14430875063E+03  0.47000000000E+01 0.  1.
<mgrwt>
<rscale>  0 0.26215941E+03</rscale>
<asrwt>0</asrwt>
<pdfrwt beam="1">  1       21 0.39378907E-01 0.26215941E+03</pdfrwt>
<pdfrwt beam="2">  1       21 0.10327151E-01 0.26215941E+03</pdfrwt>
<totfact> 0.46990120E+05</totfact>
</mgrwt>
</event>
<event>
 8    1  0.9331162E-006  0.3873459E+03  0.7546771E-02  0.1048252E+00
         21   -1    0    0  504  503  0.00000000000E+00  0.00000000000E+00  0.20453556299E+02  0.20453556299E+02  0.00000000000E+00 0.  1.
         21   -1    0    0  503  504 -0.00000000000E+00 -0.00000000000E+00 -0.18338725339E+04  0.18338725339E+04  0.00000000000E+00 0.  1.
         25    2    1    2    0    0 -0.40047323806E+02 -0.39133493354E+02 -0.25120469701E+03  0.28611982618E+03  0.12500214673E+03 0.  0.
         25    2    1    2    0    0  0.40047323806E+02  0.39133493354E+02 -0.15622142806E+04  0.15682062640E+04  0.12498883783E+03 0.  0.
          5    1    3    3  501    0  0.15047428590E+02 -0.66589757579E+01  0.81503274306E+01  0.18954812121E+02  0.47000000000E+01 0. -1.
         -5    1    3    3    0  501 -0.55094752396E+02 -0.32474517596E+02 -0.25935502444E+03  0.26716501405E+03  0.47000000000E+01 0. -1.
          5    1    4    4  502    0  0.49674809946E+02  0.38901442530E+02 -0.33368267539E+03  0.33962792410E+03  0.47000000000E+01 0.  1.
         -5    1    4    4    0  502 -0.96274861400E+01  0.23205082422E+00 -0.12285316052E+04  0.12285783400E+04  0.47000000000E+01 0.  1.
<mgrwt>
<rscale>  0 0.38734592E+03</rscale>
<asrwt>0</asrwt>
<pdfrwt beam="1">  1       21 0.31467004E-02 0.38734592E+03</pdfrwt>
<pdfrwt beam="2">  1       21 0.28213429E+00 0.38734592E+03</pdfrwt>
<totfact> 0.22284303E+04</totfact>
</mgrwt>
</event>
<event>
 8    1  0.9331162E-006  0.2725143E+03  0.7546771E-02  0.1099849E+00
         21   -1    0    0  504  503  0.00000000000E+00  0.00000000000E+00  0.26699981902E+02  0.26699981902E+02  0.00000000000E+00 0.  1.
         21   -1    0    0  503  504 -0.00000000000E+00 -0.00000000000E+00 -0.69535676616E+03  0.69535676616E+03  0.00000000000E+00 0.  1.
         25    2    1    2    0    0  0.36116802879E+02 -0.76653748110E+01 -0.22906846856E+03  0.26355829991E+03  0.12500973059E+03 0.  0.
         25    2    1    2    0    0 -0.36116802879E+02  0.76653748110E+01 -0.43958831570E+03  0.45849844815E+03  0.12497903120E+03 0.  0.
          5    1    3    3  501    0  0.43795600316E+02  0.32122417247E+02 -0.33954384049E+02  0.64225341517E+02  0.47000000000E+01 0. -1.
         -5    1    3    3    0  501 -0.76787974367E+01 -0.39787792058E+02 -0.19511408451E+03  0.19933295839E+03  0.47000000000E+01 0. -1.
          5    1    4    4  502    0  0.26545484580E+02 -0.40887138530E+02 -0.13096568908E+03  0.13982318322E+03  0.47000000000E+01 0. -1.
         -5    1    4    4    0  502 -0.62662287459E+02  0.48552513341E+02 -0.30862262662E+03  0.31867526493E+03  0.47000000000E+01 0. -1.
<mgrwt>
<rscale>  0 0.27251432E+03</rscale>
<asrwt>0</asrwt>
<pdfrwt beam="1">  1       21 0.41076897E-02 0.27251432E+03</pdfrwt>
<pdfrwt beam="2">  1       21 0.10697796E+00 0.27251432E+03</pdfrwt>
<totfact> 0.25565445E+05</totfact>
</mgrwt>
</event>
<event>
 8    1  0.9331162E-006  0.2541097E+03  0.7546771E-02  0.1110735E+00
         21   -1    0    0  504  503  0.00000000000E+00  0.00000000000E+00  0.52907290807E+02  0.52907290807E+02  0.00000000000E+00 0. -1.
         21   -1    0    0  503  504 -0.00000000000E+00 -0.00000000000E+00 -0.30511749283E+03  0.30511749283E+03  0.00000000000E+00 0. -1.
         25    2    1    2    0    0  0.15728303235E+01 -0.22708898703E+02 -0.12663481211E+03  0.17938811548E+03  0.12500220982E+03 0.  0.
         25    2    1    2    0    0 -0.15728303235E+01  0.22708898703E+02 -0.12557538991E+03  0.17863666816E+03  0.12499485103E+03 0.  0.
          5    1    3    3  501    0 -0.40774174278E+02  0.34265724813E+02 -0.37331730559E+02  0.65210591866E+02  0.47000000000E+01 0. -1.
         -5    1    3    3    0  501  0.42347004602E+02 -0.56974623516E+02 -0.89303081553E+02  0.11417752361E+03  0.47000000000E+01 0. -1.
          5    1    4    4  502    0 -0.61508621861E+02  0.11325615218E+02 -0.83270541669E+02  0.10424803707E+03  0.47000000000E+01 0. -1.
         -5    1    4    4    0  502  0.59935791538E+02  0.11383283486E+02 -0.42304848243E+02  0.74388631087E+02  0.47000000000E+01 0. -1.
<mgrwt>
<rscale>  0 0.25410974E+03</rscale>
<asrwt>0</asrwt>
<pdfrwt beam="1">  1       21 0.81395831E-02 0.25410974E+03</pdfrwt>
<pdfrwt beam="2">  1       21 0.46941154E-01 0.25410974E+03</pdfrwt>
<totfact> 0.49957192E+05</totfact>
</mgrwt>
</event>
<event>
 8    1  0.9331162E-006  0.2649133E+03  0.7546771E-02  0.1104227E+00
         21   -1    0    0  504  503  0.00000000000E+00  0.00000000000E+00  0.31387795937E+03  0.31387795937E+03  0.00000000000E+00 0.  1.
         21   -1    0    0  503  504 -0.00000000000E+00 -0.00000000000E+00 -0.55896758811E+02  0.55896758811E+02  0.00000000000E+00 0.  1.
         25    2    1    2    0    0  0.36922212205E+02  0.23284943938E+02  0.13435593578E+03  0.18863357198E+03  0.12500267450E+03 0.  0.
         25    2    1    2    0    0 -0.36922212205E+02 -0.23284943938E+02  0.12362526478E+03  0.18114114620E+03  0.12499388139E+03 0.  0.
          5    1    3    3  501    0 -0.37827415119E+02 -0.12578229082E+02  0.79649761038E+02  0.89192486314E+02  0.47000000000E+01 0. -1.
         -5    1    3    3    0  501  0.74749627324E+02  0.35863173020E+02  0.54706174744E+02  0.99441085670E+02  0.47000000000E+01 0. -1.
          5    1    4    4  502    0 -0.39247096168E+02 -0.67835287694E+02  0.10824471810E+03  0.13371974354E+03  0.47000000000E+01 0.  1.
         -5    1    4    4    0  502  0.23248839632E+01  0.44550343756E+02  0.15380546673E+02  0.47421402659E+02  0.47000000000E+01 0.  1.
<mgrwt>
<rscale>  0 0.26491327E+03</rscale>
<asrwt>0</asrwt>
<pdfrwt beam="1">  1       21 0.48288916E-01 0.26491327E+03</pdfrwt>
<pdfrwt beam="2">  1       21 0.85995015E-02 0.26491327E+03</pdfrwt>
<totfact> 0.42671705E+05</totfact>
</mgrwt>
</event>
<event>
 8    1  0.9331162E-006  0.2841155E+03  0.7546771E-02  0.1093462E+00
         21   -1    0    0  504  503  0.00000000000E+00  0.00000000000E+00  0.14185259033E+03  0.14185259033E+03  0.00000000000E+00 0.  1.
         21   -1    0    0  503  504 -0.00000000000E+00 -0.00000000000E+00 -0.14226321421E+03  0.14226321421E+03  0.00000000000E+00 0.  1.
         25    2    1    2    0    0  0.58562486727E+02 -0.15272542050E+02  0.29655857835E+02  0.14202273260E+03  0.12501268447E+03 0.  0.
         25    2    1    2    0    0 -0.58562486727E+02  0.15272542050E+02 -0.30066481711E+02  0.14209307194E+03  0.12499452939E+03 0.  0.
          5    1    3    3  501    0  0.20906629791E+02 -0.53480184202E+02  0.57501711574E+02  0.81398735281E+02  0.47000000000E+01 0.  1.
         -5    1    3    3    0  501  0.37655856937E+02  0.38207642152E+02 -0.27845853739E+02  0.60623997318E+02  0.47000000000E+01 0.  1.
          5    1    4    4  502    0 -0.52920062608E+01 -0.50037592277E+02 -0.27742674796E+02  0.57649908725E+02  0.47000000000E+01 0.  1.
         -5    1    4    4    0  502 -0.53270480467E+02  0.65310134328E+02 -0.23238069154E+01  0.84443163214E+02  0.47000000000E+01 0.  1.
<mgrwt>
<rscale>  0 0.28411551E+03</rscale>
<asrwt>0</asrwt>
<pdfrwt beam="1">  1       21 0.21823476E-01 0.28411551E+03</pdfrwt>
<pdfrwt beam="2">  1       21 0.21886648E-01 0.28411551E+03</pdfrwt>
<totfact> 0.37463206E+05</totfact>
</mgrwt>
</event>
<event>
 8    1  0.9331162E-006  0.2769822E+03  0.7546771E-02  0.1097349E+00
         21   -1    0    0  504  503  0.00000000000E+00  0.00000000000E+00  0.17219761288E+03  0.17219761288E+03  0.00000000000E+00 0. -1.
         21   -1    0    0  503  504 -0.00000000000E+00 -0.00000000000E+00 -0.11138243821E+03  0.11138243821E+03  0.00000000000E+00 0. -1.
         25    2    1    2    0    0  0.25464023283E+02  0.41847058411E+02  0.65225697691E+02  0.14925677140E+03  0.12499439744E+03 0.  0.
         25    2    1    2    0    0 -0.25464023283E+02 -0.41847058411E+02 -0.44105230239E+01  0.13432327968E+03  0.12499479178E+03 0.  0.
          5    1    3    3  501    0 -0.19130721534E+02  0.22093420732E+02  0.89719237015E+02  0.94476109343E+02  0.47000000000E+01 0.  1.
         -5    1    3    3    0  501  0.44594744817E+02  0.19753637680E+02 -0.24493539324E+02  0.54780662058E+02  0.47000000000E+01 0.  1.
          5    1    4    4  502    0 -0.23362888916E+02  0.32771514184E+02  0.31528229882E+02  0.51341172561E+02  0.47000000000E+01 0. -1.
         -5    1    4    4    0  502 -0.21011343673E+01 -0.74618572596E+02 -0.35938752906E+02  0.82982107121E+02  0.47000000000E+01 0. -1.
<mgrwt>
<rscale>  0 0.27698224E+03</rscale>
<asrwt>0</asrwt>
<pdfrwt beam="1">  1       21 0.26491941E-01 0.27698224E+03</pdfrwt>
<pdfrwt beam="2">  1       21 0.17135760E-01 0.27698224E+03</pdfrwt>
<totfact> 0.40952650E+05</totfact>
</mgrwt>
</event>
<event>
 8    1  0.9331162E-006  0.3474700E+03  0.7546771E-02  0.1063658E+00
         21   -1    0    0  504  503  0.00000000000E+00  0.00000000000E+00  0.12728891487E+04  0.12728891487E+04  0.00000000000E+00 0.  1.
         21   -1    0    0  503  504 -0.00000000000E+00 -0.00000000000E+00 -0.23712861277E+02  0.23712861277E+02  0.00000000000E+00 0.  1.
         25    2    1    2    0    0  0.93672870907E+02  0.66886877608E+02  0.75973522408E+03  0.77850417904E+03  0.12499073940E+03 0.  0.
         25    2    1    2    0    0 -0.93672870907E+02 -0.66886877608E+02  0.48944106336E+03  0.51809783095E+03  0.12499738715E+03 0.  0.
          5    1    3    3  501    0 -0.25164173594E+02  0.20795012450E+02  0.28611445999E+03  0.28800910122E+03  0.47000000000E+01 0.  1.
         -5    1    3    3    0  501  0.11883704450E+03  0.46091865158E+02  0.47362076409E+03  0.49049507781E+03  0.47000000000E+01 0.  1.
          5    1    4    4  502    0 -0.78092528688E+02 -0.31338704965E+02  0.46368172680E+03  0.47127846464E+03  0.47000000000E+01 0. -1.
         -5    1    4    4    0  502 -0.15580342218E+02 -0.35548172643E+02  0.25759336560E+02  0.46819366313E+02  0.47000000000E+01 0. -1.
<mgrwt>
<rscale>  0 0.34746996E+03</rscale>
<asrwt>0</asrwt>
<pdfrwt beam="1">  1       21 0.19582905E+00 0.34746996E+03</pdfrwt>
<pdfrwt beam="2">  1       21 0.36481335E-02 0.34746996E+03</pdfrwt>
<totfact> 0.60667534E+04</totfact>
</mgrwt>
</event>
<event>
 8    1  0.9331162E-006  0.2590705E+03  0.7546771E-02  0.1107703E+00
         21   -1    0    0  504  503  0.00000000000E+00  0.00000000000E+00  0.49153879834E+02  0.49153879834E+02  0.00000000000E+00 0.  1.
         21   -1    0    0  503  504 -0.00000000000E+00 -0.00000000000E+00 -0.34136425938E+03  0.34136425938E+03  0.00000000000E+00 0.  1.
         25    2    1    2    0    0  0.64661989263E+00 -0.44441044763E+01 -0.95324085309E+02  0.15726516094E+03  0.12500192568E+03 0.  0.
         25    2    1    2    0    0 -0.64661989263E+00  0.44441044763E+01 -0.19688629424E+03  0.23325297828E+03  0.12499028295E+03 0.  0.
          5    1    3    3  501    0  0.50713924913E+02 -0.33080257388E+02 -0.73674087788E+02  0.95478619703E+02  0.47000000000E+01 0.  1.
         -5    1    3    3    0  501 -0.50067305021E+02  0.28636152912E+02 -0.21649997521E+02  0.61786541239E+02  0.47000000000E+01 0.  1.
          5    1    4    4  502    0 -0.48255430870E+02 -0.29433769511E+02 -0.51964995741E+02  0.76924535608E+02  0.47000000000E+01 0. -1.
         -5    1    4    4    0  502  0.47608810977E+02  0.33877873987E+02 -0.14492129850E+03  0.15632844267E+03  0.47000000000E+01 0. -1.
<mgrwt>
<rscale>  0 0.25907048E+03</rscale>
<asrwt>0</asrwt>
<pdfrwt beam="1">  1       21 0.75621352E-02 0.25907048E+03</pdfrwt>
<pdfrwt beam="2">  1       21 0.52517579E-01 0.25907048E+03</pdfrwt>
<totfact> 0.44858443E+05</totfact>
</mgrwt>
</event>
<event>
 8    1  0.9331162E-006  0.4664108E+03  0.7546771E-02  0.1022938E+00
         21   -1    0    0  504  503  0.00000000000E+00  0.00000000000E+00  0.35393462755E+03  0.35393462755E+03  0.00000000000E+00 0. -1.
         21   -1    0    0  503  504 -0.00000000000E+00 -0.00000000000E+00 -0.15365762845E+03  0.15365762845E+03  0.00000000000E+00 0. -1.
         25    2    1    2    0    0 -0.16614716718E+03 -0.89047911706E+02  0.16194421818E+03  0.27818148668E+03  0.12499839194E+03 0.  0.
         25    2    1    2    0    0  0.16614716718E+03  0.89047911706E+02  0.38332780923E+02  0.22941076933E+03  0.12500194898E+03 0.  0.
          5    1    3    3  501    0 -0.10483475731E+03 -0.11264717000E+03  0.81443460052E+02  0.17416899390E+03  0.47000000000E+01 0.  1.
         -5    1    3    3    0  501 -0.61312409869E+02  0.23599258292E+02  0.80500758126E+02  0.10401249278E+03  0.47000000000E+01 0.  1.
          5    1    4    4  502    0  0.16081497901E+03  0.29869294634E+02  0.11473808758E+02  0.16403466257E+03  0.47000000000E+01 0.  1.
         -5    1    4    4    0  502  0.53321881714E+01  0.59178617072E+02  0.26858972166E+02  0.65376106760E+02  0.47000000000E+01 0.  1.
<mgrwt>
<rscale>  0 0.46641079E+03</rscale>
<asrwt>0</asrwt>
<pdfrwt beam="1">  1       21 0.54451481E-01 0.46641079E+03</pdfrwt>
<pdfrwt beam="2">  1       21 0.23639635E-01 0.46641079E+03</pdfrwt>
<totfact> 0.49238804E+04</totfact>
</mgrwt>
</event>
<event>
 8    1  0.9331162E-006  0.4419229E+03  0.7546771E-02  0.1030158E+00
         21   -1    0    0  504  503  0.00000000000E+00  0.00000000000E+00  0.51438300828E+02  0.51438300828E+02  0.00000000000E+00 0. -1.
         21   -1    0    0  503  504 -0.00000000000E+00 -0.00000000000E+00 -0.94917546921E+03  0.94917546921E+03  0.00000000000E+00 0. -1.
         25    2    1    2    0    0 -0.12619649079E+03  0.12428481214E+03 -0.35207356340E+03  0.41346495847E+03  0.12500083608E+03 0.  0.
         25    2    1    2    0    0  0.12619649079E+03 -0.12428481214E+03 -0.54566360498E+03  0.58714881157E+03  0.12499075288E+03 0.  0.
          5    1    3    3  501    0  0.43676938871E+01  0.57483055417E+02 -0.17030956710E+03  0.17986332882E+03  0.47000000000E+01 0.  1.
         -5    1    3    3    0  501 -0.13056418468E+03  0.66801756727E+02 -0.18176399631E+03  0.23360162965E+03  0.47000000000E+01 0.  1.
          5    1    4    4  502    0  0.64274277217E+02  0.76917622878E+01 -0.23752746640E+03  0.24623511775E+03  0.47000000000E+01 0. -1.
         -5    1    4    4    0  502  0.61922213575E+02 -0.13197657443E+03 -0.30813613858E+03  0.34091369382E+03  0.47000000000E+01 0. -1.
<mgrwt>
<rscale>  0 0.44192295E+03</rscale>
<asrwt>0</asrwt>
<pdfrwt beam="1">  1       21 0.79135849E-02 0.44192295E+03</pdfrwt>
<pdfrwt beam="2">  1       21 0.14602699E+00 0.44192295E+03</pdfrwt>
<totfact> 0.35523112E+04</totfact>
</mgrwt>
</event>
<event>
 8    1  0.9331162E-006  0.3442896E+03  0.7546771E-02  0.1064984E+00
         21   -1    0    0  504  503  0.00000000000E+00  0.00000000000E+00  0.20857855367E+03  0.20857855367E+03  0.00000000000E+00 0.  1.
         21   -1    0    0  503  504 -0.00000000000E+00 -0.00000000000E+00 -0.14207519516E+03  0.14207519516E+03  0.00000000000E+00 0.  1.
         25    2    1    2    0    0 -0.11582006959E+03  0.22682465504E+02  0.24102651582E+02  0.17359451668E+03  0.12500134258E+03 0.  0.
         25    2    1    2    0    0  0.11582006959E+03 -0.22682465504E+02  0.42400706935E+02  0.17705923214E+03  0.12499347574E+03 0.  0.
          5    1    3    3  501    0 -0.11387799118E+03 -0.30877152162E+02  0.18041162332E+02  0.11945362673E+03  0.47000000000E+01 0.  1.
         -5    1    3    3    0  501 -0.19420784126E+01  0.53559617666E+02  0.60614892503E+01  0.54140889954E+02  0.47000000000E+01 0.  1.
          5    1    4    4  502    0 -0.20089262628E+02 -0.29105479312E+02  0.65064525897E+01  0.36264739406E+02  0.47000000000E+01 0. -1.
         -5    1    4    4    0  502  0.13590933222E+03  0.64230138077E+01  0.35894254345E+02  0.14079449274E+03  0.47000000000E+01 0. -1.
<mgrwt>
<rscale>  0 0.34428964E+03</rscale>
<asrwt>0</asrwt>
<pdfrwt beam="1">  1       21 0.32089008E-01 0.34428964E+03</pdfrwt>
<pdfrwt beam="2">  1       21 0.21857722E-01 0.34428964E+03</pdfrwt>
<totfact> 0.17543222E+05</totfact>
</mgrwt>
</event>
<event>
 8    1  0.9331162E-006  0.2603516E+03  0.7546771E-02  0.1106932E+00
         21   -1    0    0  504  503  0.00000000000E+00  0.00000000000E+00  0.78684008602E+02  0.78684008602E+02  0.00000000000E+00 0. -1.
         21   -1    0    0  503  504 -0.00000000000E+00 -0.00000000000E+00 -0.21536451596E+03  0.21536451596E+03  0.00000000000E+00 0. -1.
         25    2    1    2    0    0 -0.35709907299E+02  0.61293267654E+01 -0.71171749769E+02  0.14833972828E+03  0.12500596344E+03 0.  0.
         25    2    1    2    0    0  0.35709907299E+02 -0.61293267654E+01 -0.65508757587E+02  0.14570879628E+03  0.12500755924E+03 0.  0.
          5    1    3    3  501    0 -0.67719833210E+02  0.42163084572E+02 -0.56044512710E+02  0.97605219714E+02  0.47000000000E+01 0.  1.
         -5    1    3    3    0  501  0.32009925910E+02 -0.36033757807E+02 -0.15127237059E+02  0.50734508567E+02  0.47000000000E+01 0.  1.
          5    1    4    4  502    0 -0.67732311073E+01  0.43909658774E+02  0.97571973136E+01  0.45729943065E+02  0.47000000000E+01 0.  1.
         -5    1    4    4    0  502  0.42483138407E+02 -0.50038985540E+02 -0.75265954901E+02  0.99978853213E+02  0.47000000000E+01 0.  1.
<mgrwt>
<rscale>  0 0.26035163E+03</rscale>
<asrwt>0</asrwt>
<pdfrwt beam="1">  1       21 0.12105232E-01 0.26035163E+03</pdfrwt>
<pdfrwt beam="2">  1       21 0.33133002E-01 0.26035163E+03</pdfrwt>
<totfact> 0.50008289E+05</totfact>
</mgrwt>
</event>
<event>
 8    1  0.9331162E-006  0.3283028E+03  0.7546771E-02  0.1071890E+00
         21   -1    0    0  504  503  0.00000000000E+00  0.00000000000E+00  0.13099981480E+03  0.13099981480E+03  0.00000000000E+00 0.  1.
         21   -1    0    0  503  504 -0.00000000000E+00 -0.00000000000E+00 -0.20569258058E+03  0.20569258058E+03  0.00000000000E+00 0.  1.
         25    2    1    2    0    0  0.51104250470E+02  0.49661338568E+02 -0.11837845857E+03  0.18632354843E+03  0.12500044913E+03 0.  0.
         25    2    1    2    0    0 -0.51104250470E+02 -0.49661338568E+02  0.43685692782E+02  0.15036884695E+03  0.12499782964E+03 0.  0.
          5    1    3    3  501    0 -0.31055320551E+02  0.10088344440E+02 -0.81354867075E+02  0.87789019956E+02  0.47000000000E+01 0. -1.
         -5    1    3    3    0  501  0.82159571021E+02  0.39572994129E+02 -0.37023591495E+02  0.98534528475E+02  0.47000000000E+01 0. -1.
          5    1    4    4  502    0  0.19598923379E+02  0.25073938257E+02  0.34188938751E+02  0.46944581266E+02  0.47000000000E+01 0.  1.
         -5    1    4    4    0  502 -0.70703173849E+02 -0.74735276825E+02  0.94967540314E+01  0.10342426568E+03  0.47000000000E+01 0.  1.
<mgrwt>
<rscale>  0 0.32830285E+03</rscale>
<asrwt>0</asrwt>
<pdfrwt beam="1">  1       21 0.20153818E-01 0.32830285E+03</pdfrwt>
<pdfrwt beam="2">  1       21 0.31645012E-01 0.32830285E+03</pdfrwt>
<totfact> 0.21112229E+05</totfact>
</mgrwt>
</event>
<event>
 8    1  0.9331162E-006  0.4325119E+03  0.7546771E-02  0.1033069E+00
         21   -1    0    0  504  503  0.00000000000E+00  0.00000000000E+00  0.19888135021E+03  0.19888135021E+03  0.00000000000E+00 0. -1.
         21   -1    0    0  503  504 -0.00000000000E+00 -0.00000000000E+00 -0.23514847665E+03  0.23514847665E+03  0.00000000000E+00 0. -1.
         25    2    1    2    0    0 -0.78472054305E+02 -0.41731570071E+02  0.13485311290E+03  0.20423320605E+03  0.12500581246E+03 0.  0.
         25    2    1    2    0    0  0.78472054305E+02  0.41731570071E+02 -0.17112023934E+03  0.22979662081E+03  0.12499985349E+03 0.  0.
          5    1    3    3  501    0 -0.23997028768E+02  0.29664351327E+02 -0.41604538593E+01  0.38668210531E+02  0.47000000000E+01 0. -1.
         -5    1    3    3    0  501 -0.54475025537E+02 -0.71395921398E+02  0.13901356676E+03  0.16556499552E+03  0.47000000000E+01 0. -1.
          5    1    4    4  502    0  0.41564993613E+02  0.85800122080E+02 -0.10025681038E+03  0.13842986553E+03  0.47000000000E+01 0.  1.
         -5    1    4    4    0  502  0.36907060692E+02 -0.44068552009E+02 -0.70863428967E+02  0.91366755278E+02  0.47000000000E+01 0.  1.
<mgrwt>
<rscale>  0 0.43251195E+03</rscale>
<asrwt>0</asrwt>
<pdfrwt beam="1">  1       21 0.30597131E-01 0.43251195E+03</pdfrwt>
<pdfrwt beam="2">  1       21 0.36176689E-01 0.43251195E+03</pdfrwt>
<totfact> 0.70299929E+04</totfact>
</mgrwt>
</event>
<event>
 8    1  0.9331162E-006  0.3325793E+03  0.7546771E-02  0.1070001E+00
         21   -1    0    0  504  503  0.00000000000E+00  0.00000000000E+00  0.18623491382E+02  0.18623491382E+02  0.00000000000E+00 0. -1.
         21   -1    0    0  503  504 -0.00000000000E+00 -0.00000000000E+00 -0.14848050390E+04  0.14848050390E+04  0.00000000000E+00 0. -1.
         25    2    1    2    0    0  0.31019983421E+02  0.50136937879E+02 -0.11511047274E+04  0.11593733574E+04  0.12501414487E+03 0.  0.
         25    2    1    2    0    0 -0.31019983421E+02 -0.50136937879E+02 -0.31507682021E+03  0.34405517301E+03  0.12499843010E+03 0.  0.
          5    1    3    3  501    0  0.26318210158E+02 -0.23192988771E+02 -0.10754290263E+03  0.11321717546E+03  0.47000000000E+01 0. -1.
         -5    1    3    3    0  501  0.47017732637E+01  0.73329926649E+02 -0.10435618248E+04  0.10461561819E+04  0.47000000000E+01 0. -1.
          5    1    4    4  502    0 -0.37364773358E+02 -0.89168618434E+02 -0.24542222978E+03  0.26382063920E+03  0.47000000000E+01 0. -1.
         -5    1    4    4    0  502  0.63447899366E+01  0.39031680555E+02 -0.69654590437E+02  0.80234533807E+02  0.47000000000E+01 0. -1.
<mgrwt>
<rscale>  0 0.33257934E+03</rscale>
<asrwt>0</asrwt>
<pdfrwt beam="1">  1       21 0.28651522E-02 0.33257934E+03</pdfrwt>
<pdfrwt beam="2">  1       21 0.22843157E+00 0.33257934E+03</pdfrwt>
<totfact> 0.56545606E+04</totfact>
</mgrwt>
</event>
<event>
 8    1  0.9331162E-006  0.2833753E+03  0.7546771E-02  0.1093860E+00
         21   -1    0    0  504  503  0.00000000000E+00  0.00000000000E+00  0.34075306660E+02  0.34075306660E+02  0.00000000000E+00 0.  1.
         21   -1    0    0  503  504 -0.00000000000E+00 -0.00000000000E+00 -0.58914781033E+03  0.58914781033E+03  0.00000000000E+00 0.  1.
         25    2    1    2    0    0 -0.36801341277E+02 -0.26059832117E+02 -0.16934572072E+03  0.21525294226E+03  0.12498960940E+03 0.  0.
         25    2    1    2    0    0  0.36801341277E+02  0.26059832117E+02 -0.38572678295E+03  0.40797017473E+03  0.12498423425E+03 0.  0.
          5    1    3    3  501    0 -0.60410287553E+02  0.59997039855E+01 -0.16383642883E+03  0.17478519589E+03  0.47000000000E+01 0. -1.
         -5    1    3    3    0  501  0.23608946277E+02 -0.32059536103E+02 -0.55092918852E+01  0.40467746373E+02  0.47000000000E+01 0. -1.
          5    1    4    4  502    0 -0.27923040633E+02  0.48335197986E+02 -0.10531835074E+03  0.11928970017E+03  0.47000000000E+01 0.  1.
         -5    1    4    4    0  502  0.64724381910E+02 -0.22275365869E+02 -0.28040843221E+03  0.28868047456E+03  0.47000000000E+01 0.  1.
<mgrwt>
<rscale>  0 0.28337532E+03</rscale>
<asrwt>0</asrwt>
<pdfrwt beam="1">  1       21 0.52423551E-02 0.28337532E+03</pdfrwt>
<pdfrwt beam="2">  1       21 0.90638120E-01 0.28337532E+03</pdfrwt>
<totfact> 0.25009732E+05</totfact>
</mgrwt>
</event>
<event>
 8    1  0.9331162E-006  0.3022835E+03  0.7546771E-02  0.1084105E+00
         21   -1    0    0  504  503  0.00000000000E+00  0.00000000000E+00  0.67243871757E+02  0.67243871757E+02  0.00000000000E+00 0.  1.
         21   -1    0    0  503  504 -0.00000000000E+00 -0.00000000000E+00 -0.33971607467E+03  0.33971607467E+03  0.00000000000E+00 0.  1.
         25    2    1    2    0    0 -0.67606826564E+02  0.50109903344E+02 -0.15204801855E+03  0.21406616355E+03  0.12499614802E+03 0.  0.
         25    2    1    2    0    0  0.67606826564E+02 -0.50109903344E+02 -0.12042418437E+03  0.19289378288E+03  0.12499736750E+03 0.  0.
          5    1    3    3  501    0 -0.88242691626E+02  0.15634505115E+02 -0.14843213241E+03  0.17345142924E+03  0.47000000000E+01 0. -1.
         -5    1    3    3    0  501  0.20635865062E+02  0.34475398229E+02 -0.36158861401E+01  0.40614734303E+02  0.47000000000E+01 0. -1.
          5    1    4    4  502    0  0.92925973455E+02 -0.12974610711E+02 -0.43161332439E+02  0.10338552937E+03  0.47000000000E+01 0. -1.
         -5    1    4    4    0  502 -0.25319146891E+02 -0.37135292633E+02 -0.77262851930E+02  0.89508253511E+02  0.47000000000E+01 0. -1.
<mgrwt>
<rscale>  0 0.30228347E+03</rscale>
<asrwt>0</asrwt>
<pdfrwt beam="1">  1       21 0.10345211E-01 0.30228347E+03</pdfrwt>
<pdfrwt beam="2">  1       21 0.52264011E-01 0.30228347E+03</pdfrwt>
<totfact> 0.25826982E+05</totfact>
</mgrwt>
</event>
<event>
 8    1  0.9331162E-006  0.2790427E+03  0.7546771E-02  0.1096213E+00
         21   -1    0    0  504  503  0.00000000000E+00  0.00000000000E+00  0.70745757376E+02  0.70745757376E+02  0.00000000000E+00 0. -1.
         21   -1    0    0  503  504 -0.00000000000E+00 -0.00000000000E+00 -0.27515732002E+03  0.27515732002E+03  0.00000000000E+00 0. -1.
         25    2    1    2    0    0  0.17165423010E+02  0.63846946052E+00 -0.28386038544E+02  0.12932883889E+03  0.12500048797E+03 0.  0.
         25    2    1    2    0    0 -0.17165423010E+02 -0.63846946052E+00 -0.17602552410E+03  0.21657423851E+03  0.12499742501E+03 0.  0.
          5    1    3    3  501    0 -0.82605790659E+01 -0.53445811897E+02 -0.41050654044E+02  0.68058343891E+02  0.47000000000E+01 0. -1.
         -5    1    3    3    0  501  0.25426002076E+02  0.54084281357E+02  0.12664615500E+02  0.61270494998E+02  0.47000000000E+01 0. -1.
          5    1    4    4  502    0  0.42671420151E+02  0.96165678804E+01 -0.18564730327E+02  0.47750054321E+02  0.47000000000E+01 0.  1.
         -5    1    4    4    0  502 -0.59836843162E+02 -0.10255037341E+02 -0.15746079378E+03  0.16882418419E+03  0.47000000000E+01 0.  1.
<mgrwt>
<rscale>  0 0.27904274E+03</rscale>
<asrwt>0</asrwt>
<pdfrwt beam="1">  1       21 0.10883963E-01 0.27904274E+03</pdfrwt>
<pdfrwt beam="2">  1       21 0.42331896E-01 0.27904274E+03</pdfrwt>
<totfact> 0.36789887E+05</totfact>
</mgrwt>
</event>
<event>
 8    1  0.9331162E-006  0.3398016E+03  0.7546771E-02  0.1066880E+00
         21   -1    0    0  504  503  0.00000000000E+00  0.00000000000E+00  0.51786474418E+02  0.51786474418E+02  0.00000000000E+00 0.  1.
         21   -1    0    0  503  504 -0.00000000000E+00 -0.00000000000E+00 -0.55740979730E+03  0.55740979730E+03  0.00000000000E+00 0.  1.
         25    2    1    2    0    0 -0.12364037307E+02 -0.61938915459E+02 -0.80367060436E+02  0.16147291955E+03  0.12500136271E+03 0.  0.
         25    2    1    2    0    0  0.12364037307E+02  0.61938915459E+02 -0.42525626244E+03  0.44772335216E+03  0.12499605057E+03 0.  0.
          5    1    3    3  501    0  0.29113800786E+02  0.16541179192E+02  0.94467729860E+01  0.35107770153E+02  0.47000000000E+01 0. -1.
         -5    1    3    3    0  501 -0.41477838093E+02 -0.78480094651E+02 -0.89813833422E+02  0.12636514940E+03  0.47000000000E+01 0. -1.
          5    1    4    4  502    0  0.58299244973E+02  0.66436173662E+02 -0.33154208367E+03  0.34315420787E+03  0.47000000000E+01 0.  1.
         -5    1    4    4    0  502 -0.45935207665E+02 -0.44972582030E+01 -0.93714178775E+02  0.10456914429E+03  0.47000000000E+01 0.  1.
<mgrwt>
<rscale>  0 0.33980164E+03</rscale>
<asrwt>0</asrwt>
<pdfrwt beam="1">  1       21 0.79671490E-02 0.33980164E+03</pdfrwt>
<pdfrwt beam="2">  1       21 0.85755363E-01 0.33980164E+03</pdfrwt>
<totfact> 0.13572048E+05</totfact>
</mgrwt>
</event>
<event>
 8    1  0.9331162E-006  0.5281844E+03  0.7546771E-02  0.1006673E+00
         21   -1    0    0  504  503  0.00000000000E+00  0.00000000000E+00  0.52280024714E+03  0.52280024714E+03  0.00000000000E+00 0.  1.
         21   -1    0    0  503  504 -0.00000000000E+00 -0.00000000000E+00 -0.13340598767E+03  0.13340598767E+03  0.00000000000E+00 0.  1.
         25    2    1    2    0    0 -0.36976272540E+02  0.36972576984E+02 -0.86931784721E+02  0.16098352310E+03  0.12499737331E+03 0.  0.
         25    2    1    2    0    0  0.36976272540E+02 -0.36972576984E+02  0.47632604419E+03  0.49522271170E+03  0.12499927053E+03 0.  0.
          5    1    3    3  501    0 -0.52353995104E+02  0.67715077549E+02 -0.23830173396E+02  0.88973252694E+02  0.47000000000E+01 0.  1.
         -5    1    3    3    0  501  0.15377722564E+02 -0.30742500566E+02 -0.63101611325E+02  0.72010270407E+02  0.47000000000E+01 0.  1.
          5    1    4    4  502    0 -0.30436339384E+02 -0.31753086380E+01  0.32027825816E+02  0.44545762611E+02  0.47000000000E+01 0. -1.
         -5    1    4    4    0  502  0.67412611924E+02 -0.33797268346E+02  0.44429821837E+03  0.45067694909E+03  0.47000000000E+01 0. -1.
<mgrwt>
<rscale>  0 0.52818437E+03</rscale>
<asrwt>0</asrwt>
<pdfrwt beam="1">  1       21 0.80430806E-01 0.52818437E+03</pdfrwt>
<pdfrwt beam="2">  1       21 0.20523998E-01 0.52818437E+03</pdfrwt>
<totfact> 0.26669490E+04</totfact>
</mgrwt>
</event>
<event>
 8    1  0.9331162E-006  0.3208016E+03  0.7546771E-02  0.1075281E+00
         21   -1    0    0  504  503  0.00000000000E+00  0.00000000000E+00  0.15877120055E+03  0.15877120055E+03  0.00000000000E+00 0.  1.
         21   -1    0    0  503  504 -0.00000000000E+00 -0.00000000000E+00 -0.16204716756E+03  0.16204716756E+03  0.00000000000E+00 0.  1.
         25    2    1    2    0    0 -0.68194892065E+02  0.73465244017E+02  0.57788772757E+01  0.16033067099E+03  0.12499937302E+03 0.  0.
         25    2    1    2    0    0  0.68194892065E+02 -0.73465244017E+02 -0.90548442871E+01  0.16048769712E+03  0.12500650118E+03 0.  0.
          5    1    3    3  501    0 -0.47387822336E+02  0.10169152475E+03 -0.23124199360E+02  0.11464549929E+03  0.47000000000E+01 0. -1.
         -5    1    3    3    0  501 -0.20807069729E+02 -0.28226280731E+02  0.28903076635E+02  0.45685171704E+02  0.47000000000E+01 0. -1.
          5    1    4    4  502    0  0.98345226887E+02 -0.45347137921E+02 -0.32063702276E+02  0.11304122068E+03  0.47000000000E+01 0. -1.
         -5    1    4    4    0  502 -0.30150334822E+02 -0.28118106095E+02  0.23008857989E+02  0.47446476437E+02  0.47000000000E+01 0. -1.
<mgrwt>
<rscale>  0 0.32080164E+03</rscale>
<asrwt>0</asrwt>
<pdfrwt beam="1">  1       21 0.24426339E-01 0.32080164E+03</pdfrwt>
<pdfrwt beam="2">  1       21 0.24930333E-01 0.32080164E+03</pdfrwt>
<totfact> 0.23364115E+05</totfact>
</mgrwt>
</event>
<event>
 8    1  0.9331162E-006  0.3694228E+03  0.7546771E-02  0.1054914E+00
         21   -1    0    0  504  503  0.00000000000E+00  0.00000000000E+00  0.39017925005E+03  0.39017925005E+03  0.00000000000E+00 0. -1.
         21   -1    0    0  503  504 -0.00000000000E+00 -0.00000000000E+00 -0.87442639332E+02  0.87442639332E+02  0.00000000000E+00 0. -1.
         25    2    1    2    0    0  0.46459477443E+02  0.12780393358E+03  0.15270433816E+03  0.23965562699E+03  0.12499550460E+03 0.  0.
         25    2    1    2    0    0 -0.46459477443E+02 -0.12780393358E+03  0.15003227256E+03  0.23796626240E+03  0.12500372293E+03 0.  0.
          5    1    3    3  501    0  0.65786627067E+02  0.21733431424E+02  0.28361092113E+02  0.75011091767E+02  0.47000000000E+01 0.  1.
         -5    1    3    3    0  501 -0.19327149624E+02  0.10607050216E+03  0.12434324605E+03  0.16464453522E+03  0.47000000000E+01 0.  1.
          5    1    4    4  502    0 -0.55096938896E+02 -0.53477244122E+02  0.79750353844E+01  0.77338085727E+02  0.47000000000E+01 0. -1.
         -5    1    4    4    0  502  0.86374614529E+01 -0.74326689460E+02  0.14205723718E+03  0.16062817667E+03  0.47000000000E+01 0. -1.
<mgrwt>
<rscale>  0 0.36942281E+03</rscale>
<asrwt>0</asrwt>
<pdfrwt beam="1">  1       21 0.60027576E-01 0.36942281E+03</pdfrwt>
<pdfrwt beam="2">  1       21 0.13452714E-01 0.36942281E+03</pdfrwt>
<totfact> 0.11750569E+05</totfact>
</mgrwt>
</event>
<event>
 8    1  0.9331162E-006  0.3049087E+03  0.7546771E-02  0.1082812E+00
         21   -1    0    0  504  503  0.00000000000E+00  0.00000000000E+00  0.89301036002E+02  0.89301036002E+02  0.00000000000E+00 0.  1.
         21   -1    0    0  503  504 -0.00000000000E+00 -0.00000000000E+00 -0.26026948486E+03  0.26026948486E+03  0.00000000000E+00 0.  1.
         25    2    1    2    0    0 -0.39136827873E+02  0.41745199799E+02 -0.16103685164E+03  0.21173509526E+03  0.12499811990E+03 0.  0.
         25    2    1    2    0    0  0.39136827873E+02 -0.41745199799E+02 -0.99315972222E+01  0.13783542560E+03  0.12500245968E+03 0.  0.
          5    1    3    3  501    0 -0.40810184047E+02 -0.38777359002E+02 -0.59444286077E+02  0.82005291538E+02  0.47000000000E+01 0. -1.
         -5    1    3    3    0  501  0.16733561736E+01  0.80522558801E+02 -0.10159256556E+03  0.12972980372E+03  0.47000000000E+01 0. -1.
          5    1    4    4  502    0  0.67757450146E+02  0.17523798574E+02 -0.14735801751E+02  0.71675584546E+02  0.47000000000E+01 0.  1.
         -5    1    4    4    0  502 -0.28620622273E+02 -0.59268998374E+02  0.48042045291E+01  0.66159841057E+02  0.47000000000E+01 0.  1.
<mgrwt>
<rscale>  0 0.30490874E+03</rscale>
<asrwt>0</asrwt>
<pdfrwt beam="1">  1       21 0.13738621E-01 0.30490874E+03</pdfrwt>
<pdfrwt beam="2">  1       21 0.40041459E-01 0.30490874E+03</pdfrwt>
<totfact> 0.26918450E+05</totfact>
</mgrwt>
</event>
<event>
 8    1  0.9331162E-006  0.2840386E+03  0.7546771E-02  0.1093503E+00
         21   -1    0    0  504  503  0.00000000000E+00  0.00000000000E+00  0.86047201764E+03  0.86047201764E+03  0.00000000000E+00 0. -1.
         21   -1    0    0  503  504 -0.00000000000E+00 -0.00000000000E+00 -0.23440022053E+02  0.23440022053E+02  0.00000000000E+00 0. -1.
         25    2    1    2    0    0  0.16756835064E+02  0.20056615900E+02  0.22512867767E+03  0.25882612966E+03  0.12499993809E+03 0.  0.
         25    2    1    2    0    0 -0.16756835064E+02 -0.20056615900E+02  0.61190331792E+03  0.62508591004E+03  0.12499466021E+03 0.  0.
          5    1    3    3  501    0 -0.14803134031E+02 -0.41115901395E+02  0.33822991930E+02  0.55459308576E+02  0.47000000000E+01 0.  1.
         -5    1    3    3    0  501  0.31559969095E+02  0.61172517294E+02  0.19130568574E+03  0.20336682108E+03  0.47000000000E+01 0.  1.
          5    1    4    4  502    0 -0.24008915956E+00 -0.43321463153E+02  0.58148911513E+03  0.58311961708E+03  0.47000000000E+01 0. -1.
         -5    1    4    4    0  502 -0.16516745904E+02  0.23264847253E+02  0.30414202798E+02  0.41966292960E+02  0.47000000000E+01 0. -1.
<mgrwt>
<rscale>  0 0.28403861E+03</rscale>
<asrwt>0</asrwt>
<pdfrwt beam="1">  1       21 0.13238029E+00 0.28403861E+03</pdfrwt>
<pdfrwt beam="2">  1       21 0.36061579E-02 0.28403861E+03</pdfrwt>
<totfact> 0.18644706E+05</totfact>
</mgrwt>
</event>
<event>
 8    1  0.9331162E-006  0.4458538E+03  0.7546771E-02  0.1028966E+00
         21   -1    0    0  504  503  0.00000000000E+00  0.00000000000E+00  0.46631430059E+03  0.46631430059E+03  0.00000000000E+00 0. -1.
         21   -1    0    0  503  504 -0.00000000000E+00 -0.00000000000E+00 -0.10657278456E+03  0.10657278456E+03  0.00000000000E+00 0. -1.
         25    2    1    2    0    0 -0.53878638922E+02  0.17561066010E+03  0.20316541673E+03  0.30106882792E+03  0.12499696364E+03 0.  0.
         25    2    1    2    0    0  0.53878638922E+02 -0.17561066010E+03  0.15657609930E+03  0.27181825722E+03  0.12500831338E+03 0.  0.
          5    1    3    3  501    0 -0.76599579066E+02  0.99698448875E+02  0.17765018421E+03  0.21769004151E+03  0.47000000000E+01 0. -1.
         -5    1    3    3    0  501  0.22720940144E+02  0.75912211224E+02  0.25515232524E+02  0.83378786419E+02  0.47000000000E+01 0. -1.
          5    1    4    4  502    0  0.70427731349E+02 -0.18739222952E+03  0.14913846678E+03  0.24968036627E+03  0.47000000000E+01 0.  1.
         -5    1    4    4    0  502 -0.16549092427E+02  0.11781569422E+02  0.74376325221E+01  0.22137890951E+02  0.47000000000E+01 0.  1.
<mgrwt>
<rscale>  0 0.44585385E+03</rscale>
<asrwt>0</asrwt>
<pdfrwt beam="1">  1       21 0.71740660E-01 0.44585385E+03</pdfrwt>
<pdfrwt beam="2">  1       21 0.16395813E-01 0.44585385E+03</pdfrwt>
<totfact> 0.53938846E+04</totfact>
</mgrwt>
</event>
<event>
 8    1  0.9331162E-006  0.2735323E+03  0.7546771E-02  0.1099275E+00
         21   -1    0    0  504  503  0.00000000000E+00  0.00000000000E+00  0.13750630316E+03  0.13750630316E+03  0.00000000000E+00 0. -1.
         21   -1    0    0  503  504 -0.00000000000E+00 -0.00000000000E+00 -0.13602993679E+03  0.13602993679E+03  0.00000000000E+00 0. -1.
         25    2    1    2    0    0 -0.50718583171E+02  0.53375320416E+01  0.22635075884E+02  0.13688703545E+03  0.12499939955E+03 0.  0.
         25    2    1    2    0    0  0.50718583171E+02 -0.53375320416E+01 -0.21158709514E+02  0.13664920449E+03  0.12499780067E+03 0.  0.
          5    1    3    3  501    0 -0.63398422295E+02 -0.15785830109E+02  0.62012178546E+02  0.90200624553E+02  0.47000000000E+01 0. -1.
         -5    1    3    3    0  501  0.12679839124E+02  0.21123362150E+02 -0.39377102662E+02  0.46686410901E+02  0.47000000000E+01 0. -1.
          5    1    4    4  502    0  0.73298845381E+02 -0.42643312779E+02 -0.33163658155E+02  0.91176154126E+02  0.47000000000E+01 0.  1.
         -5    1    4    4    0  502 -0.22580262210E+02  0.37305780737E+02  0.12004948641E+02  0.45473050368E+02  0.47000000000E+01 0.  1.
<mgrwt>
<rscale>  0 0.27353226E+03</rscale>
<asrwt>0</asrwt>
<pdfrwt beam="1">  1       21 0.21154816E-01 0.27353226E+03</pdfrwt>
<pdfrwt beam="2">  1       21 0.20927682E-01 0.27353226E+03</pdfrwt>
<totfact> 0.43347534E+05</totfact>
</mgrwt>
</event>
<event>
 8    1  0.9331162E-006  0.2819347E+03  0.7546771E-02  0.1094637E+00
         21   -1    0    0  504  503  0.00000000000E+00  0.00000000000E+00  0.40841871815E+03  0.40841871815E+03  0.00000000000E+00 0.  1.
         21   -1    0    0  503  504 -0.00000000000E+00 -0.00000000000E+00 -0.48655433587E+02  0.48655433587E+02  0.00000000000E+00 0.  1.
         25    2    1    2    0    0  0.52122432615E+02 -0.19454537190E+02  0.23490602135E+03  0.27184766306E+03  0.12500034417E+03 0.  0.
         25    2    1    2    0    0 -0.52122432615E+02  0.19454537190E+02  0.12485726321E+03  0.18522648868E+03  0.12499715570E+03 0.  0.
          5    1    3    3  501    0 -0.31226371290E+02 -0.33941122560E+02  0.12327069448E+03  0.13169981087E+03  0.47000000000E+01 0. -1.
         -5    1    3    3    0  501  0.83348803905E+02  0.14486585370E+02  0.11163532687E+03  0.14014785219E+03  0.47000000000E+01 0. -1.
          5    1    4    4  502    0 -0.45742612200E+02  0.70290946921E+02  0.64416873507E+02  0.10585285722E+03  0.47000000000E+01 0. -1.
         -5    1    4    4    0  502 -0.63798204154E+01 -0.50836409731E+02  0.60440389704E+02  0.79373631455E+02  0.47000000000E+01 0. -1.
<mgrwt>
<rscale>  0 0.28193467E+03</rscale>
<asrwt>0</asrwt>
<pdfrwt beam="1">  1       21 0.62833647E-01 0.28193467E+03</pdfrwt>
<pdfrwt beam="2">  1       21 0.74854516E-02 0.28193467E+03</pdfrwt>
<totfact> 0.30913525E+05</totfact>
</mgrwt>
</event>
<event>
 8    1  0.9331162E-006  0.4588454E+03  0.7546771E-02  0.1025117E+00
         21   -1    0    0  504  503  0.00000000000E+00  0.00000000000E+00  0.61796985308E+02  0.61796985308E+02  0.00000000000E+00 0. -1.
         21   -1    0    0  503  504 -0.00000000000E+00 -0.00000000000E+00 -0.85173697790E+03  0.85173697790E+03  0.00000000000E+00 0. -1.
         25    2    1    2    0    0  0.11848009677E+03  0.12183833684E+03 -0.57445890498E+03  0.61197212941E+03  0.12499896002E+03 0.  0.
         25    2    1    2    0    0 -0.11848009677E+03 -0.12183833684E+03 -0.21548108761E+03  0.30156183380E+03  0.12500130732E+03 0.  0.
          5    1    3    3  501    0  0.92265647318E+02  0.79457263055E+01 -0.22105913452E+03  0.23971924244E+03  0.47000000000E+01 0. -1.
         -5    1    3    3    0  501  0.26214449451E+02  0.11389261053E+03 -0.35339977046E+03  0.37225288697E+03  0.47000000000E+01 0. -1.
          5    1    4    4  502    0  0.14111348672E+02 -0.46130620362E+01  0.71345117900E+01  0.17128974318E+02  0.47000000000E+01 0. -1.
         -5    1    4    4    0  502 -0.13259144544E+03 -0.11722527480E+03 -0.22261559940E+03  0.28443285948E+03  0.47000000000E+01 0. -1.
<mgrwt>
<rscale>  0 0.45884541E+03</rscale>
<asrwt>0</asrwt>
<pdfrwt beam="1">  1       21 0.95072283E-02 0.45884541E+03</pdfrwt>
<pdfrwt beam="2">  1       21 0.13103646E+00 0.45884541E+03</pdfrwt>
<totfact> 0.33972858E+04</totfact>
</mgrwt>
</event>
<event>
 8    1  0.9331162E-006  0.2836959E+03  0.7546771E-02  0.1093687E+00
         21   -1    0    0  504  503  0.00000000000E+00  0.00000000000E+00  0.43980544240E+03  0.43980544240E+03  0.00000000000E+00 0.  1.
         21   -1    0    0  503  504 -0.00000000000E+00 -0.00000000000E+00 -0.45749403831E+02  0.45749403831E+02  0.00000000000E+00 0.  1.
         25    2    1    2    0    0  0.31196973821E+02  0.54184363335E+02  0.23851262299E+03  0.27643823465E+03  0.12498251817E+03 0.  0.
         25    2    1    2    0    0 -0.31196973821E+02 -0.54184363335E+02  0.15554341558E+03  0.20911661158E+03  0.12500722660E+03 0.  0.
          5    1    3    3  501    0 -0.39757254729E+02 -0.48591829117E+01  0.11708905379E+03  0.12383936159E+03  0.47000000000E+01 0. -1.
         -5    1    3    3    0  501  0.70954228550E+02  0.59043546247E+02  0.12142356920E+03  0.15259887306E+03  0.47000000000E+01 0. -1.
          5    1    4    4  502    0 -0.55710722185E+01 -0.54782507190E+02  0.17038693444E+03  0.17912553522E+03  0.47000000000E+01 0.  1.
         -5    1    4    4    0  502 -0.25625901603E+02  0.59814385519E+00 -0.14843518860E+02  0.29991076359E+02  0.47000000000E+01 0.  1.
<mgrwt>
<rscale>  0 0.28369587E+03</rscale>
<asrwt>0</asrwt>
<pdfrwt beam="1">  1       21 0.67662373E-01 0.28369587E+03</pdfrwt>
<pdfrwt beam="2">  1       21 0.70383701E-02 0.28369587E+03</pdfrwt>
<totfact> 0.29238642E+05</totfact>
</mgrwt>
</event>
<event>
 8    1  0.9331162E-006  0.3459872E+03  0.7546771E-02  0.1064274E+00
         21   -1    0    0  504  503  0.00000000000E+00  0.00000000000E+00  0.15403880768E+02  0.15403880768E+02  0.00000000000E+00 0.  1.
         21   -1    0    0  503  504 -0.00000000000E+00 -0.00000000000E+00 -0.19428085406E+04  0.19428085406E+04  0.00000000000E+00 0.  1.
         25    2    1    2    0    0  0.11660492273E+03 -0.11151532390E+02 -0.82721419162E+03  0.84476573584E+03  0.12499905983E+03 0.  0.
         25    2    1    2    0    0 -0.11660492273E+03  0.11151532390E+02 -0.11001904682E+04  0.11134466855E+04  0.12499356176E+03 0.  0.
          5    1    3    3  501    0  0.13118945268E+03 -0.35185131979E+02 -0.75491222148E+03  0.76704838057E+03  0.47000000000E+01 0.  1.
         -5    1    3    3    0  501 -0.14584529956E+02  0.24033599589E+02 -0.72301970143E+02  0.77717355267E+02  0.47000000000E+01 0.  1.
          5    1    4    4  502    0 -0.14211581835E+03 -0.16567874376E+01 -0.93203186717E+03  0.94281766116E+03  0.47000000000E+01 0. -1.
         -5    1    4    4    0  502  0.25510895622E+02  0.12808319827E+02 -0.16815860105E+03  0.17062902438E+03  0.47000000000E+01 0. -1.
<mgrwt>
<rscale>  0 0.34598723E+03</rscale>
<asrwt>0</asrwt>
<pdfrwt beam="1">  1       21 0.23698282E-02 0.34598723E+03</pdfrwt>
<pdfrwt beam="2">  1       21 0.29889357E+00 0.34598723E+03</pdfrwt>
<totfact> 0.29008859E+04</totfact>
</mgrwt>
</event>
<event>
 8    1  0.9331162E-006  0.2712848E+03  0.7546771E-02  0.1100547E+00
         21   -1    0    0  504  503  0.00000000000E+00  0.00000000000E+00  0.91295907421E+02  0.91295907421E+02  0.00000000000E+00 0. -1.
         21   -1    0    0  503  504 -0.00000000000E+00 -0.00000000000E+00 -0.20153000634E+03  0.20153000634E+03  0.00000000000E+00 0. -1.
         25    2    1    2    0    0 -0.99767956835E+01 -0.51429943941E+02 -0.61002253056E+02  0.14862853272E+03  0.12499836109E+03 0.  0.
         25    2    1    2    0    0  0.99767956835E+01  0.51429943941E+02 -0.49231845863E+02  0.14419738104E+03  0.12499813785E+03 0.  0.
          5    1    3    3  501    0 -0.21565667066E+02 -0.63223923943E+02  0.16725226373E+02  0.69022936420E+02  0.47000000000E+01 0.  1.
         -5    1    3    3    0  501  0.11588871383E+02  0.11793980002E+02 -0.77727479429E+02  0.79605596302E+02  0.47000000000E+01 0.  1.
          5    1    4    4  502    0 -0.47079478835E+02 -0.12771764253E+02 -0.23907074119E+02  0.54527364529E+02  0.47000000000E+01 0. -1.
         -5    1    4    4    0  502  0.57056274519E+02  0.64201708193E+02 -0.25324771744E+02  0.89670016509E+02  0.47000000000E+01 0. -1.
<mgrwt>
<rscale>  0 0.27128483E+03</rscale>
<asrwt>0</asrwt>
<pdfrwt beam="1">  1       21 0.14045524E-01 0.27128483E+03</pdfrwt>
<pdfrwt beam="2">  1       21 0.31004616E-01 0.27128483E+03</pdfrwt>
<totfact> 0.43466213E+05</totfact>
</mgrwt>
</event>
<event>
 8    1  0.9331162E-006  0.3294680E+03  0.7546771E-02  0.1071372E+00
         21   -1    0    0  504  503  0.00000000000E+00  0.00000000000E+00  0.41666673937E+03  0.41666673937E+03  0.00000000000E+00 0. -1.
         21   -1    0    0  503  504 -0.00000000000E+00 -0.00000000000E+00 -0.65129498565E+02  0.65129498565E+02  0.00000000000E+00 0. -1.
         25    2    1    2    0    0  0.34021698778E+02  0.10170080257E+03  0.18089870988E+03  0.24464302892E+03  0.12500135652E+03 0.  0.
         25    2    1    2    0    0 -0.34021698778E+02 -0.10170080257E+03  0.17063853092E+03  0.23715320901E+03  0.12499442818E+03 0.  0.
          5    1    3    3  501    0  0.55486012460E+02  0.39253077783E+02  0.20541995438E+02  0.71158732919E+02  0.47000000000E+01 0. -1.
         -5    1    3    3    0  501 -0.21464313681E+02  0.62447724791E+02  0.16035671444E+03  0.17348429600E+03  0.47000000000E+01 0. -1.
          5    1    4    4  502    0  0.30966196209E+01 -0.11069254863E+03  0.74357616838E+02  0.13346750375E+03  0.47000000000E+01 0. -1.
         -5    1    4    4    0  502 -0.37118318399E+02  0.89917460593E+01  0.96280914082E+02  0.10368570526E+03  0.47000000000E+01 0. -1.
<mgrwt>
<rscale>  0 0.32946803E+03</rscale>
<asrwt>0</asrwt>
<pdfrwt beam="1">  1       21 0.64102574E-01 0.32946803E+03</pdfrwt>
<pdfrwt beam="2">  1       21 0.10019923E-01 0.32946803E+03</pdfrwt>
<totfact> 0.17489646E+05</totfact>
</mgrwt>
</event>
<event>
 8    1  0.9331162E-006  0.3467458E+03  0.7546771E-02  0.1063959E+00
         21   -1    0    0  504  503  0.00000000000E+00  0.00000000000E+00  0.56672399543E+02  0.56672399543E+02  0.00000000000E+00 0.  1.
         21   -1    0    0  503  504 -0.00000000000E+00 -0.00000000000E+00 -0.53038443780E+03  0.53038443780E+03  0.00000000000E+00 0.  1.
         25    2    1    2    0    0 -0.38865163972E+02 -0.88231290949E+02 -0.11550486613E+03  0.19560767688E+03  0.12500290989E+03 0.  0.
         25    2    1    2    0    0  0.38865163972E+02  0.88231290949E+02 -0.35820717213E+03  0.39144916047E+03  0.12499922156E+03 0.  0.
          5    1    3    3  501    0 -0.83436871542E+02 -0.51696108405E+02 -0.58248472130E+02  0.11423297975E+03  0.47000000000E+01 0.  1.
         -5    1    3    3    0  501  0.44571707570E+02 -0.36535182544E+02 -0.57256393998E+02  0.81374697129E+02  0.47000000000E+01 0.  1.
          5    1    4    4  502    0 -0.45407851992E+02  0.38959935133E+02 -0.12915787485E+03  0.14242049081E+03  0.47000000000E+01 0.  1.
         -5    1    4    4    0  502  0.84273015964E+02  0.49271355816E+02 -0.22904929728E+03  0.24902866965E+03  0.47000000000E+01 0.  1.
<mgrwt>
<rscale>  0 0.34674578E+03</rscale>
<asrwt>0</asrwt>
<pdfrwt beam="1">  1       21 0.87188306E-02 0.34674578E+03</pdfrwt>
<pdfrwt beam="2">  1       21 0.81597606E-01 0.34674578E+03</pdfrwt>
<totfact> 0.12963935E+05</totfact>
</mgrwt>
</event>
<event>
 8    1  0.9331162E-006  0.2653321E+03  0.7546771E-02  0.1103981E+00
         21   -1    0    0  504  503  0.00000000000E+00  0.00000000000E+00  0.18412083708E+03  0.18412083708E+03  0.00000000000E+00 0. -1.
         21   -1    0    0  503  504 -0.00000000000E+00 -0.00000000000E+00 -0.95590939886E+02  0.95590939886E+02  0.00000000000E+00 0. -1.
         25    2    1    2    0    0 -0.24784520098E+02 -0.18145834649E+02  0.78160092775E+02  0.15057714043E+03  0.12498372441E+03 0.  0.
         25    2    1    2    0    0  0.24784520098E+02  0.18145834649E+02  0.10369804419E+02  0.12913463653E+03  0.12499871102E+03 0.  0.
          5    1    3    3  501    0 -0.73719321102E+02 -0.20230253190E+02  0.31653052497E+02  0.82872234073E+02  0.47000000000E+01 0.  1.
         -5    1    3    3    0  501  0.48934801004E+02  0.20844185414E+01  0.46507040278E+02  0.67704906361E+02  0.47000000000E+01 0.  1.
          5    1    4    4  502    0 -0.29700878619E+02  0.48186579286E+02 -0.19373480460E+02  0.60012585006E+02  0.47000000000E+01 0. -1.
         -5    1    4    4    0  502  0.54485398716E+02 -0.30040744637E+02  0.29743284880E+02  0.69122051525E+02  0.47000000000E+01 0. -1.
<mgrwt>
<rscale>  0 0.26533212E+03</rscale>
<asrwt>0</asrwt>
<pdfrwt beam="1">  1       21 0.28326283E-01 0.26533212E+03</pdfrwt>
<pdfrwt beam="2">  1       21 0.14706298E-01 0.26533212E+03</pdfrwt>
<totfact> 0.47760638E+05</totfact>
</mgrwt>
</event>
<event>
 8    1  0.9331162E-006  0.2982279E+03  0.7546771E-02  0.1086130E+00
         21   -1    0    0  504  503  0.00000000000E+00  0.00000000000E+00  0.23202900544E+03  0.23202900544E+03  0.00000000000E+00 0. -1.
         21   -1    0    0  503  504 -0.00000000000E+00 -0.00000000000E+00 -0.95828399229E+02  0.95828399229E+02  0.00000000000E+00 0. -1.
         25    2    1    2    0    0 -0.25816747253E+02  0.18778832336E+02  0.15029515895E+03  0.19807299393E+03  0.12500050854E+03 0.  0.
         25    2    1    2    0    0  0.25816747253E+02 -0.18778832336E+02 -0.14094552746E+02  0.12978441074E+03  0.12500475140E+03 0.  0.
          5    1    3    3  501    0  0.33612645469E+02 -0.25994402879E+02  0.18353605210E+02  0.46523797574E+02  0.47000000000E+01 0. -1.
         -5    1    3    3    0  501 -0.59429392722E+02  0.44773235215E+02  0.13194155374E+03  0.15154919635E+03  0.47000000000E+01 0. -1.
          5    1    4    4  502    0 -0.10887279530E+02 -0.43370948544E+02  0.39722885998E+02  0.59996414103E+02  0.47000000000E+01 0.  1.
         -5    1    4    4    0  502  0.36704026783E+02  0.24592116208E+02 -0.53817438743E+02  0.69787996637E+02  0.47000000000E+01 0.  1.
<mgrwt>
<rscale>  0 0.29822789E+03</rscale>
<asrwt>0</asrwt>
<pdfrwt beam="1">  1       21 0.35696770E-01 0.29822789E+03</pdfrwt>
<pdfrwt beam="2">  1       21 0.14742831E-01 0.29822789E+03</pdfrwt>
<totfact> 0.29891984E+05</totfact>
</mgrwt>
</event>
<event>
 8    1  0.9331162E-006  0.3720089E+03  0.7546771E-02  0.1053927E+00
         21   -1    0    0  504  503  0.00000000000E+00  0.00000000000E+00  0.15921410150E+03  0.15921410150E+03  0.00000000000E+00 0. -1.
         21   -1    0    0  503  504 -0.00000000000E+00 -0.00000000000E+00 -0.21730274435E+03  0.21730274435E+03  0.00000000000E+00 0. -1.
         25    2    1    2    0    0 -0.64959689994E+02  0.45783970829E+02 -0.14290829935E+03  0.20582626406E+03  0.12500294256E+03 0.  0.
         25    2    1    2    0    0  0.64959689994E+02 -0.45783970829E+02  0.84819656491E+02  0.17069058178E+03  0.12499986909E+03 0.  0.
          5    1    3    3  501    0  0.32002060584E+02 -0.11555079517E+01 -0.65593304733E+02  0.73143958781E+02  0.47000000000E+01 0. -1.
         -5    1    3    3    0  501 -0.96961750578E+02  0.46939478781E+02 -0.77314994613E+02  0.13268230528E+03  0.47000000000E+01 0. -1.
          5    1    4    4  502    0  0.87472856604E+02 -0.68146135007E+02  0.45507854167E+02  0.11995187014E+03  0.47000000000E+01 0. -1.
         -5    1    4    4    0  502 -0.22513166610E+02  0.22362164177E+02  0.39311802324E+02  0.50738711646E+02  0.47000000000E+01 0. -1.
<mgrwt>
<rscale>  0 0.37200893E+03</rscale>
<asrwt>0</asrwt>
<pdfrwt beam="1">  1       21 0.24494477E-01 0.37200893E+03</pdfrwt>
<pdfrwt beam="2">  1       21 0.33431191E-01 0.37200893E+03</pdfrwt>
<totfact> 0.12913676E+05</totfact>
</mgrwt>
</event>
<event>
 8    1  0.9331162E-006  0.2643218E+03  0.7546771E-02  0.1104574E+00
         21   -1    0    0  504  503  0.00000000000E+00  0.00000000000E+00  0.15389915940E+04  0.15389915940E+04  0.00000000000E+00 0. -1.
         21   -1    0    0  503  504 -0.00000000000E+00 -0.00000000000E+00 -0.11349320116E+02  0.11349320116E+02  0.00000000000E+00 0. -1.
         25    2    1    2    0    0 -0.34895059308E+02 -0.20785920344E+02  0.84569315753E+03  0.85584326863E+03  0.12498425546E+03 0.  0.
         25    2    1    2    0    0  0.34895059308E+02  0.20785920344E+02  0.68194911632E+03  0.69449764545E+03  0.12499065023E+03 0.  0.
          5    1    3    3  501    0  0.17312931980E+02  0.24967838883E+02  0.59152955689E+03  0.59232798116E+03  0.47000000000E+01 0. -1.
         -5    1    3    3    0  501 -0.52207991288E+02 -0.45753759227E+02  0.25416360065E+03  0.26351528747E+03  0.47000000000E+01 0. -1.
          5    1    4    4  502    0  0.30365450629E+01 -0.39831598980E+02  0.89964007258E+02  0.98546382405E+02  0.47000000000E+01 0. -1.
         -5    1    4    4    0  502  0.31858514245E+02  0.60617519325E+02  0.59198510906E+03  0.59595126305E+03  0.47000000000E+01 0. -1.
<mgrwt>
<rscale>  0 0.26432184E+03</rscale>
<asrwt>0</asrwt>
<pdfrwt beam="1">  1       21 0.23676777E+00 0.26432184E+03</pdfrwt>
<pdfrwt beam="2">  1       21 0.17460505E-02 0.26432184E+03</pdfrwt>
<totfact> 0.11732959E+05</totfact>
</mgrwt>
</event>
<event>
 8    1  0.9331162E-006  0.2795091E+03  0.7546771E-02  0.1095957E+00
         21   -1    0    0  504  503  0.00000000000E+00  0.00000000000E+00  0.17974561937E+02  0.17974561937E+02  0.00000000000E+00 0.  1.
         21   -1    0    0  503  504 -0.00000000000E+00 -0.00000000000E+00 -0.10866100105E+04  0.10866100105E+04  0.00000000000E+00 0.  1.
         25    2    1    2    0    0 -0.10849678179E+02 -0.40393127005E+02 -0.71782773938E+03  0.72982813438E+03  0.12499248816E+03 0.  0.
         25    2    1    2    0    0  0.10849678179E+02  0.40393127005E+02 -0.35080770916E+03  0.37475643803E+03  0.12500807498E+03 0.  0.
          5    1    3    3  501    0  0.57104481981E+02 -0.19815998895E+02 -0.32384257395E+03  0.32946881245E+03  0.47000000000E+01 0. -1.
         -5    1    3    3    0  501 -0.67954160160E+02 -0.20577128109E+02 -0.39398516543E+03  0.40035932194E+03  0.47000000000E+01 0. -1.
          5    1    4    4  502    0 -0.20313220570E+01  0.69801764889E+02 -0.10117621685E+03  0.12302491417E+03  0.47000000000E+01 0.  1.
         -5    1    4    4    0  502  0.12881000236E+02 -0.29408637884E+02 -0.24963149231E+03  0.25173152385E+03  0.47000000000E+01 0.  1.
<mgrwt>
<rscale>  0 0.27950913E+03</rscale>
<asrwt>0</asrwt>
<pdfrwt beam="1">  1       21 0.27653170E-02 0.27950913E+03</pdfrwt>
<pdfrwt beam="2">  1       21 0.16717079E+00 0.27950913E+03</pdfrwt>
<totfact> 0.15610745E+05</totfact>
</mgrwt>
</event>
<event>
 8    1  0.9331162E-006  0.3913954E+03  0.7546771E-02  0.1046801E+00
         21   -1    0    0  504  503  0.00000000000E+00  0.00000000000E+00  0.20646022850E+03  0.20646022850E+03  0.00000000000E+00 0. -1.
         21   -1    0    0  503  504 -0.00000000000E+00 -0.00000000000E+00 -0.18549620588E+03  0.18549620588E+03  0.00000000000E+00 0. -1.
         25    2    1    2    0    0 -0.13697585040E+03 -0.30940090338E+02 -0.43938081180E+02  0.19306806707E+03  0.12500020305E+03 0.  0.
         25    2    1    2    0    0  0.13697585040E+03  0.30940090338E+02  0.64902103794E+02  0.19888836731E+03  0.12499850715E+03 0.  0.
          5    1    3    3  501    0 -0.48425435477E+02 -0.56708954490E+02  0.23940126414E+02  0.78461123961E+02  0.47000000000E+01 0.  1.
         -5    1    3    3    0  501 -0.88550414923E+02  0.25768864152E+02 -0.67878207594E+02  0.11460694311E+03  0.47000000000E+01 0.  1.
          5    1    4    4  502    0 -0.20671858737E+02  0.20546065829E+00  0.26025802324E+02  0.33567846883E+02  0.47000000000E+01 0.  1.
         -5    1    4    4    0  502  0.15764770914E+03  0.30734629680E+02  0.38876301469E+02  0.16532052042E+03  0.47000000000E+01 0.  1.
<mgrwt>
<rscale>  0 0.39139540E+03</rscale>
<asrwt>0</asrwt>
<pdfrwt beam="1">  1       21 0.31763112E-01 0.39139540E+03</pdfrwt>
<pdfrwt beam="2">  1       21 0.28537878E-01 0.39139540E+03</pdfrwt>
<totfact> 0.10574807E+05</totfact>
</mgrwt>
</event>
<event>
 8    1  0.9331162E-006  0.2816796E+03  0.7546771E-02  0.1094775E+00
         21   -1    0    0  504  503  0.00000000000E+00  0.00000000000E+00  0.16368490508E+03  0.16368490508E+03  0.00000000000E+00 0.  1.
         21   -1    0    0  503  504 -0.00000000000E+00 -0.00000000000E+00 -0.12118315375E+03  0.12118315375E+03  0.00000000000E+00 0.  1.
         25    2    1    2    0    0 -0.85108464249E+01  0.17208474695E+02 -0.41428939477E+02  0.13307674915E+03  0.12499799210E+03 0.  0.
         25    2    1    2    0    0  0.85108464249E+01 -0.17208474695E+02  0.83930690803E+02  0.15179130967E+03  0.12501069845E+03 0.  0.
          5    1    3    3  501    0 -0.89003101751E+01 -0.41558883946E+02  0.20631013138E+02  0.47477205679E+02  0.47000000000E+01 0.  1.
         -5    1    3    3    0  501  0.38946375024E+00  0.58767358640E+02 -0.62059952615E+02  0.85599543469E+02  0.47000000000E+01 0.  1.
          5    1    4    4  502    0  0.45827414432E+02 -0.14286059654E+02  0.99816092717E+02  0.11085840419E+03  0.47000000000E+01 0.  1.
         -5    1    4    4    0  502 -0.37316568007E+02 -0.29224150410E+01 -0.15885401914E+02  0.40932905486E+02  0.47000000000E+01 0.  1.
<mgrwt>
<rscale>  0 0.28167963E+03</rscale>
<asrwt>0</asrwt>
<pdfrwt beam="1">  1       21 0.25182293E-01 0.28167963E+03</pdfrwt>
<pdfrwt beam="2">  1       21 0.18643562E-01 0.28167963E+03</pdfrwt>
<totfact> 0.38566048E+05</totfact>
</mgrwt>
</event>
<event>
 8    1  0.9331162E-006  0.3390442E+03  0.7546771E-02  0.1067204E+00
         21   -1    0    0  504  503  0.00000000000E+00  0.00000000000E+00  0.20482562364E+03  0.20482562364E+03  0.00000000000E+00 0.  1.
         21   -1    0    0  503  504 -0.00000000000E+00 -0.00000000000E+00 -0.14030344216E+03  0.14030344216E+03  0.00000000000E+00 0.  1.
         25    2    1    2    0    0  0.10365289205E+03 -0.47705893375E+02  0.42134735837E+02  0.17441193834E+03  0.12499765590E+03 0.  0.
         25    2    1    2    0    0 -0.10365289205E+03  0.47705893375E+02  0.22387445636E+02  0.17071712745E+03  0.12499346219E+03 0.  0.
          5    1    3    3  501    0  0.22846493915E+02 -0.49509861407E+02  0.69939278736E+02  0.88807552442E+02  0.47000000000E+01 0. -1.
         -5    1    3    3    0  501  0.80806398133E+02  0.18039680315E+01 -0.27804542899E+02  0.85604385902E+02  0.47000000000E+01 0. -1.
          5    1    4    4  502    0 -0.93479837454E+02  0.78576488768E+02 -0.12449120342E+02  0.12284060890E+03  0.47000000000E+01 0. -1.
         -5    1    4    4    0  502 -0.10173054594E+02 -0.30870595392E+02  0.34836565978E+02  0.47876518554E+02  0.47000000000E+01 0. -1.
<mgrwt>
<rscale>  0 0.33904419E+03</rscale>
<asrwt>0</asrwt>
<pdfrwt beam="1">  1       21 0.31511635E-01 0.33904419E+03</pdfrwt>
<pdfrwt beam="2">  1       21 0.21585145E-01 0.33904419E+03</pdfrwt>
<totfact> 0.18648772E+05</totfact>
</mgrwt>
</event>
<event>
 8    1  0.9331162E-006  0.3351503E+03  0.7546771E-02  0.1068881E+00
         21   -1    0    0  504  503  0.00000000000E+00  0.00000000000E+00  0.12423968582E+03  0.12423968582E+03  0.00000000000E+00 0. -1.
         21   -1    0    0  503  504 -0.00000000000E+00 -0.00000000000E+00 -0.22602618918E+03  0.22602618918E+03  0.00000000000E+00 0. -1.
         25    2    1    2    0    0  0.81627701433E+02 -0.43244507197E+01 -0.13029717251E+03  0.19821301132E+03  0.12501704754E+03 0.  0.
         25    2    1    2    0    0 -0.81627701433E+02  0.43244507197E+01  0.28510669145E+02  0.15205286368E+03  0.12500173033E+03 0.  0.
          5    1    3    3  501    0  0.57904821514E+02  0.20853976833E+02  0.16284155753E+01  0.61746242328E+02  0.47000000000E+01 0.  1.
         -5    1    3    3    0  501  0.23722879919E+02 -0.25178427553E+02 -0.13192558809E+03  0.13646676899E+03  0.47000000000E+01 0.  1.
          5    1    4    4  502    0  0.10806331487E+02 -0.29261820050E+02 -0.24764211818E+02  0.40104701718E+02  0.47000000000E+01 0. -1.
         -5    1    4    4    0  502 -0.92434032920E+02  0.33586270770E+02  0.53274880964E+02  0.11194816197E+03  0.47000000000E+01 0. -1.
<mgrwt>
<rscale>  0 0.33515025E+03</rscale>
<asrwt>0</asrwt>
<pdfrwt beam="1">  1       21 0.19113798E-01 0.33515025E+03</pdfrwt>
<pdfrwt beam="2">  1       21 0.34773260E-01 0.33515025E+03</pdfrwt>
<totfact> 0.19302204E+05</totfact>
</mgrwt>
</event>
<event>
 8    1  0.9331162E-006  0.8404200E+03  0.7546771E-02  0.9503286E-01
         21   -1    0    0  504  503  0.00000000000E+00  0.00000000000E+00  0.69591545528E+03  0.69591545528E+03  0.00000000000E+00 0. -1.
         21   -1    0    0  503  504 -0.00000000000E+00 -0.00000000000E+00 -0.25373262283E+03  0.25373262283E+03  0.00000000000E+00 0. -1.
         25    2    1    2    0    0 -0.50669707168E+02  0.18501747133E+02 -0.22811862340E+03  0.26565581257E+03  0.12500068215E+03 0.  0.
         25    2    1    2    0    0  0.50669707168E+02 -0.18501747133E+02  0.67030145585E+03  0.68399226554E+03  0.12502657208E+03 0.  0.
          5    1    3    3  501    0  0.29598338644E+01 -0.43054557521E+02 -0.13459135449E+03  0.14141915798E+03  0.47000000000E+01 0. -1.
         -5    1    3    3    0  501 -0.53629541033E+02  0.61556304654E+02 -0.93527268907E+02  0.12423665459E+03  0.47000000000E+01 0. -1.
          5    1    4    4  502    0  0.25185414561E+02 -0.70430243564E+02  0.30282068838E+03  0.31195702208E+03  0.47000000000E+01 0. -1.
         -5    1    4    4    0  502  0.25484292607E+02  0.51928496431E+02  0.36748076747E+03  0.37203524346E+03  0.47000000000E+01 0. -1.
<mgrwt>
<rscale>  0 0.84042002E+03</rscale>
<asrwt>0</asrwt>
<pdfrwt beam="1">  1       21 0.10706392E+00 0.84042002E+03</pdfrwt>
<pdfrwt beam="2">  1       21 0.39035788E-01 0.84042002E+03</pdfrwt>
<totfact> 0.34982971E+03</totfact>
</mgrwt>
</event>
<event>
 8    1  0.9331162E-006  0.3064295E+03  0.7546771E-02  0.1082070E+00
         21   -1    0    0  504  503  0.00000000000E+00  0.00000000000E+00  0.52775041273E+02  0.52775041273E+02  0.00000000000E+00 0.  1.
         21   -1    0    0  503  504 -0.00000000000E+00 -0.00000000000E+00 -0.44480789376E+03  0.44480789376E+03  0.00000000000E+00 0.  1.
         25    2    1    2    0    0 -0.57569695907E+02  0.59924312252E+01 -0.87095723886E+02  0.16297559722E+03  0.12500080420E+03 0.  0.
         25    2    1    2    0    0  0.57569695907E+02 -0.59924312252E+01 -0.30493712860E+03  0.33460733781E+03  0.12500095599E+03 0.  0.
          5    1    3    3  501    0 -0.17510363175E+02  0.62061337734E+02 -0.61741460607E+02  0.89399778622E+02  0.47000000000E+01 0.  1.
         -5    1    3    3    0  501 -0.40059332732E+02 -0.56068906509E+02 -0.25354263279E+02  0.73575818599E+02  0.47000000000E+01 0.  1.
          5    1    4    4  502    0 -0.33468053341E+02  0.24357230056E+02 -0.94418948357E+02  0.10320083846E+03  0.47000000000E+01 0. -1.
         -5    1    4    4    0  502  0.91037749247E+02 -0.30349661281E+02 -0.21051818024E+03  0.23140649935E+03  0.47000000000E+01 0. -1.
<mgrwt>
<rscale>  0 0.30642947E+03</rscale>
<asrwt>0</asrwt>
<pdfrwt beam="1">  1       21 0.81192370E-02 0.30642947E+03</pdfrwt>
<pdfrwt beam="2">  1       21 0.68431985E-01 0.30642947E+03</pdfrwt>
<totfact> 0.22093121E+05</totfact>
</mgrwt>
</event>
<event>
 8    1  0.9331162E-006  0.2888787E+03  0.7546771E-02  0.1090936E+00
         21   -1    0    0  504  503  0.00000000000E+00  0.00000000000E+00  0.12850618430E+02  0.12850618430E+02  0.00000000000E+00 0. -1.
         21   -1    0    0  503  504 -0.00000000000E+00 -0.00000000000E+00 -0.16234798574E+04  0.16234798574E+04  0.00000000000E+00 0. -1.
         25    2    1    2    0    0  0.48264368677E+02  0.14909012070E+02 -0.10988981245E+04  0.11071374670E+04  0.12499821893E+03 0.  0.
         25    2    1    2    0    0 -0.48264368677E+02 -0.14909012070E+02 -0.51173111447E+03  0.52919300889E+03  0.12499911689E+03 0.  0.
          5    1    3    3  501    0  0.55523892664E+02  0.59535934543E+02 -0.86697838470E+03  0.87080482296E+03  0.47000000000E+01 0.  1.
         -5    1    3    3    0  501 -0.72595239871E+01 -0.44626922473E+02 -0.23191973984E+03  0.23633264402E+03  0.47000000000E+01 0.  1.
          5    1    4    4  502    0  0.30790759338E+01  0.13990172745E+02 -0.41871826452E+03  0.41898959496E+03  0.47000000000E+01 0. -1.
         -5    1    4    4    0  502 -0.51343444610E+02 -0.28899184815E+02 -0.93012849950E+02  0.11020341394E+03  0.47000000000E+01 0. -1.
<mgrwt>
<rscale>  0 0.28887866E+03</rscale>
<asrwt>0</asrwt>
<pdfrwt beam="1">  1       21 0.19770176E-02 0.28887866E+03</pdfrwt>
<pdfrwt beam="2">  1       21 0.24976621E+00 0.28887866E+03</pdfrwt>
<totfact> 0.78957486E+04</totfact>
</mgrwt>
</event>
<event>
 8    1  0.9331162E-006  0.3994743E+03  0.7546771E-02  0.1043962E+00
         21   -1    0    0  504  503  0.00000000000E+00  0.00000000000E+00  0.21295447218E+03  0.21295447218E+03  0.00000000000E+00 0.  1.
         21   -1    0    0  503  504 -0.00000000000E+00 -0.00000000000E+00 -0.18734015592E+03  0.18734015592E+03  0.00000000000E+00 0.  1.
         25    2    1    2    0    0  0.12717629105E+03 -0.79116192994E+01 -0.77021778362E+02  0.19439524115E+03  0.12498300971E+03 0.  0.
         25    2    1    2    0    0 -0.12717629105E+03  0.79116192994E+01  0.10263609463E+03  0.20589938695E+03  0.12499594753E+03 0.  0.
          5    1    3    3  501    0  0.89779168211E+02 -0.62638499179E+02 -0.32070111012E+02  0.11416857118E+03  0.47000000000E+01 0. -1.
         -5    1    3    3    0  501  0.37397122840E+02  0.54726879879E+02 -0.44951667351E+02  0.80226669977E+02  0.47000000000E+01 0. -1.
          5    1    4    4  502    0 -0.27793730413E+02  0.19832170287E+02  0.99876598468E+02  0.10565619409E+03  0.47000000000E+01 0.  1.
         -5    1    4    4    0  502 -0.99382560638E+02 -0.11920550987E+02  0.27594961639E+01  0.10024319286E+03  0.47000000000E+01 0.  1.
<mgrwt>
<rscale>  0 0.39947427E+03</rscale>
<asrwt>0</asrwt>
<pdfrwt beam="1">  1       21 0.32762226E-01 0.39947427E+03</pdfrwt>
<pdfrwt beam="2">  1       21 0.28821563E-01 0.39947427E+03</pdfrwt>
<totfact> 0.97318426E+04</totfact>
</mgrwt>
</event>
<event>
 8    1  0.9331162E-006  0.2940250E+03  0.7546771E-02  0.1088266E+00
         21   -1    0    0  504  503  0.00000000000E+00  0.00000000000E+00  0.12289009364E+03  0.12289009364E+03  0.00000000000E+00 0.  1.
         21   -1    0    0  503  504 -0.00000000000E+00 -0.00000000000E+00 -0.17587000322E+03  0.17587000322E+03  0.00000000000E+00 0.  1.
         25    2    1    2    0    0  0.20282296561E+02  0.67253269099E+02 -0.59464328333E+02  0.15522725091E+03  0.12500047729E+03 0.  0.
         25    2    1    2    0    0 -0.20282296561E+02 -0.67253269099E+02  0.64844187525E+01  0.14353284595E+03  0.12500102568E+03 0.  0.
          5    1    3    3  501    0  0.86992680871E+00 -0.10418163943E+02  0.31758521680E+02  0.33763717388E+02  0.47000000000E+01 0. -1.
         -5    1    3    3    0  501  0.19412369752E+02  0.77671433043E+02 -0.91222850013E+02  0.12146353352E+03  0.47000000000E+01 0. -1.
          5    1    4    4  502    0 -0.70493755998E+02 -0.18272005982E+02  0.50602235056E+00  0.72976584573E+02  0.47000000000E+01 0.  1.
         -5    1    4    4    0  502  0.50211459437E+02 -0.48981263117E+02  0.59783964019E+01  0.70556261373E+02  0.47000000000E+01 0.  1.
<mgrwt>
<rscale>  0 0.29402504E+03</rscale>
<asrwt>0</asrwt>
<pdfrwt beam="1">  1       21 0.18906168E-01 0.29402504E+03</pdfrwt>
<pdfrwt beam="2">  1       21 0.27056924E-01 0.29402504E+03</pdfrwt>
<totfact> 0.32617285E+05</totfact>
</mgrwt>
</event>
<event>
 8    1  0.9331162E-006  0.2657853E+03  0.7546771E-02  0.1103716E+00
         21   -1    0    0  504  503  0.00000000000E+00  0.00000000000E+00  0.94014958363E+02  0.94014958363E+02  0.00000000000E+00 0.  1.
         21   -1    0    0  503  504 -0.00000000000E+00 -0.00000000000E+00 -0.18784726999E+03  0.18784726999E+03  0.00000000000E+00 0.  1.
         25    2    1    2    0    0 -0.75067086672E+01  0.39483369639E+02 -0.68548613695E+02  0.14811909679E+03  0.12500026896E+03 0.  0.
         25    2    1    2    0    0  0.75067086672E+01 -0.39483369639E+02 -0.25283697933E+02  0.13374313157E+03  0.12503068706E+03 0.  0.
          5    1    3    3  501    0  0.53467190207E+02  0.38985294205E+02 -0.53280488672E+02  0.85085216495E+02  0.47000000000E+01 0.  1.
         -5    1    3    3    0  501 -0.60973898874E+02  0.49807543364E+00 -0.15268125023E+02  0.63033880293E+02  0.47000000000E+01 0.  1.
          5    1    4    4  502    0  0.35454979718E+02  0.12080071665E+02 -0.55871139639E+02  0.67428910438E+02  0.47000000000E+01 0. -1.
         -5    1    4    4    0  502 -0.27948271050E+02 -0.51563441303E+02  0.30587441707E+02  0.66314221129E+02  0.47000000000E+01 0. -1.
<mgrwt>
<rscale>  0 0.26578528E+03</rscale>
<asrwt>0</asrwt>
<pdfrwt beam="1">  1       21 0.14463840E-01 0.26578528E+03</pdfrwt>
<pdfrwt beam="2">  1       21 0.28899579E-01 0.26578528E+03</pdfrwt>
<totfact> 0.47342535E+05</totfact>
</mgrwt>
</event>
<event>
 8    1  0.9331162E-006  0.2772158E+03  0.7546771E-02  0.1097219E+00
         21   -1    0    0  504  503  0.00000000000E+00  0.00000000000E+00  0.53117307906E+03  0.53117307906E+03  0.00000000000E+00 0. -1.
         21   -1    0    0  503  504 -0.00000000000E+00 -0.00000000000E+00 -0.36169279832E+02  0.36169279832E+02  0.00000000000E+00 0. -1.
         25    2    1    2    0    0 -0.36561763085E+02  0.45423490820E+02  0.27548645681E+03  0.30808623108E+03  0.12499712740E+03 0.  0.
         25    2    1    2    0    0  0.36561763085E+02 -0.45423490820E+02  0.21951734242E+03  0.25925612781E+03  0.12500328055E+03 0.  0.
          5    1    3    3  501    0 -0.40529018379E+02 -0.24642857728E+02  0.19704803530E+03  0.20273107799E+03  0.47000000000E+01 0.  1.
         -5    1    3    3    0  501  0.39672552946E+01  0.70066348549E+02  0.78438421510E+02  0.10535515309E+03  0.47000000000E+01 0.  1.
          5    1    4    4  502    0 -0.33821652667E+02  0.47906534294E+01  0.13087654984E+03  0.13534258697E+03  0.47000000000E+01 0.  1.
         -5    1    4    4    0  502  0.70383415752E+02 -0.50214144250E+02  0.88640792581E+02  0.12391354085E+03  0.47000000000E+01 0.  1.
<mgrwt>
<rscale>  0 0.27721578E+03</rscale>
<asrwt>0</asrwt>
<pdfrwt beam="1">  1       21 0.81718930E-01 0.27721578E+03</pdfrwt>
<pdfrwt beam="2">  1       21 0.55645050E-02 0.27721578E+03</pdfrwt>
<totfact> 0.28744241E+05</totfact>
</mgrwt>
</event>
<event>
 8    1  0.9331162E-006  0.2785509E+03  0.7546771E-02  0.1096483E+00
         21   -1    0    0  504  503  0.00000000000E+00  0.00000000000E+00  0.19973841856E+02  0.19973841856E+02  0.00000000000E+00 0. -1.
         21   -1    0    0  503  504 -0.00000000000E+00 -0.00000000000E+00 -0.97115246580E+03  0.97115246580E+03  0.00000000000E+00 0. -1.
         25    2    1    2    0    0 -0.56519225023E+02  0.10104099799E+02 -0.55324532765E+03  0.57008954855E+03  0.12500074068E+03 0.  0.
         25    2    1    2    0    0  0.56519225023E+02 -0.10104099799E+02 -0.39793329629E+03  0.42103675910E+03  0.12499811433E+03 0.  0.
          5    1    3    3  501    0 -0.12812348816E+02 -0.11333444943E+02 -0.33864969450E+01  0.18059945128E+02  0.47000000000E+01 0.  1.
         -5    1    3    3    0  501 -0.43706876207E+02  0.21437544741E+02 -0.54985883070E+03  0.55202960342E+03  0.47000000000E+01 0.  1.
          5    1    4    4  502    0  0.66959848022E+02 -0.48945807094E+02 -0.16635388488E+03  0.18594358901E+03  0.47000000000E+01 0.  1.
         -5    1    4    4    0  502 -0.10440622998E+02  0.38841707295E+02 -0.23157941141E+03  0.23509317009E+03  0.47000000000E+01 0.  1.
<mgrwt>
<rscale>  0 0.27855086E+03</rscale>
<asrwt>0</asrwt>
<pdfrwt beam="1">  1       21 0.30728989E-02 0.27855086E+03</pdfrwt>
<pdfrwt beam="2">  1       21 0.14940807E+00 0.27855086E+03</pdfrwt>
<totfact> 0.17786991E+05</totfact>
</mgrwt>
</event>
<event>
 8    1  0.9331162E-006  0.3084233E+03  0.7546771E-02  0.1081104E+00
         21   -1    0    0  504  503  0.00000000000E+00  0.00000000000E+00  0.45740542375E+03  0.45740542375E+03  0.00000000000E+00 0. -1.
         21   -1    0    0  503  504 -0.00000000000E+00 -0.00000000000E+00 -0.51991580657E+02  0.51991580657E+02  0.00000000000E+00 0. -1.
         25    2    1    2    0    0  0.74581619880E+02 -0.50970571863E+02  0.20414395009E+03  0.25583153997E+03  0.12495842215E+03 0.  0.
         25    2    1    2    0    0 -0.74581619880E+02  0.50970571863E+02  0.20126989300E+03  0.25356546444E+03  0.12500183081E+03 0.  0.
          5    1    3    3  501    0  0.89014354744E+02  0.97751879672E+01  0.13949936246E+03  0.16583507403E+03  0.47000000000E+01 0. -1.
         -5    1    3    3    0  501 -0.14432734864E+02 -0.60745759830E+02  0.64644587630E+02  0.89996465946E+02  0.47000000000E+01 0. -1.
          5    1    4    4  502    0 -0.74393130200E+02  0.88893123671E+02  0.15070005510E+03  0.19018128684E+03  0.47000000000E+01 0.  1.
         -5    1    4    4    0  502 -0.18848968033E+00 -0.37922551808E+02  0.50569837901E+02  0.63384177595E+02  0.47000000000E+01 0.  1.
<mgrwt>
<rscale>  0 0.30842329E+03</rscale>
<asrwt>0</asrwt>
<pdfrwt beam="1">  1       21 0.70370063E-01 0.30842329E+03</pdfrwt>
<pdfrwt beam="2">  1       21 0.79987050E-02 0.30842329E+03</pdfrwt>
<totfact> 0.21304512E+05</totfact>
</mgrwt>
</event>
<event>
 8    1  0.9331162E-006  0.6423631E+03  0.7546771E-02  0.9821216E-01
         21   -1    0    0  504  503  0.00000000000E+00  0.00000000000E+00  0.23917271201E+03  0.23917271201E+03  0.00000000000E+00 0. -1.
         21   -1    0    0  503  504 -0.00000000000E+00 -0.00000000000E+00 -0.43131001729E+03  0.43131001729E+03  0.00000000000E+00 0. -1.
         25    2    1    2    0    0  0.74153489974E+02  0.36963724221E+02  0.20038758400E+03  0.25028957680E+03  0.12499852579E+03 0.  0.
         25    2    1    2    0    0 -0.74153489974E+02 -0.36963724221E+02 -0.39252488928E+03  0.42019315249E+03  0.12498575804E+03 0.  0.
          5    1    3    3  501    0  0.80573800924E+02  0.23724300624E+02  0.47471041023E+02  0.96594873421E+02  0.47000000000E+01 0.  1.
         -5    1    3    3    0  501 -0.64203109504E+01  0.13239423598E+02  0.15291654298E+03  0.15369470338E+03  0.47000000000E+01 0.  1.
          5    1    4    4  502    0 -0.32574173372E+02 -0.72599921296E+02 -0.31648681105E+03  0.32637067410E+03  0.47000000000E+01 0. -1.
         -5    1    4    4    0  502 -0.41579316602E+02  0.35636197075E+02 -0.76038078233E+02  0.93822478397E+02  0.47000000000E+01 0. -1.
<mgrwt>
<rscale>  0 0.64236310E+03</rscale>
<asrwt>0</asrwt>
<pdfrwt beam="1">  1       21 0.36795802E-01 0.64236310E+03</pdfrwt>
<pdfrwt beam="2">  1       21 0.66355387E-01 0.64236310E+03</pdfrwt>
<totfact> 0.12736246E+04</totfact>
</mgrwt>
</event>
<event>
 8    1  0.9331162E-006  0.2835618E+03  0.7546771E-02  0.1093759E+00
         21   -1    0    0  504  503  0.00000000000E+00  0.00000000000E+00  0.73882551835E+03  0.73882551835E+03  0.00000000000E+00 0. -1.
         21   -1    0    0  503  504 -0.00000000000E+00 -0.00000000000E+00 -0.27207812094E+02  0.27207812094E+02  0.00000000000E+00 0. -1.
         25    2    1    2    0    0 -0.19364373503E+02 -0.63149460324E+01  0.52775655948E+03  0.54272702062E+03  0.12494308837E+03 0.  0.
         25    2    1    2    0    0  0.19364373503E+02  0.63149460324E+01  0.18386114678E+03  0.22330630983E+03  0.12508368882E+03 0.  0.
          5    1    3    3  501    0  0.13857131273E+02  0.42208762580E+02  0.84689337111E+02  0.95749535487E+02  0.47000000000E+01 0.  1.
         -5    1    3    3    0  501 -0.33221504776E+02 -0.48523708613E+02  0.44306722237E+03  0.44697748513E+03  0.47000000000E+01 0.  1.
          5    1    4    4  502    0 -0.49174232342E+02 -0.17424276575E+02  0.59592454684E+02  0.79341421691E+02  0.47000000000E+01 0. -1.
         -5    1    4    4    0  502  0.68538605846E+02  0.23739222607E+02  0.12426869209E+03  0.14396488814E+03  0.47000000000E+01 0. -1.
<mgrwt>
<rscale>  0 0.28356182E+03</rscale>
<asrwt>0</asrwt>
<pdfrwt beam="1">  1       21 0.11366545E+00 0.28356182E+03</pdfrwt>
<pdfrwt beam="2">  1       21 0.41858178E-02 0.28356182E+03</pdfrwt>
<totfact> 0.21284586E+05</totfact>
</mgrwt>
</event>
<event>
 8    1  0.9331162E-006  0.3091366E+03  0.7546771E-02  0.1080760E+00
         21   -1    0    0  504  503  0.00000000000E+00  0.00000000000E+00  0.43757416342E+02  0.43757416342E+02  0.00000000000E+00 0.  1.
         21   -1    0    0  503  504 -0.00000000000E+00 -0.00000000000E+00 -0.54599572138E+03  0.54599572138E+03  0.00000000000E+00 0.  1.
         25    2    1    2    0    0 -0.64545424324E+02 -0.55687478407E+02 -0.31142835175E+03  0.34623765291E+03  0.12500274782E+03 0.  0.
         25    2    1    2    0    0  0.64545424324E+02  0.55687478407E+02 -0.19080995328E+03  0.24351548481E+03  0.12499658403E+03 0.  0.
          5    1    3    3  501    0 -0.55428567931E+02 -0.78533425864E+02 -0.30577799302E+03  0.32056527593E+03  0.47000000000E+01 0. -1.
         -5    1    3    3    0  501 -0.91168563931E+01  0.22845947456E+02 -0.56503587357E+01  0.25672376974E+02  0.47000000000E+01 0. -1.
          5    1    4    4  502    0  0.21346787001E+02 -0.13428285847E+02 -0.15012100393E+03  0.15229711093E+03  0.47000000000E+01 0. -1.
         -5    1    4    4    0  502  0.43198637323E+02  0.69115764254E+02 -0.40688949355E+02  0.91218373887E+02  0.47000000000E+01 0. -1.
<mgrwt>
<rscale>  0 0.30913662E+03</rscale>
<asrwt>0</asrwt>
<pdfrwt beam="1">  1       21 0.67319096E-02 0.30913662E+03</pdfrwt>
<pdfrwt beam="2">  1       21 0.83999350E-01 0.30913662E+03</pdfrwt>
<totfact> 0.19265366E+05</totfact>
</mgrwt>
</event>
<event>
 8    1  0.9331162E-006  0.2933733E+03  0.7546771E-02  0.1088601E+00
         21   -1    0    0  504  503  0.00000000000E+00  0.00000000000E+00  0.21790012245E+03  0.21790012245E+03  0.00000000000E+00 0.  1.
         21   -1    0    0  503  504 -0.00000000000E+00 -0.00000000000E+00 -0.98746942756E+02  0.98746942756E+02  0.00000000000E+00 0.  1.
         25    2    1    2    0    0 -0.74068185148E+02 -0.11426809161E+02  0.41774558454E+02  0.15163454123E+03  0.12502500686E+03 0.  0.
         25    2    1    2    0    0  0.74068185148E+02  0.11426809161E+02  0.77378621241E+02  0.16501252398E+03  0.12500005610E+03 0.  0.
          5    1    3    3  501    0 -0.15522811252E+02 -0.64016674918E+02  0.10731721559E+02  0.66905546738E+02  0.47000000000E+01 0. -1.
         -5    1    3    3    0  501 -0.58545373895E+02  0.52589865757E+02  0.31042836894E+02  0.84728994490E+02  0.47000000000E+01 0. -1.
          5    1    4    4  502    0  0.93996838836E+02  0.39815017437E+02  0.30764575686E+02  0.10672015012E+03  0.47000000000E+01 0. -1.
         -5    1    4    4    0  502 -0.19928653689E+02 -0.28388208276E+02  0.46614045555E+02  0.58292373858E+02  0.47000000000E+01 0. -1.
<mgrwt>
<rscale>  0 0.29337328E+03</rscale>
<asrwt>0</asrwt>
<pdfrwt beam="1">  1       21 0.33523096E-01 0.29337328E+03</pdfrwt>
<pdfrwt beam="2">  1       21 0.15191837E-01 0.29337328E+03</pdfrwt>
<totfact> 0.32110151E+05</totfact>
</mgrwt>
</event>
<event>
 8    1  0.9331162E-006  0.5602186E+03  0.7546771E-02  0.9991560E-01
         21   -1    0    0  504  503  0.00000000000E+00  0.00000000000E+00  0.47716999965E+03  0.47716999965E+03  0.00000000000E+00 0. -1.
         21   -1    0    0  503  504 -0.00000000000E+00 -0.00000000000E+00 -0.16443035428E+03  0.16443035428E+03  0.00000000000E+00 0. -1.
         25    2    1    2    0    0  0.13763796250E+03  0.16582195737E+03  0.97231114998E+01  0.24931819035E+03  0.12499556343E+03 0.  0.
         25    2    1    2    0    0 -0.13763796250E+03 -0.16582195737E+03  0.30301653386E+03  0.39228216357E+03  0.12500058319E+03 0.  0.
          5    1    3    3  501    0  0.92552765952E+01  0.39082263127E+02  0.50109606356E+02  0.64390574506E+02  0.47000000000E+01 0.  1.
         -5    1    3    3    0  501  0.12838268590E+03  0.12673969424E+03 -0.40386494856E+02  0.18492761585E+03  0.47000000000E+01 0.  1.
          5    1    4    4  502    0 -0.53499753611E+02 -0.12252505764E+03  0.96132421863E+02  0.16473659557E+03  0.47000000000E+01 0.  1.
         -5    1    4    4    0  502 -0.84138208889E+02 -0.43296899730E+02  0.20688411200E+03  0.22754556801E+03  0.47000000000E+01 0.  1.
<mgrwt>
<rscale>  0 0.56021864E+03</rscale>
<asrwt>0</asrwt>
<pdfrwt beam="1">  1       21 0.73410769E-01 0.56021864E+03</pdfrwt>
<pdfrwt beam="2">  1       21 0.25296978E-01 0.56021864E+03</pdfrwt>
<totfact> 0.21811537E+04</totfact>
</mgrwt>
</event>
<event>
 8    1  0.9331162E-006  0.2750130E+03  0.7546771E-02  0.1098444E+00
         21   -1    0    0  504  503  0.00000000000E+00  0.00000000000E+00  0.29128766911E+04  0.29128766911E+04  0.00000000000E+00 0.  1.
         21   -1    0    0  503  504 -0.00000000000E+00 -0.00000000000E+00 -0.64911923594E+01  0.64911923594E+01  0.00000000000E+00 0.  1.
         25    2    1    2    0    0 -0.26228620585E+01 -0.47821857281E+02  0.17873362898E+04  0.17923407265E+04  0.12498182965E+03 0.  0.
         25    2    1    2    0    0  0.26228620585E+01  0.47821857281E+02  0.11190492089E+04  0.11270271569E+04  0.12500108384E+03 0.  0.
          5    1    3    3  501    0 -0.83579296680E+01 -0.61951066422E+02  0.17565198978E+04  0.17576381969E+04  0.47000000000E+01 0.  1.
         -5    1    3    3    0  501  0.57350676095E+01  0.14129209142E+02  0.30816391946E+02  0.34702529649E+02  0.47000000000E+01 0.  1.
          5    1    4    4  502    0 -0.26742006912E+02  0.85287639785E+01  0.55819090415E+02  0.62655690910E+02  0.47000000000E+01 0.  1.
         -5    1    4    4    0  502  0.29364868971E+02  0.39293093302E+02  0.10632301185E+04  0.10643714660E+04  0.47000000000E+01 0.  1.
<mgrwt>
<rscale>  0 0.27501304E+03</rscale>
<asrwt>0</asrwt>
<pdfrwt beam="1">  1       21 0.44813383E+00 0.27501304E+03</pdfrwt>
<pdfrwt beam="2">  1       21 0.99864730E-03 0.27501304E+03</pdfrwt>
<totfact> 0.14729916E+04</totfact>
</mgrwt>
</event>
<event>
 8    1  0.9331162E-006  0.2589340E+03  0.7546771E-02  0.1107785E+00
         21   -1    0    0  504  503  0.00000000000E+00  0.00000000000E+00  0.28231978804E+03  0.28231978804E+03  0.00000000000E+00 0.  1.
         21   -1    0    0  503  504 -0.00000000000E+00 -0.00000000000E+00 -0.59371324177E+02  0.59371324177E+02  0.00000000000E+00 0.  1.
         25    2    1    2    0    0  0.30739204352E+02  0.13831649155E+02  0.11092167063E+03  0.17048742335E+03  0.12500452514E+03 0.  0.
         25    2    1    2    0    0 -0.30739204352E+02 -0.13831649155E+02  0.11202679323E+03  0.17120368886E+03  0.12499794988E+03 0.  0.
          5    1    3    3  501    0  0.44275859174E+02  0.16834586638E+02 -0.10035632457E+02  0.48647291103E+02  0.47000000000E+01 0.  1.
         -5    1    3    3    0  501 -0.13536654822E+02 -0.30029374838E+01  0.12095730309E+03  0.12184013225E+03  0.47000000000E+01 0.  1.
          5    1    4    4  502    0 -0.98649167119E+01  0.31591007041E+02 -0.13466855512E+02  0.36038236708E+02  0.47000000000E+01 0.  1.
         -5    1    4    4    0  502 -0.20874287640E+02 -0.45422656196E+02  0.12549364874E+03  0.13516545215E+03  0.47000000000E+01 0.  1.
<mgrwt>
<rscale>  0 0.25893397E+03</rscale>
<asrwt>0</asrwt>
<pdfrwt beam="1">  1       21 0.43433813E-01 0.25893397E+03</pdfrwt>
<pdfrwt beam="2">  1       21 0.91340501E-02 0.25893397E+03</pdfrwt>
<totfact> 0.47849445E+05</totfact>
</mgrwt>
</event>
<event>
 8    1  0.9331162E-006  0.4442891E+03  0.7546771E-02  0.1029439E+00
         21   -1    0    0  504  503  0.00000000000E+00  0.00000000000E+00  0.72033957527E+03  0.72033957527E+03  0.00000000000E+00 0.  1.
         21   -1    0    0  503  504 -0.00000000000E+00 -0.00000000000E+00 -0.68506851494E+02  0.68506851494E+02  0.00000000000E+00 0.  1.
         25    2    1    2    0    0  0.66919735909E+02 -0.17057582281E+03  0.34755718391E+03  0.41230494100E+03  0.12500002361E+03 0.  0.
         25    2    1    2    0    0 -0.66919735909E+02  0.17057582281E+03  0.30427553986E+03  0.37654148576E+03  0.12500209583E+03 0.  0.
          5    1    3    3  501    0 -0.12920640107E+02 -0.11569695191E+03  0.24415206219E+03  0.27052734999E+03  0.47000000000E+01 0. -1.
         -5    1    3    3    0  501  0.79840376015E+02 -0.54878870899E+02  0.10340512172E+03  0.14177759101E+03  0.47000000000E+01 0. -1.
          5    1    4    4  502    0 -0.76166926590E+01  0.13351226192E+03  0.12132764476E+03  0.18062675735E+03  0.47000000000E+01 0.  1.
         -5    1    4    4    0  502 -0.59303043250E+02  0.37063560890E+02  0.18294789511E+03  0.19591472841E+03  0.47000000000E+01 0.  1.
<mgrwt>
<rscale>  0 0.44428908E+03</rscale>
<asrwt>0</asrwt>
<pdfrwt beam="1">  1       21 0.11082147E+00 0.44428908E+03</pdfrwt>
<pdfrwt beam="2">  1       21 0.10539516E-01 0.44428908E+03</pdfrwt>
<totfact> 0.43363846E+04</totfact>
</mgrwt>
</event>
<event>
 8    1  0.9331162E-006  0.4213515E+03  0.7546771E-02  0.1036627E+00
         21   -1    0    0  504  503  0.00000000000E+00  0.00000000000E+00  0.74535533548E+03  0.74535533548E+03  0.00000000000E+00 0.  1.
         21   -1    0    0  503  504 -0.00000000000E+00 -0.00000000000E+00 -0.59547796339E+02  0.59547796339E+02  0.00000000000E+00 0.  1.
         25    2    1    2    0    0 -0.17298047016E+02  0.16811891040E+03  0.36970920537E+03  0.42529096472E+03  0.12499727064E+03 0.  0.
         25    2    1    2    0    0  0.17298047016E+02 -0.16811891040E+03  0.31609833377E+03  0.37961216711E+03  0.12499620129E+03 0.  0.
          5    1    3    3  501    0  0.47938787086E+02  0.10232452358E+03  0.15957094046E+03  0.19558479100E+03  0.47000000000E+01 0.  1.
         -5    1    3    3    0  501 -0.65236834102E+02  0.65794386816E+02  0.21013826491E+03  0.22970617371E+03  0.47000000000E+01 0.  1.
          5    1    4    4  502    0  0.35654614591E+02 -0.11262718162E+03  0.29411558149E+03  0.31698927246E+03  0.47000000000E+01 0.  1.
         -5    1    4    4    0  502 -0.18356567575E+02 -0.55491728774E+02  0.21982752285E+02  0.62622894644E+02  0.47000000000E+01 0.  1.
<mgrwt>
<rscale>  0 0.42135148E+03</rscale>
<asrwt>0</asrwt>
<pdfrwt beam="1">  1       21 0.11467004E+00 0.42135148E+03</pdfrwt>
<pdfrwt beam="2">  1       21 0.91612000E-02 0.42135148E+03</pdfrwt>
<totfact> 0.51517087E+04</totfact>
</mgrwt>
</event>
<event>
 8    1  0.9331162E-006  0.3050532E+03  0.7546771E-02  0.1082741E+00
         21   -1    0    0  504  503  0.00000000000E+00  0.00000000000E+00  0.60629226741E+03  0.60629226741E+03  0.00000000000E+00 0.  1.
         21   -1    0    0  503  504 -0.00000000000E+00 -0.00000000000E+00 -0.38371544991E+02  0.38371544991E+02  0.00000000000E+00 0.  1.
         25    2    1    2    0    0 -0.25403751495E+02  0.41197245729E+02  0.13015883322E+03  0.18683923806E+03  0.12500006147E+03 0.  0.
         25    2    1    2    0    0  0.25403751495E+02 -0.41197245729E+02  0.43776188920E+03  0.45782457434E+03  0.12500122235E+03 0.  0.
          5    1    3    3  501    0 -0.10442559961E+02  0.85011330170E+02  0.69589823653E+02  0.11045726265E+03  0.47000000000E+01 0.  1.
         -5    1    3    3    0  501 -0.14961191535E+02 -0.43814084442E+02  0.60569009567E+02  0.76381975410E+02  0.47000000000E+01 0.  1.
          5    1    4    4  502    0  0.14440322378E+02  0.22451362245E+02  0.33674157352E+03  0.33783067343E+03  0.47000000000E+01 0. -1.
         -5    1    4    4    0  502  0.10963429118E+02 -0.63648607974E+02  0.10102031569E+03  0.11999390091E+03  0.47000000000E+01 0. -1.
<mgrwt>
<rscale>  0 0.30505325E+03</rscale>
<asrwt>0</asrwt>
<pdfrwt beam="1">  1       21 0.93275727E-01 0.30505325E+03</pdfrwt>
<pdfrwt beam="2">  1       21 0.59033150E-02 0.30505325E+03</pdfrwt>
<totfact> 0.18958969E+05</totfact>
</mgrwt>
</event>
<event>
 8    1  0.9331162E-006  0.2566538E+03  0.7546771E-02  0.1109171E+00
         21   -1    0    0  504  503  0.00000000000E+00  0.00000000000E+00  0.54741130533E+02  0.54741130533E+02  0.00000000000E+00 0.  1.
         21   -1    0    0  503  504 -0.00000000000E+00 -0.00000000000E+00 -0.30083036718E+03  0.30083036718E+03  0.00000000000E+00 0.  1.
         25    2    1    2    0    0  0.13253062665E+02 -0.24775679995E+02 -0.13284856875E+03  0.18457642487E+03  0.12502094388E+03 0.  0.
         25    2    1    2    0    0 -0.13253062665E+02  0.24775679995E+02 -0.11324066790E+03  0.17099507285E+03  0.12500555221E+03 0.  0.
          5    1    3    3  501    0 -0.37565485905E+02 -0.19535914492E+02 -0.12576677410E+03  0.13278625363E+03  0.47000000000E+01 0. -1.
         -5    1    3    3    0  501  0.50818548570E+02 -0.52397655029E+01 -0.70817946537E+01  0.51790171238E+02  0.47000000000E+01 0. -1.
          5    1    4    4  502    0  0.22078254321E+01  0.17093650826E+02 -0.13871736413E+03  0.13986302049E+03  0.47000000000E+01 0.  1.
         -5    1    4    4    0  502 -0.15460888097E+02  0.76820291685E+01  0.25476696229E+02  0.31132052352E+02  0.47000000000E+01 0.  1.
<mgrwt>
<rscale>  0 0.25665381E+03</rscale>
<asrwt>0</asrwt>
<pdfrwt beam="1">  1       21 0.84217124E-02 0.25665381E+03</pdfrwt>
<pdfrwt beam="2">  1       21 0.46281595E-01 0.25665381E+03</pdfrwt>
<totfact> 0.48438421E+05</totfact>
</mgrwt>
</event>
<event>
 8    1  0.9331162E-006  0.2770536E+03  0.7546771E-02  0.1097309E+00
         21   -1    0    0  504  503  0.00000000000E+00  0.00000000000E+00  0.19247978957E+02  0.19247978957E+02  0.00000000000E+00 0.  1.
         21   -1    0    0  503  504 -0.00000000000E+00 -0.00000000000E+00 -0.99697119539E+03  0.99697119539E+03  0.00000000000E+00 0.  1.
         25    2    1    2    0    0  0.27557717097E+02  0.37112891001E+02 -0.62742052324E+03  0.64142012701E+03  0.12500588749E+03 0.  0.
         25    2    1    2    0    0 -0.27557717097E+02 -0.37112891001E+02 -0.35030269320E+03  0.37479904733E+03  0.12500221827E+03 0.  0.
          5    1    3    3  501    0  0.70618309990E+00 -0.13178658724E+02 -0.51584308068E+03  0.51603328344E+03  0.47000000000E+01 0. -1.
         -5    1    3    3    0  501  0.26851533997E+02  0.50291549725E+02 -0.11157744256E+03  0.12538684357E+03  0.47000000000E+01 0. -1.
          5    1    4    4  502    0 -0.19568572454E+00  0.42203502700E+02 -0.17934649122E+03  0.18430525724E+03  0.47000000000E+01 0.  1.
         -5    1    4    4    0  502 -0.27362031372E+02 -0.79316393701E+02 -0.17095620198E+03  0.19049379010E+03  0.47000000000E+01 0.  1.
<mgrwt>
<rscale>  0 0.27705365E+03</rscale>
<asrwt>0</asrwt>
<pdfrwt beam="1">  1       21 0.29612287E-02 0.27705365E+03</pdfrwt>
<pdfrwt beam="2">  1       21 0.15338012E+00 0.27705365E+03</pdfrwt>
<totfact> 0.17645725E+05</totfact>
</mgrwt>
</event>
<event>
 8    1  0.9331162E-006  0.2666100E+03  0.7546771E-02  0.1103236E+00
         21   -1    0    0  504  503  0.00000000000E+00  0.00000000000E+00  0.75216688361E+02  0.75216688361E+02  0.00000000000E+00 0.  1.
         21   -1    0    0  503  504 -0.00000000000E+00 -0.00000000000E+00 -0.23625364963E+03  0.23625364963E+03  0.00000000000E+00 0.  1.
         25    2    1    2    0    0 -0.43520197676E+02 -0.11424323548E+02 -0.67815304050E+02  0.14915661621E+03  0.12499703166E+03 0.  0.
         25    2    1    2    0    0  0.43520197676E+02  0.11424323548E+02 -0.93221657219E+02  0.16231372178E+03  0.12502377425E+03 0.  0.
          5    1    3    3  501    0 -0.38328712408E+02 -0.61928638579E+02 -0.12708321165E+02  0.74079942615E+02  0.47000000000E+01 0. -1.
         -5    1    3    3    0  501 -0.51914852689E+01  0.50504315031E+02 -0.55106982884E+02  0.75076673599E+02  0.47000000000E+01 0. -1.
          5    1    4    4  502    0 -0.15900027766E+02 -0.86242494177E+01 -0.97505861091E+02  0.99280771089E+02  0.47000000000E+01 0. -1.
         -5    1    4    4    0  502  0.59420225443E+02  0.20048572966E+02  0.42842038720E+01  0.63032950688E+02  0.47000000000E+01 0. -1.
<mgrwt>
<rscale>  0 0.26660996E+03</rscale>
<asrwt>0</asrwt>
<pdfrwt beam="1">  1       21 0.11571798E-01 0.26660996E+03</pdfrwt>
<pdfrwt beam="2">  1       21 0.36346715E-01 0.26660996E+03</pdfrwt>
<totfact> 0.45026906E+05</totfact>
</mgrwt>
</event>
<event>
 8    1  0.9331162E-006  0.3932526E+03  0.7546771E-02  0.1046141E+00
         21   -1    0    0  504  503  0.00000000000E+00  0.00000000000E+00  0.70005041061E+02  0.70005041061E+02  0.00000000000E+00 0.  1.
         21   -1    0    0  503  504 -0.00000000000E+00 -0.00000000000E+00 -0.55227319820E+03  0.55227319820E+03  0.00000000000E+00 0.  1.
         25    2    1    2    0    0 -0.66713285657E+02  0.11547472284E+03 -0.12645485248E+03  0.22226148668E+03  0.12499705855E+03 0.  0.
         25    2    1    2    0    0  0.66713285657E+02 -0.11547472284E+03 -0.35581330465E+03  0.40001675258E+03  0.12500088191E+03 0.  0.
          5    1    3    3  501    0 -0.63648943818E+02  0.94642325352E+02 -0.22826240819E+02  0.11641084600E+03  0.47000000000E+01 0.  1.
         -5    1    3    3    0  501 -0.30643418397E+01  0.20832397483E+02 -0.10362861166E+03  0.10585064068E+03  0.47000000000E+01 0.  1.
          5    1    4    4  502    0 -0.27845375235E+02 -0.81794227771E+01 -0.12528642650E+03  0.12868972976E+03  0.47000000000E+01 0. -1.
         -5    1    4    4    0  502  0.94558660892E+02 -0.10729530006E+03 -0.23052687815E+03  0.27132702282E+03  0.47000000000E+01 0. -1.
<mgrwt>
<rscale>  0 0.39325263E+03</rscale>
<asrwt>0</asrwt>
<pdfrwt beam="1">  1       21 0.10770006E-01 0.39325263E+03</pdfrwt>
<pdfrwt beam="2">  1       21 0.84965108E-01 0.39325263E+03</pdfrwt>
<totfact> 0.80029463E+04</totfact>
</mgrwt>
</event>
<event>
 8    1  0.9331162E-006  0.4600009E+03  0.7546771E-02  0.1024781E+00
         21   -1    0    0  504  503  0.00000000000E+00  0.00000000000E+00  0.49423795528E+03  0.49423795528E+03  0.00000000000E+00 0. -1.
         21   -1    0    0  503  504 -0.00000000000E+00 -0.00000000000E+00 -0.10703386356E+03  0.10703386356E+03  0.00000000000E+00 0. -1.
         25    2    1    2    0    0 -0.10397912317E+03 -0.11981746936E+03  0.33742580617E+03  0.39325598522E+03  0.12500484481E+03 0.  0.
         25    2    1    2    0    0  0.10397912317E+03  0.11981746936E+03  0.49778285558E+02  0.20801583362E+03  0.12499930121E+03 0.  0.
          5    1    3    3  501    0 -0.95996742671E+01 -0.96880590726E+02  0.11662810526E+03  0.15199410364E+03  0.47000000000E+01 0. -1.
         -5    1    3    3    0  501 -0.94379448907E+02 -0.22936878637E+02  0.22079770091E+03  0.24126188158E+03  0.47000000000E+01 0. -1.
          5    1    4    4  502    0  0.15967710453E+02  0.64037697640E+02 -0.33853335367E+02  0.74323164704E+02  0.47000000000E+01 0. -1.
         -5    1    4    4    0  502  0.88011412721E+02  0.55779771723E+02  0.83631620925E+02  0.13369266891E+03  0.47000000000E+01 0. -1.
<mgrwt>
<rscale>  0 0.46000086E+03</rscale>
<asrwt>0</asrwt>
<pdfrwt beam="1">  1       21 0.76036608E-01 0.46000086E+03</pdfrwt>
<pdfrwt beam="2">  1       21 0.16466748E-01 0.46000086E+03</pdfrwt>
<totfact> 0.46729652E+04</totfact>
</mgrwt>
</event>
<event>
 8    1  0.9331162E-006  0.3395452E+03  0.7546771E-02  0.1066990E+00
         21   -1    0    0  504  503  0.00000000000E+00  0.00000000000E+00  0.18650566478E+04  0.18650566478E+04  0.00000000000E+00 0. -1.
         21   -1    0    0  503  504 -0.00000000000E+00 -0.00000000000E+00 -0.15454081210E+02  0.15454081210E+02  0.00000000000E+00 0. -1.
         25    2    1    2    0    0 -0.11246607997E+03  0.21154000905E+02  0.98038884004E+03  0.99492985772E+03  0.12500813256E+03 0.  0.
         25    2    1    2    0    0  0.11246607997E+03 -0.21154000905E+02  0.86921372653E+03  0.88558087128E+03  0.12499946510E+03 0.  0.
          5    1    3    3  501    0 -0.29927358413E+01 -0.36042330924E+02  0.39231822905E+03  0.39400975741E+03  0.47000000000E+01 0. -1.
         -5    1    3    3    0  501 -0.10947334413E+03  0.57196331829E+02  0.58807061099E+03  0.60092010032E+03  0.47000000000E+01 0. -1.
          5    1    4    4  502    0  0.11308220703E+03 -0.15005000347E+01  0.85060603685E+03  0.85810404787E+03  0.47000000000E+01 0.  1.
         -5    1    4    4    0  502 -0.61612705860E+00 -0.19653500870E+02  0.18607689683E+02  0.27476823404E+02  0.47000000000E+01 0.  1.
<mgrwt>
<rscale>  0 0.33954521E+03</rscale>
<asrwt>0</asrwt>
<pdfrwt beam="1">  1       21 0.28693161E+00 0.33954521E+03</pdfrwt>
<pdfrwt beam="2">  1       21 0.23775524E-02 0.33954521E+03</pdfrwt>
<totfact> 0.34088121E+04</totfact>
</mgrwt>
</event>
<event>
 8    1  0.9331162E-006  0.3889432E+03  0.7546771E-02  0.1047677E+00
         21   -1    0    0  504  503  0.00000000000E+00  0.00000000000E+00  0.47206082420E+03  0.47206082420E+03  0.00000000000E+00 0.  1.
         21   -1    0    0  503  504 -0.00000000000E+00 -0.00000000000E+00 -0.80115126665E+02  0.80115126665E+02  0.00000000000E+00 0.  1.
         25    2    1    2    0    0 -0.53207691602E+02  0.12354177877E+03  0.28690448306E+03  0.34063487253E+03  0.12499721770E+03 0.  0.
         25    2    1    2    0    0  0.53207691602E+02 -0.12354177877E+03  0.10504121447E+03  0.21154107833E+03  0.12498936570E+03 0.  0.
          5    1    3    3  501    0 -0.28941790493E+02  0.40085405948E+02  0.23304653688E+03  0.23827976280E+03  0.47000000000E+01 0. -1.
         -5    1    3    3    0  501 -0.24265901109E+02  0.83456372820E+02  0.53857946183E+02  0.10235510973E+03  0.47000000000E+01 0. -1.
          5    1    4    4  502    0  0.52488458593E+02 -0.14818123531E+03  0.81510961693E+02  0.17714074534E+03  0.47000000000E+01 0. -1.
         -5    1    4    4    0  502  0.71923300839E+00  0.24639456538E+02  0.23530252775E+02  0.34400332997E+02  0.47000000000E+01 0. -1.
<mgrwt>
<rscale>  0 0.38894325E+03</rscale>
<asrwt>0</asrwt>
<pdfrwt beam="1">  1       21 0.72624740E-01 0.38894325E+03</pdfrwt>
<pdfrwt beam="2">  1       21 0.12325404E-01 0.38894325E+03</pdfrwt>
<totfact> 0.89933553E+04</totfact>
</mgrwt>
</event>
<event>
 8    1  0.9331162E-006  0.2550428E+03  0.7546771E-02  0.1110159E+00
         21   -1    0    0  504  503  0.00000000000E+00  0.00000000000E+00  0.48282046991E+03  0.48282046991E+03  0.00000000000E+00 0. -1.
         21   -1    0    0  503  504 -0.00000000000E+00 -0.00000000000E+00 -0.33680645243E+02  0.33680645243E+02  0.00000000000E+00 0. -1.
         25    2    1    2    0    0 -0.16193027707E+02 -0.16269492492E+02  0.24564413167E+03  0.27657378886E+03  0.12500044291E+03 0.  0.
         25    2    1    2    0    0  0.16193027707E+02  0.16269492492E+02  0.20349569299E+03  0.23992732629E+03  0.12501085674E+03 0.  0.
          5    1    3    3  501    0  0.53996960647E+02  0.37540401733E+00  0.11869468320E+03  0.13048498192E+03  0.47000000000E+01 0. -1.
         -5    1    3    3    0  501 -0.70189988354E+02 -0.16644896509E+02  0.12694944847E+03  0.14608880694E+03  0.47000000000E+01 0. -1.
          5    1    4    4  502    0  0.56893432957E+02  0.40356833147E+02  0.16346720612E+03  0.17778963460E+03  0.47000000000E+01 0. -1.
         -5    1    4    4    0  502 -0.40700405250E+02 -0.24087340655E+02  0.40028486875E+02  0.62137691693E+02  0.47000000000E+01 0. -1.
<mgrwt>
<rscale>  0 0.25504278E+03</rscale>
<asrwt>0</asrwt>
<pdfrwt beam="1">  1       21 0.74280068E-01 0.25504278E+03</pdfrwt>
<pdfrwt beam="2">  1       21 0.51816380E-02 0.25504278E+03</pdfrwt>
<totfact> 0.40527517E+05</totfact>
</mgrwt>
</event>
<event>
 8    1  0.9331162E-006  0.2841428E+03  0.7546771E-02  0.1093447E+00
         21   -1    0    0  504  503  0.00000000000E+00  0.00000000000E+00  0.12106907173E+04  0.12106907173E+04  0.00000000000E+00 0.  1.
         21   -1    0    0  503  504 -0.00000000000E+00 -0.00000000000E+00 -0.16671710580E+02  0.16671710580E+02  0.00000000000E+00 0.  1.
         25    2    1    2    0    0  0.57694267754E+02  0.18428040792E+02  0.72582957210E+03  0.73899946262E+03  0.12499366704E+03 0.  0.
         25    2    1    2    0    0 -0.57694267754E+02 -0.18428040792E+02  0.46818943459E+03  0.48836296523E+03  0.12501527077E+03 0.  0.
          5    1    3    3  501    0  0.15367829534E+02  0.27752951678E+02  0.37720797041E+02  0.49511059783E+02  0.47000000000E+01 0. -1.
         -5    1    3    3    0  501  0.42326438220E+02 -0.93249108859E+01  0.68810877506E+03  0.68948840284E+03  0.47000000000E+01 0. -1.
          5    1    4    4  502    0  0.29979632244E+02 -0.77219680502E+01  0.38312524106E+02  0.49480770441E+02  0.47000000000E+01 0.  1.
         -5    1    4    4    0  502 -0.87673899999E+02 -0.10706072742E+02  0.42987691049E+03  0.43888219479E+03  0.47000000000E+01 0.  1.
<mgrwt>
<rscale>  0 0.28414282E+03</rscale>
<asrwt>0</asrwt>
<pdfrwt beam="1">  1       21 0.18626004E+00 0.28414282E+03</pdfrwt>
<pdfrwt beam="2">  1       21 0.25648795E-02 0.28414282E+03</pdfrwt>
<totfact> 0.12984510E+05</totfact>
</mgrwt>
</event>
<event>
 8    1  0.9331162E-006  0.3370773E+03  0.7546771E-02  0.1068048E+00
         21   -1    0    0  504  503  0.00000000000E+00  0.00000000000E+00  0.17948596402E+02  0.17948596402E+02  0.00000000000E+00 0. -1.
         21   -1    0    0  503  504 -0.00000000000E+00 -0.00000000000E+00 -0.15825905371E+04  0.15825905371E+04  0.00000000000E+00 0. -1.
         25    2    1    2    0    0  0.99832643726E+02  0.35067597131E+01 -0.53102664348E+03  0.55461130273E+03  0.12500218764E+03 0.  0.
         25    2    1    2    0    0 -0.99832643726E+02 -0.35067597131E+01 -0.10336152972E+04  0.10459278308E+04  0.12500236165E+03 0.  0.
          5    1    3    3  501    0  0.55014155338E+02 -0.59003985659E+02 -0.31687685070E+03  0.32701843392E+03  0.47000000000E+01 0. -1.
         -5    1    3    3    0  501  0.44818488388E+02  0.62510745372E+02 -0.21414979278E+03  0.22759286882E+03  0.47000000000E+01 0. -1.
          5    1    4    4  502    0 -0.27629923107E+02  0.45571713151E+02 -0.17824657678E+03  0.18610246056E+03  0.47000000000E+01 0.  1.
         -5    1    4    4    0  502 -0.72202720620E+02 -0.49078472864E+02 -0.85536872043E+03  0.85982537021E+03  0.47000000000E+01 0.  1.
<mgrwt>
<rscale>  0 0.33707731E+03</rscale>
<asrwt>0</asrwt>
<pdfrwt beam="1">  1       21 0.27613234E-02 0.33707731E+03</pdfrwt>
<pdfrwt beam="2">  1       21 0.24347539E+00 0.33707731E+03</pdfrwt>
<totfact> 0.48492082E+04</totfact>
</mgrwt>
</event>
<event>
 8    1  0.9331162E-006  0.3362777E+03  0.7546771E-02  0.1068392E+00
         21   -1    0    0  504  503  0.00000000000E+00  0.00000000000E+00  0.89716834616E+02  0.89716834616E+02  0.00000000000E+00 0. -1.
         21   -1    0    0  503  504 -0.00000000000E+00 -0.00000000000E+00 -0.31510992598E+03  0.31510992598E+03  0.00000000000E+00 0. -1.
         25    2    1    2    0    0 -0.41715842744E+02  0.87589583547E+02 -0.18115045515E+03  0.24052595485E+03  0.12500040350E+03 0.  0.
         25    2    1    2    0    0  0.41715842744E+02 -0.87589583547E+02 -0.44242636209E+02  0.16430080574E+03  0.12500078890E+03 0.  0.
          5    1    3    3  501    0  0.19531832848E+02  0.29812777230E+02 -0.14392236204E+03  0.14834429708E+03  0.47000000000E+01 0.  1.
         -5    1    3    3    0  501 -0.61247675592E+02  0.57776806317E+02 -0.37228093114E+02  0.92181657777E+02  0.47000000000E+01 0.  1.
          5    1    4    4  502    0  0.80704572552E+02 -0.32584954268E+02 -0.41814264891E+02  0.96672281570E+02  0.47000000000E+01 0.  1.
         -5    1    4    4    0  502 -0.38988729808E+02 -0.55004629279E+02 -0.24283713177E+01  0.67628524170E+02  0.47000000000E+01 0.  1.
<mgrwt>
<rscale>  0 0.33627765E+03</rscale>
<asrwt>0</asrwt>
<pdfrwt beam="1">  1       21 0.13802590E-01 0.33627765E+03</pdfrwt>
<pdfrwt beam="2">  1       21 0.48478451E-01 0.33627765E+03</pdfrwt>
<totfact> 0.17841534E+05</totfact>
</mgrwt>
</event>
<event>
 8    1  0.9331162E-006  0.2892868E+03  0.7546771E-02  0.1090722E+00
         21   -1    0    0  504  503  0.00000000000E+00  0.00000000000E+00  0.10735482269E+03  0.10735482269E+03  0.00000000000E+00 0.  1.
         21   -1    0    0  503  504 -0.00000000000E+00 -0.00000000000E+00 -0.19488374599E+03  0.19488374599E+03  0.00000000000E+00 0.  1.
         25    2    1    2    0    0  0.13013615395E+02 -0.59421455243E+02 -0.85525789766E+02  0.16321834188E+03  0.12500121153E+03 0.  0.
         25    2    1    2    0    0 -0.13013615395E+02  0.59421455243E+02 -0.20031335377E+01  0.13902022680E+03  0.12498938909E+03 0.  0.
          5    1    3    3  501    0 -0.55230768844E+02 -0.18291779250E+02 -0.27421671936E+02  0.64490814129E+02  0.47000000000E+01 0. -1.
         -5    1    3    3    0  501  0.68244384239E+02 -0.41129675992E+02 -0.58104117830E+02  0.98727527753E+02  0.47000000000E+01 0. -1.
          5    1    4    4  502    0  0.25109468577E+02  0.81070943451E+02 -0.25912333919E+02  0.88862378617E+02  0.47000000000E+01 0. -1.
         -5    1    4    4    0  502 -0.38123083973E+02 -0.21649488208E+02  0.23909200381E+02  0.50157848181E+02  0.47000000000E+01 0. -1.
<mgrwt>
<rscale>  0 0.28928678E+03</rscale>
<asrwt>0</asrwt>
<pdfrwt beam="1">  1       21 0.16516127E-01 0.28928678E+03</pdfrwt>
<pdfrwt beam="2">  1       21 0.29982114E-01 0.28928678E+03</pdfrwt>
<totfact> 0.34355628E+05</totfact>
</mgrwt>
</event>
<event>
 8    1  0.9331162E-006  0.2924562E+03  0.7546771E-02  0.1089074E+00
         21   -1    0    0  504  503  0.00000000000E+00  0.00000000000E+00  0.71599321182E+02  0.71599321182E+02  0.00000000000E+00 0. -1.
         21   -1    0    0  503  504 -0.00000000000E+00 -0.00000000000E+00 -0.29864325429E+03  0.29864325429E+03  0.00000000000E+00 0. -1.
         25    2    1    2    0    0 -0.55722622713E+01 -0.10858661598E+02 -0.18698432857E+02  0.12696980247E+03  0.12499095452E+03 0.  0.
         25    2    1    2    0    0  0.55722622713E+01  0.10858661598E+02 -0.20834550025E+03  0.24327277299E+03  0.12499933587E+03 0.  0.
          5    1    3    3  501    0 -0.10778850595E+02  0.56445246159E+02 -0.45360590017E+01  0.57835242416E+02  0.47000000000E+01 0.  1.
         -5    1    3    3    0  501  0.52065883240E+01 -0.67303907757E+02 -0.14162373855E+02  0.69134560059E+02  0.47000000000E+01 0.  1.
          5    1    4    4  502    0 -0.11772754275E+02 -0.19562051200E+01 -0.21857130603E+03  0.21894732312E+03  0.47000000000E+01 0.  1.
         -5    1    4    4    0  502  0.17345016546E+02  0.12814866718E+02  0.10225805778E+02  0.24325449879E+02  0.47000000000E+01 0.  1.
<mgrwt>
<rscale>  0 0.29245618E+03</rscale>
<asrwt>0</asrwt>
<pdfrwt beam="1">  1       21 0.11015280E-01 0.29245618E+03</pdfrwt>
<pdfrwt beam="2">  1       21 0.45945116E-01 0.29245618E+03</pdfrwt>
<totfact> 0.30317681E+05</totfact>
</mgrwt>
</event>
<event>
 8    1  0.9331162E-006  0.4282145E+03  0.7546771E-02  0.1034425E+00
         21   -1    0    0  504  503  0.00000000000E+00  0.00000000000E+00  0.68554117603E+03  0.68554117603E+03  0.00000000000E+00 0. -1.
         21   -1    0    0  503  504 -0.00000000000E+00 -0.00000000000E+00 -0.66869659789E+02  0.66869659789E+02  0.00000000000E+00 0. -1.
         25    2    1    2    0    0 -0.57754760033E+02 -0.77460297170E+02  0.56323525372E+03  0.58497281145E+03  0.12499411650E+03 0.  0.
         25    2    1    2    0    0  0.57754760033E+02  0.77460297170E+02  0.55436262512E+02  0.16743802436E+03  0.12500641126E+03 0.  0.
          5    1    3    3  501    0 -0.26090739657E+02 -0.10552816340E+03  0.47072117646E+03  0.48313293816E+03  0.47000000000E+01 0. -1.
         -5    1    3    3    0  501 -0.31664020377E+02  0.28067866228E+02  0.92514077265E+02  0.10183987330E+03  0.47000000000E+01 0. -1.
          5    1    4    4  502    0 -0.18619246971E+02 -0.24083686944E+02  0.12414946239E+02  0.33210257823E+02  0.47000000000E+01 0.  1.
         -5    1    4    4    0  502  0.76374007004E+02  0.10154398411E+03  0.43021316274E+02  0.13422776654E+03  0.47000000000E+01 0.  1.
<mgrwt>
<rscale>  0 0.42821446E+03</rscale>
<asrwt>0</asrwt>
<pdfrwt beam="1">  1       21 0.10546787E+00 0.42821446E+03</pdfrwt>
<pdfrwt beam="2">  1       21 0.10287640E-01 0.42821446E+03</pdfrwt>
<totfact> 0.51392749E+04</totfact>
</mgrwt>
</event>
<event>
 8    1  0.9331162E-006  0.2649247E+03  0.7546771E-02  0.1104220E+00
         21   -1    0    0  504  503  0.00000000000E+00  0.00000000000E+00  0.51323329774E+02  0.51323329774E+02  0.00000000000E+00 0. -1.
         21   -1    0    0  503  504 -0.00000000000E+00 -0.00000000000E+00 -0.34187725436E+03  0.34187725436E+03  0.00000000000E+00 0. -1.
         25    2    1    2    0    0 -0.18695678440E+01 -0.28627984731E+02 -0.19457351467E+03  0.23302504548E+03  0.12497504717E+03 0.  0.
         25    2    1    2    0    0  0.18695678440E+01  0.28627984731E+02 -0.95980409920E+02  0.16017553866E+03  0.12498362814E+03 0.  0.
          5    1    3    3  501    0  0.15993392045E+02  0.29510909033E+02 -0.54781306660E+01  0.34333398559E+02  0.47000000000E+01 0.  1.
         -5    1    3    3    0  501 -0.17862959889E+02 -0.58138893764E+02 -0.18909538400E+03  0.19869164692E+03  0.47000000000E+01 0.  1.
          5    1    4    4  502    0  0.48938101428E+02 -0.14208875723E+02 -0.79019789850E+02  0.94143757672E+02  0.47000000000E+01 0.  1.
         -5    1    4    4    0  502 -0.47068533584E+02  0.42836860453E+02 -0.16960620070E+02  0.66031780988E+02  0.47000000000E+01 0.  1.
<mgrwt>
<rscale>  0 0.26492474E+03</rscale>
<asrwt>0</asrwt>
<pdfrwt beam="1">  1       21 0.78958968E-02 0.26492474E+03</pdfrwt>
<pdfrwt beam="2">  1       21 0.52596501E-01 0.26492474E+03</pdfrwt>
<totfact> 0.41415908E+05</totfact>
</mgrwt>
</event>
<event>
 8    1  0.9331162E-006  0.3395285E+03  0.7546771E-02  0.1066997E+00
         21   -1    0    0  504  503  0.00000000000E+00  0.00000000000E+00  0.27662151153E+03  0.27662151153E+03  0.00000000000E+00 0.  1.
         21   -1    0    0  503  504 -0.00000000000E+00 -0.00000000000E+00 -0.10418534882E+03  0.10418534882E+03  0.00000000000E+00 0.  1.
         25    2    1    2    0    0  0.81079937858E+02 -0.62452706853E+02  0.14471619957E+03  0.21689343107E+03  0.12500274040E+03 0.  0.
         25    2    1    2    0    0 -0.81079937858E+02  0.62452706853E+02  0.27719963136E+02  0.16391342928E+03  0.12499967610E+03 0.  0.
          5    1    3    3  501    0  0.10466335537E+03 -0.55695482881E+02  0.15010781481E+03  0.19133962172E+03  0.47000000000E+01 0. -1.
         -5    1    3    3    0  501 -0.23583417517E+02 -0.67572239715E+01 -0.53916152436E+01  0.25553809354E+02  0.47000000000E+01 0. -1.
          5    1    4    4  502    0 -0.42033030171E+02  0.28509266268E+02  0.76964426599E+02  0.92331830103E+02  0.47000000000E+01 0. -1.
         -5    1    4    4    0  502 -0.39046907686E+02  0.33943440585E+02 -0.49244463462E+02  0.71581599174E+02  0.47000000000E+01 0. -1.
<mgrwt>
<rscale>  0 0.33952855E+03</rscale>
<asrwt>0</asrwt>
<pdfrwt beam="1">  1       21 0.42557155E-01 0.33952855E+03</pdfrwt>
<pdfrwt beam="2">  1       21 0.16028515E-01 0.33952855E+03</pdfrwt>
<totfact> 0.17758236E+05</totfact>
</mgrwt>
</event>
<event>
 8    1  0.9331162E-006  0.3414578E+03  0.7546771E-02  0.1066177E+00
         21   -1    0    0  504  503  0.00000000000E+00  0.00000000000E+00  0.14151922507E+03  0.14151922507E+03  0.00000000000E+00 0.  1.
         21   -1    0    0  503  504 -0.00000000000E+00 -0.00000000000E+00 -0.20596749490E+03  0.20596749490E+03  0.00000000000E+00 0.  1.
         25    2    1    2    0    0 -0.79161062189E+02 -0.81323142834E+02 -0.63828474262E+01  0.16894730122E+03  0.12499008970E+03 0.  0.
         25    2    1    2    0    0  0.79161062189E+02  0.81323142834E+02 -0.58065422401E+02  0.17853941875E+03  0.12499921376E+03 0.  0.
          5    1    3    3  501    0 -0.96189400088E+02 -0.89736582002E+02 -0.33196243338E+02  0.13575395173E+03  0.47000000000E+01 0. -1.
         -5    1    3    3    0  501  0.17028337899E+02  0.84134391681E+01  0.26813395912E+02  0.33193349493E+02  0.47000000000E+01 0. -1.
          5    1    4    4  502    0  0.71151756881E+02  0.10096189030E+02  0.17674627768E+02  0.74155161701E+02  0.47000000000E+01 0. -1.
         -5    1    4    4    0  502  0.80093053081E+01  0.71226953804E+02 -0.75740050169E+02  0.10438425705E+03  0.47000000000E+01 0. -1.
<mgrwt>
<rscale>  0 0.34145782E+03</rscale>
<asrwt>0</asrwt>
<pdfrwt beam="1">  1       21 0.21772189E-01 0.34145782E+03</pdfrwt>
<pdfrwt beam="2">  1       21 0.31687307E-01 0.34145782E+03</pdfrwt>
<totfact> 0.18134018E+05</totfact>
</mgrwt>
</event>
<event>
 8    1  0.9331162E-006  0.3271860E+03  0.7546771E-02  0.1072389E+00
         21   -1    0    0  504  503  0.00000000000E+00  0.00000000000E+00  0.11767120401E+04  0.11767120401E+04  0.00000000000E+00 0.  1.
         21   -1    0    0  503  504 -0.00000000000E+00 -0.00000000000E+00 -0.22743595205E+02  0.22743595205E+02  0.00000000000E+00 0.  1.
         25    2    1    2    0    0 -0.13704897347E+02 -0.78024241824E+02  0.83259298879E+03  0.84564261032E+03  0.12499893155E+03 0.  0.
         25    2    1    2    0    0  0.13704897347E+02  0.78024241824E+02  0.32137545606E+03  0.35381302494E+03  0.12500346529E+03 0.  0.
          5    1    3    3  501    0 -0.35420383640E+02 -0.99335977656E+02  0.75192376307E+03  0.75929814665E+03  0.47000000000E+01 0.  1.
         -5    1    3    3    0  501  0.21715486293E+02  0.21311735832E+02  0.80669225721E+02  0.86344463676E+02  0.47000000000E+01 0.  1.
          5    1    4    4  502    0  0.25464569776E+02  0.81162719118E+02  0.97169794325E+02  0.12922805507E+03  0.47000000000E+01 0.  1.
         -5    1    4    4    0  502 -0.11759672429E+02 -0.31384772939E+01  0.22420566173E+03  0.22458496986E+03  0.47000000000E+01 0.  1.
<mgrwt>
<rscale>  0 0.32718596E+03</rscale>
<asrwt>0</asrwt>
<pdfrwt beam="1">  1       21 0.18103257E+00 0.32718596E+03</pdfrwt>
<pdfrwt beam="2">  1       21 0.34990156E-02 0.32718596E+03</pdfrwt>
<totfact> 0.82641448E+04</totfact>
</mgrwt>
</event>
<event>
 8    1  0.9331162E-006  0.2651417E+03  0.7546771E-02  0.1104093E+00
         21   -1    0    0  504  503  0.00000000000E+00  0.00000000000E+00  0.63331056199E+03  0.63331056199E+03  0.00000000000E+00 0.  1.
         21   -1    0    0  503  504 -0.00000000000E+00 -0.00000000000E+00 -0.27751053177E+02  0.27751053177E+02  0.00000000000E+00 0.  1.
         25    2    1    2    0    0  0.35205218515E+01  0.43859993118E+02  0.31093593297E+03  0.33799783683E+03  0.12500116088E+03 0.  0.
         25    2    1    2    0    0 -0.35205218515E+01 -0.43859993118E+02  0.29462357584E+03  0.32306377833E+03  0.12502423909E+03 0.  0.
          5    1    3    3  501    0 -0.51438086037E+02  0.55531877063E+02  0.18945888637E+03  0.20407455915E+03  0.47000000000E+01 0.  1.
         -5    1    3    3    0  501  0.54958607889E+02 -0.11671883946E+02  0.12147704660E+03  0.13392327768E+03  0.47000000000E+01 0.  1.
          5    1    4    4  502    0 -0.39259273843E+02  0.11957004735E+02  0.21695179051E+03  0.22084933767E+03  0.47000000000E+01 0.  1.
         -5    1    4    4    0  502  0.35738751992E+02 -0.55816997853E+02  0.77671785334E+02  0.10221444066E+03  0.47000000000E+01 0.  1.
<mgrwt>
<rscale>  0 0.26514174E+03</rscale>
<asrwt>0</asrwt>
<pdfrwt beam="1">  1       21 0.97432383E-01 0.26514174E+03</pdfrwt>
<pdfrwt beam="2">  1       21 0.42693933E-02 0.26514174E+03</pdfrwt>
<totfact> 0.30050712E+05</totfact>
</mgrwt>
</event>
<event>
 8    1  0.9331162E-006  0.2923883E+03  0.7546771E-02  0.1089109E+00
         21   -1    0    0  504  503  0.00000000000E+00  0.00000000000E+00  0.25329872070E+04  0.25329872070E+04  0.00000000000E+00 0. -1.
         21   -1    0    0  503  504 -0.00000000000E+00 -0.00000000000E+00 -0.84377581692E+01  0.84377581692E+01  0.00000000000E+00 0. -1.
         25    2    1    2    0    0 -0.65591139199E+00 -0.45728186887E+02  0.17878059959E+04  0.17927539649E+04  0.12500001079E+03 0.  0.
         25    2    1    2    0    0  0.65591139199E+00  0.45728186887E+02  0.73674345301E+03  0.74867100027E+03  0.12500341510E+03 0.  0.
          5    1    3    3  501    0 -0.60278007988E+02 -0.26567667300E+02  0.69002944824E+03  0.69318252187E+03  0.47000000000E+01 0. -1.
         -5    1    3    3    0  501  0.59622096596E+02 -0.19160519587E+02  0.10977765476E+04  0.10995714431E+04  0.47000000000E+01 0. -1.
          5    1    4    4  502    0 -0.14391269663E+02  0.83661818556E+02  0.59671383357E+03  0.60274032361E+03  0.47000000000E+01 0.  1.
         -5    1    4    4    0  502  0.15047181055E+02 -0.37933631669E+02  0.14002961944E+03  0.14593067666E+03  0.47000000000E+01 0.  1.
<mgrwt>
<rscale>  0 0.29238833E+03</rscale>
<asrwt>0</asrwt>
<pdfrwt beam="1">  1       21 0.38968973E+00 0.29238833E+03</pdfrwt>
<pdfrwt beam="2">  1       21 0.12981187E-02 0.29238833E+03</pdfrwt>
<totfact> 0.22711846E+04</totfact>
</mgrwt>
</event>
<event>
 8    1  0.9331162E-006  0.3000823E+03  0.7546771E-02  0.1085199E+00
         21   -1    0    0  504  503  0.00000000000E+00  0.00000000000E+00  0.85136217354E+03  0.85136217354E+03  0.00000000000E+00 0. -1.
         21   -1    0    0  503  504 -0.00000000000E+00 -0.00000000000E+00 -0.26442737153E+02  0.26442737153E+02  0.00000000000E+00 0. -1.
         25    2    1    2    0    0  0.78890151290E+02 -0.83367275610E+01  0.48378385716E+03  0.50592959068E+03  0.12499909311E+03 0.  0.
         25    2    1    2    0    0 -0.78890151290E+02  0.83367275610E+01  0.34113557923E+03  0.37187532001E+03  0.12499845289E+03 0.  0.
          5    1    3    3  501    0  0.33761676859E+02  0.36809968045E+02  0.38478144052E+03  0.38803823464E+03  0.47000000000E+01 0. -1.
         -5    1    3    3    0  501  0.45128474431E+02 -0.45146695606E+02  0.99002416635E+02  0.11789135604E+03  0.47000000000E+01 0. -1.
          5    1    4    4  502    0 -0.45310218300E+02  0.64087983555E+02  0.14192527190E+03  0.16225029530E+03  0.47000000000E+01 0.  1.
         -5    1    4    4    0  502 -0.33579932990E+02 -0.55751255994E+02  0.19921030732E+03  0.20962502472E+03  0.47000000000E+01 0.  1.
<mgrwt>
<rscale>  0 0.30008230E+03</rscale>
<asrwt>0</asrwt>
<pdfrwt beam="1">  1       21 0.13097877E+00 0.30008230E+03</pdfrwt>
<pdfrwt beam="2">  1       21 0.40681141E-02 0.30008230E+03</pdfrwt>
<totfact> 0.15562040E+05</totfact>
</mgrwt>
</event>
<event>
 8    1  0.9331162E-006  0.2594105E+03  0.7546771E-02  0.1107498E+00
         21   -1    0    0  504  503  0.00000000000E+00  0.00000000000E+00  0.15345273785E+03  0.15345273785E+03  0.00000000000E+00 0. -1.
         21   -1    0    0  503  504 -0.00000000000E+00 -0.00000000000E+00 -0.10963275008E+03  0.10963275008E+03  0.00000000000E+00 0. -1.
         25    2    1    2    0    0 -0.11102138955E+02 -0.31638566034E+02  0.13234780884E+02  0.13009717343E+03  0.12500343499E+03 0.  0.
         25    2    1    2    0    0  0.11102138955E+02  0.31638566034E+02  0.30585206883E+02  0.13298831451E+03  0.12500472217E+03 0.  0.
          5    1    3    3  501    0 -0.41568448931E+02 -0.67499943020E+02  0.21077155375E+02  0.82161516131E+02  0.47000000000E+01 0. -1.
         -5    1    3    3    0  501  0.30466309976E+02  0.35861376986E+02 -0.78423744905E+01  0.47935657297E+02  0.47000000000E+01 0. -1.
          5    1    4    4  502    0 -0.91064116105E+01  0.27922776599E+02  0.76710503162E+02  0.82275144976E+02  0.47000000000E+01 0. -1.
         -5    1    4    4    0  502  0.20208550566E+02  0.37157894351E+01 -0.46125296279E+02  0.50713169531E+02  0.47000000000E+01 0. -1.
<mgrwt>
<rscale>  0 0.25941045E+03</rscale>
<asrwt>0</asrwt>
<pdfrwt beam="1">  1       21 0.23608113E-01 0.25941045E+03</pdfrwt>
<pdfrwt beam="2">  1       21 0.16866577E-01 0.25941045E+03</pdfrwt>
<totfact> 0.52803625E+05</totfact>
</mgrwt>
</event>
<event>
 8    1  0.9331162E-006  0.3123399E+03  0.7546771E-02  0.1079230E+00
         21   -1    0    0  504  503  0.00000000000E+00  0.00000000000E+00  0.12308767638E+04  0.12308767638E+04  0.00000000000E+00 0. -1.
         21   -1    0    0  503  504 -0.00000000000E+00 -0.00000000000E+00 -0.19814379455E+02  0.19814379455E+02  0.00000000000E+00 0. -1.
         25    2    1    2    0    0 -0.32787260967E+01 -0.73121590705E+02  0.83925852336E+03  0.85166774713E+03  0.12500226156E+03 0.  0.
         25    2    1    2    0    0  0.32787260967E+01  0.73121590705E+02  0.37180386099E+03  0.39902339613E+03  0.12499617011E+03 0.  0.
          5    1    3    3  501    0 -0.41880939932E+02 -0.34997633241E+02  0.69999376231E+03  0.70213403616E+03  0.47000000000E+01 0.  1.
         -5    1    3    3    0  501  0.38602213835E+02 -0.38123957464E+02  0.13926476105E+03  0.14953371097E+03  0.47000000000E+01 0.  1.
          5    1    4    4  502    0  0.36169854673E+02 -0.14439371478E+02  0.19541961309E+03  0.19931800976E+03  0.47000000000E+01 0.  1.
         -5    1    4    4    0  502 -0.32891128577E+02  0.87560962183E+02  0.17638424790E+03  0.19970538637E+03  0.47000000000E+01 0.  1.
<mgrwt>
<rscale>  0 0.31233994E+03</rscale>
<asrwt>0</asrwt>
<pdfrwt beam="1">  1       21 0.18936560E+00 0.31233994E+03</pdfrwt>
<pdfrwt beam="2">  1       21 0.30483670E-02 0.31233994E+03</pdfrwt>
<totfact> 0.91843910E+04</totfact>
</mgrwt>
</event>
<event>
 8    1  0.9331162E-006  0.2698573E+03  0.7546771E-02  0.1101361E+00
         21   -1    0    0  504  503  0.00000000000E+00  0.00000000000E+00  0.92670810779E+03  0.92670810779E+03  0.00000000000E+00 0. -1.
         21   -1    0    0  503  504 -0.00000000000E+00 -0.00000000000E+00 -0.19645599399E+02  0.19645599399E+02  0.00000000000E+00 0. -1.
         25    2    1    2    0    0  0.91314643589E+01  0.47630043571E+02  0.39986132609E+03  0.42173146145E+03  0.12496535831E+03 0.  0.
         25    2    1    2    0    0 -0.91314643589E+01 -0.47630043571E+02  0.50720118229E+03  0.52462224574E+03  0.12499382669E+03 0.  0.
          5    1    3    3  501    0 -0.53839305497E+02  0.18155996589E+01  0.12942723828E+03  0.14026926687E+03  0.47000000000E+01 0. -1.
         -5    1    3    3    0  501  0.62970769855E+02  0.45814443912E+02  0.27043408781E+03  0.28146219458E+03  0.47000000000E+01 0. -1.
          5    1    4    4  502    0  0.36293515943E+02 -0.61634500825E+02  0.41112382774E+03  0.41732591907E+03  0.47000000000E+01 0. -1.
         -5    1    4    4    0  502 -0.45424980302E+02  0.14004457254E+02  0.96077354552E+02  0.10729632667E+03  0.47000000000E+01 0. -1.
<mgrwt>
<rscale>  0 0.26985727E+03</rscale>
<asrwt>0</asrwt>
<pdfrwt beam="1">  1       21 0.14257044E+00 0.26985727E+03</pdfrwt>
<pdfrwt beam="2">  1       21 0.30224006E-02 0.26985727E+03</pdfrwt>
<totfact> 0.20757216E+05</totfact>
</mgrwt>
</event>
<event>
 8    1  0.9331162E-006  0.2846201E+03  0.7546771E-02  0.1093192E+00
         21   -1    0    0  504  503  0.00000000000E+00  0.00000000000E+00  0.24453436811E+02  0.24453436811E+02  0.00000000000E+00 0.  1.
         21   -1    0    0  503  504 -0.00000000000E+00 -0.00000000000E+00 -0.82819222922E+03  0.82819222922E+03  0.00000000000E+00 0.  1.
         25    2    1    2    0    0  0.55174172461E+02 -0.23262580368E+01 -0.52081325656E+03  0.53844340747E+03  0.12500101618E+03 0.  0.
         25    2    1    2    0    0 -0.55174172461E+02  0.23262580368E+01 -0.28292553584E+03  0.31420225856E+03  0.12500639852E+03 0.  0.
          5    1    3    3  501    0  0.39066211825E+02 -0.32561326456E+02 -0.48835070686E+03  0.49101416657E+03  0.47000000000E+01 0. -1.
         -5    1    3    3    0  501  0.16107960636E+02  0.30235068420E+02 -0.32462549708E+02  0.47429240893E+02  0.47000000000E+01 0. -1.
          5    1    4    4  502    0  0.21283573221E+01 -0.47436167510E+02 -0.49716152630E+02  0.68909402300E+02  0.47000000000E+01 0.  1.
         -5    1    4    4    0  502 -0.57302529783E+02  0.49762425547E+02 -0.23320938321E+03  0.24529285626E+03  0.47000000000E+01 0.  1.
<mgrwt>
<rscale>  0 0.28462007E+03</rscale>
<asrwt>0</asrwt>
<pdfrwt beam="1">  1       21 0.37620677E-02 0.28462007E+03</pdfrwt>
<pdfrwt beam="2">  1       21 0.12741417E+00 0.28462007E+03</pdfrwt>
<totfact> 0.19141715E+05</totfact>
</mgrwt>
</event>
<event>
 8    1  0.9331162E-006  0.2604350E+03  0.7546771E-02  0.1106882E+00
         21   -1    0    0  504  503  0.00000000000E+00  0.00000000000E+00  0.62542242302E+03  0.62542242302E+03  0.00000000000E+00 0. -1.
         21   -1    0    0  503  504 -0.00000000000E+00 -0.00000000000E+00 -0.27112221735E+02  0.27112221735E+02  0.00000000000E+00 0. -1.
         25    2    1    2    0    0 -0.24425247816E+02  0.22643085211E+02  0.26168866891E+03  0.29191307939E+03  0.12499193751E+03 0.  0.
         25    2    1    2    0    0  0.24425247816E+02 -0.22643085211E+02  0.33662153237E+03  0.36062156537E+03  0.12499822123E+03 0.  0.
          5    1    3    3  501    0 -0.48299125730E+02  0.93852713179E+01  0.25944685272E+03  0.26411294601E+03  0.47000000000E+01 0. -1.
         -5    1    3    3    0  501  0.23873877914E+02  0.13257813893E+02  0.22418161900E+01  0.27800133376E+02  0.47000000000E+01 0. -1.
          5    1    4    4  502    0 -0.46975319054E+01 -0.71751640234E+02  0.19007272048E+03  0.20327344577E+03  0.47000000000E+01 0. -1.
         -5    1    4    4    0  502  0.29122779722E+02  0.49108555023E+02  0.14654881189E+03  0.15734811960E+03  0.47000000000E+01 0. -1.
<mgrwt>
<rscale>  0 0.26043495E+03</rscale>
<asrwt>0</asrwt>
<pdfrwt beam="1">  1       21 0.96218824E-01 0.26043495E+03</pdfrwt>
<pdfrwt beam="2">  1       21 0.41711115E-02 0.26043495E+03</pdfrwt>
<totfact> 0.32238808E+05</totfact>
</mgrwt>
</event>
<event>
 8    1  0.9331162E-006  0.2888285E+03  0.7546771E-02  0.1090962E+00
         21   -1    0    0  504  503  0.00000000000E+00  0.00000000000E+00  0.40383623074E+02  0.40383623074E+02  0.00000000000E+00 0. -1.
         21   -1    0    0  503  504 -0.00000000000E+00 -0.00000000000E+00 -0.51643384358E+03  0.51643384358E+03  0.00000000000E+00 0. -1.
         25    2    1    2    0    0 -0.28213256823E+01  0.71032209172E+02 -0.21239333477E+03  0.25649453937E+03  0.12499994181E+03 0.  0.
         25    2    1    2    0    0  0.28213256823E+01 -0.71032209172E+02 -0.26365688574E+03  0.30032292729E+03  0.12500149055E+03 0.  0.
          5    1    3    3  501    0  0.50728841434E+02  0.28053400310E+02 -0.15925655971E+03  0.16954394838E+03  0.47000000000E+01 0.  1.
         -5    1    3    3    0  501 -0.53550167116E+02  0.42978808862E+02 -0.53136775065E+02  0.86950590991E+02  0.47000000000E+01 0.  1.
          5    1    4    4  502    0 -0.48875489548E+02 -0.76811061639E+02 -0.17828828252E+03  0.20024373736E+03  0.47000000000E+01 0. -1.
         -5    1    4    4    0  502  0.51696815230E+02  0.57788524675E+01 -0.85368603216E+02  0.10007918992E+03  0.47000000000E+01 0. -1.
<mgrwt>
<rscale>  0 0.28882846E+03</rscale>
<asrwt>0</asrwt>
<pdfrwt beam="1">  1       21 0.62128653E-02 0.28882846E+03</pdfrwt>
<pdfrwt beam="2">  1       21 0.79451358E-01 0.28882846E+03</pdfrwt>
<totfact> 0.25282673E+05</totfact>
</mgrwt>
</event>
<event>
 8    1  0.9331162E-006  0.3205831E+03  0.7546771E-02  0.1075381E+00
         21   -1    0    0  504  503  0.00000000000E+00  0.00000000000E+00  0.19353531858E+03  0.19353531858E+03  0.00000000000E+00 0.  1.
         21   -1    0    0  503  504 -0.00000000000E+00 -0.00000000000E+00 -0.13275808144E+03  0.13275808144E+03  0.00000000000E+00 0.  1.
         25    2    1    2    0    0  0.13694226091E+02  0.89665984332E+02 -0.13285098132E+02  0.15501149406E+03  0.12499819552E+03 0.  0.
         25    2    1    2    0    0 -0.13694226091E+02 -0.89665984332E+02  0.74062335273E+02  0.17128190597E+03  0.12499896492E+03 0.  0.
          5    1    3    3  501    0 -0.14530822289E+02  0.11508983776E+03 -0.80367075148E+01  0.11637651919E+03  0.47000000000E+01 0. -1.
         -5    1    3    3    0  501  0.28225048380E+02 -0.25423853423E+02 -0.52483906176E+01  0.38634974868E+02  0.47000000000E+01 0. -1.
          5    1    4    4  502    0 -0.30447651389E+02  0.52258580720E+01 -0.19546189533E+02  0.36858005819E+02  0.47000000000E+01 0. -1.
         -5    1    4    4    0  502  0.16753425298E+02 -0.94891842404E+02  0.93608524806E+02  0.13442390015E+03  0.47000000000E+01 0. -1.
<mgrwt>
<rscale>  0 0.32058308E+03</rscale>
<asrwt>0</asrwt>
<pdfrwt beam="1">  1       21 0.29774664E-01 0.32058308E+03</pdfrwt>
<pdfrwt beam="2">  1       21 0.20424320E-01 0.32058308E+03</pdfrwt>
<totfact> 0.23258407E+05</totfact>
</mgrwt>
</event>
<event>
 8    1  0.9331162E-006  0.3515912E+03  0.7546771E-02  0.1061964E+00
         21   -1    0    0  504  503  0.00000000000E+00  0.00000000000E+00  0.30363411201E+03  0.30363411201E+03  0.00000000000E+00 0.  1.
         21   -1    0    0  503  504 -0.00000000000E+00 -0.00000000000E+00 -0.10178067978E+03  0.10178067978E+03  0.00000000000E+00 0.  1.
         25    2    1    2    0    0  0.61799693011E+02 -0.10525620512E+03  0.12328097268E+03  0.21384903253E+03  0.12504055229E+03 0.  0.
         25    2    1    2    0    0 -0.61799693011E+02  0.10525620512E+03  0.78572459554E+02  0.19156575926E+03  0.12500295176E+03 0.  0.
          5    1    3    3  501    0 -0.16869918390E+02 -0.83328477189E+02  0.94322515046E+02  0.12707106713E+03  0.47000000000E+01 0. -1.
         -5    1    3    3    0  501  0.78669611401E+02 -0.21927727933E+02  0.28958457635E+02  0.86777965400E+02  0.47000000000E+01 0. -1.
          5    1    4    4  502    0 -0.84111482590E+02  0.27566375417E+02  0.63925174154E+02  0.10928478598E+03  0.47000000000E+01 0.  1.
         -5    1    4    4    0  502  0.22311789579E+02  0.77689829705E+02  0.14647285400E+02  0.82280973277E+02  0.47000000000E+01 0.  1.
<mgrwt>
<rscale>  0 0.35159116E+03</rscale>
<asrwt>0</asrwt>
<pdfrwt beam="1">  1       21 0.46712940E-01 0.35159116E+03</pdfrwt>
<pdfrwt beam="2">  1       21 0.15658566E-01 0.35159116E+03</pdfrwt>
<totfact> 0.15238314E+05</totfact>
</mgrwt>
</event>
<event>
 8    1  0.9331162E-006  0.2520515E+03  0.7546771E-02  0.1112015E+00
         21   -1    0    0  504  503  0.00000000000E+00  0.00000000000E+00  0.56417917315E+03  0.56417917315E+03  0.00000000000E+00 0. -1.
         21   -1    0    0  503  504 -0.00000000000E+00 -0.00000000000E+00 -0.28151489330E+02  0.28151489330E+02  0.00000000000E+00 0. -1.
         25    2    1    2    0    0  0.88648231228E+01 -0.62528338942E+01  0.29580413212E+03  0.32131363922E+03  0.12499874860E+03 0.  0.
         25    2    1    2    0    0 -0.88648231228E+01  0.62528338942E+01  0.24022355170E+03  0.27101702325E+03  0.12500075633E+03 0.  0.
          5    1    3    3  501    0 -0.58045485929E+02 -0.30088910064E+01  0.13836102577E+03  0.15014724544E+03  0.47000000000E+01 0.  1.
         -5    1    3    3    0  501  0.66910309052E+02 -0.32439428878E+01  0.15744310635E+03  0.17116639378E+03  0.47000000000E+01 0.  1.
          5    1    4    4  502    0 -0.18394636381E+02  0.62179308484E+02  0.15948739215E+03  0.17222934508E+03  0.47000000000E+01 0.  1.
         -5    1    4    4    0  502  0.95298132583E+01 -0.55926474590E+02  0.80736159548E+02  0.98787678176E+02  0.47000000000E+01 0.  1.
<mgrwt>
<rscale>  0 0.25205145E+03</rscale>
<asrwt>0</asrwt>
<pdfrwt beam="1">  1       21 0.86796787E-01 0.25205145E+03</pdfrwt>
<pdfrwt beam="2">  1       21 0.43309988E-02 0.25205145E+03</pdfrwt>
<totfact> 0.38580360E+05</totfact>
</mgrwt>
</event>
<event>
 8    1  0.9331162E-006  0.3470387E+03  0.7546771E-02  0.1063837E+00
         21   -1    0    0  504  503  0.00000000000E+00  0.00000000000E+00  0.37813015771E+03  0.37813015771E+03  0.00000000000E+00 0. -1.
         21   -1    0    0  503  504 -0.00000000000E+00 -0.00000000000E+00 -0.79625943908E+02  0.79625943908E+02  0.00000000000E+00 0. -1.
         25    2    1    2    0    0  0.83019015241E+02  0.15967431516E+02  0.26223519455E+03  0.30255747278E+03  0.12500644511E+03 0.  0.
         25    2    1    2    0    0 -0.83019015241E+02 -0.15967431516E+02  0.36269019256E+02  0.15519862883E+03  0.12499622744E+03 0.  0.
          5    1    3    3  501    0  0.93920641234E+02 -0.24157635468E+02  0.12035489312E+03  0.15463527573E+03  0.47000000000E+01 0. -1.
         -5    1    3    3    0  501 -0.10901625993E+02  0.40125066983E+02  0.14188030142E+03  0.14792219705E+03  0.47000000000E+01 0. -1.
          5    1    4    4  502    0 -0.97494242575E+02  0.16836363303E+02 -0.64138816945E+01  0.99256326463E+02  0.47000000000E+01 0. -1.
         -5    1    4    4    0  502  0.14475227335E+02 -0.32803794818E+02  0.42682900951E+02  0.55942302370E+02  0.47000000000E+01 0. -1.
<mgrwt>
<rscale>  0 0.34703873E+03</rscale>
<asrwt>0</asrwt>
<pdfrwt beam="1">  1       21 0.58173870E-01 0.34703873E+03</pdfrwt>
<pdfrwt beam="2">  1       21 0.12250145E-01 0.34703873E+03</pdfrwt>
<totfact> 0.14995103E+05</totfact>
</mgrwt>
</event>
<event>
 8    1  0.9331162E-006  0.2675508E+03  0.7546771E-02  0.1102690E+00
         21   -1    0    0  504  503  0.00000000000E+00  0.00000000000E+00  0.74668508883E+02  0.74668508883E+02  0.00000000000E+00 0.  1.
         21   -1    0    0  503  504 -0.00000000000E+00 -0.00000000000E+00 -0.23967072841E+03  0.23967072841E+03  0.00000000000E+00 0.  1.
         25    2    1    2    0    0 -0.11712133606E+02  0.43973387315E+02 -0.99083825371E+02  0.16587722922E+03  0.12500727123E+03 0.  0.
         25    2    1    2    0    0  0.11712133606E+02 -0.43973387315E+02 -0.65918394156E+02  0.14846200807E+03  0.12499960114E+03 0.  0.
          5    1    3    3  501    0  0.31556366070E+02  0.46823095181E+02 -0.10744295652E+03  0.12146721940E+03  0.47000000000E+01 0.  1.
         -5    1    3    3    0  501 -0.43268499676E+02 -0.28497078656E+01  0.83591311528E+01  0.44410009827E+02  0.47000000000E+01 0.  1.
          5    1    4    4  502    0  0.29572176815E+02 -0.82129713992E+02 -0.59113176088E+02  0.10552848501E+03  0.47000000000E+01 0.  1.
         -5    1    4    4    0  502 -0.17860043208E+02  0.38156326677E+02 -0.68052180688E+01  0.42933523054E+02  0.47000000000E+01 0.  1.
<mgrwt>
<rscale>  0 0.26755079E+03</rscale>
<asrwt>0</asrwt>
<pdfrwt beam="1">  1       21 0.11487463E-01 0.26755079E+03</pdfrwt>
<pdfrwt beam="2">  1       21 0.36872421E-01 0.26755079E+03</pdfrwt>
<totfact> 0.44316130E+05</totfact>
</mgrwt>
</event>
<event>
 8    1  0.9331162E-006  0.3845254E+03  0.7546771E-02  0.1049274E+00
         21   -1    0    0  504  503  0.00000000000E+00  0.00000000000E+00  0.25057035735E+02  0.25057035735E+02  0.00000000000E+00 0.  1.
         21   -1    0    0  503  504 -0.00000000000E+00 -0.00000000000E+00 -0.14752322398E+04  0.14752322398E+04  0.00000000000E+00 0.  1.
         25    2    1    2    0    0 -0.12236639640E+03  0.47317625610E+02 -0.97574697803E+03  0.99243155143E+03  0.12500290594E+03 0.  0.
         25    2    1    2    0    0  0.12236639640E+03 -0.47317625610E+02 -0.47442822600E+03  0.50785772406E+03  0.12499933441E+03 0.  0.
          5    1    3    3  501    0 -0.95732280575E+02 -0.15774368665E+02 -0.36016493417E+03  0.37303400656E+03  0.47000000000E+01 0. -1.
         -5    1    3    3    0  501 -0.26634115828E+02  0.63091994275E+02 -0.61558204386E+03  0.61939754487E+03  0.47000000000E+01 0. -1.
          5    1    4    4  502    0  0.88689572187E+02  0.33837229117E+01 -0.40828910864E+03  0.41785090167E+03  0.47000000000E+01 0.  1.
         -5    1    4    4    0  502  0.33676824216E+02 -0.50701348521E+02 -0.66139117357E+02  0.90006822385E+02  0.47000000000E+01 0.  1.
<mgrwt>
<rscale>  0 0.38452541E+03</rscale>
<asrwt>0</asrwt>
<pdfrwt beam="1">  1       21 0.38549273E-02 0.38452541E+03</pdfrwt>
<pdfrwt beam="2">  1       21 0.22695888E+00 0.38452541E+03</pdfrwt>
<totfact> 0.34324949E+04</totfact>
</mgrwt>
</event>
<event>
 8    1  0.9331162E-006  0.3128371E+03  0.7546771E-02  0.1078994E+00
         21   -1    0    0  504  503  0.00000000000E+00  0.00000000000E+00  0.37359278273E+02  0.37359278273E+02  0.00000000000E+00 0. -1.
         21   -1    0    0  503  504 -0.00000000000E+00 -0.00000000000E+00 -0.65490439494E+03  0.65490439494E+03  0.00000000000E+00 0. -1.
         25    2    1    2    0    0  0.83451026047E+02  0.34255963885E+02 -0.24988236703E+03  0.29359948898E+03  0.12498767046E+03 0.  0.
         25    2    1    2    0    0 -0.83451026047E+02 -0.34255963885E+02 -0.36766274964E+03  0.39866418424E+03  0.12497875623E+03 0.  0.
          5    1    3    3  501    0  0.71281009979E+01 -0.16996700317E+02 -0.17191368523E+03  0.17296272088E+03  0.47000000000E+01 0. -1.
         -5    1    3    3    0  501  0.76322925049E+02  0.51252664202E+02 -0.77968681801E+02  0.12063676810E+03  0.47000000000E+01 0. -1.
          5    1    4    4  502    0  0.22446159798E+02  0.17572726107E+02 -0.33266678247E+02  0.44061237773E+02  0.47000000000E+01 0.  1.
         -5    1    4    4    0  502 -0.10589718584E+03 -0.51828689992E+02 -0.33439607140E+03  0.35460294646E+03  0.47000000000E+01 0.  1.
<mgrwt>
<rscale>  0 0.31283705E+03</rscale>
<asrwt>0</asrwt>
<pdfrwt beam="1">  1       21 0.57475812E-02 0.31283705E+03</pdfrwt>
<pdfrwt beam="2">  1       21 0.10075452E+00 0.31283705E+03</pdfrwt>
<totfact> 0.16486998E+05</totfact>
</mgrwt>
</event>
<event>
 8    1  0.9331162E-006  0.3730858E+03  0.7546771E-02  0.1053519E+00
         21   -1    0    0  504  503  0.00000000000E+00  0.00000000000E+00  0.39505890602E+03  0.39505890602E+03  0.00000000000E+00 0. -1.
         21   -1    0    0  503  504 -0.00000000000E+00 -0.00000000000E+00 -0.88083689150E+02  0.88083689150E+02  0.00000000000E+00 0. -1.
         25    2    1    2    0    0  0.19925653344E+02  0.12509218372E+03  0.81151642549E+02  0.19562718491E+03  0.12505726808E+03 0.  0.
         25    2    1    2    0    0 -0.19925653344E+02 -0.12509218372E+03  0.22582357432E+03  0.28751541025E+03  0.12499495320E+03 0.  0.
          5    1    3    3  501    0  0.69021326062E+02  0.83409438847E+02  0.27829059962E+02  0.11188219035E+03  0.47000000000E+01 0. -1.
         -5    1    3    3    0  501 -0.49095672718E+02  0.41682744877E+02  0.53322582586E+02  0.83744994560E+02  0.47000000000E+01 0. -1.
          5    1    4    4  502    0 -0.69749934902E+02 -0.97606965893E+02  0.13993283514E+03  0.18437858216E+03  0.47000000000E+01 0.  1.
         -5    1    4    4    0  502  0.49824281558E+02 -0.27485217831E+02  0.85890739179E+02  0.10313682809E+03  0.47000000000E+01 0.  1.
<mgrwt>
<rscale>  0 0.37308576E+03</rscale>
<asrwt>0</asrwt>
<pdfrwt beam="1">  1       21 0.60778292E-01 0.37308576E+03</pdfrwt>
<pdfrwt beam="2">  1       21 0.13551337E-01 0.37308576E+03</pdfrwt>
<totfact> 0.11274753E+05</totfact>
</mgrwt>
</event>
<event>
 8    1  0.9331162E-006  0.2535681E+03  0.7546771E-02  0.1111070E+00
         21   -1    0    0  504  503  0.00000000000E+00  0.00000000000E+00  0.62798717955E+03  0.62798717955E+03  0.00000000000E+00 0.  1.
         21   -1    0    0  503  504 -0.00000000000E+00 -0.00000000000E+00 -0.25596375159E+02  0.25596375159E+02  0.00000000000E+00 0.  1.
         25    2    1    2    0    0 -0.18031738885E+02  0.63914337385E+01  0.32467669333E+03  0.34843281229E+03  0.12499790182E+03 0.  0.
         25    2    1    2    0    0  0.18031738885E+02 -0.63914337385E+01  0.27771411106E+03  0.30515074241E+03  0.12500341628E+03 0.  0.
          5    1    3    3  501    0  0.17338505786E+02  0.83650620712E+00  0.30822780606E+03  0.30875199425E+03  0.47000000000E+01 0. -1.
         -5    1    3    3    0  501 -0.35370244671E+02  0.55549275314E+01  0.16448887269E+02  0.39680818041E+02  0.47000000000E+01 0. -1.
          5    1    4    4  502    0  0.82111629485E+01  0.58132169519E+02  0.15962124447E+03  0.17014054195E+03  0.47000000000E+01 0. -1.
         -5    1    4    4    0  502  0.98205759370E+01 -0.64523603257E+02  0.11809286659E+03  0.13501020046E+03  0.47000000000E+01 0. -1.
<mgrwt>
<rscale>  0 0.25356810E+03</rscale>
<asrwt>0</asrwt>
<pdfrwt beam="1">  1       21 0.96613400E-01 0.25356810E+03</pdfrwt>
<pdfrwt beam="2">  1       21 0.39379044E-02 0.25356810E+03</pdfrwt>
<totfact> 0.35242069E+05</totfact>
</mgrwt>
</event>
<event>
 8    1  0.9331162E-006  0.6767272E+03  0.7546771E-02  0.9757881E-01
         21   -1    0    0  504  503  0.00000000000E+00  0.00000000000E+00  0.12594176343E+03  0.12594176343E+03  0.00000000000E+00 0.  1.
         21   -1    0    0  503  504 -0.00000000000E+00 -0.00000000000E+00 -0.90907038631E+03  0.90907038631E+03  0.00000000000E+00 0.  1.
         25    2    1    2    0    0  0.27753928552E+03  0.11416642758E+03 -0.24804410833E+03  0.40891110424E+03  0.12498153185E+03 0.  0.
         25    2    1    2    0    0 -0.27753928552E+03 -0.11416642758E+03 -0.53508451454E+03  0.62610104550E+03  0.12500021310E+03 0.  0.
          5    1    3    3  501    0  0.25165345187E+03  0.61554762433E+02 -0.16516312332E+03  0.30727739246E+03  0.47000000000E+01 0. -1.
         -5    1    3    3    0  501  0.25885833649E+02  0.52611665149E+02 -0.82880985011E+02  0.10163371178E+03  0.47000000000E+01 0. -1.
          5    1    4    4  502    0 -0.40153488605E+02 -0.66998963518E+02 -0.88541606833E+02  0.11816458818E+03  0.47000000000E+01 0.  1.
         -5    1    4    4    0  502 -0.23738579691E+03 -0.47167464064E+02 -0.44654290771E+03  0.50793645732E+03  0.47000000000E+01 0.  1.
<mgrwt>
<rscale>  0 0.67672721E+03</rscale>
<asrwt>0</asrwt>
<pdfrwt beam="1">  1       21 0.19375656E-01 0.67672721E+03</pdfrwt>
<pdfrwt beam="2">  1       21 0.13985698E+00 0.67672721E+03</pdfrwt>
<totfact> 0.72846450E+03</totfact>
</mgrwt>
</event>
<event>
 8    1  0.9331162E-006  0.2776725E+03  0.7546771E-02  0.1096967E+00
         21   -1    0    0  504  503  0.00000000000E+00  0.00000000000E+00  0.10646920828E+03  0.10646920828E+03  0.00000000000E+00 0.  1.
         21   -1    0    0  503  504 -0.00000000000E+00 -0.00000000000E+00 -0.18104296342E+03  0.18104296342E+03  0.00000000000E+00 0.  1.
         25    2    1    2    0    0  0.57083375190E+02 -0.18221402517E+02 -0.29351037387E+02  0.14169916929E+03  0.12500655962E+03 0.  0.
         25    2    1    2    0    0 -0.57083375190E+02  0.18221402517E+02 -0.45222717748E+02  0.14581300241E+03  0.12500322491E+03 0.  0.
          5    1    3    3  501    0 -0.28722459032E+02 -0.40040427763E+02 -0.16101499580E+02  0.52053470556E+02  0.47000000000E+01 0.  1.
         -5    1    3    3    0  501  0.85805834221E+02  0.21819025246E+02 -0.13249537808E+02  0.89645698733E+02  0.47000000000E+01 0.  1.
          5    1    4    4  502    0  0.28166144608E+02 -0.55050897577E+01 -0.49152742493E+02  0.57111468287E+02  0.47000000000E+01 0. -1.
         -5    1    4    4    0  502 -0.85249519797E+02  0.23726492274E+02  0.39300247454E+01  0.88701534123E+02  0.47000000000E+01 0. -1.
<mgrwt>
<rscale>  0 0.27767248E+03</rscale>
<asrwt>0</asrwt>
<pdfrwt beam="1">  1       21 0.16379878E-01 0.27767248E+03</pdfrwt>
<pdfrwt beam="2">  1       21 0.27852764E-01 0.27767248E+03</pdfrwt>
<totfact> 0.40388451E+05</totfact>
</mgrwt>
</event>
<event>
 8    1  0.9331162E-006  0.3310780E+03  0.7546771E-02  0.1070661E+00
         21   -1    0    0  504  503  0.00000000000E+00  0.00000000000E+00  0.31741038513E+03  0.31741038513E+03  0.00000000000E+00 0. -1.
         21   -1    0    0  503  504 -0.00000000000E+00 -0.00000000000E+00 -0.86333548167E+02  0.86333548167E+02  0.00000000000E+00 0. -1.
         25    2    1    2    0    0  0.15565899049E+02 -0.10596313170E+03  0.94183709337E+02  0.18965112917E+03  0.12500598864E+03 0.  0.
         25    2    1    2    0    0 -0.15565899049E+02  0.10596313170E+03  0.13689312762E+03  0.21409280413E+03  0.12500207157E+03 0.  0.
          5    1    3    3  501    0  0.21642266782E+02 -0.12826208819E+03  0.49745959731E+02  0.13934238942E+03  0.47000000000E+01 0.  1.
         -5    1    3    3    0  501 -0.60763677328E+01  0.22298956488E+02  0.44437749607E+02  0.50308739751E+02  0.47000000000E+01 0.  1.
          5    1    4    4  502    0 -0.48662691372E+02  0.83893451535E+02  0.14373179178E+03  0.17345629625E+03  0.47000000000E+01 0. -1.
         -5    1    4    4    0  502  0.33096792323E+02  0.22069680167E+02 -0.68386641566E+01  0.40636507874E+02  0.47000000000E+01 0. -1.
<mgrwt>
<rscale>  0 0.33107803E+03</rscale>
<asrwt>0</asrwt>
<pdfrwt beam="1">  1       21 0.48832366E-01 0.33107803E+03</pdfrwt>
<pdfrwt beam="2">  1       21 0.13282085E-01 0.33107803E+03</pdfrwt>
<totfact> 0.18870623E+05</totfact>
</mgrwt>
</event>
<event>
 8    1  0.9331162E-006  0.4570766E+03  0.7546771E-02  0.1025632E+00
         21   -1    0    0  504  503  0.00000000000E+00  0.00000000000E+00  0.21282884937E+03  0.21282884937E+03  0.00000000000E+00 0.  1.
         21   -1    0    0  503  504 -0.00000000000E+00 -0.00000000000E+00 -0.24540735481E+03  0.24540735481E+03  0.00000000000E+00 0.  1.
         25    2    1    2    0    0 -0.14875485980E+02 -0.52163361275E+02  0.16765585330E+03  0.21604049696E+03  0.12499085903E+03 0.  0.
         25    2    1    2    0    0  0.14875485980E+02  0.52163361275E+02 -0.20023435874E+03  0.24219570721E+03  0.12499066298E+03 0.  0.
          5    1    3    3  501    0 -0.29384072323E+02 -0.80882103830E+02  0.16134066219E+03  0.18291593070E+03  0.47000000000E+01 0.  1.
         -5    1    3    3    0  501  0.14508586343E+02  0.28718742554E+02  0.63151911039E+01  0.33124566265E+02  0.47000000000E+01 0.  1.
          5    1    4    4  502    0  0.28721989419E+02 -0.36335424075E+02 -0.68658302333E+02  0.82953409804E+02  0.47000000000E+01 0. -1.
         -5    1    4    4    0  502 -0.13846503438E+02  0.88498785350E+02 -0.13157605640E+03  0.15924229741E+03  0.47000000000E+01 0. -1.
<mgrwt>
<rscale>  0 0.45707665E+03</rscale>
<asrwt>0</asrwt>
<pdfrwt beam="1">  1       21 0.32742900E-01 0.45707665E+03</pdfrwt>
<pdfrwt beam="2">  1       21 0.37754978E-01 0.45707665E+03</pdfrwt>
<totfact> 0.55991241E+04</totfact>
</mgrwt>
</event>
<event>
 8    1  0.9331162E-006  0.2659453E+03  0.7546771E-02  0.1103623E+00
         21   -1    0    0  504  503  0.00000000000E+00  0.00000000000E+00  0.82919214143E+02  0.82919214143E+02  0.00000000000E+00 0. -1.
         21   -1    0    0  503  504 -0.00000000000E+00 -0.00000000000E+00 -0.21324038732E+03  0.21324038732E+03  0.00000000000E+00 0. -1.
         25    2    1    2    0    0  0.41501583881E+02 -0.16382786535E+02 -0.74135243958E+02  0.15202519902E+03  0.12499939832E+03 0.  0.
         25    2    1    2    0    0 -0.41501583881E+02  0.16382786535E+02 -0.56185929221E+02  0.14413440245E+03  0.12500836039E+03 0.  0.
          5    1    3    3  501    0  0.39931459579E+02  0.21943538693E+02  0.20214618162E+02  0.50067565768E+02  0.47000000000E+01 0.  1.
         -5    1    3    3    0  501  0.15701243018E+01 -0.38326325229E+02 -0.94349862120E+02  0.10195763325E+03  0.47000000000E+01 0.  1.
          5    1    4    4  502    0 -0.76201333138E+02 -0.19453037890E+02 -0.50797553571E+02  0.93741907939E+02  0.47000000000E+01 0.  1.
         -5    1    4    4    0  502  0.34699749257E+02  0.35835824425E+02 -0.53883756496E+01  0.50392494510E+02  0.47000000000E+01 0.  1.
<mgrwt>
<rscale>  0 0.26594530E+03</rscale>
<asrwt>0</asrwt>
<pdfrwt beam="1">  1       21 0.12756802E-01 0.26594530E+03</pdfrwt>
<pdfrwt beam="2">  1       21 0.32806214E-01 0.26594530E+03</pdfrwt>
<totfact> 0.46348173E+05</totfact>
</mgrwt>
</event>
<event>
 8    1  0.9331162E-006  0.3321605E+03  0.7546771E-02  0.1070185E+00
         21   -1    0    0  504  503  0.00000000000E+00  0.00000000000E+00  0.14448363251E+03  0.14448363251E+03  0.00000000000E+00 0.  1.
         21   -1    0    0  503  504 -0.00000000000E+00 -0.00000000000E+00 -0.19090498880E+03  0.19090498880E+03  0.00000000000E+00 0.  1.
         25    2    1    2    0    0 -0.25233540996E+02 -0.82346777845E+01  0.83899213276E+02  0.15287069353E+03  0.12500331772E+03 0.  0.
         25    2    1    2    0    0  0.25233540996E+02  0.82346777845E+01 -0.13032056956E+03  0.18251792778E+03  0.12499920641E+03 0.  0.
          5    1    3    3  501    0  0.50347551733E+02 -0.11362067459E+02  0.30205363572E+02  0.59986886325E+02  0.47000000000E+01 0.  1.
         -5    1    3    3    0  501 -0.75581092729E+02  0.31273896740E+01  0.53693849704E+02  0.92883807202E+02  0.47000000000E+01 0.  1.
          5    1    4    4  502    0 -0.33211895791E+02 -0.36666485967E+02 -0.76143668196E+02  0.90925295829E+02  0.47000000000E+01 0.  1.
         -5    1    4    4    0  502  0.58445436787E+02  0.44901163751E+02 -0.54176901363E+02  0.91592631956E+02  0.47000000000E+01 0.  1.
<mgrwt>
<rscale>  0 0.33216048E+03</rscale>
<asrwt>0</asrwt>
<pdfrwt beam="1">  1       21 0.22228251E-01 0.33216048E+03</pdfrwt>
<pdfrwt beam="2">  1       21 0.29369998E-01 0.33216048E+03</pdfrwt>
<totfact> 0.20294142E+05</totfact>
</mgrwt>
</event>
<event>
 8    1  0.9331162E-006  0.2794253E+03  0.7546771E-02  0.1096003E+00
         21   -1    0    0  504  503  0.00000000000E+00  0.00000000000E+00  0.22597824494E+03  0.22597824494E+03  0.00000000000E+00 0.  1.
         21   -1    0    0  503  504 -0.00000000000E+00 -0.00000000000E+00 -0.86378308738E+02  0.86378308738E+02  0.00000000000E+00 0.  1.
         25    2    1    2    0    0  0.52587535811E+02  0.33472687440E+02  0.66603189822E+02  0.15475083796E+03  0.12500386885E+03 0.  0.
         25    2    1    2    0    0 -0.52587535811E+02 -0.33472687440E+02  0.72996746380E+02  0.15760571572E+03  0.12500066767E+03 0.  0.
          5    1    3    3  501    0  0.60873801918E+02  0.49637991650E+02  0.93343208077E+02  0.12208437439E+03  0.47000000000E+01 0. -1.
         -5    1    3    3    0  501 -0.82862661073E+01 -0.16165304210E+02 -0.26740018255E+02  0.32666463575E+02  0.47000000000E+01 0. -1.
          5    1    4    4  502    0 -0.48276557153E+02  0.30155314398E+02 -0.43120944404E+01  0.57276985915E+02  0.47000000000E+01 0.  1.
         -5    1    4    4    0  502 -0.43109786579E+01 -0.63628001838E+02  0.77308840820E+02  0.10032872980E+03  0.47000000000E+01 0.  1.
<mgrwt>
<rscale>  0 0.27942526E+03</rscale>
<asrwt>0</asrwt>
<pdfrwt beam="1">  1       21 0.34765884E-01 0.27942526E+03</pdfrwt>
<pdfrwt beam="2">  1       21 0.13288971E-01 0.27942526E+03</pdfrwt>
<totfact> 0.38242785E+05</totfact>
</mgrwt>
</event>
<event>
 8    1  0.9331162E-006  0.5717988E+03  0.7546771E-02  0.9965706E-01
         21   -1    0    0  504  503  0.00000000000E+00  0.00000000000E+00  0.77031376346E+03  0.77031376346E+03  0.00000000000E+00 0.  1.
         21   -1    0    0  503  504 -0.00000000000E+00 -0.00000000000E+00 -0.10611062846E+03  0.10611062846E+03  0.00000000000E+00 0.  1.
         25    2    1    2    0    0  0.13142463418E+02 -0.23865634782E+03  0.18678847016E+03  0.32809186259E+03  0.12499904404E+03 0.  0.
         25    2    1    2    0    0 -0.13142463418E+02  0.23865634782E+03  0.47741466484E+03  0.54833252933E+03  0.12495688783E+03 0.  0.
          5    1    3    3  501    0  0.52118460631E+02 -0.16271029005E+03  0.73220744732E+02  0.18594176477E+03  0.47000000000E+01 0. -1.
         -5    1    3    3    0  501 -0.38975997214E+02 -0.75946057769E+02  0.11356772543E+03  0.14215009782E+03  0.47000000000E+01 0. -1.
          5    1    4    4  502    0 -0.44167054085E+02  0.19562563249E+03  0.43901389933E+03  0.48267526409E+03  0.47000000000E+01 0. -1.
         -5    1    4    4    0  502  0.31024590667E+02  0.43030715327E+02  0.38400765513E+02  0.65657265246E+02  0.47000000000E+01 0. -1.
<mgrwt>
<rscale>  0 0.57179884E+03</rscale>
<asrwt>0</asrwt>
<pdfrwt beam="1">  1       21 0.11850981E+00 0.57179884E+03</pdfrwt>
<pdfrwt beam="2">  1       21 0.16324713E-01 0.57179884E+03</pdfrwt>
<totfact> 0.15906941E+04</totfact>
</mgrwt>
</event>
<event>
 8    1  0.9331162E-006  0.3935078E+03  0.7546771E-02  0.1046051E+00
         21   -1    0    0  504  503  0.00000000000E+00  0.00000000000E+00  0.25338090429E+03  0.25338090429E+03  0.00000000000E+00 0.  1.
         21   -1    0    0  503  504 -0.00000000000E+00 -0.00000000000E+00 -0.15278224229E+03  0.15278224229E+03  0.00000000000E+00 0.  1.
         25    2    1    2    0    0  0.12234897852E+03 -0.16457454486E+02  0.14173575033E+03  0.22572857765E+03  0.12499698994E+03 0.  0.
         25    2    1    2    0    0 -0.12234897852E+03  0.16457454486E+02 -0.41137088328E+02  0.18043456894E+03  0.12499701308E+03 0.  0.
          5    1    3    3  501    0  0.85978137754E+02  0.48760399469E+02  0.96923003254E+02  0.13851344804E+03  0.47000000000E+01 0.  1.
         -5    1    3    3    0  501  0.36370840763E+02 -0.65217853955E+02  0.44812747074E+02  0.87215129608E+02  0.47000000000E+01 0.  1.
          5    1    4    4  502    0 -0.73870324637E+02 -0.13531304948E+02 -0.81121430987E+02  0.11064672449E+03  0.47000000000E+01 0. -1.
         -5    1    4    4    0  502 -0.48478653880E+02  0.29988759434E+02  0.39984342659E+02  0.69787844445E+02  0.47000000000E+01 0. -1.
<mgrwt>
<rscale>  0 0.39350783E+03</rscale>
<asrwt>0</asrwt>
<pdfrwt beam="1">  1       21 0.38981678E-01 0.39350783E+03</pdfrwt>
<pdfrwt beam="2">  1       21 0.23504960E-01 0.39350783E+03</pdfrwt>
<totfact> 0.10200645E+05</totfact>
</mgrwt>
</event>
<event>
 8    1  0.9331162E-006  0.3145650E+03  0.7546771E-02  0.1078178E+00
         21   -1    0    0  504  503  0.00000000000E+00  0.00000000000E+00  0.25477309285E+03  0.25477309285E+03  0.00000000000E+00 0. -1.
         21   -1    0    0  503  504 -0.00000000000E+00 -0.00000000000E+00 -0.97097322646E+02  0.97097322646E+02  0.00000000000E+00 0. -1.
         25    2    1    2    0    0  0.61035967315E+02  0.24695158907E+02  0.15938066901E+01  0.14133891392E+03  0.12505562039E+03 0.  0.
         25    2    1    2    0    0 -0.61035967315E+02 -0.24695158907E+02  0.15608196351E+03  0.21053150157E+03  0.12500677437E+03 0.  0.
          5    1    3    3  501    0  0.72021797733E+02 -0.30340404056E+02 -0.20354385994E+02  0.80895429390E+02  0.47000000000E+01 0. -1.
         -5    1    3    3    0  501 -0.10985830418E+02  0.55035562963E+02  0.21948192684E+02  0.60443484535E+02  0.47000000000E+01 0. -1.
          5    1    4    4  502    0 -0.40830263956E+02 -0.34802327218E+00  0.17054444288E+03  0.17542727431E+03  0.47000000000E+01 0. -1.
         -5    1    4    4    0  502 -0.20205703359E+02 -0.24347135635E+02 -0.14462479369E+02  0.35104227257E+02  0.47000000000E+01 0. -1.
<mgrwt>
<rscale>  0 0.31456500E+03</rscale>
<asrwt>0</asrwt>
<pdfrwt beam="1">  1       21 0.39195860E-01 0.31456500E+03</pdfrwt>
<pdfrwt beam="2">  1       21 0.14938050E-01 0.31456500E+03</pdfrwt>
<totfact> 0.24069304E+05</totfact>
</mgrwt>
</event>
<event>
 8    1  0.9331162E-006  0.2526762E+03  0.7546771E-02  0.1111625E+00
         21   -1    0    0  504  503  0.00000000000E+00  0.00000000000E+00  0.18759898258E+03  0.18759898258E+03  0.00000000000E+00 0.  1.
         21   -1    0    0  503  504 -0.00000000000E+00 -0.00000000000E+00 -0.85082098830E+02  0.85082098830E+02  0.00000000000E+00 0.  1.
         25    2    1    2    0    0 -0.72002377144E+01 -0.14196449905E+02  0.60897029466E+02  0.13996384014E+03  0.12501218235E+03 0.  0.
         25    2    1    2    0    0  0.72002377144E+01  0.14196449905E+02  0.41619854287E+02  0.13271724127E+03  0.12501308431E+03 0.  0.
          5    1    3    3  501    0  0.39108003384E+02 -0.21001206788E+02  0.78033470487E+02  0.89898827198E+02  0.47000000000E+01 0.  1.
         -5    1    3    3    0  501 -0.46308241098E+02  0.68047568837E+01 -0.17136441022E+02  0.50065012941E+02  0.47000000000E+01 0.  1.
          5    1    4    4  502    0 -0.34109643520E+01  0.51248977534E+02  0.68314669002E+02  0.85598343307E+02  0.47000000000E+01 0.  1.
         -5    1    4    4    0  502  0.10611202066E+02 -0.37052527629E+02 -0.26694814715E+02  0.47118897967E+02  0.47000000000E+01 0.  1.
<mgrwt>
<rscale>  0 0.25267620E+03</rscale>
<asrwt>0</asrwt>
<pdfrwt beam="1">  1       21 0.28861382E-01 0.25267620E+03</pdfrwt>
<pdfrwt beam="2">  1       21 0.13089554E-01 0.25267620E+03</pdfrwt>
<totfact> 0.57055668E+05</totfact>
</mgrwt>
</event>
<event>
 8    1  0.9331162E-006  0.3164039E+03  0.7546771E-02  0.1077316E+00
         21   -1    0    0  504  503  0.00000000000E+00  0.00000000000E+00  0.11178489864E+03  0.11178489864E+03  0.00000000000E+00 0.  1.
         21   -1    0    0  503  504 -0.00000000000E+00 -0.00000000000E+00 -0.22389306657E+03  0.22389306657E+03  0.00000000000E+00 0.  1.
         25    2    1    2    0    0  0.60431156615E+01  0.18045004419E+02 -0.15692174894E+03  0.20153038590E+03  0.12501167833E+03 0.  0.
         25    2    1    2    0    0 -0.60431156615E+01 -0.18045004419E+02  0.44813581008E+02  0.13414757931E+03  0.12500069824E+03 0.  0.
          5    1    3    3  501    0  0.71698701133E+01  0.15468134880E+02  0.18749312499E+02  0.25773958820E+02  0.47000000000E+01 0.  1.
         -5    1    3    3    0  501 -0.11267544518E+01  0.25768695392E+01 -0.17567106144E+03  0.17575642708E+03  0.47000000000E+01 0.  1.
          5    1    4    4  502    0  0.39448534482E+02  0.10398488880E+02 -0.23377089596E+02  0.47253505285E+02  0.47000000000E+01 0.  1.
         -5    1    4    4    0  502 -0.45491650143E+02 -0.28443493299E+02  0.68190670604E+02  0.86894074029E+02  0.47000000000E+01 0.  1.
<mgrwt>
<rscale>  0 0.31640394E+03</rscale>
<asrwt>0</asrwt>
<pdfrwt beam="1">  1       21 0.17197677E-01 0.31640394E+03</pdfrwt>
<pdfrwt beam="2">  1       21 0.34445087E-01 0.31640394E+03</pdfrwt>
<totfact> 0.24066580E+05</totfact>
</mgrwt>
</event>
<event>
 8    1  0.9331162E-006  0.2577278E+03  0.7546771E-02  0.1108516E+00
         21   -1    0    0  504  503  0.00000000000E+00  0.00000000000E+00  0.47532311850E+02  0.47532311850E+02  0.00000000000E+00 0.  1.
         21   -1    0    0  503  504 -0.00000000000E+00 -0.00000000000E+00 -0.34936027516E+03  0.34936027516E+03  0.00000000000E+00 0.  1.
         25    2    1    2    0    0 -0.23133626537E+02  0.20908011884E+02 -0.14666787295E+03  0.19521143552E+03  0.12499491976E+03 0.  0.
         25    2    1    2    0    0  0.23133626537E+02 -0.20908011884E+02 -0.15516009036E+03  0.20168115149E+03  0.12501329364E+03 0.  0.
          5    1    3    3  501    0  0.44150659213E+02 -0.72856073873E+01 -0.96720868218E+02  0.10667416338E+03  0.47000000000E+01 0.  1.
         -5    1    3    3    0  501 -0.67284285750E+02  0.28193619272E+02 -0.49947004731E+02  0.88537272141E+02  0.47000000000E+01 0.  1.
          5    1    4    4  502    0  0.20715229211E+02 -0.22480458294E+02 -0.17673078176E+03  0.17941669640E+03  0.47000000000E+01 0.  1.
         -5    1    4    4    0  502  0.24183973266E+01  0.15724464100E+01  0.21570691394E+02  0.22264455093E+02  0.47000000000E+01 0.  1.
<mgrwt>
<rscale>  0 0.25772778E+03</rscale>
<asrwt>0</asrwt>
<pdfrwt beam="1">  1       21 0.73126633E-02 0.25772778E+03</pdfrwt>
<pdfrwt beam="2">  1       21 0.53747735E-01 0.25772778E+03</pdfrwt>
<totfact> 0.45295788E+05</totfact>
</mgrwt>
</event>
<event>
 8    1  0.9331162E-006  0.2573698E+03  0.7546771E-02  0.1108734E+00
         21   -1    0    0  504  503  0.00000000000E+00  0.00000000000E+00  0.26974566319E+03  0.26974566319E+03  0.00000000000E+00 0. -1.
         21   -1    0    0  503  504 -0.00000000000E+00 -0.00000000000E+00 -0.61390457620E+02  0.61390457620E+02  0.00000000000E+00 0. -1.
         25    2    1    2    0    0  0.19930376506E+01  0.21430801068E+02  0.76366968824E+02  0.14806198539E+03  0.12500874432E+03 0.  0.
         25    2    1    2    0    0 -0.19930376506E+01 -0.21430801068E+02  0.13198823675E+03  0.18307413542E+03  0.12502796882E+03 0.  0.
          5    1    3    3  501    0  0.16889567671E+02  0.43943919048E+02  0.10079898506E+03  0.11135012756E+03  0.47000000000E+01 0. -1.
         -5    1    3    3    0  501 -0.14896530020E+02 -0.22513117980E+02 -0.24432016239E+02  0.36711857830E+02  0.47000000000E+01 0. -1.
          5    1    4    4  502    0 -0.12659725341E+02  0.41955187408E+02  0.10132370403E+02  0.45224565516E+02  0.47000000000E+01 0. -1.
         -5    1    4    4    0  502  0.10666687690E+02 -0.63385988476E+02  0.12185586634E+03  0.13784956991E+03  0.47000000000E+01 0. -1.
<mgrwt>
<rscale>  0 0.25736985E+03</rscale>
<asrwt>0</asrwt>
<pdfrwt beam="1">  1       21 0.41499332E-01 0.25736985E+03</pdfrwt>
<pdfrwt beam="2">  1       21 0.94446860E-02 0.25736985E+03</pdfrwt>
<totfact> 0.49532874E+05</totfact>
</mgrwt>
</event>
<event>
 8    1  0.9331162E-006  0.2822119E+03  0.7546771E-02  0.1094487E+00
         21   -1    0    0  504  503  0.00000000000E+00  0.00000000000E+00  0.35687345756E+03  0.35687345756E+03  0.00000000000E+00 0.  1.
         21   -1    0    0  503  504 -0.00000000000E+00 -0.00000000000E+00 -0.55792558397E+02  0.55792558397E+02  0.00000000000E+00 0.  1.
         25    2    1    2    0    0  0.20214119325E+02  0.29091859944E+02  0.23103394149E+03  0.26505976716E+03  0.12500020445E+03 0.  0.
         25    2    1    2    0    0 -0.20214119325E+02 -0.29091859944E+02  0.70046957672E+02  0.14760624879E+03  0.12500432580E+03 0.  0.
          5    1    3    3  501    0 -0.40108418318E+01 -0.59808904234E+01 -0.13929988521E+02  0.16370475944E+02  0.47000000000E+01 0. -1.
         -5    1    3    3    0  501  0.24224961157E+02  0.35072750368E+02  0.24496393001E+03  0.24868929122E+03  0.47000000000E+01 0. -1.
          5    1    4    4  502    0 -0.45232249019E+02 -0.15958304702E+02  0.96975884418E+02  0.10829144010E+03  0.47000000000E+01 0. -1.
         -5    1    4    4    0  502  0.25018129694E+02 -0.13133555242E+02 -0.26928926747E+02  0.39314808691E+02  0.47000000000E+01 0. -1.
<mgrwt>
<rscale>  0 0.28221186E+03</rscale>
<asrwt>0</asrwt>
<pdfrwt beam="1">  1       21 0.54903607E-01 0.28221186E+03</pdfrwt>
<pdfrwt beam="2">  1       21 0.85834707E-02 0.28221186E+03</pdfrwt>
<totfact> 0.32531778E+05</totfact>
</mgrwt>
</event>
<event>
 8    1  0.9331162E-006  0.3891673E+03  0.7546771E-02  0.1047597E+00
         21   -1    0    0  504  503  0.00000000000E+00  0.00000000000E+00  0.46146672592E+02  0.46146672592E+02  0.00000000000E+00 0. -1.
         21   -1    0    0  503  504 -0.00000000000E+00 -0.00000000000E+00 -0.82048810707E+03  0.82048810707E+03  0.00000000000E+00 0. -1.
         25    2    1    2    0    0  0.89877519303E+02 -0.80585064719E+02 -0.58215559265E+03  0.60753703570E+03  0.12499677822E+03 0.  0.
         25    2    1    2    0    0 -0.89877519303E+02  0.80585064719E+02 -0.19218584183E+03  0.25909774396E+03  0.12499728795E+03 0.  0.
          5    1    3    3  501    0  0.13582774402E+02  0.33378905099E+02 -0.13424533682E+03  0.13907747310E+03  0.47000000000E+01 0.  1.
         -5    1    3    3    0  501  0.76294744901E+02 -0.11396396982E+03 -0.44791025583E+03  0.46845956260E+03  0.47000000000E+01 0.  1.
          5    1    4    4  502    0 -0.91798622593E+02  0.88042248547E+01 -0.14864200109E+03  0.17498867385E+03  0.47000000000E+01 0. -1.
         -5    1    4    4    0  502  0.19211032906E+01  0.71780839865E+02 -0.43543840738E+02  0.84109070116E+02  0.47000000000E+01 0. -1.
<mgrwt>
<rscale>  0 0.38916730E+03</rscale>
<asrwt>0</asrwt>
<pdfrwt beam="1">  1       21 0.70994884E-02 0.38916730E+03</pdfrwt>
<pdfrwt beam="2">  1       21 0.12622893E+00 0.38916730E+03</pdfrwt>
<totfact> 0.63947989E+04</totfact>
</mgrwt>
</event>
<event>
 8    1  0.9331162E-006  0.3341177E+03  0.7546771E-02  0.1069329E+00
         21   -1    0    0  504  503  0.00000000000E+00  0.00000000000E+00  0.57473607156E+02  0.57473607156E+02  0.00000000000E+00 0.  1.
         21   -1    0    0  503  504 -0.00000000000E+00 -0.00000000000E+00 -0.48559100949E+03  0.48559100949E+03  0.00000000000E+00 0.  1.
         25    2    1    2    0    0 -0.72922312699E+02  0.69308909256E+01 -0.34924771643E+03  0.37810383231E+03  0.12499135824E+03 0.  0.
         25    2    1    2    0    0  0.72922312699E+02 -0.69308909256E+01 -0.78869685906E+02  0.16496078434E+03  0.12500372826E+03 0.  0.
          5    1    3    3  501    0 -0.98131021116E+02  0.26512968545E+02 -0.31510301414E+03  0.33112631174E+03  0.47000000000E+01 0.  1.
         -5    1    3    3    0  501  0.25208708416E+02 -0.19582077620E+02 -0.34144702287E+02  0.46977520562E+02  0.47000000000E+01 0.  1.
          5    1    4    4  502    0  0.12243381486E+02 -0.61657160688E+02 -0.34632138099E+02  0.71923437373E+02  0.47000000000E+01 0. -1.
         -5    1    4    4    0  502  0.60678931214E+02  0.54726269762E+02 -0.44237547807E+02  0.93037346970E+02  0.47000000000E+01 0. -1.
<mgrwt>
<rscale>  0 0.33411775E+03</rscale>
<asrwt>0</asrwt>
<pdfrwt beam="1">  1       21 0.88420929E-02 0.33411775E+03</pdfrwt>
<pdfrwt beam="2">  1       21 0.74706313E-01 0.33411775E+03</pdfrwt>
<totfact> 0.15513030E+05</totfact>
</mgrwt>
</event>
<event>
 8    1  0.9331162E-006  0.2513833E+03  0.7546771E-02  0.1112434E+00
         21   -1    0    0  504  503  0.00000000000E+00  0.00000000000E+00  0.13749925118E+03  0.13749925118E+03  0.00000000000E+00 0. -1.
         21   -1    0    0  503  504 -0.00000000000E+00 -0.00000000000E+00 -0.11489799871E+03  0.11489799871E+03  0.00000000000E+00 0. -1.
         25    2    1    2    0    0  0.84862523692E+01 -0.95651524094E+01  0.82801945448E+01  0.12592697059E+03  0.12500212671E+03 0.  0.
         25    2    1    2    0    0 -0.84862523692E+01  0.95651524094E+01  0.14321057921E+02  0.12647027930E+03  0.12500452082E+03 0.  0.
          5    1    3    3  501    0  0.28519791262E+01 -0.35972696739E+02 -0.49815003921E+02  0.61691112093E+02  0.47000000000E+01 0.  1.
         -5    1    3    3    0  501  0.56342732430E+01  0.26407544330E+02  0.58095198466E+02  0.64235858501E+02  0.47000000000E+01 0.  1.
          5    1    4    4  502    0 -0.56808374569E+02  0.22192267452E+02  0.36921378140E+02  0.71449047016E+02  0.47000000000E+01 0.  1.
         -5    1    4    4    0  502  0.48322122199E+02 -0.12627115043E+02 -0.22600320219E+02  0.55021232285E+02  0.47000000000E+01 0.  1.
<mgrwt>
<rscale>  0 0.25138328E+03</rscale>
<asrwt>0</asrwt>
<pdfrwt beam="1">  1       21 0.21153731E-01 0.25138328E+03</pdfrwt>
<pdfrwt beam="2">  1       21 0.17676615E-01 0.25138328E+03</pdfrwt>
<totfact> 0.59712096E+05</totfact>
</mgrwt>
</event>
<event>
 8    1  0.9331162E-006  0.5079064E+03  0.7546771E-02  0.1011736E+00
         21   -1    0    0  504  503  0.00000000000E+00  0.00000000000E+00  0.91073174441E+02  0.91073174441E+02  0.00000000000E+00 0. -1.
         21   -1    0    0  503  504 -0.00000000000E+00 -0.00000000000E+00 -0.70813649751E+03  0.70813649751E+03  0.00000000000E+00 0. -1.
         25    2    1    2    0    0  0.17476484606E+03  0.69974920796E+02 -0.49086943433E+03  0.54038638400E+03  0.12500160598E+03 0.  0.
         25    2    1    2    0    0 -0.17476484606E+03 -0.69974920796E+02 -0.12619388874E+03  0.25882328795E+03  0.12500142348E+03 0.  0.
          5    1    3    3  501    0  0.17315848473E+03  0.36204107089E+02 -0.46506424735E+03  0.49759566152E+03  0.47000000000E+01 0.  1.
         -5    1    3    3    0  501  0.16063613276E+01  0.33770813707E+02 -0.25805186983E+02  0.42790722480E+02  0.47000000000E+01 0.  1.
          5    1    4    4  502    0 -0.13205099839E+03 -0.10467219358E+03 -0.10993099144E+03  0.20124772586E+03  0.47000000000E+01 0.  1.
         -5    1    4    4    0  502 -0.42713847670E+02  0.34697272784E+02 -0.16262897295E+02  0.57575562089E+02  0.47000000000E+01 0.  1.
<mgrwt>
<rscale>  0 0.50790644E+03</rscale>
<asrwt>0</asrwt>
<pdfrwt beam="1">  1       21 0.14011258E-01 0.50790644E+03</pdfrwt>
<pdfrwt beam="2">  1       21 0.10894408E+00 0.50790644E+03</pdfrwt>
<totfact> 0.26496765E+04</totfact>
</mgrwt>
</event>
<event>
 8    1  0.9331162E-006  0.3259658E+03  0.7546771E-02  0.1072936E+00
         21   -1    0    0  504  503  0.00000000000E+00  0.00000000000E+00  0.77323200407E+02  0.77323200407E+02  0.00000000000E+00 0. -1.
         21   -1    0    0  503  504 -0.00000000000E+00 -0.00000000000E+00 -0.34353761331E+03  0.34353761331E+03  0.00000000000E+00 0. -1.
         25    2    1    2    0    0 -0.10567061417E+02 -0.43383399857E+02 -0.25521781418E+03  0.28767065679E+03  0.12499796772E+03 0.  0.
         25    2    1    2    0    0  0.10567061417E+02  0.43383399857E+02 -0.10996598728E+02  0.13319015693E+03  0.12499964220E+03 0.  0.
          5    1    3    3  501    0  0.19031206079E+02 -0.45611101487E+02 -0.25157043722E+02  0.55655424107E+02  0.47000000000E+01 0. -1.
         -5    1    3    3    0  501 -0.29598267496E+02  0.22277016305E+01 -0.23006077046E+03  0.23201523268E+03  0.47000000000E+01 0. -1.
          5    1    4    4  502    0 -0.53839981166E+02  0.36198553297E+02 -0.18892312390E+02  0.67735428693E+02  0.47000000000E+01 0. -1.
         -5    1    4    4    0  502  0.64407042584E+02  0.71848465602E+01  0.78957136626E+01  0.65454728238E+02  0.47000000000E+01 0. -1.
<mgrwt>
<rscale>  0 0.32596581E+03</rscale>
<asrwt>0</asrwt>
<pdfrwt beam="1">  1       21 0.11895877E-01 0.32596581E+03</pdfrwt>
<pdfrwt beam="2">  1       21 0.52851940E-01 0.32596581E+03</pdfrwt>
<totfact> 0.19520572E+05</totfact>
</mgrwt>
</event>
<event>
 8    1  0.9331162E-006  0.2713642E+03  0.7546771E-02  0.1100501E+00
         21   -1    0    0  504  503  0.00000000000E+00  0.00000000000E+00  0.46627842574E+02  0.46627842574E+02  0.00000000000E+00 0. -1.
         21   -1    0    0  503  504 -0.00000000000E+00 -0.00000000000E+00 -0.39482067756E+03  0.39482067756E+03  0.00000000000E+00 0. -1.
         25    2    1    2    0    0  0.51623416333E+01  0.37638084068E+02 -0.23368432671E+03  0.26772284125E+03  0.12499552005E+03 0.  0.
         25    2    1    2    0    0 -0.51623416333E+01 -0.37638084068E+02 -0.11450850828E+03  0.17372567889E+03  0.12500055157E+03 0.  0.
          5    1    3    3  501    0 -0.56902423539E+02  0.19373137247E+01 -0.12568679843E+03  0.13806121935E+03  0.47000000000E+01 0. -1.
         -5    1    3    3    0  501  0.62064765172E+02  0.35700770343E+02 -0.10799752828E+03  0.12966162190E+03  0.47000000000E+01 0. -1.
          5    1    4    4  502    0 -0.19764348211E+02 -0.52900801625E+02 -0.13344001163E+03  0.14497396655E+03  0.47000000000E+01 0.  1.
         -5    1    4    4    0  502  0.14602006578E+02  0.15262717557E+02  0.18931503351E+02  0.28751712339E+02  0.47000000000E+01 0.  1.
<mgrwt>
<rscale>  0 0.27136423E+03</rscale>
<asrwt>0</asrwt>
<pdfrwt beam="1">  1       21 0.71735142E-02 0.27136423E+03</pdfrwt>
<pdfrwt beam="2">  1       21 0.60741643E-01 0.27136423E+03</pdfrwt>
<totfact> 0.35924693E+05</totfact>
</mgrwt>
</event>
<event>
 8    1  0.9331162E-006  0.3027266E+03  0.7546771E-02  0.1083885E+00
         21   -1    0    0  504  503  0.00000000000E+00  0.00000000000E+00  0.34814692444E+03  0.34814692444E+03  0.00000000000E+00 0.  1.
         21   -1    0    0  503  504 -0.00000000000E+00 -0.00000000000E+00 -0.65807993897E+02  0.65807993897E+02  0.00000000000E+00 0.  1.
         25    2    1    2    0    0  0.37604640895E+02  0.41624009526E+02  0.22915589716E+03  0.26698897892E+03  0.12499608985E+03 0.  0.
         25    2    1    2    0    0 -0.37604640895E+02 -0.41624009526E+02  0.53183033384E+02  0.14696593941E+03  0.12499554041E+03 0.  0.
          5    1    3    3  501    0  0.29910210389E+02 -0.41665965618E+02  0.10844949842E+03  0.12005855690E+03  0.47000000000E+01 0.  1.
         -5    1    3    3    0  501  0.76944305062E+01  0.83289975144E+02  0.12070639874E+03  0.14693042202E+03  0.47000000000E+01 0.  1.
          5    1    4    4  502    0 -0.59483262990E+02 -0.13831896137E+02  0.81121257874E+02  0.10164806150E+03  0.47000000000E+01 0.  1.
         -5    1    4    4    0  502  0.21878622095E+02 -0.27792113389E+02 -0.27938224490E+02  0.45317877919E+02  0.47000000000E+01 0.  1.
<mgrwt>
<rscale>  0 0.30272661E+03</rscale>
<asrwt>0</asrwt>
<pdfrwt beam="1">  1       21 0.53561064E-01 0.30272661E+03</pdfrwt>
<pdfrwt beam="2">  1       21 0.10124307E-01 0.30272661E+03</pdfrwt>
<totfact> 0.25477089E+05</totfact>
</mgrwt>
</event>
<event>
 8    1  0.9331162E-006  0.3491377E+03  0.7546771E-02  0.1062970E+00
         21   -1    0    0  504  503  0.00000000000E+00  0.00000000000E+00  0.53366459029E+03  0.53366459029E+03  0.00000000000E+00 0.  1.
         21   -1    0    0  503  504 -0.00000000000E+00 -0.00000000000E+00 -0.57103817559E+02  0.57103817559E+02  0.00000000000E+00 0.  1.
         25    2    1    2    0    0 -0.29590472298E+02  0.92874845087E+02  0.11453973729E+03  0.19556386977E+03  0.12499817134E+03 0.  0.
         25    2    1    2    0    0  0.29590472298E+02 -0.92874845087E+02  0.36202103544E+03  0.39520453808E+03  0.12500425560E+03 0.  0.
          5    1    3    3  501    0 -0.14884326704E+02  0.29277183198E+02  0.12496456536E+03  0.12929396441E+03  0.47000000000E+01 0. -1.
         -5    1    3    3    0  501 -0.14706145595E+02  0.63597661889E+02 -0.10424828069E+02  0.66269905358E+02  0.47000000000E+01 0. -1.
          5    1    4    4  502    0  0.33257961046E+02 -0.53480356710E+02  0.49731978650E+02  0.80384079439E+02  0.47000000000E+01 0.  1.
         -5    1    4    4    0  502 -0.36674887474E+01 -0.39394488377E+02  0.31228905679E+03  0.31482045864E+03  0.47000000000E+01 0.  1.
<mgrwt>
<rscale>  0 0.34913771E+03</rscale>
<asrwt>0</asrwt>
<pdfrwt beam="1">  1       21 0.82102241E-01 0.34913771E+03</pdfrwt>
<pdfrwt beam="2">  1       21 0.87852031E-02 0.34913771E+03</pdfrwt>
<totfact> 0.12603211E+05</totfact>
</mgrwt>
</event>
<event>
 8    1  0.9331162E-006  0.3328454E+03  0.7546771E-02  0.1069885E+00
         21   -1    0    0  504  503  0.00000000000E+00  0.00000000000E+00  0.30579572144E+02  0.30579572144E+02  0.00000000000E+00 0.  1.
         21   -1    0    0  503  504 -0.00000000000E+00 -0.00000000000E+00 -0.90571932664E+03  0.90571932664E+03  0.00000000000E+00 0.  1.
         25    2    1    2    0    0  0.62602022618E+02  0.32376209074E+02 -0.20048394267E+03  0.24654601204E+03  0.12499557046E+03 0.  0.
         25    2    1    2    0    0 -0.62602022618E+02 -0.32376209074E+02 -0.67465581183E+03  0.68975288675E+03  0.12502539018E+03 0.  0.
          5    1    3    3  501    0  0.13247366626E+02 -0.45235072112E+02 -0.42302833754E+02  0.63508457824E+02  0.47000000000E+01 0.  1.
         -5    1    3    3    0  501  0.49354655993E+02  0.77611281186E+02 -0.15818110891E+03  0.18303755421E+03  0.47000000000E+01 0.  1.
          5    1    4    4  502    0 -0.58603253301E+02 -0.63240568697E+01 -0.11368271789E+03  0.12814127102E+03  0.47000000000E+01 0.  1.
         -5    1    4    4    0  502 -0.39987693171E+01 -0.26052152204E+02 -0.56097309394E+03  0.56161161573E+03  0.47000000000E+01 0.  1.
<mgrwt>
<rscale>  0 0.33284537E+03</rscale>
<asrwt>0</asrwt>
<pdfrwt beam="1">  1       21 0.47045497E-02 0.33284537E+03</pdfrwt>
<pdfrwt beam="2">  1       21 0.13934143E+00 0.33284537E+03</pdfrwt>
<totfact> 0.10251255E+05</totfact>
</mgrwt>
</event>
<event>
 8    1  0.9331162E-006  0.2826552E+03  0.7546771E-02  0.1094247E+00
         21   -1    0    0  504  503  0.00000000000E+00  0.00000000000E+00  0.31103588244E+03  0.31103588244E+03  0.00000000000E+00 0. -1.
         21   -1    0    0  503  504 -0.00000000000E+00 -0.00000000000E+00 -0.64216043686E+02  0.64216043686E+02  0.00000000000E+00 0. -1.
         25    2    1    2    0    0 -0.32270557102E+02  0.39058069345E+02  0.17944400370E+03  0.22448271250E+03  0.12500166443E+03 0.  0.
         25    2    1    2    0    0  0.32270557102E+02 -0.39058069345E+02  0.67375835049E+02  0.15076921362E+03  0.12499972396E+03 0.  0.
          5    1    3    3  501    0 -0.54034824395E+02  0.63231972567E+01  0.16862584871E+02  0.57150519153E+02  0.47000000000E+01 0.  1.
         -5    1    3    3    0  501  0.21764267293E+02  0.32734872088E+02  0.16258141883E+03  0.16733219335E+03  0.47000000000E+01 0.  1.
          5    1    4    4  502    0 -0.25082878427E+02 -0.65653477622E+02  0.44783348491E+02  0.83469564609E+02  0.47000000000E+01 0. -1.
         -5    1    4    4    0  502  0.57353435528E+02  0.26595408278E+02  0.22592486558E+02  0.67299649013E+02  0.47000000000E+01 0. -1.
<mgrwt>
<rscale>  0 0.28265522E+03</rscale>
<asrwt>0</asrwt>
<pdfrwt beam="1">  1       21 0.47851673E-01 0.28265522E+03</pdfrwt>
<pdfrwt beam="2">  1       21 0.98793915E-02 0.28265522E+03</pdfrwt>
<totfact> 0.33900510E+05</totfact>
</mgrwt>
</event>
<event>
 8    1  0.9331162E-006  0.2926536E+03  0.7546771E-02  0.1088972E+00
         21   -1    0    0  504  503  0.00000000000E+00  0.00000000000E+00  0.59781096181E+02  0.59781096181E+02  0.00000000000E+00 0.  1.
         21   -1    0    0  503  504 -0.00000000000E+00 -0.00000000000E+00 -0.35816550353E+03  0.35816550353E+03  0.00000000000E+00 0.  1.
         25    2    1    2    0    0 -0.46829493947E+02 -0.46372231233E+02 -0.94939964837E+02  0.17024032946E+03  0.12499915007E+03 0.  0.
         25    2    1    2    0    0  0.46829493947E+02  0.46372231233E+02 -0.20344444251E+03  0.24770627025E+03  0.12500147919E+03 0.  0.
          5    1    3    3  501    0 -0.63450002613E+02 -0.80146364416E+02 -0.59748113840E+02  0.11849586351E+03  0.47000000000E+01 0.  1.
         -5    1    3    3    0  501  0.16620508666E+02  0.33774133182E+02 -0.35191850997E+02  0.51744465956E+02  0.47000000000E+01 0.  1.
          5    1    4    4  502    0 -0.23475996546E+02  0.18767690793E+02 -0.15476135334E+03  0.15772290613E+03  0.47000000000E+01 0. -1.
         -5    1    4    4    0  502  0.70305490493E+02  0.27604540440E+02 -0.48683089173E+02  0.89983364116E+02  0.47000000000E+01 0. -1.
<mgrwt>
<rscale>  0 0.29265356E+03</rscale>
<asrwt>0</asrwt>
<pdfrwt beam="1">  1       21 0.91970917E-02 0.29265356E+03</pdfrwt>
<pdfrwt beam="2">  1       21 0.55102385E-01 0.29265356E+03</pdfrwt>
<totfact> 0.28510035E+05</totfact>
</mgrwt>
</event>
<event>
 8    1  0.9331162E-006  0.3737076E+03  0.7546771E-02  0.1053284E+00
         21   -1    0    0  504  503  0.00000000000E+00  0.00000000000E+00  0.74830363215E+02  0.74830363215E+02  0.00000000000E+00 0.  1.
         21   -1    0    0  503  504 -0.00000000000E+00 -0.00000000000E+00 -0.46657997316E+03  0.46657997316E+03  0.00000000000E+00 0.  1.
         25    2    1    2    0    0 -0.65666375512E+02  0.10359226938E+02 -0.19215583205E+02  0.14287639887E+03  0.12500016105E+03 0.  0.
         25    2    1    2    0    0  0.65666375512E+02 -0.10359226938E+02 -0.37253402675E+03  0.39853393751E+03  0.12501324652E+03 0.  0.
          5    1    3    3  501    0 -0.40223933858E+01 -0.47129573377E+02 -0.32267936995E+02  0.57451597830E+02  0.47000000000E+01 0. -1.
         -5    1    3    3    0  501 -0.61643982126E+02  0.57488800315E+02  0.13052353790E+02  0.85424801044E+02  0.47000000000E+01 0. -1.
          5    1    4    4  502    0  0.43703095178E+02  0.41145311479E+02 -0.30402763682E+03  0.30993191370E+03  0.47000000000E+01 0. -1.
         -5    1    4    4    0  502  0.21963280334E+02 -0.51504538417E+02 -0.68506389930E+02  0.88602023802E+02  0.47000000000E+01 0. -1.
<mgrwt>
<rscale>  0 0.37370763E+03</rscale>
<asrwt>0</asrwt>
<pdfrwt beam="1">  1       21 0.11512364E-01 0.37370763E+03</pdfrwt>
<pdfrwt beam="2">  1       21 0.71781532E-01 0.37370763E+03</pdfrwt>
<totfact> 0.10486870E+05</totfact>
</mgrwt>
</event>
<event>
 8    1  0.9331162E-006  0.3214105E+03  0.7546771E-02  0.1075002E+00
         21   -1    0    0  504  503  0.00000000000E+00  0.00000000000E+00  0.68151662373E+02  0.68151662373E+02  0.00000000000E+00 0. -1.
         21   -1    0    0  503  504 -0.00000000000E+00 -0.00000000000E+00 -0.37895159034E+03  0.37895159034E+03  0.00000000000E+00 0. -1.
         25    2    1    2    0    0 -0.79618430207E+01 -0.13926248245E+02 -0.16788217250E+02  0.12721148995E+03  0.12507432831E+03 0.  0.
         25    2    1    2    0    0  0.79618430207E+01  0.13926248245E+02 -0.29401171072E+03  0.31989176277E+03  0.12502208810E+03 0.  0.
          5    1    3    3  501    0  0.26704089054E+02 -0.39174851327E+02 -0.52725101888E+02  0.71061970968E+02  0.47000000000E+01 0.  1.
         -5    1    3    3    0  501 -0.34665932074E+02  0.25248603083E+02  0.35936884638E+02  0.56149518980E+02  0.47000000000E+01 0.  1.
          5    1    4    4  502    0  0.39108756812E+02 -0.10966464574E+02 -0.25053102608E+02  0.47953166266E+02  0.47000000000E+01 0.  1.
         -5    1    4    4    0  502 -0.31146913791E+02  0.24892712819E+02 -0.26895860811E+03  0.27193859650E+03  0.47000000000E+01 0.  1.
<mgrwt>
<rscale>  0 0.32141052E+03</rscale>
<asrwt>0</asrwt>
<pdfrwt beam="1">  1       21 0.10484871E-01 0.32141052E+03</pdfrwt>
<pdfrwt beam="2">  1       21 0.58300245E-01 0.32141052E+03</pdfrwt>
<totfact> 0.19870147E+05</totfact>
</mgrwt>
</event>
<event>
 8    1  0.9331162E-006  0.3958584E+03  0.7546771E-02  0.1045223E+00
         21   -1    0    0  504  503  0.00000000000E+00  0.00000000000E+00  0.18708579950E+03  0.18708579950E+03  0.00000000000E+00 0. -1.
         21   -1    0    0  503  504 -0.00000000000E+00 -0.00000000000E+00 -0.20940104055E+03  0.20940104055E+03  0.00000000000E+00 0. -1.
         25    2    1    2    0    0  0.10489759776E+03  0.11192105118E+03 -0.15664535532E+02  0.19849673837E+03  0.12500299899E+03 0.  0.
         25    2    1    2    0    0 -0.10489759776E+03 -0.11192105118E+03 -0.66507055149E+01  0.19799010168E+03  0.12500408299E+03 0.  0.
          5    1    3    3  501    0  0.40751470310E+02  0.65852217110E+02  0.52820296415E+02  0.93857714356E+02  0.47000000000E+01 0.  1.
         -5    1    3    3    0  501  0.64146127451E+02  0.46068834073E+02 -0.68484831948E+02  0.10463902401E+03  0.47000000000E+01 0.  1.
          5    1    4    4  502    0 -0.41997440103E+01 -0.46524327285E+01  0.42178461275E+02  0.42899831882E+02  0.47000000000E+01 0. -1.
         -5    1    4    4    0  502 -0.10069785375E+03 -0.10726861845E+03 -0.48829166789E+02  0.15509026979E+03  0.47000000000E+01 0. -1.
<mgrwt>
<rscale>  0 0.39585836E+03</rscale>
<asrwt>0</asrwt>
<pdfrwt beam="1">  1       21 0.28782431E-01 0.39585836E+03</pdfrwt>
<pdfrwt beam="2">  1       21 0.32215545E-01 0.39585836E+03</pdfrwt>
<totfact> 0.10099592E+05</totfact>
</mgrwt>
</event>
<event>
 8    1  0.9331162E-006  0.2973541E+03  0.7546771E-02  0.1086571E+00
         21   -1    0    0  504  503  0.00000000000E+00  0.00000000000E+00  0.22600936279E+02  0.22600936279E+02  0.00000000000E+00 0. -1.
         21   -1    0    0  503  504 -0.00000000000E+00 -0.00000000000E+00 -0.97805103439E+03  0.97805103439E+03  0.00000000000E+00 0. -1.
         25    2    1    2    0    0 -0.26731058191E+02  0.15092646536E+02 -0.72814379430E+03  0.73943242402E+03  0.12499834822E+03 0.  0.
         25    2    1    2    0    0  0.26731058191E+02 -0.15092646536E+02 -0.22730630381E+03  0.26121954665E+03  0.12500063339E+03 0.  0.
          5    1    3    3  501    0 -0.56486051004E+02  0.42450223792E+02 -0.25835263056E+03  0.26788218898E+03  0.47000000000E+01 0. -1.
         -5    1    3    3    0  501  0.29754992813E+02 -0.27357577256E+02 -0.46979116375E+03  0.47155023504E+03  0.47000000000E+01 0. -1.
          5    1    4    4  502    0  0.60548465734E+02 -0.65404971071E+01 -0.21566343610E+03  0.22414660933E+03  0.47000000000E+01 0.  1.
         -5    1    4    4    0  502 -0.33817407543E+02 -0.85521494290E+01 -0.11642867709E+02  0.37072937317E+02  0.47000000000E+01 0.  1.
<mgrwt>
<rscale>  0 0.29735413E+03</rscale>
<asrwt>0</asrwt>
<pdfrwt beam="1">  1       21 0.34770663E-02 0.29735413E+03</pdfrwt>
<pdfrwt beam="2">  1       21 0.15046943E+00 0.29735413E+03</pdfrwt>
<totfact> 0.14106667E+05</totfact>
</mgrwt>
</event>
<event>
 8    1  0.9331162E-006  0.2677190E+03  0.7546771E-02  0.1102592E+00
         21   -1    0    0  504  503  0.00000000000E+00  0.00000000000E+00  0.22792712532E+03  0.22792712532E+03  0.00000000000E+00 0. -1.
         21   -1    0    0  503  504 -0.00000000000E+00 -0.00000000000E+00 -0.78614423747E+02  0.78614423747E+02  0.00000000000E+00 0. -1.
         25    2    1    2    0    0  0.40650625965E+02  0.21511354993E+02  0.59365066721E+02  0.14582349884E+03  0.12500027953E+03 0.  0.
         25    2    1    2    0    0 -0.40650625965E+02 -0.21511354993E+02  0.89947634851E+02  0.16071805023E+03  0.12499801146E+03 0.  0.
          5    1    3    3  501    0  0.46928856658E+02 -0.39980184111E+02  0.56518537488E+02  0.83768536985E+02  0.47000000000E+01 0. -1.
         -5    1    3    3    0  501 -0.62782306933E+01  0.61491539104E+02  0.28465292335E+01  0.62054961854E+02  0.47000000000E+01 0. -1.
          5    1    4    4  502    0  0.19031205881E+02  0.87341287200E+01  0.91141784169E+02  0.93634323959E+02  0.47000000000E+01 0. -1.
         -5    1    4    4    0  502 -0.59681831846E+02 -0.30245483713E+02 -0.11941493178E+01  0.67083726269E+02  0.47000000000E+01 0. -1.
<mgrwt>
<rscale>  0 0.26771895E+03</rscale>
<asrwt>0</asrwt>
<pdfrwt beam="1">  1       21 0.35065711E-01 0.26771895E+03</pdfrwt>
<pdfrwt beam="2">  1       21 0.12094527E-01 0.26771895E+03</pdfrwt>
<totfact> 0.44677202E+05</totfact>
</mgrwt>
</event>
<event>
 8    1  0.9331162E-006  0.2836850E+03  0.7546771E-02  0.1093693E+00
         21   -1    0    0  504  503  0.00000000000E+00  0.00000000000E+00  0.67703644244E+02  0.67703644244E+02  0.00000000000E+00 0. -1.
         21   -1    0    0  503  504 -0.00000000000E+00 -0.00000000000E+00 -0.29716706084E+03  0.29716706084E+03  0.00000000000E+00 0. -1.
         25    2    1    2    0    0  0.59410133022E+02 -0.30959547199E+02 -0.11142925779E+03  0.18035753915E+03  0.12499721984E+03 0.  0.
         25    2    1    2    0    0 -0.59410133022E+02  0.30959547199E+02 -0.11803415881E+03  0.18451316593E+03  0.12499995316E+03 0.  0.
          5    1    3    3  501    0  0.22615501765E+02  0.33309976984E+02 -0.96495826064E+02  0.10466398585E+03  0.47000000000E+01 0.  1.
         -5    1    3    3    0  501  0.36794631258E+02 -0.64269524183E+02 -0.14933431729E+02  0.75693553300E+02  0.47000000000E+01 0.  1.
          5    1    4    4  502    0 -0.44541148431E+02  0.73206248412E+02 -0.40607377621E+02  0.94942708132E+02  0.47000000000E+01 0. -1.
         -5    1    4    4    0  502 -0.14868984591E+02 -0.42246701213E+02 -0.77426781186E+02  0.89570457803E+02  0.47000000000E+01 0. -1.
<mgrwt>
<rscale>  0 0.28368499E+03</rscale>
<asrwt>0</asrwt>
<pdfrwt beam="1">  1       21 0.10415945E-01 0.28368499E+03</pdfrwt>
<pdfrwt beam="2">  1       21 0.45718009E-01 0.28368499E+03</pdfrwt>
<totfact> 0.33918969E+05</totfact>
</mgrwt>
</event>
<event>
 8    1  0.9331162E-006  0.4655314E+03  0.7546771E-02  0.1023189E+00
         21   -1    0    0  504  503  0.00000000000E+00  0.00000000000E+00  0.59756307912E+02  0.59756307912E+02  0.00000000000E+00 0.  1.
         21   -1    0    0  503  504 -0.00000000000E+00 -0.00000000000E+00 -0.90668026335E+03  0.90668026335E+03  0.00000000000E+00 0.  1.
         25    2    1    2    0    0 -0.11566055329E+02 -0.35360021845E+02 -0.23221948740E+02  0.13247333308E+03  0.12500328113E+03 0.  0.
         25    2    1    2    0    0  0.11566055329E+02  0.35360021845E+02 -0.82370200670E+03  0.83396323818E+03  0.12500232804E+03 0.  0.
          5    1    3    3  501    0  0.95363938947E+01  0.10315548083E+02 -0.65148432071E+02  0.66811387817E+02  0.47000000000E+01 0. -1.
         -5    1    3    3    0  501 -0.21102449223E+02 -0.45675569929E+02  0.41926483331E+02  0.65661945265E+02  0.47000000000E+01 0. -1.
          5    1    4    4  502    0  0.43357158651E+01  0.27173891260E+02 -0.82137260040E+03  0.82184685768E+03  0.47000000000E+01 0.  1.
         -5    1    4    4    0  502  0.72303394635E+01  0.81861305852E+01 -0.23294063037E+01  0.12116380501E+02  0.47000000000E+01 0.  1.
<mgrwt>
<rscale>  0 0.46553137E+03</rscale>
<asrwt>0</asrwt>
<pdfrwt beam="1">  1       21 0.91932777E-02 0.46553137E+03</pdfrwt>
<pdfrwt beam="2">  1       21 0.13948928E+00 0.46553137E+03</pdfrwt>
<totfact> 0.30563172E+04</totfact>
</mgrwt>
</event>
<event>
 8    1  0.9331162E-006  0.2714339E+03  0.7546771E-02  0.1100462E+00
         21   -1    0    0  504  503  0.00000000000E+00  0.00000000000E+00  0.17534349842E+03  0.17534349842E+03  0.00000000000E+00 0. -1.
         21   -1    0    0  503  504 -0.00000000000E+00 -0.00000000000E+00 -0.10504578384E+03  0.10504578384E+03  0.00000000000E+00 0. -1.
         25    2    1    2    0    0  0.26777378637E+02  0.16108960341E+02  0.79181497995E+02  0.15123759861E+03  0.12500629984E+03 0.  0.
         25    2    1    2    0    0 -0.26777378637E+02 -0.16108960341E+02 -0.88837834121E+01  0.12915168365E+03  0.12499883669E+03 0.  0.
          5    1    3    3  501    0 -0.19342977140E+02  0.42213225670E+02  0.85752009778E+02  0.97629935814E+02  0.47000000000E+01 0.  1.
         -5    1    3    3    0  501  0.46120355777E+02 -0.26104265329E+02 -0.65705117835E+01  0.53607662796E+02  0.47000000000E+01 0.  1.
          5    1    4    4  502    0  0.43037640771E+02  0.21356855723E+02  0.51499142875E+01  0.48548588308E+02  0.47000000000E+01 0. -1.
         -5    1    4    4    0  502 -0.69815019408E+02 -0.37465816064E+02 -0.14033697700E+02  0.80603095346E+02  0.47000000000E+01 0. -1.
<mgrwt>
<rscale>  0 0.27143393E+03</rscale>
<asrwt>0</asrwt>
<pdfrwt beam="1">  1       21 0.26975923E-01 0.27143393E+03</pdfrwt>
<pdfrwt beam="2">  1       21 0.16160890E-01 0.27143393E+03</pdfrwt>
<totfact> 0.44112829E+05</totfact>
</mgrwt>
</event>
<event>
 8    1  0.9331162E-006  0.3891622E+03  0.7546771E-02  0.1047598E+00
         21   -1    0    0  504  503  0.00000000000E+00  0.00000000000E+00  0.13741483155E+04  0.13741483155E+04  0.00000000000E+00 0. -1.
         21   -1    0    0  503  504 -0.00000000000E+00 -0.00000000000E+00 -0.27552928501E+02  0.27552928501E+02  0.00000000000E+00 0. -1.
         25    2    1    2    0    0  0.92221849896E+02 -0.77398480391E+02  0.35631360015E+03  0.39632606757E+03  0.12497830139E+03 0.  0.
         25    2    1    2    0    0 -0.92221849896E+02  0.77398480391E+02  0.99028178683E+03  0.10053751764E+04  0.12500333459E+03 0.  0.
          5    1    3    3  501    0  0.97886932304E+02 -0.64668667760E+02  0.15487182485E+03  0.19434829621E+03  0.47000000000E+01 0. -1.
         -5    1    3    3    0  501 -0.56650824075E+01 -0.12729812630E+02  0.20144177530E+03  0.20197777137E+03  0.47000000000E+01 0. -1.
          5    1    4    4  502    0 -0.74579011342E+02  0.10308536060E+03  0.57636459652E+03  0.59025999240E+03  0.47000000000E+01 0.  1.
         -5    1    4    4    0  502 -0.17642838554E+02 -0.25686880211E+02  0.41391719031E+03  0.41511518402E+03  0.47000000000E+01 0.  1.
<mgrwt>
<rscale>  0 0.38916223E+03</rscale>
<asrwt>0</asrwt>
<pdfrwt beam="1">  1       21 0.21140738E+00 0.38916223E+03</pdfrwt>
<pdfrwt beam="2">  1       21 0.42389131E-02 0.38916223E+03</pdfrwt>
<totfact> 0.36614566E+04</totfact>
</mgrwt>
</event>
<event>
 8    1  0.9331162E-006  0.2618067E+03  0.7546771E-02  0.1106063E+00
         21   -1    0    0  504  503  0.00000000000E+00  0.00000000000E+00  0.60367765465E+02  0.60367765465E+02  0.00000000000E+00 0.  1.
         21   -1    0    0  503  504 -0.00000000000E+00 -0.00000000000E+00 -0.28385495944E+03  0.28385495944E+03  0.00000000000E+00 0.  1.
         25    2    1    2    0    0 -0.27848848190E+01 -0.36459392920E+02 -0.94343120930E+02  0.16081162130E+03  0.12499084031E+03 0.  0.
         25    2    1    2    0    0  0.27848848190E+01  0.36459392920E+02 -0.12914407305E+03  0.18341110361E+03  0.12499759361E+03 0.  0.
          5    1    3    3  501    0  0.29514766267E+02 -0.50122391895E+01 -0.10903331230E+03  0.11316623684E+03  0.47000000000E+01 0.  1.
         -5    1    3    3    0  501 -0.32299651086E+02 -0.31447153731E+02  0.14690191366E+02  0.47645384461E+02  0.47000000000E+01 0.  1.
          5    1    4    4  502    0  0.15622226642E+02 -0.85514383878E+00  0.21846161538E+02  0.27278746493E+02  0.47000000000E+01 0. -1.
         -5    1    4    4    0  502 -0.12837341823E+02  0.37314536759E+02 -0.15099023459E+03  0.15613235712E+03  0.47000000000E+01 0. -1.
<mgrwt>
<rscale>  0 0.26180672E+03</rscale>
<asrwt>0</asrwt>
<pdfrwt beam="1">  1       21 0.92873485E-02 0.26180672E+03</pdfrwt>
<pdfrwt beam="2">  1       21 0.43669994E-01 0.26180672E+03</pdfrwt>
<totfact> 0.45921002E+05</totfact>
</mgrwt>
</event>
<event>
 8    1  0.9331162E-006  0.3391280E+03  0.7546771E-02  0.1067168E+00
         21   -1    0    0  504  503  0.00000000000E+00  0.00000000000E+00  0.48759668588E+03  0.48759668588E+03  0.00000000000E+00 0.  1.
         21   -1    0    0  503  504 -0.00000000000E+00 -0.00000000000E+00 -0.58966649104E+02  0.58966649104E+02  0.00000000000E+00 0.  1.
         25    2    1    2    0    0  0.47774921093E+02 -0.26740262599E+01  0.38209333325E+03  0.40485764698E+03  0.12499922199E+03 0.  0.
         25    2    1    2    0    0 -0.47774921093E+02  0.26740262599E+01  0.46536703521E+02  0.14170568800E+03  0.12500097494E+03 0.  0.
          5    1    3    3  501    0  0.14343366124E+02  0.54279388160E+02  0.96970620616E+02  0.11214889832E+03  0.47000000000E+01 0. -1.
         -5    1    3    3    0  501  0.33431554969E+02 -0.56953414420E+02  0.28512271264E+03  0.29270874866E+03  0.47000000000E+01 0. -1.
          5    1    4    4  502    0 -0.38003773930E+02 -0.58156626927E+02  0.11203383151E+02  0.70527199593E+02  0.47000000000E+01 0.  1.
         -5    1    4    4    0  502 -0.97711471633E+01  0.60830653187E+02  0.35333320370E+02  0.71178488411E+02  0.47000000000E+01 0.  1.
<mgrwt>
<rscale>  0 0.33912796E+03</rscale>
<asrwt>0</asrwt>
<pdfrwt beam="1">  1       21 0.75014872E-01 0.33912796E+03</pdfrwt>
<pdfrwt beam="2">  1       21 0.90717925E-02 0.33912796E+03</pdfrwt>
<totfact> 0.14668079E+05</totfact>
</mgrwt>
</event>
<event>
 8    1  0.9331162E-006  0.2660697E+03  0.7546771E-02  0.1103550E+00
         21   -1    0    0  504  503  0.00000000000E+00  0.00000000000E+00  0.29013039362E+02  0.29013039362E+02  0.00000000000E+00 0.  1.
         21   -1    0    0  503  504 -0.00000000000E+00 -0.00000000000E+00 -0.61001114808E+03  0.61001114808E+03  0.00000000000E+00 0.  1.
         25    2    1    2    0    0 -0.10955764614E+01 -0.29226921220E+02 -0.37417452627E+03  0.39558500782E+03  0.12500203634E+03 0.  0.
         25    2    1    2    0    0  0.10955764614E+01  0.29226921220E+02 -0.20682358245E+03  0.24343917962E+03  0.12502490435E+03 0.  0.
          5    1    3    3  501    0 -0.14887481045E+01 -0.35207188106E+02 -0.18963366579E+02  0.40292204423E+02  0.47000000000E+01 0.  1.
         -5    1    3    3    0  501  0.39317164308E+00  0.59802668866E+01 -0.35521115969E+03  0.35529280340E+03  0.47000000000E+01 0.  1.
          5    1    4    4  502    0 -0.52486280109E+02  0.32293054315E+02 -0.16188768959E+03  0.17328405869E+03  0.47000000000E+01 0. -1.
         -5    1    4    4    0  502  0.53581856571E+02 -0.30661330952E+01 -0.44935892861E+02  0.70155120931E+02  0.47000000000E+01 0. -1.
<mgrwt>
<rscale>  0 0.26606975E+03</rscale>
<asrwt>0</asrwt>
<pdfrwt beam="1">  1       21 0.44635440E-02 0.26606975E+03</pdfrwt>
<pdfrwt beam="2">  1       21 0.93847880E-01 0.26606975E+03</pdfrwt>
<totfact> 0.30445779E+05</totfact>
</mgrwt>
</event>
<event>
 8    1  0.9331162E-006  0.3965394E+03  0.7546771E-02  0.1044985E+00
         21   -1    0    0  504  503  0.00000000000E+00  0.00000000000E+00  0.15153259998E+03  0.15153259998E+03  0.00000000000E+00 0. -1.
         21   -1    0    0  503  504 -0.00000000000E+00 -0.00000000000E+00 -0.25942188998E+03  0.25942188998E+03  0.00000000000E+00 0. -1.
         25    2    1    2    0    0  0.50412372117E+02 -0.87653641985E+02 -0.17418848927E+03  0.23704469241E+03  0.12499595269E+03 0.  0.
         25    2    1    2    0    0 -0.50412372117E+02  0.87653641985E+02  0.66299199276E+02  0.17390979755E+03  0.12499786255E+03 0.  0.
          5    1    3    3  501    0  0.54294584239E+02 -0.90600878496E+02 -0.57871104199E+02  0.12053039352E+03  0.47000000000E+01 0.  1.
         -5    1    3    3    0  501 -0.38822121226E+01  0.29472365110E+01 -0.11631738507E+03  0.11651429888E+03  0.47000000000E+01 0.  1.
          5    1    4    4  502    0 -0.22173530745E+02  0.23885560403E+02 -0.36779591748E+02  0.49366120271E+02  0.47000000000E+01 0. -1.
         -5    1    4    4    0  502 -0.28238841372E+02  0.63768081583E+02  0.10307879102E+03  0.12454367728E+03  0.47000000000E+01 0. -1.
<mgrwt>
<rscale>  0 0.39653940E+03</rscale>
<asrwt>0</asrwt>
<pdfrwt beam="1">  1       21 0.23312708E-01 0.39653940E+03</pdfrwt>
<pdfrwt beam="2">  1       21 0.39911060E-01 0.39653940E+03</pdfrwt>
<totfact> 0.98684380E+04</totfact>
</mgrwt>
</event>
<event>
 8    1  0.9331162E-006  0.3343140E+03  0.7546771E-02  0.1069244E+00
         21   -1    0    0  504  503  0.00000000000E+00  0.00000000000E+00  0.98381457592E+02  0.98381457592E+02  0.00000000000E+00 0.  1.
         21   -1    0    0  503  504 -0.00000000000E+00 -0.00000000000E+00 -0.28401151465E+03  0.28401151465E+03  0.00000000000E+00 0.  1.
         25    2    1    2    0    0 -0.28264441487E+02  0.84651945613E+02 -0.16827225606E+03  0.22782804496E+03  0.12500094145E+03 0.  0.
         25    2    1    2    0    0  0.28264441487E+02 -0.84651945613E+02 -0.17357800998E+02  0.15456492728E+03  0.12499677172E+03 0.  0.
          5    1    3    3  501    0 -0.53889995559E+02  0.10559923067E+03 -0.11709114165E+03  0.16669659443E+03  0.47000000000E+01 0. -1.
         -5    1    3    3    0  501  0.25625554072E+02 -0.20947285061E+02 -0.51181114403E+02  0.61131450534E+02  0.47000000000E+01 0. -1.
          5    1    4    4  502    0  0.76034419215E+02 -0.33148650608E+02 -0.12235202255E+02  0.83975330405E+02  0.47000000000E+01 0.  1.
         -5    1    4    4    0  502 -0.47769977728E+02 -0.51503295005E+02 -0.51225987432E+01  0.70589596871E+02  0.47000000000E+01 0.  1.
<mgrwt>
<rscale>  0 0.33431402E+03</rscale>
<asrwt>0</asrwt>
<pdfrwt beam="1">  1       21 0.15135609E-01 0.33431402E+03</pdfrwt>
<pdfrwt beam="2">  1       21 0.43694078E-01 0.33431402E+03</pdfrwt>
<totfact> 0.18716396E+05</totfact>
</mgrwt>
</event>
<event>
 8    1  0.9331162E-006  0.2837661E+03  0.7546771E-02  0.1093650E+00
         21   -1    0    0  504  503  0.00000000000E+00  0.00000000000E+00  0.86635216635E+02  0.86635216635E+02  0.00000000000E+00 0.  1.
         21   -1    0    0  503  504 -0.00000000000E+00 -0.00000000000E+00 -0.23236282801E+03  0.23236282801E+03  0.00000000000E+00 0.  1.
         25    2    1    2    0    0 -0.47010474399E+02 -0.23514426817E+02 -0.11978781819E+03  0.18093426654E+03  0.12500069779E+03 0.  0.
         25    2    1    2    0    0  0.47010474399E+02  0.23514426817E+02 -0.25939793184E+02  0.13806377811E+03  0.12500328389E+03 0.  0.
          5    1    3    3  501    0 -0.48972262148E+02 -0.67124053885E+02 -0.10630129826E+03  0.13500361877E+03  0.47000000000E+01 0.  1.
         -5    1    3    3    0  501  0.19617877489E+01  0.43609627067E+02 -0.13486519933E+02  0.45930647764E+02  0.47000000000E+01 0.  1.
          5    1    4    4  502    0  0.74685274382E+02 -0.25421973330E+02 -0.11867950595E+02  0.79919366794E+02  0.47000000000E+01 0. -1.
         -5    1    4    4    0  502 -0.27674799983E+02  0.48936400147E+02 -0.14071842589E+02  0.58144411316E+02  0.47000000000E+01 0. -1.
<mgrwt>
<rscale>  0 0.28376613E+03</rscale>
<asrwt>0</asrwt>
<pdfrwt beam="1">  1       21 0.13328495E-01 0.28376613E+03</pdfrwt>
<pdfrwt beam="2">  1       21 0.35748127E-01 0.28376613E+03</pdfrwt>
<totfact> 0.35941057E+05</totfact>
</mgrwt>
</event>
<event>
 8    1  0.9331162E-006  0.2696746E+03  0.7546771E-02  0.1101466E+00
         21   -1    0    0  504  503  0.00000000000E+00  0.00000000000E+00  0.16612168192E+03  0.16612168192E+03  0.00000000000E+00 0. -1.
         21   -1    0    0  503  504 -0.00000000000E+00 -0.00000000000E+00 -0.10944443668E+03  0.10944443668E+03  0.00000000000E+00 0. -1.
         25    2    1    2    0    0 -0.39203631035E+02  0.19045717303E+01  0.60898867652E+02  0.14447779814E+03  0.12499843997E+03 0.  0.
         25    2    1    2    0    0  0.39203631035E+02 -0.19045717303E+01 -0.42216224083E+01  0.13108832046E+03  0.12500309430E+03 0.  0.
          5    1    3    3  501    0  0.42237330888E+02  0.16478490288E+02  0.35594278209E+02  0.57832304156E+02  0.47000000000E+01 0. -1.
         -5    1    3    3    0  501 -0.81440961922E+02 -0.14573918558E+02  0.25304589443E+02  0.86645493985E+02  0.47000000000E+01 0. -1.
          5    1    4    4  502    0  0.10405225994E+02  0.29436705442E+02  0.51745978553E+02  0.60617857531E+02  0.47000000000E+01 0.  1.
         -5    1    4    4    0  502  0.28798405040E+02 -0.31341277172E+02 -0.55967600961E+02  0.70470462926E+02  0.47000000000E+01 0.  1.
<mgrwt>
<rscale>  0 0.26967457E+03</rscale>
<asrwt>0</asrwt>
<pdfrwt beam="1">  1       21 0.25557182E-01 0.26967457E+03</pdfrwt>
<pdfrwt beam="2">  1       21 0.16837606E-01 0.26967457E+03</pdfrwt>
<totfact> 0.45408370E+05</totfact>
</mgrwt>
</event>
<event>
 8    1  0.9331162E-006  0.2990978E+03  0.7546771E-02  0.1085692E+00
         21   -1    0    0  504  503  0.00000000000E+00  0.00000000000E+00  0.15012694164E+02  0.15012694164E+02  0.00000000000E+00 0. -1.
         21   -1    0    0  503  504 -0.00000000000E+00 -0.00000000000E+00 -0.14897310493E+04  0.14897310493E+04  0.00000000000E+00 0. -1.
         25    2    1    2    0    0 -0.67293120694E+02 -0.45856010290E+02 -0.68445141325E+03  0.70052083431E+03  0.12499825771E+03 0.  0.
         25    2    1    2    0    0  0.67293120694E+02  0.45856010290E+02 -0.79026694186E+03  0.80422290913E+03  0.12498604081E+03 0.  0.
          5    1    3    3  501    0 -0.31997515175E+02 -0.64685727654E+02 -0.17329699855E+03  0.18778185228E+03  0.47000000000E+01 0.  1.
         -5    1    3    3    0  501 -0.35295605519E+02  0.18829717364E+02 -0.51115441470E+03  0.51273898203E+03  0.47000000000E+01 0.  1.
          5    1    4    4  502    0  0.10366817247E+03  0.32821314890E+02 -0.62725766918E+03  0.63663066392E+03  0.47000000000E+01 0.  1.
         -5    1    4    4    0  502 -0.36375051772E+02  0.13034695400E+02 -0.16300927268E+03  0.16759224521E+03  0.47000000000E+01 0.  1.
<mgrwt>
<rscale>  0 0.29909782E+03</rscale>
<asrwt>0</asrwt>
<pdfrwt beam="1">  1       21 0.23096449E-02 0.29909782E+03</pdfrwt>
<pdfrwt beam="2">  1       21 0.22918942E+00 0.29909782E+03</pdfrwt>
<totfact> 0.81183141E+04</totfact>
</mgrwt>
</event>
<event>
 8    1  0.9331162E-006  0.3095411E+03  0.7546771E-02  0.1080566E+00
         21   -1    0    0  504  503  0.00000000000E+00  0.00000000000E+00  0.74079577986E+03  0.74079577986E+03  0.00000000000E+00 0. -1.
         21   -1    0    0  503  504 -0.00000000000E+00 -0.00000000000E+00 -0.32335394023E+02  0.32335394023E+02  0.00000000000E+00 0. -1.
         25    2    1    2    0    0  0.45891115666E+02  0.75294890052E+02  0.29550433969E+03  0.33275180506E+03  0.12500253610E+03 0.  0.
         25    2    1    2    0    0 -0.45891115666E+02 -0.75294890052E+02  0.41295604614E+03  0.44037936881E+03  0.12500390982E+03 0.  0.
          5    1    3    3  501    0  0.71931016312E+02  0.45866348710E+02  0.27542768249E+03  0.28837526131E+03  0.47000000000E+01 0. -1.
         -5    1    3    3    0  501 -0.26039900646E+02  0.29428541343E+02  0.20076657199E+02  0.44376543753E+02  0.47000000000E+01 0. -1.
          5    1    4    4  502    0 -0.13371907757E+02 -0.58475711811E+02  0.58209673379E+02  0.83717816883E+02  0.47000000000E+01 0. -1.
         -5    1    4    4    0  502 -0.32519207908E+02 -0.16819178241E+02  0.35474637276E+03  0.35666155193E+03  0.47000000000E+01 0. -1.
<mgrwt>
<rscale>  0 0.30954110E+03</rscale>
<asrwt>0</asrwt>
<pdfrwt beam="1">  1       21 0.11396857E+00 0.30954110E+03</pdfrwt>
<pdfrwt beam="2">  1       21 0.49746765E-02 0.30954110E+03</pdfrwt>
<totfact> 0.15649640E+05</totfact>
</mgrwt>
</event>
<event>
 8    1  0.9331162E-006  0.3381353E+03  0.7546771E-02  0.1067593E+00
         21   -1    0    0  504  503  0.00000000000E+00  0.00000000000E+00  0.31482702670E+03  0.31482702670E+03  0.00000000000E+00 0.  1.
         21   -1    0    0  503  504 -0.00000000000E+00 -0.00000000000E+00 -0.90792307423E+02  0.90792307423E+02  0.00000000000E+00 0.  1.
         25    2    1    2    0    0  0.73029870096E+01 -0.83048790809E+02  0.19031398291E+02  0.15145498530E+03  0.12500393265E+03 0.  0.
         25    2    1    2    0    0 -0.73029870096E+01  0.83048790809E+02  0.20500332099E+03  0.25416434882E+03  0.12499087696E+03 0.  0.
          5    1    3    3  501    0  0.88133623016E+01 -0.10045390158E+03 -0.24873680504E+02  0.10396851293E+03  0.47000000000E+01 0. -1.
         -5    1    3    3    0  501 -0.15103752920E+01  0.17405110774E+02  0.43905078795E+02  0.47486472375E+02  0.47000000000E+01 0. -1.
          5    1    4    4  502    0 -0.14720935954E+02  0.11517636040E+03  0.16921511055E+03  0.20527577448E+03  0.47000000000E+01 0. -1.
         -5    1    4    4    0  502  0.74179489443E+01 -0.32127569595E+02  0.35788210438E+02  0.48888574340E+02  0.47000000000E+01 0. -1.
<mgrwt>
<rscale>  0 0.33813531E+03</rscale>
<asrwt>0</asrwt>
<pdfrwt beam="1">  1       21 0.48434927E-01 0.33813531E+03</pdfrwt>
<pdfrwt beam="2">  1       21 0.13968047E-01 0.33813531E+03</pdfrwt>
<totfact> 0.17482318E+05</totfact>
</mgrwt>
</event>
<event>
 8    1  0.9331162E-006  0.2995438E+03  0.7546771E-02  0.1085469E+00
         21   -1    0    0  504  503  0.00000000000E+00  0.00000000000E+00  0.20336530664E+03  0.20336530664E+03  0.00000000000E+00 0. -1.
         21   -1    0    0  503  504 -0.00000000000E+00 -0.00000000000E+00 -0.11030208794E+03  0.11030208794E+03  0.00000000000E+00 0. -1.
         25    2    1    2    0    0  0.47140252607E+02  0.67031103075E+02  0.36346529767E+02  0.15380688312E+03  0.12498045797E+03 0.  0.
         25    2    1    2    0    0 -0.47140252607E+02 -0.67031103075E+02  0.56716688934E+02  0.15986051146E+03  0.12499291230E+03 0.  0.
          5    1    3    3  501    0 -0.77465422671E+01  0.81222333327E+02 -0.73775154829E+01  0.82058479652E+02  0.47000000000E+01 0.  1.
         -5    1    3    3    0  501  0.54886794874E+02 -0.14191230252E+02  0.43724045250E+02  0.71748403471E+02  0.47000000000E+01 0.  1.
          5    1    4    4  502    0 -0.80933432514E+02 -0.66486275806E+02  0.14917999826E+02  0.10590222891E+03  0.47000000000E+01 0. -1.
         -5    1    4    4    0  502  0.33793179907E+02 -0.54482726913E+00  0.41798689107E+02  0.53958282553E+02  0.47000000000E+01 0. -1.
<mgrwt>
<rscale>  0 0.29954377E+03</rscale>
<asrwt>0</asrwt>
<pdfrwt beam="1">  1       21 0.31286970E-01 0.29954377E+03</pdfrwt>
<pdfrwt beam="2">  1       21 0.16969552E-01 0.29954377E+03</pdfrwt>
<totfact> 0.29978719E+05</totfact>
</mgrwt>
</event>
<event>
 8    1  0.9331162E-006  0.3164044E+03  0.7546771E-02  0.1077316E+00
         21   -1    0    0  504  503  0.00000000000E+00  0.00000000000E+00  0.51534599522E+02  0.51534599522E+02  0.00000000000E+00 0. -1.
         21   -1    0    0  503  504 -0.00000000000E+00 -0.00000000000E+00 -0.48565311780E+03  0.48565311780E+03  0.00000000000E+00 0. -1.
         25    2    1    2    0    0 -0.35017344239E+02 -0.27663003558E+01 -0.37051299392E+03  0.39260580739E+03  0.12500229804E+03 0.  0.
         25    2    1    2    0    0  0.35017344239E+02  0.27663003558E+01 -0.63605524360E+02  0.14458190994E+03  0.12499759652E+03 0.  0.
          5    1    3    3  501    0  0.83879238726E+01 -0.11575164172E+02  0.39065961813E+01  0.15546484690E+02  0.47000000000E+01 0. -1.
         -5    1    3    3    0  501 -0.43405268111E+02  0.88088638164E+01 -0.37441959010E+03  0.37705932269E+03  0.47000000000E+01 0. -1.
          5    1    4    4  502    0  0.74032148223E+02  0.26657890835E+02 -0.58801863622E+02  0.98342011774E+02  0.47000000000E+01 0. -1.
         -5    1    4    4    0  502 -0.39014803985E+02 -0.23891590479E+02 -0.48036607373E+01  0.46239898162E+02  0.47000000000E+01 0. -1.
<mgrwt>
<rscale>  0 0.31640442E+03</rscale>
<asrwt>0</asrwt>
<pdfrwt beam="1">  1       21 0.79283998E-02 0.31640442E+03</pdfrwt>
<pdfrwt beam="2">  1       21 0.74715866E-01 0.31640442E+03</pdfrwt>
<totfact> 0.18878309E+05</totfact>
</mgrwt>
</event>
<event>
 8    1  0.9331162E-006  0.2732656E+03  0.7546771E-02  0.1099425E+00
         21   -1    0    0  504  503  0.00000000000E+00  0.00000000000E+00  0.35429617029E+02  0.35429617029E+02  0.00000000000E+00 0. -1.
         21   -1    0    0  503  504 -0.00000000000E+00 -0.00000000000E+00 -0.52691863699E+03  0.52691863699E+03  0.00000000000E+00 0. -1.
         25    2    1    2    0    0 -0.32287882330E+02 -0.37879197281E+02 -0.19682668784E+03  0.23842003310E+03  0.12500410475E+03 0.  0.
         25    2    1    2    0    0  0.32287882330E+02  0.37879197281E+02 -0.29466233212E+03  0.32392822092E+03  0.12500504552E+03 0.  0.
          5    1    3    3  501    0 -0.26763943471E+02  0.39237350096E+02 -0.35567745250E+02  0.59523380405E+02  0.47000000000E+01 0.  1.
         -5    1    3    3    0  501 -0.55239388584E+01 -0.77116547377E+02 -0.16125894259E+03  0.17889665269E+03  0.47000000000E+01 0.  1.
          5    1    4    4  502    0  0.11195518851E+01 -0.33334735374E+02 -0.19272608988E+03  0.19564737079E+03  0.47000000000E+01 0. -1.
         -5    1    4    4    0  502  0.31168330445E+02  0.71213932655E+02 -0.10193624225E+03  0.12828085013E+03  0.47000000000E+01 0. -1.
<mgrwt>
<rscale>  0 0.27326563E+03</rscale>
<asrwt>0</asrwt>
<pdfrwt beam="1">  1       21 0.54507108E-02 0.27326563E+03</pdfrwt>
<pdfrwt beam="2">  1       21 0.81064399E-01 0.27326563E+03</pdfrwt>
<totfact> 0.30363066E+05</totfact>
</mgrwt>
</event>
<event>
 8    1  0.9331162E-006  0.4771533E+03  0.7546771E-02  0.1019920E+00
         21   -1    0    0  504  503  0.00000000000E+00  0.00000000000E+00  0.62861311349E+03  0.62861311349E+03  0.00000000000E+00 0.  1.
         21   -1    0    0  503  504 -0.00000000000E+00 -0.00000000000E+00 -0.90546666146E+02  0.90546666146E+02  0.00000000000E+00 0.  1.
         25    2    1    2    0    0 -0.38549248453E+02 -0.18417448724E+03  0.38469696324E+03  0.44611996056E+03  0.12499991753E+03 0.  0.
         25    2    1    2    0    0  0.38549248453E+02  0.18417448724E+03  0.15336948410E+03  0.27303981907E+03  0.12498903088E+03 0.  0.
          5    1    3    3  501    0  0.73061039348E+01  0.14782704747E+02  0.61152032367E+02  0.63510381648E+02  0.47000000000E+01 0.  1.
         -5    1    3    3    0  501 -0.45855352388E+02 -0.19895719198E+03  0.32354493087E+03  0.38260957892E+03  0.47000000000E+01 0.  1.
          5    1    4    4  502    0  0.23014932875E+02 -0.77907054631E+01 -0.29821409659E+01  0.24927201840E+02  0.47000000000E+01 0. -1.
         -5    1    4    4    0  502  0.15534315578E+02  0.19196519270E+03  0.15635162507E+03  0.24811261723E+03  0.47000000000E+01 0. -1.
<mgrwt>
<rscale>  0 0.47715332E+03</rscale>
<asrwt>0</asrwt>
<pdfrwt beam="1">  1       21 0.96709707E-01 0.47715332E+03</pdfrwt>
<pdfrwt beam="2">  1       21 0.13930257E-01 0.47715332E+03</pdfrwt>
<totfact> 0.36120089E+04</totfact>
</mgrwt>
</event>
<event>
 8    1  0.9331162E-006  0.4109313E+03  0.7546771E-02  0.1040059E+00
         21   -1    0    0  504  503  0.00000000000E+00  0.00000000000E+00  0.15646479218E+03  0.15646479218E+03  0.00000000000E+00 0.  1.
         21   -1    0    0  503  504 -0.00000000000E+00 -0.00000000000E+00 -0.26981229277E+03  0.26981229277E+03  0.00000000000E+00 0.  1.
         25    2    1    2    0    0  0.89875572573E+02  0.93108487785E+02 -0.15959390635E+03  0.24050564326E+03  0.12500376174E+03 0.  0.
         25    2    1    2    0    0 -0.89875572573E+02 -0.93108487785E+02  0.46246405763E+02  0.18577144170E+03  0.12500195784E+03 0.  0.
          5    1    3    3  501    0  0.37410462587E+02 -0.27260283648E+02 -0.26784548126E+02  0.53685824888E+02  0.47000000000E+01 0.  1.
         -5    1    3    3    0  501  0.52465109986E+02  0.12036877143E+03 -0.13280935823E+03  0.18681981837E+03  0.47000000000E+01 0.  1.
          5    1    4    4  502    0 -0.42302792596E+02 -0.11250833484E+03  0.61785566370E+01  0.12044881167E+03  0.47000000000E+01 0.  1.
         -5    1    4    4    0  502 -0.47572779977E+02  0.19399847059E+02  0.40067849126E+02  0.65322630031E+02  0.47000000000E+01 0.  1.
<mgrwt>
<rscale>  0 0.41093126E+03</rscale>
<asrwt>0</asrwt>
<pdfrwt beam="1">  1       21 0.24071507E-01 0.41093126E+03</pdfrwt>
<pdfrwt beam="2">  1       21 0.41509583E-01 0.41093126E+03</pdfrwt>
<totfact> 0.85296505E+04</totfact>
</mgrwt>
</event>
<event>
 8    1  0.9331162E-006  0.2895291E+03  0.7546771E-02  0.1090595E+00
         21   -1    0    0  504  503  0.00000000000E+00  0.00000000000E+00  0.47007364223E+02  0.47007364223E+02  0.00000000000E+00 0. -1.
         21   -1    0    0  503  504 -0.00000000000E+00 -0.00000000000E+00 -0.44581886824E+03  0.44581886824E+03  0.00000000000E+00 0. -1.
         25    2    1    2    0    0 -0.49958166562E+02  0.38740522228E+02 -0.13719610105E+03  0.19607299348E+03  0.12500080864E+03 0.  0.
         25    2    1    2    0    0  0.49958166562E+02 -0.38740522228E+02 -0.26161540297E+03  0.29675323899E+03  0.12499287703E+03 0.  0.
          5    1    3    3  501    0  0.38958387387E+02  0.96048675232E+01 -0.17384057916E+02  0.43980733254E+02  0.47000000000E+01 0. -1.
         -5    1    3    3    0  501 -0.88916553949E+02  0.29135654704E+02 -0.11981204313E+03  0.15209226023E+03  0.47000000000E+01 0. -1.
          5    1    4    4  502    0 -0.26872000650E+02 -0.12416873242E+02 -0.88990775488E+01  0.31266063731E+02  0.47000000000E+01 0. -1.
         -5    1    4    4    0  502  0.76830167212E+02 -0.26323648986E+02 -0.25271632542E+03  0.26548717526E+03  0.47000000000E+01 0. -1.
<mgrwt>
<rscale>  0 0.28952907E+03</rscale>
<asrwt>0</asrwt>
<pdfrwt beam="1">  1       21 0.72319021E-02 0.28952907E+03</pdfrwt>
<pdfrwt beam="2">  1       21 0.68587519E-01 0.28952907E+03</pdfrwt>
<totfact> 0.27026284E+05</totfact>
</mgrwt>
</event>
<event>
 8    1  0.9331162E-006  0.6445258E+03  0.7546771E-02  0.9817106E-01
         21   -1    0    0  504  503  0.00000000000E+00  0.00000000000E+00  0.75952801255E+03  0.75952801255E+03  0.00000000000E+00 0.  1.
         21   -1    0    0  503  504 -0.00000000000E+00 -0.00000000000E+00 -0.13673411163E+03  0.13673411163E+03  0.00000000000E+00 0.  1.
         25    2    1    2    0    0 -0.24213713429E+03  0.34728593568E+01  0.55058887227E+03  0.61433824900E+03  0.12498370039E+03 0.  0.
         25    2    1    2    0    0  0.24213713429E+03 -0.34728593568E+01  0.72205028637E+02  0.28192387518E+03  0.12500021072E+03 0.  0.
          5    1    3    3  501    0  0.11966550848E+02 -0.11897195827E+02  0.28071542581E+02  0.33088413540E+02  0.47000000000E+01 0. -1.
         -5    1    3    3    0  501 -0.25410368514E+03  0.15370055184E+02  0.52251732969E+03  0.58124983546E+03  0.47000000000E+01 0. -1.
          5    1    4    4  502    0 -0.34046828745E+01 -0.23572118600E+02 -0.25913542699E+01  0.24413966448E+02  0.47000000000E+01 0. -1.
         -5    1    4    4    0  502  0.24554181716E+03  0.20099259244E+02  0.74796382907E+02  0.25750990873E+03  0.47000000000E+01 0. -1.
<mgrwt>
<rscale>  0 0.64452584E+03</rscale>
<asrwt>0</asrwt>
<pdfrwt beam="1">  1       21 0.11685046E+00 0.64452584E+03</pdfrwt>
<pdfrwt beam="2">  1       21 0.21036018E-01 0.64452584E+03</pdfrwt>
<totfact> 0.10022173E+04</totfact>
</mgrwt>
</event>
<event>
 8    1  0.9331162E-006  0.4653991E+03  0.7546771E-02  0.1023227E+00
         21   -1    0    0  504  503  0.00000000000E+00  0.00000000000E+00  0.87041024311E+03  0.87041024311E+03  0.00000000000E+00 0.  1.
         21   -1    0    0  503  504 -0.00000000000E+00 -0.00000000000E+00 -0.62210995402E+02  0.62210995402E+02  0.00000000000E+00 0.  1.
         25    2    1    2    0    0  0.78579072159E+02  0.10475679845E+03  0.69707605331E+03  0.72020137551E+03  0.12500535900E+03 0.  0.
         25    2    1    2    0    0 -0.78579072159E+02 -0.10475679845E+03  0.11112319440E+03  0.21241986300E+03  0.12500070585E+03 0.  0.
          5    1    3    3  501    0  0.82762502032E+02  0.13961711539E+02  0.42718760901E+03  0.43538018378E+03  0.47000000000E+01 0. -1.
         -5    1    3    3    0  501 -0.41834298738E+01  0.90795086909E+02  0.26988844430E+03  0.28482119173E+03  0.47000000000E+01 0. -1.
          5    1    4    4  502    0 -0.13286451734E+02 -0.35792241266E+02  0.11084883427E+03  0.11733357744E+03  0.47000000000E+01 0.  1.
         -5    1    4    4    0  502 -0.65292620424E+02 -0.68964557182E+02  0.27436012083E+00  0.95086285565E+02  0.47000000000E+01 0.  1.
<mgrwt>
<rscale>  0 0.46539913E+03</rscale>
<asrwt>0</asrwt>
<pdfrwt beam="1">  1       21 0.13390926E+00 0.46539913E+03</pdfrwt>
<pdfrwt beam="2">  1       21 0.95709230E-02 0.46539913E+03</pdfrwt>
<totfact> 0.31669642E+04</totfact>
</mgrwt>
</event>
<event>
 8    1  0.9331162E-006  0.2661959E+03  0.7546771E-02  0.1103477E+00
         21   -1    0    0  504  503  0.00000000000E+00  0.00000000000E+00  0.90659088465E+02  0.90659088465E+02  0.00000000000E+00 0.  1.
         21   -1    0    0  503  504 -0.00000000000E+00 -0.00000000000E+00 -0.19540301737E+03  0.19540301737E+03  0.00000000000E+00 0.  1.
         25    2    1    2    0    0  0.20051803641E+02 -0.39327121455E+02 -0.39612041584E+02  0.13835987470E+03  0.12500257508E+03 0.  0.
         25    2    1    2    0    0 -0.20051803641E+02  0.39327121455E+02 -0.65131887326E+02  0.14770223114E+03  0.12500035610E+03 0.  0.
          5    1    3    3  501    0  0.55394075076E+02 -0.10468610775E+02 -0.64809132397E+02  0.86025629943E+02  0.47000000000E+01 0. -1.
         -5    1    3    3    0  501 -0.35342271435E+02 -0.28858510680E+02  0.25197090813E+02  0.52334244757E+02  0.47000000000E+01 0. -1.
          5    1    4    4  502    0  0.25909331827E+02  0.71062545876E+02 -0.45047404630E+02  0.88161996155E+02  0.47000000000E+01 0.  1.
         -5    1    4    4    0  502 -0.45961135469E+02 -0.31735424422E+02 -0.20084482696E+02  0.59540234984E+02  0.47000000000E+01 0.  1.
<mgrwt>
<rscale>  0 0.26619586E+03</rscale>
<asrwt>0</asrwt>
<pdfrwt beam="1">  1       21 0.13947552E-01 0.26619586E+03</pdfrwt>
<pdfrwt beam="2">  1       21 0.30062002E-01 0.26619586E+03</pdfrwt>
<totfact> 0.46825665E+05</totfact>
</mgrwt>
</event>
<event>
 8    1  0.9331162E-006  0.2703393E+03  0.7546771E-02  0.1101086E+00
         21   -1    0    0  504  503  0.00000000000E+00  0.00000000000E+00  0.46069828296E+02  0.46069828296E+02  0.00000000000E+00 0. -1.
         21   -1    0    0  503  504 -0.00000000000E+00 -0.00000000000E+00 -0.39658994158E+03  0.39658994158E+03  0.00000000000E+00 0. -1.
         25    2    1    2    0    0 -0.91213741313E+01  0.34294707574E+02 -0.11427871653E+03  0.17304199161E+03  0.12499831748E+03 0.  0.
         25    2    1    2    0    0  0.91213741313E+01 -0.34294707574E+02 -0.23624139675E+03  0.26961777827E+03  0.12499768953E+03 0.  0.
          5    1    3    3  501    0 -0.20432071191E+02  0.59522758978E+02 -0.12732918041E+03  0.14210995234E+03  0.47000000000E+01 0. -1.
         -5    1    3    3    0  501  0.11310697060E+02 -0.25228051404E+02  0.13050463879E+02  0.30932039264E+02  0.47000000000E+01 0. -1.
          5    1    4    4  502    0  0.49198436575E+02 -0.27353276433E+02 -0.40162278820E+02  0.69309353863E+02  0.47000000000E+01 0. -1.
         -5    1    4    4    0  502 -0.40077062443E+02 -0.69414311419E+01 -0.19607911793E+03  0.20030842441E+03  0.47000000000E+01 0. -1.
<mgrwt>
<rscale>  0 0.27033927E+03</rscale>
<asrwt>0</asrwt>
<pdfrwt beam="1">  1       21 0.70876661E-02 0.27033927E+03</pdfrwt>
<pdfrwt beam="2">  1       21 0.61013836E-01 0.27033927E+03</pdfrwt>
<totfact> 0.36339331E+05</totfact>
</mgrwt>
</event>
<event>
 8    1  0.9331162E-006  0.3731733E+03  0.7546771E-02  0.1053486E+00
         21   -1    0    0  504  503  0.00000000000E+00  0.00000000000E+00  0.11652080645E+04  0.11652080645E+04  0.00000000000E+00 0. -1.
         21   -1    0    0  503  504 -0.00000000000E+00 -0.00000000000E+00 -0.29878414118E+02  0.29878414118E+02  0.00000000000E+00 0. -1.
         25    2    1    2    0    0 -0.86876082148E+02  0.10726679886E+03  0.53023441069E+03  0.56198425886E+03  0.12499662848E+03 0.  0.
         25    2    1    2    0    0  0.86876082148E+02 -0.10726679886E+03  0.60509523967E+03  0.63310221974E+03  0.12499820713E+03 0.  0.
          5    1    3    3  501    0 -0.11286441159E+03  0.78469610984E+02  0.47367550704E+03  0.49324074367E+03  0.47000000000E+01 0.  1.
         -5    1    3    3    0  501  0.25988329442E+02  0.28797187878E+02  0.56558903657E+02  0.68743515183E+02  0.47000000000E+01 0.  1.
          5    1    4    4  502    0  0.34852049468E+02 -0.35436227456E+02  0.48980116574E+02  0.69939498054E+02  0.47000000000E+01 0. -1.
         -5    1    4    4    0  502  0.52024032680E+02 -0.71830571407E+02  0.55611512309E+03  0.56316272169E+03  0.47000000000E+01 0. -1.
<mgrwt>
<rscale>  0 0.37317325E+03</rscale>
<asrwt>0</asrwt>
<pdfrwt beam="1">  1       21 0.17926274E+00 0.37317325E+03</pdfrwt>
<pdfrwt beam="2">  1       21 0.45966800E-02 0.37317325E+03</pdfrwt>
<totfact> 0.52679850E+04</totfact>
</mgrwt>
</event>
<event>
 8    1  0.9331162E-006  0.3401244E+03  0.7546771E-02  0.1066743E+00
         21   -1    0    0  504  503  0.00000000000E+00  0.00000000000E+00  0.30328232490E+03  0.30328232490E+03  0.00000000000E+00 0. -1.
         21   -1    0    0  503  504 -0.00000000000E+00 -0.00000000000E+00 -0.95360507829E+02  0.95360507829E+02  0.00000000000E+00 0. -1.
         25    2    1    2    0    0 -0.35921947700E+02  0.51777277091E+02 -0.92209598205E+01  0.14028541087E+03  0.12499479051E+03 0.  0.
         25    2    1    2    0    0  0.35921947700E+02 -0.51777277091E+02  0.21714277689E+03  0.25835742185E+03  0.12500519638E+03 0.  0.
          5    1    3    3  501    0 -0.54770662849E+02  0.77089459744E+02 -0.33240817095E+02  0.10034765684E+03  0.47000000000E+01 0.  1.
         -5    1    3    3    0  501  0.18848715149E+02 -0.25312182654E+02  0.24019857275E+02  0.39937754030E+02  0.47000000000E+01 0.  1.
          5    1    4    4  502    0  0.59804340847E+01 -0.24837055960E+02  0.21624216657E+03  0.21779671610E+03  0.47000000000E+01 0. -1.
         -5    1    4    4    0  502  0.29941513615E+02 -0.26940221130E+02  0.90061031442E+00  0.40560705751E+02  0.47000000000E+01 0. -1.
<mgrwt>
<rscale>  0 0.34012443E+03</rscale>
<asrwt>0</asrwt>
<pdfrwt beam="1">  1       21 0.46658819E-01 0.34012443E+03</pdfrwt>
<pdfrwt beam="2">  1       21 0.14670848E-01 0.34012443E+03</pdfrwt>
<totfact> 0.17269847E+05</totfact>
</mgrwt>
</event>
<event>
 8    1  0.9331162E-006  0.3109984E+03  0.7546771E-02  0.1079868E+00
         21   -1    0    0  504  503  0.00000000000E+00  0.00000000000E+00  0.17482475361E+03  0.17482475361E+03  0.00000000000E+00 0.  1.
         21   -1    0    0  503  504 -0.00000000000E+00 -0.00000000000E+00 -0.13830990128E+03  0.13830990128E+03  0.00000000000E+00 0.  1.
         25    2    1    2    0    0 -0.61031069936E+02 -0.68586905210E+02  0.69501153254E+01  0.15524832509E+03  0.12499913311E+03 0.  0.
         25    2    1    2    0    0  0.61031069936E+02  0.68586905210E+02  0.29564737003E+02  0.15788632980E+03  0.12500025760E+03 0.  0.
          5    1    3    3  501    0  0.20145581480E+02 -0.68437174600E+02 -0.99895356808E+01  0.72189834073E+02  0.47000000000E+01 0. -1.
         -5    1    3    3    0  501 -0.81176651416E+02 -0.14973060995E+00  0.16939651006E+02  0.83058491020E+02  0.47000000000E+01 0. -1.
          5    1    4    4  502    0 -0.29551154262E+01 -0.33633869226E+02  0.23579366014E+01  0.34170451143E+02  0.47000000000E+01 0. -1.
         -5    1    4    4    0  502  0.63986185362E+02  0.10222077444E+03  0.27206800402E+02  0.12371587866E+03  0.47000000000E+01 0. -1.
<mgrwt>
<rscale>  0 0.31099836E+03</rscale>
<asrwt>0</asrwt>
<pdfrwt beam="1">  1       21 0.26896116E-01 0.31099836E+03</pdfrwt>
<pdfrwt beam="2">  1       21 0.21278446E-01 0.31099836E+03</pdfrwt>
<totfact> 0.26311038E+05</totfact>
</mgrwt>
</event>
<event>
 8    1  0.9331162E-006  0.4204123E+03  0.7546771E-02  0.1036932E+00
         21   -1    0    0  504  503  0.00000000000E+00  0.00000000000E+00  0.63523447882E+03  0.63523447882E+03  0.00000000000E+00 0.  1.
         21   -1    0    0  503  504 -0.00000000000E+00 -0.00000000000E+00 -0.69559558071E+02  0.69559558071E+02  0.00000000000E+00 0.  1.
         25    2    1    2    0    0 -0.35515001436E+02 -0.14769156106E+03  0.40701999136E+03  0.45206701173E+03  0.12500078875E+03 0.  0.
         25    2    1    2    0    0  0.35515001436E+02  0.14769156106E+03  0.15865492939E+03  0.25272702517E+03  0.12500180037E+03 0.  0.
          5    1    3    3  501    0 -0.16095432090E+02 -0.19011815040E+02  0.66722203063E+00  0.25358375944E+02  0.47000000000E+01 0. -1.
         -5    1    3    3    0  501 -0.19419569346E+02 -0.12867974602E+03  0.40635276933E+03  0.42670863578E+03  0.47000000000E+01 0. -1.
          5    1    4    4  502    0  0.54361728870E+02  0.81560625009E+02  0.15531999862E+03  0.18372186884E+03  0.47000000000E+01 0.  1.
         -5    1    4    4    0  502 -0.18846727435E+02  0.66130936047E+02  0.33349307744E+01  0.69005156334E+02  0.47000000000E+01 0.  1.
<mgrwt>
<rscale>  0 0.42041232E+03</rscale>
<asrwt>0</asrwt>
<pdfrwt beam="1">  1       21 0.97728377E-01 0.42041232E+03</pdfrwt>
<pdfrwt beam="2">  1       21 0.10701471E-01 0.42041232E+03</pdfrwt>
<totfact> 0.57741622E+04</totfact>
</mgrwt>
</event>
<event>
 8    1  0.9331162E-006  0.3602031E+03  0.7546771E-02  0.1058503E+00
         21   -1    0    0  504  503  0.00000000000E+00  0.00000000000E+00  0.86369618667E+02  0.86369618667E+02  0.00000000000E+00 0.  1.
         21   -1    0    0  503  504 -0.00000000000E+00 -0.00000000000E+00 -0.37555538407E+03  0.37555538407E+03  0.00000000000E+00 0.  1.
         25    2    1    2    0    0  0.24148958630E+02 -0.51200997599E+02 -0.29418151460E+03  0.32460825645E+03  0.12499216882E+03 0.  0.
         25    2    1    2    0    0 -0.24148958630E+02  0.51200997599E+02  0.49957491982E+01  0.13731674628E+03  0.12500486767E+03 0.  0.
          5    1    3    3  501    0 -0.28802803382E+02  0.28852330425E+02 -0.83043582326E+02  0.92630367695E+02  0.47000000000E+01 0. -1.
         -5    1    3    3    0  501  0.52951762012E+02 -0.80053328024E+02 -0.21113793228E+03  0.23197788876E+03  0.47000000000E+01 0. -1.
          5    1    4    4  502    0  0.12674930350E+02  0.30106823656E+02 -0.54722966000E+02  0.63904363684E+02  0.47000000000E+01 0. -1.
         -5    1    4    4    0  502 -0.36823888980E+02  0.21094173942E+02  0.59718715198E+02  0.73412382599E+02  0.47000000000E+01 0. -1.
<mgrwt>
<rscale>  0 0.36020314E+03</rscale>
<asrwt>0</asrwt>
<pdfrwt beam="1">  1       21 0.13287634E-01 0.36020314E+03</pdfrwt>
<pdfrwt beam="2">  1       21 0.57777750E-01 0.36020314E+03</pdfrwt>
<totfact> 0.13086370E+05</totfact>
</mgrwt>
</event>
<event>
 8    1  0.9331162E-006  0.2779141E+03  0.7546771E-02  0.1096834E+00
         21   -1    0    0  504  503  0.00000000000E+00  0.00000000000E+00  0.28590237370E+03  0.28590237370E+03  0.00000000000E+00 0.  1.
         21   -1    0    0  503  504 -0.00000000000E+00 -0.00000000000E+00 -0.67537268041E+02  0.67537268041E+02  0.00000000000E+00 0.  1.
         25    2    1    2    0    0 -0.93006105875E+01 -0.59574024091E+02  0.10037621244E+03  0.17127763429E+03  0.12500031312E+03 0.  0.
         25    2    1    2    0    0  0.93006105875E+01  0.59574024091E+02  0.11798889322E+03  0.18216200745E+03  0.12500420926E+03 0.  0.
          5    1    3    3  501    0 -0.40714846341E+02  0.24849231847E+02  0.42869568257E+02  0.64304532643E+02  0.47000000000E+01 0.  1.
         -5    1    3    3    0  501  0.31414235753E+02 -0.84423255938E+02  0.57506644181E+02  0.10697310165E+03  0.47000000000E+01 0.  1.
          5    1    4    4  502    0  0.43576785032E+02  0.13482374320E+02  0.11573271403E+03  0.12448639166E+03  0.47000000000E+01 0. -1.
         -5    1    4    4    0  502 -0.34276174444E+02  0.46091649771E+02  0.22561791954E+01  0.57675615798E+02  0.47000000000E+01 0. -1.
<mgrwt>
<rscale>  0 0.27791413E+03</rscale>
<asrwt>0</asrwt>
<pdfrwt beam="1">  1       21 0.43984980E-01 0.27791413E+03</pdfrwt>
<pdfrwt beam="2">  1       21 0.10390349E-01 0.27791413E+03</pdfrwt>
<totfact> 0.36949222E+05</totfact>
</mgrwt>
</event>
<event>
 8    1  0.9331162E-006  0.2964214E+03  0.7546771E-02  0.1087043E+00
         21   -1    0    0  504  503  0.00000000000E+00  0.00000000000E+00  0.92357171385E+02  0.92357171385E+02  0.00000000000E+00 0. -1.
         21   -1    0    0  503  504 -0.00000000000E+00 -0.00000000000E+00 -0.23784196700E+03  0.23784196700E+03  0.00000000000E+00 0. -1.
         25    2    1    2    0    0 -0.72941869696E+02 -0.25084899135E+02 -0.94790730801E+02  0.17481244380E+03  0.12499735735E+03 0.  0.
         25    2    1    2    0    0  0.72941869696E+02  0.25084899135E+02 -0.50694064814E+02  0.15538669458E+03  0.12500147250E+03 0.  0.
          5    1    3    3  501    0 -0.46278577955E+02 -0.75972466109E+02 -0.53576508131E+02  0.10395217462E+03  0.47000000000E+01 0.  1.
         -5    1    3    3    0  501 -0.26663291741E+02  0.50887566974E+02 -0.41214222669E+02  0.70860269187E+02  0.47000000000E+01 0.  1.
          5    1    4    4  502    0  0.33573306871E+02  0.74221008327E+02 -0.15344160191E+02  0.83026852664E+02  0.47000000000E+01 0.  1.
         -5    1    4    4    0  502  0.39368562825E+02 -0.49136109192E+02 -0.35349904623E+02  0.72359841917E+02  0.47000000000E+01 0.  1.
<mgrwt>
<rscale>  0 0.29642140E+03</rscale>
<asrwt>0</asrwt>
<pdfrwt beam="1">  1       21 0.14208796E-01 0.29642140E+03</pdfrwt>
<pdfrwt beam="2">  1       21 0.36591071E-01 0.29642140E+03</pdfrwt>
<totfact> 0.30440691E+05</totfact>
</mgrwt>
</event>
<event>
 8    1  0.9331162E-006  0.3059942E+03  0.7546771E-02  0.1082282E+00
         21   -1    0    0  504  503  0.00000000000E+00  0.00000000000E+00  0.48647112401E+03  0.48647112401E+03  0.00000000000E+00 0.  1.
         21   -1    0    0  503  504 -0.00000000000E+00 -0.00000000000E+00 -0.48118180225E+02  0.48118180225E+02  0.00000000000E+00 0.  1.
         25    2    1    2    0    0 -0.75411551041E+02  0.14878988397E+02  0.29482500545E+03  0.32932665170E+03  0.12500389334E+03 0.  0.
         25    2    1    2    0    0  0.75411551041E+02 -0.14878988397E+02  0.14352793833E+03  0.20526265254E+03  0.12499680443E+03 0.  0.
          5    1    3    3  501    0 -0.12936334443E+02 -0.17760565925E+02 -0.35097354583E+01  0.22741914910E+02  0.47000000000E+01 0. -1.
         -5    1    3    3    0  501 -0.62475216599E+02  0.32639554323E+02  0.29833474091E+03  0.30658473679E+03  0.47000000000E+01 0. -1.
          5    1    4    4  502    0  0.40516583577E+02 -0.64934651237E+00  0.15907833353E+03  0.16422551992E+03  0.47000000000E+01 0.  1.
         -5    1    4    4    0  502  0.34894967465E+02 -0.14229641885E+02 -0.15550395197E+02  0.41037132616E+02  0.47000000000E+01 0.  1.
<mgrwt>
<rscale>  0 0.30599415E+03</rscale>
<asrwt>0</asrwt>
<pdfrwt beam="1">  1       21 0.74841708E-01 0.30599415E+03</pdfrwt>
<pdfrwt beam="2">  1       21 0.74027973E-02 0.30599415E+03</pdfrwt>
<totfact> 0.21261957E+05</totfact>
</mgrwt>
</event>
<event>
 8    1  0.9331162E-006  0.3414202E+03  0.7546771E-02  0.1066193E+00
         21   -1    0    0  504  503  0.00000000000E+00  0.00000000000E+00  0.15181909850E+04  0.15181909850E+04  0.00000000000E+00 0.  1.
         21   -1    0    0  503  504 -0.00000000000E+00 -0.00000000000E+00 -0.19195170818E+02  0.19195170818E+02  0.00000000000E+00 0.  1.
         25    2    1    2    0    0  0.47285529540E+02  0.10454491915E+03  0.66514469832E+03  0.68644644886E+03  0.12500278405E+03 0.  0.
         25    2    1    2    0    0 -0.47285529540E+02 -0.10454491915E+03  0.83385111583E+03  0.85093970693E+03  0.12500056014E+03 0.  0.
          5    1    3    3  501    0  0.86424463264E+02  0.43380064159E+02  0.36814920896E+03  0.38066645226E+03  0.47000000000E+01 0.  1.
         -5    1    3    3    0  501 -0.39138933724E+02  0.61164854993E+02  0.29699548936E+03  0.30577999660E+03  0.47000000000E+01 0.  1.
          5    1    4    4  502    0 -0.62790293879E+02 -0.76373648582E+02  0.79094987276E+03  0.79711940537E+03  0.47000000000E+01 0.  1.
         -5    1    4    4    0  502  0.15504764340E+02 -0.28171270571E+02  0.42901243071E+02  0.53820301559E+02  0.47000000000E+01 0.  1.
<mgrwt>
<rscale>  0 0.34142018E+03</rscale>
<asrwt>0</asrwt>
<pdfrwt beam="1">  1       21 0.23356775E+00 0.34142018E+03</pdfrwt>
<pdfrwt beam="2">  1       21 0.29531044E-02 0.34142018E+03</pdfrwt>
<totfact> 0.49768631E+04</totfact>
</mgrwt>
</event>
<event>
 8    1  0.9331162E-006  0.2847372E+03  0.7546771E-02  0.1093129E+00
         21   -1    0    0  504  503  0.00000000000E+00  0.00000000000E+00  0.22082515762E+03  0.22082515762E+03  0.00000000000E+00 0. -1.
         21   -1    0    0  503  504 -0.00000000000E+00 -0.00000000000E+00 -0.91786736082E+02  0.91786736082E+02  0.00000000000E+00 0. -1.
         25    2    1    2    0    0 -0.38473911624E+02  0.37062881402E+02  0.11098829506E+03  0.17549328957E+03  0.12500237594E+03 0.  0.
         25    2    1    2    0    0  0.38473911624E+02 -0.37062881402E+02  0.18050126483E+02  0.13711860413E+03  0.12498722127E+03 0.  0.
          5    1    3    3  501    0 -0.25631142257E+02 -0.44564209850E+02  0.55791135884E+02  0.76010953791E+02  0.47000000000E+01 0. -1.
         -5    1    3    3    0  501 -0.12842769367E+02  0.81627091252E+02  0.55197159171E+02  0.99482335778E+02  0.47000000000E+01 0. -1.
          5    1    4    4  502    0  0.38372852660E+02 -0.63797174232E+02  0.53986538469E+02  0.92082526013E+02  0.47000000000E+01 0. -1.
         -5    1    4    4    0  502  0.10105896450E+00  0.26734292830E+02 -0.35936411985E+02  0.45036078120E+02  0.47000000000E+01 0. -1.
<mgrwt>
<rscale>  0 0.28473722E+03</rscale>
<asrwt>0</asrwt>
<pdfrwt beam="1">  1       21 0.33973101E-01 0.28473722E+03</pdfrwt>
<pdfrwt beam="2">  1       21 0.14121036E-01 0.28473722E+03</pdfrwt>
<totfact> 0.35812570E+05</totfact>
</mgrwt>
</event>
<event>
 8    1  0.9331162E-006  0.3082853E+03  0.7546771E-02  0.1081171E+00
         21   -1    0    0  504  503  0.00000000000E+00  0.00000000000E+00  0.27527661654E+03  0.27527661654E+03  0.00000000000E+00 0.  1.
         21   -1    0    0  503  504 -0.00000000000E+00 -0.00000000000E+00 -0.86313015735E+02  0.86313015735E+02  0.00000000000E+00 0.  1.
         25    2    1    2    0    0  0.59912313263E+01 -0.32469302712E+02 -0.39666491632E+01  0.12934506627E+03  0.12499704553E+03 0.  0.
         25    2    1    2    0    0 -0.59912313263E+01  0.32469302712E+02  0.19293024997E+03  0.23224456601E+03  0.12500122646E+03 0.  0.
          5    1    3    3  501    0  0.29349283678E+02 -0.71065649533E+01  0.53818800307E+02  0.61890524189E+02  0.47000000000E+01 0.  1.
         -5    1    3    3    0  501 -0.23358052352E+02 -0.25362737759E+02 -0.57785449471E+02  0.67454542077E+02  0.47000000000E+01 0.  1.
          5    1    4    4  502    0 -0.21904629922E+02 -0.60155745226E+01 -0.98334565553E+01  0.25194976021E+02  0.47000000000E+01 0.  1.
         -5    1    4    4    0  502  0.15913398596E+02  0.38484877235E+02  0.20276370652E+03  0.20704958999E+03  0.47000000000E+01 0.  1.
<mgrwt>
<rscale>  0 0.30828529E+03</rscale>
<asrwt>0</asrwt>
<pdfrwt beam="1">  1       21 0.42350248E-01 0.30828529E+03</pdfrwt>
<pdfrwt beam="2">  1       21 0.13278926E-01 0.30828529E+03</pdfrwt>
<totfact> 0.25514520E+05</totfact>
</mgrwt>
</event>
<event>
 8    1  0.9331162E-006  0.2697348E+03  0.7546771E-02  0.1101431E+00
         21   -1    0    0  504  503  0.00000000000E+00  0.00000000000E+00  0.26882506368E+02  0.26882506368E+02  0.00000000000E+00 0.  1.
         21   -1    0    0  503  504 -0.00000000000E+00 -0.00000000000E+00 -0.67661919492E+03  0.67661919492E+03  0.00000000000E+00 0.  1.
         25    2    1    2    0    0 -0.30167279222E+02 -0.83182756575E+01 -0.42876041381E+03  0.44770453589E+03  0.12499840224E+03 0.  0.
         25    2    1    2    0    0  0.30167279222E+02  0.83182756575E+01 -0.22097627473E+03  0.25579716539E+03  0.12498966909E+03 0.  0.
          5    1    3    3  501    0  0.71666550565E+01  0.54450893689E+02 -0.20492958647E+03  0.21221330349E+03  0.47000000000E+01 0. -1.
         -5    1    3    3    0  501 -0.37333934278E+02 -0.62769169346E+02 -0.22383082734E+03  0.23549123240E+03  0.47000000000E+01 0. -1.
          5    1    4    4  502    0  0.57008724801E+02 -0.36406612469E+02 -0.16862269820E+03  0.18174471239E+03  0.47000000000E+01 0.  1.
         -5    1    4    4    0  502 -0.26841445579E+02  0.44724888127E+02 -0.52353576535E+02  0.74052452996E+02  0.47000000000E+01 0.  1.
<mgrwt>
<rscale>  0 0.26973483E+03</rscale>
<asrwt>0</asrwt>
<pdfrwt beam="1">  1       21 0.41357704E-02 0.26973483E+03</pdfrwt>
<pdfrwt beam="2">  1       21 0.10409526E+00 0.26973483E+03</pdfrwt>
<totfact> 0.27024986E+05</totfact>
</mgrwt>
</event>
<event>
 8    1  0.9331162E-006  0.2744606E+03  0.7546771E-02  0.1098753E+00
         21   -1    0    0  504  503  0.00000000000E+00  0.00000000000E+00  0.42720285456E+03  0.42720285456E+03  0.00000000000E+00 0. -1.
         21   -1    0    0  503  504 -0.00000000000E+00 -0.00000000000E+00 -0.44082462889E+02  0.44082462889E+02  0.00000000000E+00 0. -1.
         25    2    1    2    0    0  0.33365068098E+01  0.52453098070E+02  0.15533156549E+03  0.20618995233E+03  0.12499576565E+03 0.  0.
         25    2    1    2    0    0 -0.33365068098E+01 -0.52453098070E+02  0.22778882618E+03  0.26509536511E+03  0.12500137399E+03 0.  0.
          5    1    3    3  501    0  0.59890096819E+02  0.48251286233E+01  0.55973007014E+02  0.82250672201E+02  0.47000000000E+01 0. -1.
         -5    1    3    3    0  501 -0.56553590010E+02  0.47627969447E+02  0.99358558477E+02  0.12393928013E+03  0.47000000000E+01 0. -1.
          5    1    4    4  502    0  0.55217721167E+02 -0.26196102314E+02  0.16137374581E+03  0.17262331345E+03  0.47000000000E+01 0.  1.
         -5    1    4    4    0  502 -0.58554227976E+02 -0.26256995756E+02  0.66415080361E+02  0.92472051667E+02  0.47000000000E+01 0.  1.
<mgrwt>
<rscale>  0 0.27446059E+03</rscale>
<asrwt>0</asrwt>
<pdfrwt beam="1">  1       21 0.65723513E-01 0.27446059E+03</pdfrwt>
<pdfrwt beam="2">  1       21 0.67819176E-02 0.27446059E+03</pdfrwt>
<totfact> 0.33321619E+05</totfact>
</mgrwt>
</event>
<event>
 8    1  0.9331162E-006  0.3317832E+03  0.7546771E-02  0.1070351E+00
         21   -1    0    0  504  503  0.00000000000E+00  0.00000000000E+00  0.77013061251E+02  0.77013061251E+02  0.00000000000E+00 0.  1.
         21   -1    0    0  503  504 -0.00000000000E+00 -0.00000000000E+00 -0.35734229871E+03  0.35734229871E+03  0.00000000000E+00 0.  1.
         25    2    1    2    0    0  0.19346887373E+02 -0.59295951707E+02 -0.23040763342E+02  0.14158737479E+03  0.12500318389E+03 0.  0.
         25    2    1    2    0    0 -0.19346887373E+02  0.59295951707E+02 -0.25728847412E+03  0.29276798517E+03  0.12500168915E+03 0.  0.
          5    1    3    3  501    0  0.99382814604E+01  0.37896049436E+02  0.52756947889E+01  0.39809583730E+02  0.47000000000E+01 0. -1.
         -5    1    3    3    0  501  0.94086059125E+01 -0.97192001143E+02 -0.28316458131E+02  0.10177779106E+03  0.47000000000E+01 0. -1.
          5    1    4    4  502    0 -0.19977116585E+02  0.89266637907E+02 -0.11368196185E+03  0.14599074039E+03  0.47000000000E+01 0. -1.
         -5    1    4    4    0  502  0.63022921153E+00 -0.29970686200E+02 -0.14360651227E+03  0.14677724478E+03  0.47000000000E+01 0. -1.
<mgrwt>
<rscale>  0 0.33178321E+03</rscale>
<asrwt>0</asrwt>
<pdfrwt beam="1">  1       21 0.11848163E-01 0.33178321E+03</pdfrwt>
<pdfrwt beam="2">  1       21 0.54975738E-01 0.33178321E+03</pdfrwt>
<totfact> 0.18053257E+05</totfact>
</mgrwt>
</event>
<event>
 8    1  0.9331162E-006  0.2574359E+03  0.7546771E-02  0.1108694E+00
         21   -1    0    0  504  503  0.00000000000E+00  0.00000000000E+00  0.14333212630E+03  0.14333212630E+03  0.00000000000E+00 0.  1.
         21   -1    0    0  503  504 -0.00000000000E+00 -0.00000000000E+00 -0.11559380630E+03  0.11559380630E+03  0.00000000000E+00 0.  1.
         25    2    1    2    0    0 -0.26819086472E+02  0.97514131551E+01  0.24998848216E+02  0.13064156738E+03  0.12501169249E+03 0.  0.
         25    2    1    2    0    0  0.26819086472E+02 -0.97514131551E+01  0.27394717897E+01  0.12828436522E+03  0.12504007436E+03 0.  0.
          5    1    3    3  501    0  0.83139557694E+01 -0.15604162534E+02  0.67398959725E+02  0.69837822996E+02  0.47000000000E+01 0.  1.
         -5    1    3    3    0  501 -0.35133042241E+02  0.25355575689E+02 -0.42400111509E+02  0.60803744388E+02  0.47000000000E+01 0.  1.
          5    1    4    4  502    0  0.42330781054E+02 -0.29003096023E+02 -0.48774705068E+02  0.70951648734E+02  0.47000000000E+01 0. -1.
         -5    1    4    4    0  502 -0.15511694582E+02  0.19251682867E+02  0.51514176858E+02  0.57332716484E+02  0.47000000000E+01 0. -1.
<mgrwt>
<rscale>  0 0.25743586E+03</rscale>
<asrwt>0</asrwt>
<pdfrwt beam="1">  1       21 0.22051096E-01 0.25743586E+03</pdfrwt>
<pdfrwt beam="2">  1       21 0.17783662E-01 0.25743586E+03</pdfrwt>
<totfact> 0.54523735E+05</totfact>
</mgrwt>
</event>
<event>
 8    1  0.9331162E-006  0.3247979E+03  0.7546771E-02  0.1073462E+00
         21   -1    0    0  504  503  0.00000000000E+00  0.00000000000E+00  0.30919534801E+02  0.30919534801E+02  0.00000000000E+00 0.  1.
         21   -1    0    0  503  504 -0.00000000000E+00 -0.00000000000E+00 -0.85296971660E+03  0.85296971660E+03  0.00000000000E+00 0.  1.
         25    2    1    2    0    0  0.90623752588E+02 -0.33355913223E+02 -0.30845502036E+03  0.34655509378E+03  0.12502260581E+03 0.  0.
         25    2    1    2    0    0 -0.90623752588E+02  0.33355913223E+02 -0.51359516144E+03  0.53733415762E+03  0.12499090209E+03 0.  0.
          5    1    3    3  501    0  0.64055056491E+01 -0.44668176692E+02 -0.21673969492E+03  0.22143726395E+03  0.47000000000E+01 0.  1.
         -5    1    3    3    0  501  0.84218246938E+02  0.11312263469E+02 -0.91715325438E+02  0.12511782983E+03  0.47000000000E+01 0.  1.
          5    1    4    4  502    0 -0.79648835082E+02 -0.62459610493E-01 -0.13306288484E+03  0.15515077232E+03  0.47000000000E+01 0. -1.
         -5    1    4    4    0  502 -0.10974917506E+02  0.33418372834E+02 -0.38053227661E+03  0.38218338529E+03  0.47000000000E+01 0. -1.
<mgrwt>
<rscale>  0 0.32479795E+03</rscale>
<asrwt>0</asrwt>
<pdfrwt beam="1">  1       21 0.47568515E-02 0.32479795E+03</pdfrwt>
<pdfrwt beam="2">  1       21 0.13122611E+00 0.32479795E+03</pdfrwt>
<totfact> 0.11784059E+05</totfact>
</mgrwt>
</event>
<event>
 8    1  0.9331162E-006  0.2759051E+03  0.7546771E-02  0.1097947E+00
         21   -1    0    0  504  503  0.00000000000E+00  0.00000000000E+00  0.41671347717E+03  0.41671347717E+03  0.00000000000E+00 0. -1.
         21   -1    0    0  503  504 -0.00000000000E+00 -0.00000000000E+00 -0.45669035467E+02  0.45669035467E+02  0.00000000000E+00 0. -1.
         25    2    1    2    0    0 -0.13223234590E+02 -0.42673958067E+02  0.12259173184E+03  0.18069135655E+03  0.12499885195E+03 0.  0.
         25    2    1    2    0    0  0.13223234590E+02  0.42673958067E+02  0.24845270987E+03  0.28169115608E+03  0.12500095098E+03 0.  0.
          5    1    3    3  501    0  0.33839831573E+02  0.20147028158E+02  0.60792324226E+01  0.40125852157E+02  0.47000000000E+01 0.  1.
         -5    1    3    3    0  501 -0.47063066162E+02 -0.62820986225E+02  0.11651249941E+03  0.14056550440E+03  0.47000000000E+01 0.  1.
          5    1    4    4  502    0  0.20409176779E+02  0.77919165695E+02  0.98070490558E+02  0.12699544085E+03  0.47000000000E+01 0. -1.
         -5    1    4    4    0  502 -0.71859421895E+01 -0.35245207627E+02  0.15038221931E+03  0.15469571523E+03  0.47000000000E+01 0. -1.
<mgrwt>
<rscale>  0 0.27590507E+03</rscale>
<asrwt>0</asrwt>
<pdfrwt beam="1">  1       21 0.64109763E-01 0.27590507E+03</pdfrwt>
<pdfrwt beam="2">  1       21 0.70260057E-02 0.27590507E+03</pdfrwt>
<totfact> 0.33082025E+05</totfact>
</mgrwt>
</event>
<event>
 8    1  0.9331162E-006  0.2848952E+03  0.7546771E-02  0.1093045E+00
         21   -1    0    0  504  503  0.00000000000E+00  0.00000000000E+00  0.15852482849E+03  0.15852482849E+03  0.00000000000E+00 0.  1.
         21   -1    0    0  503  504 -0.00000000000E+00 -0.00000000000E+00 -0.12800090959E+03  0.12800090959E+03  0.00000000000E+00 0.  1.
         25    2    1    2    0    0  0.38538296818E+02  0.23629108875E+02  0.66768382367E+02  0.14875190533E+03  0.12500230937E+03 0.  0.
         25    2    1    2    0    0 -0.38538296818E+02 -0.23629108875E+02 -0.36244463469E+02  0.13777383275E+03  0.12499773098E+03 0.  0.
          5    1    3    3  501    0 -0.17377508160E+02  0.19867766759E+02  0.85398050193E+02  0.89507669630E+02  0.47000000000E+01 0.  1.
         -5    1    3    3    0  501  0.55915804978E+02  0.37613421158E+01 -0.18629667825E+02  0.59244235704E+02  0.47000000000E+01 0.  1.
          5    1    4    4  502    0 -0.57113027955E+02 -0.37252047314E+02  0.24524003335E+02  0.72616318626E+02  0.47000000000E+01 0. -1.
         -5    1    4    4    0  502  0.18574731137E+02  0.13622938439E+02 -0.60768466804E+02  0.65157514119E+02  0.47000000000E+01 0. -1.
<mgrwt>
<rscale>  0 0.28489522E+03</rscale>
<asrwt>0</asrwt>
<pdfrwt beam="1">  1       21 0.24388435E-01 0.28489522E+03</pdfrwt>
<pdfrwt beam="2">  1       21 0.19692448E-01 0.28489522E+03</pdfrwt>
<totfact> 0.36991301E+05</totfact>
</mgrwt>
</event>
<event>
 8    1  0.9331162E-006  0.3279794E+03  0.7546771E-02  0.1072034E+00
         21   -1    0    0  504  503  0.00000000000E+00  0.00000000000E+00  0.41212676923E+02  0.41212676923E+02  0.00000000000E+00 0. -1.
         21   -1    0    0  503  504 -0.00000000000E+00 -0.00000000000E+00 -0.65253289220E+03  0.65253289220E+03  0.00000000000E+00 0. -1.
         25    2    1    2    0    0 -0.72615742806E+02 -0.12630525693E+02 -0.14408463768E+03  0.20449531547E+03  0.12500149981E+03 0.  0.
         25    2    1    2    0    0  0.72615742806E+02  0.12630525693E+02 -0.46723557760E+03  0.48925025365E+03  0.12499659770E+03 0.  0.
          5    1    3    3  501    0  0.16375374172E+01  0.36386292783E+01 -0.12608719264E+03  0.12623783625E+03  0.47000000000E+01 0.  1.
         -5    1    3    3    0  501 -0.74253280224E+02 -0.16269154971E+02 -0.17997445033E+02  0.78257479228E+02  0.47000000000E+01 0.  1.
          5    1    4    4  502    0  0.53940973379E+02 -0.29026041414E+02 -0.88435866381E+02  0.10768069535E+03  0.47000000000E+01 0. -1.
         -5    1    4    4    0  502  0.18674769427E+02  0.41656567107E+02 -0.37879971122E+03  0.38156955830E+03  0.47000000000E+01 0. -1.
<mgrwt>
<rscale>  0 0.32797943E+03</rscale>
<asrwt>0</asrwt>
<pdfrwt beam="1">  1       21 0.63404126E-02 0.32797943E+03</pdfrwt>
<pdfrwt beam="2">  1       21 0.10038966E+00 0.32797943E+03</pdfrwt>
<totfact> 0.13979470E+05</totfact>
</mgrwt>
</event>
<event>
 8    1  0.9331162E-006  0.4497937E+03  0.7546771E-02  0.1027784E+00
         21   -1    0    0  504  503  0.00000000000E+00  0.00000000000E+00  0.42591432708E+02  0.42591432708E+02  0.00000000000E+00 0.  1.
         21   -1    0    0  503  504 -0.00000000000E+00 -0.00000000000E+00 -0.11875296308E+04  0.11875296308E+04  0.00000000000E+00 0.  1.
         25    2    1    2    0    0 -0.73336396498E+02 -0.73361203267E+02 -0.14709628366E+03  0.21914416539E+03  0.12500702125E+03 0.  0.
         25    2    1    2    0    0  0.73336396498E+02  0.73361203267E+02 -0.99784191443E+03  0.10109768981E+04  0.12500283650E+03 0.  0.
          5    1    3    3  501    0 -0.88719723969E+02 -0.73293568238E+02 -0.16095054741E+03  0.19791489403E+03  0.47000000000E+01 0. -1.
         -5    1    3    3    0  501  0.15383327471E+02 -0.67635029625E-01  0.13854263750E+02  0.21229271364E+02  0.47000000000E+01 0. -1.
          5    1    4    4  502    0 -0.90945352960E+01  0.35824839220E+02 -0.66369064310E+03  0.66473565379E+03  0.47000000000E+01 0. -1.
         -5    1    4    4    0  502  0.82430931794E+02  0.37536364047E+02 -0.33415127133E+03  0.34624124433E+03  0.47000000000E+01 0. -1.
<mgrwt>
<rscale>  0 0.44979368E+03</rscale>
<asrwt>0</asrwt>
<pdfrwt beam="1">  1       21 0.65525282E-02 0.44979368E+03</pdfrwt>
<pdfrwt beam="2">  1       21 0.18269686E+00 0.44979368E+03</pdfrwt>
<totfact> 0.26343094E+04</totfact>
</mgrwt>
</event>
<event>
 8    1  0.9331162E-006  0.3022638E+03  0.7546771E-02  0.1084114E+00
         21   -1    0    0  504  503  0.00000000000E+00  0.00000000000E+00  0.92181561874E+03  0.92181561874E+03  0.00000000000E+00 0. -1.
         21   -1    0    0  503  504 -0.00000000000E+00 -0.00000000000E+00 -0.24778116296E+02  0.24778116296E+02  0.00000000000E+00 0. -1.
         25    2    1    2    0    0 -0.25994502179E+01 -0.83223947904E+02  0.50111546178E+03  0.52313995245E+03  0.12500288463E+03 0.  0.
         25    2    1    2    0    0  0.25994502179E+01  0.83223947904E+02  0.39592204067E+03  0.42345378259E+03  0.12500344418E+03 0.  0.
          5    1    3    3  501    0  0.37607889355E+02 -0.82758948225E+02  0.20539237250E+03  0.22465866004E+03  0.47000000000E+01 0.  1.
         -5    1    3    3    0  501 -0.40207339573E+02 -0.46499967874E+00  0.29572308928E+03  0.29848129240E+03  0.47000000000E+01 0.  1.
          5    1    4    4  502    0 -0.39170179660E+02  0.53619604446E+02  0.83296876974E+02  0.10662937995E+03  0.47000000000E+01 0. -1.
         -5    1    4    4    0  502  0.41769629878E+02  0.29604343458E+02  0.31262516369E+03  0.31682440264E+03  0.47000000000E+01 0. -1.
<mgrwt>
<rscale>  0 0.30226382E+03</rscale>
<asrwt>0</asrwt>
<pdfrwt beam="1">  1       21 0.14181776E+00 0.30226382E+03</pdfrwt>
<pdfrwt beam="2">  1       21 0.38120186E-02 0.30226382E+03</pdfrwt>
<totfact> 0.14119070E+05</totfact>
</mgrwt>
</event>
<event>
 8    1  0.9331162E-006  0.3441703E+03  0.7546771E-02  0.1065034E+00
         21   -1    0    0  504  503  0.00000000000E+00  0.00000000000E+00  0.11587759184E+04  0.11587759184E+04  0.00000000000E+00 0.  1.
         21   -1    0    0  503  504 -0.00000000000E+00 -0.00000000000E+00 -0.25555671443E+02  0.25555671443E+02  0.00000000000E+00 0.  1.
         25    2    1    2    0    0  0.98263842976E+02  0.55114339813E+02  0.69031966636E+03  0.71053411964E+03  0.12499648043E+03 0.  0.
         25    2    1    2    0    0 -0.98263842976E+02 -0.55114339813E+02  0.44290058061E+03  0.47379747021E+03  0.12501897931E+03 0.  0.
          5    1    3    3  501    0  0.10186909770E+03  0.43459018115E+02  0.68846130957E+03  0.69732851949E+03  0.47000000000E+01 0. -1.
         -5    1    3    3    0  501 -0.36052547230E+01  0.11655321697E+02  0.18583567967E+01  0.13205600156E+02  0.47000000000E+01 0. -1.
          5    1    4    4  502    0  0.72059037225E+01 -0.57242291607E+02  0.21441210826E+03  0.22208837693E+03  0.47000000000E+01 0.  1.
         -5    1    4    4    0  502 -0.10546974670E+03  0.21279517946E+01  0.22848847235E+03  0.25170909329E+03  0.47000000000E+01 0.  1.
<mgrwt>
<rscale>  0 0.34417029E+03</rscale>
<asrwt>0</asrwt>
<pdfrwt beam="1">  1       21 0.17827318E+00 0.34417029E+03</pdfrwt>
<pdfrwt beam="2">  1       21 0.39316427E-02 0.34417029E+03</pdfrwt>
<totfact> 0.70525803E+04</totfact>
</mgrwt>
</event>
<event>
 8    1  0.9331162E-006  0.2564358E+03  0.7546771E-02  0.1109304E+00
         21   -1    0    0  504  503  0.00000000000E+00  0.00000000000E+00  0.54432377830E+03  0.54432377830E+03  0.00000000000E+00 0. -1.
         21   -1    0    0  503  504 -0.00000000000E+00 -0.00000000000E+00 -0.30202310063E+02  0.30202310063E+02  0.00000000000E+00 0. -1.
         25    2    1    2    0    0  0.10968990683E+02  0.25393194902E+02  0.24077092960E+03  0.27268071804E+03  0.12497599909E+03 0.  0.
         25    2    1    2    0    0 -0.10968990683E+02 -0.25393194902E+02  0.27335053864E+03  0.30184537032E+03  0.12499991002E+03 0.  0.
          5    1    3    3  501    0 -0.48689246022E+02  0.43514487281E+02  0.12200912032E+03  0.13846468403E+03  0.47000000000E+01 0.  1.
         -5    1    3    3    0  501  0.59658236705E+02 -0.18121292379E+02  0.11876180928E+03  0.13421603402E+03  0.47000000000E+01 0.  1.
          5    1    4    4  502    0 -0.62168497734E+02  0.13203770165E+02  0.13472587795E+03  0.14903829658E+03  0.47000000000E+01 0.  1.
         -5    1    4    4    0  502  0.51199507052E+02 -0.38596965067E+02  0.13862466069E+03  0.15280707375E+03  0.47000000000E+01 0.  1.
<mgrwt>
<rscale>  0 0.25643584E+03</rscale>
<asrwt>0</asrwt>
<pdfrwt beam="1">  1       21 0.83742112E-01 0.25643584E+03</pdfrwt>
<pdfrwt beam="2">  1       21 0.46465096E-02 0.25643584E+03</pdfrwt>
<totfact> 0.37155365E+05</totfact>
</mgrwt>
</event>
<event>
 8    1  0.9331162E-006  0.2571116E+03  0.7546771E-02  0.1108891E+00
         21   -1    0    0  504  503  0.00000000000E+00  0.00000000000E+00  0.45096391943E+02  0.45096391943E+02  0.00000000000E+00 0. -1.
         21   -1    0    0  503  504 -0.00000000000E+00 -0.00000000000E+00 -0.36647261884E+03  0.36647261884E+03  0.00000000000E+00 0. -1.
         25    2    1    2    0    0  0.52602769101E+01  0.50358064087E+01 -0.11393025133E+03  0.16926751145E+03  0.12497343080E+03 0.  0.
         25    2    1    2    0    0 -0.52602769101E+01 -0.50358064087E+01 -0.20744597556E+03  0.24230149933E+03  0.12499261554E+03 0.  0.
          5    1    3    3  501    0  0.33736837020E+02 -0.50142003885E+02 -0.40087911232E+02  0.72674103728E+02  0.47000000000E+01 0. -1.
         -5    1    3    3    0  501 -0.28476560110E+02  0.55177810294E+02 -0.73842340101E+02  0.96593407726E+02  0.47000000000E+01 0. -1.
          5    1    4    4  502    0 -0.31632896985E+02 -0.32530367844E+02 -0.18056838764E+02  0.49061231435E+02  0.47000000000E+01 0. -1.
         -5    1    4    4    0  502  0.26372620075E+02  0.27494561435E+02 -0.18938913680E+03  0.19324026789E+03  0.47000000000E+01 0. -1.
<mgrwt>
<rscale>  0 0.25711159E+03</rscale>
<asrwt>0</asrwt>
<pdfrwt beam="1">  1       21 0.69379063E-02 0.25711159E+03</pdfrwt>
<pdfrwt beam="2">  1       21 0.56380404E-01 0.25711159E+03</pdfrwt>
<totfact> 0.44833537E+05</totfact>
</mgrwt>
</event>
<event>
 8    1  0.9331162E-006  0.2772821E+03  0.7546771E-02  0.1097183E+00
         21   -1    0    0  504  503  0.00000000000E+00  0.00000000000E+00  0.11881300136E+04  0.11881300136E+04  0.00000000000E+00 0. -1.
         21   -1    0    0  503  504 -0.00000000000E+00 -0.00000000000E+00 -0.16177814086E+02  0.16177814086E+02  0.00000000000E+00 0. -1.
         25    2    1    2    0    0  0.24361909905E+02  0.45096668667E+02  0.45076292076E+03  0.47057373841E+03  0.12500088146E+03 0.  0.
         25    2    1    2    0    0 -0.24361909905E+02 -0.45096668667E+02  0.72118927872E+03  0.73373408925E+03  0.12499810320E+03 0.  0.
          5    1    3    3  501    0 -0.14258391903E+02  0.45532596114E+02  0.55250018073E+02  0.73151715945E+02  0.47000000000E+01 0. -1.
         -5    1    3    3    0  501  0.38620301808E+02 -0.43592744638E+00  0.39551290269E+03  0.39742202246E+03  0.47000000000E+01 0. -1.
          5    1    4    4  502    0 -0.27181613635E+02  0.28963758154E+02  0.93895634107E+02  0.10205988198E+03  0.47000000000E+01 0.  1.
         -5    1    4    4    0  502  0.28197037297E+01 -0.74060426821E+02  0.62729364461E+03  0.63167420726E+03  0.47000000000E+01 0.  1.
<mgrwt>
<rscale>  0 0.27728214E+03</rscale>
<asrwt>0</asrwt>
<pdfrwt beam="1">  1       21 0.18278916E+00 0.27728214E+03</pdfrwt>
<pdfrwt beam="2">  1       21 0.24888954E-02 0.27728214E+03</pdfrwt>
<totfact> 0.14448656E+05</totfact>
</mgrwt>
</event>
<event>
 8    1  0.9331162E-006  0.3070844E+03  0.7546771E-02  0.1081752E+00
         21   -1    0    0  504  503  0.00000000000E+00  0.00000000000E+00  0.12118196449E+04  0.12118196449E+04  0.00000000000E+00 0. -1.
         21   -1    0    0  503  504 -0.00000000000E+00 -0.00000000000E+00 -0.19454380313E+02  0.19454380313E+02  0.00000000000E+00 0. -1.
         25    2    1    2    0    0  0.28105768316E+02  0.75471051500E+02  0.74956590549E+03  0.76417358058E+03  0.12500560289E+03 0.  0.
         25    2    1    2    0    0 -0.28105768316E+02 -0.75471051500E+02  0.44279935912E+03  0.46710044465E+03  0.12500295650E+03 0.  0.
          5    1    3    3  501    0  0.56749189687E+02  0.55156478027E+02  0.69236872209E+03  0.69689256340E+03  0.47000000000E+01 0. -1.
         -5    1    3    3    0  501 -0.28643421372E+02  0.20314573472E+02  0.57197183401E+02  0.67281017176E+02  0.47000000000E+01 0. -1.
          5    1    4    4  502    0 -0.53291190791E+01 -0.17942261211E+02  0.37382088410E+03  0.37431867124E+03  0.47000000000E+01 0. -1.
         -5    1    4    4    0  502 -0.22776649237E+02 -0.57528790288E+02  0.68978475014E+02  0.92781773413E+02  0.47000000000E+01 0. -1.
<mgrwt>
<rscale>  0 0.30708435E+03</rscale>
<asrwt>0</asrwt>
<pdfrwt beam="1">  1       21 0.18643373E+00 0.30708435E+03</pdfrwt>
<pdfrwt beam="2">  1       21 0.29929825E-02 0.30708435E+03</pdfrwt>
<totfact> 0.99324481E+04</totfact>
</mgrwt>
</event>
<event>
 8    1  0.9331162E-006  0.3121870E+03  0.7546771E-02  0.1079302E+00
         21   -1    0    0  504  503  0.00000000000E+00  0.00000000000E+00  0.89398778819E+03  0.89398778819E+03  0.00000000000E+00 0.  1.
         21   -1    0    0  503  504 -0.00000000000E+00 -0.00000000000E+00 -0.27254490498E+02  0.27254490498E+02  0.00000000000E+00 0.  1.
         25    2    1    2    0    0  0.90337276803E+02  0.51676743420E+01  0.50270796566E+03  0.52585912131E+03  0.12499995319E+03 0.  0.
         25    2    1    2    0    0 -0.90337276803E+02 -0.51676743420E+01  0.36402533204E+03  0.39538315737E+03  0.12500348128E+03 0.  0.
          5    1    3    3  501    0  0.79724602353E+02  0.23263217301E+02  0.49658839514E+03  0.50350701454E+03  0.47000000000E+01 0.  1.
         -5    1    3    3    0  501  0.10612674450E+02 -0.18095542959E+02  0.61195705114E+01  0.22352106774E+02  0.47000000000E+01 0.  1.
          5    1    4    4  502    0 -0.85535691055E+02  0.31632599746E+02  0.13289820808E+03  0.16124825432E+03  0.47000000000E+01 0. -1.
         -5    1    4    4    0  502 -0.48015857486E+01 -0.36800274088E+02  0.23112712396E+03  0.23413490306E+03  0.47000000000E+01 0. -1.
<mgrwt>
<rscale>  0 0.31218701E+03</rscale>
<asrwt>0</asrwt>
<pdfrwt beam="1">  1       21 0.13753656E+00 0.31218701E+03</pdfrwt>
<pdfrwt beam="2">  1       21 0.41929992E-02 0.31218701E+03</pdfrwt>
<totfact> 0.12985438E+05</totfact>
</mgrwt>
</event>
<event>
 8    1  0.9331162E-006  0.3134109E+03  0.7546771E-02  0.1078722E+00
         21   -1    0    0  504  503  0.00000000000E+00  0.00000000000E+00  0.22852079117E+03  0.22852079117E+03  0.00000000000E+00 0. -1.
         21   -1    0    0  503  504 -0.00000000000E+00 -0.00000000000E+00 -0.10745888883E+03  0.10745888883E+03  0.00000000000E+00 0. -1.
         25    2    1    2    0    0  0.23780909144E+02  0.79509846935E+01  0.15821332665E+03  0.20318632128E+03  0.12499789850E+03 0.  0.
         25    2    1    2    0    0 -0.23780909144E+02 -0.79509846935E+01 -0.37151424315E+02  0.13279335873E+03  0.12500039198E+03 0.  0.
          5    1    3    3  501    0  0.32127049148E+02  0.60393130077E+02  0.11775007038E+03  0.13625948232E+03  0.47000000000E+01 0. -1.
         -5    1    3    3    0  501 -0.83461400045E+01 -0.52442145384E+02  0.40463256274E+02  0.66926838964E+02  0.47000000000E+01 0. -1.
          5    1    4    4  502    0 -0.17832804892E+02 -0.19691709611E+02  0.43365377171E+02  0.51072676598E+02  0.47000000000E+01 0.  1.
         -5    1    4    4    0  502 -0.59481042512E+01  0.11740724918E+02 -0.80516801486E+02  0.81720682127E+02  0.47000000000E+01 0.  1.
<mgrwt>
<rscale>  0 0.31341085E+03</rscale>
<asrwt>0</asrwt>
<pdfrwt beam="1">  1       21 0.35157045E-01 0.31341085E+03</pdfrwt>
<pdfrwt beam="2">  1       21 0.16532137E-01 0.31341085E+03</pdfrwt>
<totfact> 0.24872063E+05</totfact>
</mgrwt>
</event>
<event>
 8    1  0.9331162E-006  0.2763907E+03  0.7546771E-02  0.1097677E+00
         21   -1    0    0  504  503  0.00000000000E+00  0.00000000000E+00  0.33497620970E+02  0.33497620970E+02  0.00000000000E+00 0. -1.
         21   -1    0    0  503  504 -0.00000000000E+00 -0.00000000000E+00 -0.57012875115E+03  0.57012875115E+03  0.00000000000E+00 0. -1.
         25    2    1    2    0    0  0.52038065502E+02 -0.17578734150E+00 -0.20792588110E+03  0.24812504236E+03  0.12499949380E+03 0.  0.
         25    2    1    2    0    0 -0.52038065502E+02  0.17578734150E+00 -0.32870524908E+03  0.35550132976E+03  0.12500425404E+03 0.  0.
          5    1    3    3  501    0  0.87995154105E+02 -0.23301387976E+02 -0.12492791363E+03  0.15464532140E+03  0.47000000000E+01 0. -1.
         -5    1    3    3    0  501 -0.35957088603E+02  0.23125600634E+02 -0.82997967474E+02  0.93479720958E+02  0.47000000000E+01 0. -1.
          5    1    4    4  502    0 -0.18215651672E+02  0.56908474968E+02 -0.22175062128E+03  0.22970810287E+03  0.47000000000E+01 0.  1.
         -5    1    4    4    0  502 -0.33822413830E+02 -0.56732687626E+02 -0.10695462780E+03  0.12579322688E+03  0.47000000000E+01 0.  1.
<mgrwt>
<rscale>  0 0.27639071E+03</rscale>
<asrwt>0</asrwt>
<pdfrwt beam="1">  1       21 0.51534807E-02 0.27639071E+03</pdfrwt>
<pdfrwt beam="2">  1       21 0.87712107E-01 0.27639071E+03</pdfrwt>
<totfact> 0.27849260E+05</totfact>
</mgrwt>
</event>
<event>
 8    1  0.9331162E-006  0.3071279E+03  0.7546771E-02  0.1081731E+00
         21   -1    0    0  504  503  0.00000000000E+00  0.00000000000E+00  0.21679153724E+03  0.21679153724E+03  0.00000000000E+00 0.  1.
         21   -1    0    0  503  504 -0.00000000000E+00 -0.00000000000E+00 -0.10877678557E+03  0.10877678557E+03  0.00000000000E+00 0.  1.
         25    2    1    2    0    0 -0.42550951525E+02  0.76341886398E+02  0.72865699286E+02  0.16904411205E+03  0.12501133786E+03 0.  0.
         25    2    1    2    0    0  0.42550951525E+02 -0.76341886398E+02  0.35149052385E+02  0.15652421077E+03  0.12500282228E+03 0.  0.
          5    1    3    3  501    0 -0.84655394620E+02  0.40702528099E+02  0.61939069331E+02  0.11261336484E+03  0.47000000000E+01 0.  1.
         -5    1    3    3    0  501  0.42104443095E+02  0.35639358299E+02  0.10926629955E+02  0.56430747208E+02  0.47000000000E+01 0.  1.
          5    1    4    4  502    0  0.41908136474E+00 -0.28332679838E+02  0.75531761799E+02  0.80808745916E+02  0.47000000000E+01 0.  1.
         -5    1    4    4    0  502  0.42131870160E+02 -0.48009206560E+02 -0.40382709414E+02  0.75715464850E+02  0.47000000000E+01 0.  1.
<mgrwt>
<rscale>  0 0.30712790E+03</rscale>
<asrwt>0</asrwt>
<pdfrwt beam="1">  1       21 0.33352544E-01 0.30712790E+03</pdfrwt>
<pdfrwt beam="2">  1       21 0.16734890E-01 0.30712790E+03</pdfrwt>
<totfact> 0.27054212E+05</totfact>
</mgrwt>
</event>
<event>
 8    1  0.9331162E-006  0.2581644E+03  0.7546771E-02  0.1108251E+00
         21   -1    0    0  504  503  0.00000000000E+00  0.00000000000E+00  0.66670398560E+02  0.66670398560E+02  0.00000000000E+00 0.  1.
         21   -1    0    0  503  504 -0.00000000000E+00 -0.00000000000E+00 -0.24991915651E+03  0.24991915651E+03  0.00000000000E+00 0.  1.
         25    2    1    2    0    0 -0.30889589747E+02  0.18596742889E+00 -0.10279252169E+03  0.16476007729E+03  0.12500151685E+03 0.  0.
         25    2    1    2    0    0  0.30889589747E+02 -0.18596742889E+00 -0.80456236261E+02  0.15182947778E+03  0.12499913212E+03 0.  0.
          5    1    3    3  501    0 -0.10525507635E+02 -0.29450189411E+02 -0.12037369543E+03  0.12445889489E+03  0.47000000000E+01 0.  1.
         -5    1    3    3    0  501 -0.20364082113E+02  0.29636156840E+02  0.17581173737E+02  0.40301182395E+02  0.47000000000E+01 0.  1.
          5    1    4    4  502    0 -0.26998679369E+02  0.28204208742E+02  0.10066237276E+02  0.40593413399E+02  0.47000000000E+01 0.  1.
         -5    1    4    4    0  502  0.57888269116E+02 -0.28390176171E+02 -0.90522473538E+02  0.11123606438E+03  0.47000000000E+01 0.  1.
<mgrwt>
<rscale>  0 0.25816436E+03</rscale>
<asrwt>0</asrwt>
<pdfrwt beam="1">  1       21 0.10256984E-01 0.25816436E+03</pdfrwt>
<pdfrwt beam="2">  1       21 0.38449101E-01 0.25816436E+03</pdfrwt>
<totfact> 0.49959797E+05</totfact>
</mgrwt>
</event>
<event>
 8    1  0.9331162E-006  0.4194246E+03  0.7546771E-02  0.1037254E+00
         21   -1    0    0  504  503  0.00000000000E+00  0.00000000000E+00  0.32046224107E+03  0.32046224107E+03  0.00000000000E+00 0. -1.
         21   -1    0    0  503  504 -0.00000000000E+00 -0.00000000000E+00 -0.13723689871E+03  0.13723689871E+03  0.00000000000E+00 0. -1.
         25    2    1    2    0    0 -0.13380834642E+03 -0.63634192647E+02  0.43109438296E+01  0.19390058960E+03  0.12499948147E+03 0.  0.
         25    2    1    2    0    0  0.13380834642E+03  0.63634192647E+02  0.17891439853E+03  0.26379855017E+03  0.12500131611E+03 0.  0.
          5    1    3    3  501    0 -0.68215301266E+02 -0.17127750017E+02  0.62762639430E+02  0.94381809983E+02  0.47000000000E+01 0. -1.
         -5    1    3    3    0  501 -0.65593045152E+02 -0.46506442630E+02 -0.58451695601E+02  0.99518779620E+02  0.47000000000E+01 0. -1.
          5    1    4    4  502    0  0.57395440408E+02  0.90235626328E+02  0.69470214803E+02  0.12761232536E+03  0.47000000000E+01 0.  1.
         -5    1    4    4    0  502  0.76412906010E+02 -0.26601433681E+02  0.10944418372E+03  0.13618622482E+03  0.47000000000E+01 0.  1.
<mgrwt>
<rscale>  0 0.41942458E+03</rscale>
<asrwt>0</asrwt>
<pdfrwt beam="1">  1       21 0.49301883E-01 0.41942458E+03</pdfrwt>
<pdfrwt beam="2">  1       21 0.21113369E-01 0.41942458E+03</pdfrwt>
<totfact> 0.76429145E+04</totfact>
</mgrwt>
</event>
<event>
 8    1  0.9331162E-006  0.3540816E+03  0.7546771E-02  0.1060952E+00
         21   -1    0    0  504  503  0.00000000000E+00  0.00000000000E+00  0.71964926179E+02  0.71964926179E+02  0.00000000000E+00 0.  1.
         21   -1    0    0  503  504 -0.00000000000E+00 -0.00000000000E+00 -0.43553767328E+03  0.43553767328E+03  0.00000000000E+00 0.  1.
         25    2    1    2    0    0  0.12415057769E+03  0.10470461128E+02 -0.20179223745E+03  0.26808450741E+03  0.12500479800E+03 0.  0.
         25    2    1    2    0    0 -0.12415057769E+03 -0.10470461128E+02 -0.16178050966E+03  0.23941809205E+03  0.12500037201E+03 0.  0.
          5    1    3    3  501    0  0.14118613670E+02  0.28758346273E+02 -0.13314825685E+03  0.13702892408E+03  0.47000000000E+01 0.  1.
         -5    1    3    3    0  501  0.11003196402E+03 -0.18287885145E+02 -0.68643980594E+02  0.13105558332E+03  0.47000000000E+01 0.  1.
          5    1    4    4  502    0 -0.13736001750E+03  0.22777576962E+02 -0.13868582737E+03  0.19657680721E+03  0.47000000000E+01 0.  1.
         -5    1    4    4    0  502  0.13209439813E+02 -0.33248038090E+02 -0.23094682285E+02  0.42841284841E+02  0.47000000000E+01 0.  1.
<mgrwt>
<rscale>  0 0.35408155E+03</rscale>
<asrwt>0</asrwt>
<pdfrwt beam="1">  1       21 0.11071527E-01 0.35408155E+03</pdfrwt>
<pdfrwt beam="2">  1       21 0.67005794E-01 0.35408155E+03</pdfrwt>
<totfact> 0.13184577E+05</totfact>
</mgrwt>
</event>
<event>
 8    1  0.9331162E-006  0.3395458E+03  0.7546771E-02  0.1066990E+00
         21   -1    0    0  504  503  0.00000000000E+00  0.00000000000E+00  0.68597555320E+02  0.68597555320E+02  0.00000000000E+00 0.  1.
         21   -1    0    0  503  504 -0.00000000000E+00 -0.00000000000E+00 -0.42017306509E+03  0.42017306509E+03  0.00000000000E+00 0.  1.
         25    2    1    2    0    0  0.11249561813E+02  0.19503995288E+01 -0.34033475929E+03  0.36274348972E+03  0.12499893702E+03 0.  0.
         25    2    1    2    0    0 -0.11249561813E+02 -0.19503995288E+01 -0.11240750487E+02  0.12602713069E+03  0.12500450592E+03 0.  0.
          5    1    3    3  501    0  0.34365603098E+02  0.48962492166E+02 -0.99173105328E+02  0.11591253226E+03  0.47000000000E+01 0.  1.
         -5    1    3    3    0  501 -0.23116041285E+02 -0.47012092637E+02 -0.24116165396E+03  0.24683095745E+03  0.47000000000E+01 0.  1.
          5    1    4    4  502    0 -0.49572969022E+02  0.61055802073E+01 -0.49927945111E+02  0.70778860335E+02  0.47000000000E+01 0. -1.
         -5    1    4    4    0  502  0.38323407209E+02 -0.80559797361E+01  0.38687194624E+02  0.55248270358E+02  0.47000000000E+01 0. -1.
<mgrwt>
<rscale>  0 0.33954584E+03</rscale>
<asrwt>0</asrwt>
<pdfrwt beam="1">  1       21 0.10553470E-01 0.33954584E+03</pdfrwt>
<pdfrwt beam="2">  1       21 0.64642008E-01 0.33954584E+03</pdfrwt>
<totfact> 0.15611036E+05</totfact>
</mgrwt>
</event>
<event>
 8    1  0.9331162E-006  0.3101144E+03  0.7546771E-02  0.1080291E+00
         21   -1    0    0  504  503  0.00000000000E+00  0.00000000000E+00  0.22999941635E+02  0.22999941635E+02  0.00000000000E+00 0.  1.
         21   -1    0    0  503  504 -0.00000000000E+00 -0.00000000000E+00 -0.10453389849E+04  0.10453389849E+04  0.00000000000E+00 0.  1.
         25    2    1    2    0    0 -0.11981727770E+02  0.14509211713E+02 -0.82052135913E+03  0.83020080051E+03  0.12499595735E+03 0.  0.
         25    2    1    2    0    0  0.11981727770E+02 -0.14509211713E+02 -0.20181768411E+03  0.23813812600E+03  0.12500124164E+03 0.  0.
          5    1    3    3  501    0 -0.36682526720E+02 -0.46245136111E+02 -0.32692310225E+03  0.33224241928E+03  0.47000000000E+01 0.  1.
         -5    1    3    3    0  501  0.24700798950E+02  0.60754347824E+02 -0.49359825687E+03  0.49795838123E+03  0.47000000000E+01 0.  1.
          5    1    4    4  502    0  0.63876355307E+02 -0.31709764689E+02 -0.11027226277E+03  0.13140684868E+03  0.47000000000E+01 0. -1.
         -5    1    4    4    0  502 -0.51894627537E+02  0.17200552976E+02 -0.91545421345E+02  0.10673127732E+03  0.47000000000E+01 0. -1.
<mgrwt>
<rscale>  0 0.31011440E+03</rscale>
<asrwt>0</asrwt>
<pdfrwt beam="1">  1       21 0.35384522E-02 0.31011440E+03</pdfrwt>
<pdfrwt beam="2">  1       21 0.16082140E+00 0.31011440E+03</pdfrwt>
<totfact> 0.11387124E+05</totfact>
</mgrwt>
</event>
<event>
 8    1  0.9331162E-006  0.3155075E+03  0.7546771E-02  0.1077736E+00
         21   -1    0    0  504  503  0.00000000000E+00  0.00000000000E+00  0.80340626590E+03  0.80340626590E+03  0.00000000000E+00 0. -1.
         21   -1    0    0  503  504 -0.00000000000E+00 -0.00000000000E+00 -0.30975911476E+02  0.30975911476E+02  0.00000000000E+00 0. -1.
         25    2    1    2    0    0 -0.43111139404E+01 -0.53435790928E+02  0.59747251285E+03  0.61275877903E+03  0.12500379280E+03 0.  0.
         25    2    1    2    0    0  0.43111139404E+01  0.53435790928E+02  0.17495784158E+03  0.22162339835E+03  0.12503085583E+03 0.  0.
          5    1    3    3  501    0  0.48098256395E+01 -0.96305761788E+01  0.53828280029E+03  0.53841094483E+03  0.47000000000E+01 0. -1.
         -5    1    3    3    0  501 -0.91209395798E+01 -0.43805214750E+02  0.59189712558E+02  0.74347834204E+02  0.47000000000E+01 0. -1.
          5    1    4    4  502    0 -0.22990999032E+02  0.65040575036E+02  0.17845712460E+03  0.19138416277E+03  0.47000000000E+01 0. -1.
         -5    1    4    4    0  502  0.27302112973E+02 -0.11604784108E+02 -0.34992830207E+01  0.30239235583E+02  0.47000000000E+01 0. -1.
<mgrwt>
<rscale>  0 0.31550747E+03</rscale>
<asrwt>0</asrwt>
<pdfrwt beam="1">  1       21 0.12360095E+00 0.31550747E+03</pdfrwt>
<pdfrwt beam="2">  1       21 0.47655255E-02 0.31550747E+03</pdfrwt>
<totfact> 0.13724877E+05</totfact>
</mgrwt>
</event>
<event>
 8    1  0.9331162E-006  0.3873037E+03  0.7546771E-02  0.1048267E+00
         21   -1    0    0  504  503  0.00000000000E+00  0.00000000000E+00  0.60365323631E+03  0.60365323631E+03  0.00000000000E+00 0.  1.
         21   -1    0    0  503  504 -0.00000000000E+00 -0.00000000000E+00 -0.62123477767E+02  0.62123477767E+02  0.00000000000E+00 0.  1.
         25    2    1    2    0    0  0.50329223766E+02 -0.11703296182E+03  0.39993170572E+03  0.43794974923E+03  0.12499947477E+03 0.  0.
         25    2    1    2    0    0 -0.50329223766E+02  0.11703296182E+03  0.14159805283E+03  0.22782696485E+03  0.12500148972E+03 0.  0.
          5    1    3    3  501    0  0.65281894439E+02 -0.67170297163E+02  0.36043540803E+03  0.37243703888E+03  0.47000000000E+01 0. -1.
         -5    1    3    3    0  501 -0.14952670673E+02 -0.49862664654E+02  0.39496297682E+02  0.65512710349E+02  0.47000000000E+01 0. -1.
          5    1    4    4  502    0  0.26185245352E+02  0.35957417708E+02  0.98561670080E+02  0.10823629600E+03  0.47000000000E+01 0.  1.
         -5    1    4    4    0  502 -0.76514469118E+02  0.81075544108E+02  0.43036382746E+02  0.11959066885E+03  0.47000000000E+01 0.  1.
<mgrwt>
<rscale>  0 0.38730370E+03</rscale>
<asrwt>0</asrwt>
<pdfrwt beam="1">  1       21 0.92869725E-01 0.38730370E+03</pdfrwt>
<pdfrwt beam="2">  1       21 0.95574585E-02 0.38730370E+03</pdfrwt>
<totfact> 0.80554854E+04</totfact>
</mgrwt>
</event>
<event>
 8    1  0.9331162E-006  0.3088079E+03  0.7546771E-02  0.1080919E+00
         21   -1    0    0  504  503  0.00000000000E+00  0.00000000000E+00  0.27128739827E+03  0.27128739827E+03  0.00000000000E+00 0.  1.
         21   -1    0    0  503  504 -0.00000000000E+00 -0.00000000000E+00 -0.87879403221E+02  0.87879403221E+02  0.00000000000E+00 0.  1.
         25    2    1    2    0    0 -0.28056234486E+02  0.63968481194E+02  0.15887795216E+03  0.21388378332E+03  0.12499980081E+03 0.  0.
         25    2    1    2    0    0  0.28056234486E+02 -0.63968481194E+02  0.24530042890E+02  0.14528301818E+03  0.12500525384E+03 0.  0.
          5    1    3    3  501    0 -0.35936130904E+02 -0.30247889349E+02  0.39665681128E+02  0.61658710445E+02  0.47000000000E+01 0. -1.
         -5    1    3    3    0  501  0.78798964176E+01  0.94216370543E+02  0.11921227103E+03  0.15222507287E+03  0.47000000000E+01 0. -1.
          5    1    4    4  502    0  0.41884685399E+02 -0.54020524099E+02  0.69116206982E+02  0.97322576839E+02  0.47000000000E+01 0. -1.
         -5    1    4    4    0  502 -0.13828450913E+02 -0.99479570949E+01 -0.44586164092E+02  0.47960441339E+02  0.47000000000E+01 0. -1.
<mgrwt>
<rscale>  0 0.30880787E+03</rscale>
<asrwt>0</asrwt>
<pdfrwt beam="1">  1       21 0.41736522E-01 0.30880787E+03</pdfrwt>
<pdfrwt beam="2">  1       21 0.13519908E-01 0.30880787E+03</pdfrwt>
<totfact> 0.25441201E+05</totfact>
</mgrwt>
</event>
<event>
 8    1  0.9331162E-006  0.2884901E+03  0.7546771E-02  0.1091140E+00
         21   -1    0    0  504  503  0.00000000000E+00  0.00000000000E+00  0.62191569163E+02  0.62191569163E+02  0.00000000000E+00 0.  1.
         21   -1    0    0  503  504 -0.00000000000E+00 -0.00000000000E+00 -0.33455722649E+03  0.33455722649E+03  0.00000000000E+00 0.  1.
         25    2    1    2    0    0 -0.62325651136E+02 -0.13041434707E+02 -0.18237436981E+03  0.23008252346E+03  0.12499196386E+03 0.  0.
         25    2    1    2    0    0  0.62325651136E+02  0.13041434707E+02 -0.89991287513E+02  0.16666627219E+03  0.12499859459E+03 0.  0.
          5    1    3    3  501    0 -0.86300762430E+02 -0.45430375191E+02 -0.14570655564E+03  0.17539735158E+03  0.47000000000E+01 0.  1.
         -5    1    3    3    0  501  0.23975111294E+02  0.32388940484E+02 -0.36667814173E+02  0.54685171879E+02  0.47000000000E+01 0.  1.
          5    1    4    4  502    0  0.21323365252E+02  0.32669340114E+02  0.22476026509E+02  0.45268459846E+02  0.47000000000E+01 0.  1.
         -5    1    4    4    0  502  0.41002285884E+02 -0.19627905408E+02 -0.11246731402E+03  0.12139781234E+03  0.47000000000E+01 0.  1.
<mgrwt>
<rscale>  0 0.28849013E+03</rscale>
<asrwt>0</asrwt>
<pdfrwt beam="1">  1       21 0.95679336E-02 0.28849013E+03</pdfrwt>
<pdfrwt beam="2">  1       21 0.51470343E-01 0.28849013E+03</pdfrwt>
<totfact> 0.30751215E+05</totfact>
</mgrwt>
</event>
<event>
 8    1  0.9331162E-006  0.2984629E+03  0.7546771E-02  0.1086011E+00
         21   -1    0    0  504  503  0.00000000000E+00  0.00000000000E+00  0.19541453796E+02  0.19541453796E+02  0.00000000000E+00 0. -1.
         21   -1    0    0  503  504 -0.00000000000E+00 -0.00000000000E+00 -0.11396302902E+04  0.11396302902E+04  0.00000000000E+00 0. -1.
         25    2    1    2    0    0 -0.78273878975E+02  0.19392737492E+02 -0.51378696435E+03  0.53488740847E+03  0.12499846643E+03 0.  0.
         25    2    1    2    0    0  0.78273878975E+02 -0.19392737492E+02 -0.60630187209E+03  0.62428433556E+03  0.12500437243E+03 0.  0.
          5    1    3    3  501    0  0.20632783465E+02 -0.92419234418E+01 -0.25918698377E+03  0.26021358046E+03  0.47000000000E+01 0. -1.
         -5    1    3    3    0  501 -0.98906662440E+02  0.28634660933E+02 -0.25459998058E+03  0.27467382801E+03  0.47000000000E+01 0. -1.
          5    1    4    4  502    0  0.94572435357E+02  0.19772095750E+02 -0.50783386195E+03  0.51696441138E+03  0.47000000000E+01 0.  1.
         -5    1    4    4    0  502 -0.16298556382E+02 -0.39164833242E+02 -0.98468010141E+02  0.10731992417E+03  0.47000000000E+01 0.  1.
<mgrwt>
<rscale>  0 0.29846295E+03</rscale>
<asrwt>0</asrwt>
<pdfrwt beam="1">  1       21 0.30063779E-02 0.29846295E+03</pdfrwt>
<pdfrwt beam="2">  1       21 0.17532772E+00 0.29846295E+03</pdfrwt>
<totfact> 0.11803626E+05</totfact>
</mgrwt>
</event>
<event>
 8    1  0.9331162E-006  0.2627248E+03  0.7546771E-02  0.1105517E+00
         21   -1    0    0  504  503  0.00000000000E+00  0.00000000000E+00  0.67204680492E+03  0.67204680492E+03  0.00000000000E+00 0.  1.
         21   -1    0    0  503  504 -0.00000000000E+00 -0.00000000000E+00 -0.25676901091E+02  0.25676901091E+02  0.00000000000E+00 0.  1.
         25    2    1    2    0    0  0.14428451847E+02 -0.62203665640E+01  0.42192579895E+03  0.44033837246E+03  0.12501851567E+03 0.  0.
         25    2    1    2    0    0 -0.14428451847E+02  0.62203665640E+01  0.22444410488E+03  0.25738533355E+03  0.12500072211E+03 0.  0.
          5    1    3    3  501    0 -0.40293024531E+02  0.14596253035E+02  0.61191578468E+02  0.74853708685E+02  0.47000000000E+01 0.  1.
         -5    1    3    3    0  501  0.54721476378E+02 -0.20816619599E+02  0.36073422048E+03  0.36548466377E+03  0.47000000000E+01 0.  1.
          5    1    4    4  502    0  0.37744071848E+02  0.36727064669E+02  0.50241942133E+02  0.72937198933E+02  0.47000000000E+01 0.  1.
         -5    1    4    4    0  502 -0.52172523695E+02 -0.30506698105E+02  0.17420216275E+03  0.18444813462E+03  0.47000000000E+01 0.  1.
<mgrwt>
<rscale>  0 0.26272479E+03</rscale>
<asrwt>0</asrwt>
<pdfrwt beam="1">  1       21 0.10339180E+00 0.26272479E+03</pdfrwt>
<pdfrwt beam="2">  1       21 0.39502930E-02 0.26272479E+03</pdfrwt>
<totfact> 0.29738183E+05</totfact>
</mgrwt>
</event>
<event>
 8    1  0.9331162E-006  0.3608427E+03  0.7546771E-02  0.1058251E+00
         21   -1    0    0  504  503  0.00000000000E+00  0.00000000000E+00  0.12332716546E+03  0.12332716546E+03  0.00000000000E+00 0. -1.
         21   -1    0    0  503  504 -0.00000000000E+00 -0.00000000000E+00 -0.26394721263E+03  0.26394721263E+03  0.00000000000E+00 0. -1.
         25    2    1    2    0    0  0.76336604528E+02 -0.92475749590E+02 -0.12442818883E+03  0.21328883945E+03  0.12502285154E+03 0.  0.
         25    2    1    2    0    0 -0.76336604528E+02  0.92475749590E+02 -0.16191858341E+02  0.17398553864E+03  0.12501899827E+03 0.  0.
          5    1    3    3  501    0  0.70197101859E+02 -0.98847346058E+02 -0.14580360261E+03  0.18968186910E+03  0.47000000000E+01 0.  1.
         -5    1    3    3    0  501  0.61395026690E+01  0.63715964680E+01  0.21375413783E+02  0.23606970347E+02  0.47000000000E+01 0.  1.
          5    1    4    4  502    0 -0.78935236330E+00 -0.27699691768E+02 -0.15203776827E+02  0.31955294257E+02  0.47000000000E+01 0.  1.
         -5    1    4    4    0  502 -0.75547252165E+02  0.12017544136E+03 -0.98808151375E+00  0.14203024439E+03  0.47000000000E+01 0.  1.
<mgrwt>
<rscale>  0 0.36084269E+03</rscale>
<asrwt>0</asrwt>
<pdfrwt beam="1">  1       21 0.18973410E-01 0.36084269E+03</pdfrwt>
<pdfrwt beam="2">  1       21 0.40607263E-01 0.36084269E+03</pdfrwt>
<totfact> 0.14207912E+05</totfact>
</mgrwt>
</event>
<event>
 8    1  0.9331162E-006  0.2534839E+03  0.7546771E-02  0.1111123E+00
         21   -1    0    0  504  503  0.00000000000E+00  0.00000000000E+00  0.11316855883E+03  0.11316855883E+03  0.00000000000E+00 0. -1.
         21   -1    0    0  503  504 -0.00000000000E+00 -0.00000000000E+00 -0.14194333243E+03  0.14194333243E+03  0.00000000000E+00 0. -1.
         25    2    1    2    0    0 -0.11843469147E+02  0.17799702117E+01 -0.31657606908E+02  0.12949904072E+03  0.12499744564E+03 0.  0.
         25    2    1    2    0    0  0.11843469147E+02 -0.17799702117E+01  0.28828333052E+01  0.12561285054E+03  0.12500736553E+03 0.  0.
          5    1    3    3  501    0 -0.21101269948E+02 -0.13021774232E+02  0.44536047564E+02  0.51189644756E+02  0.47000000000E+01 0. -1.
         -5    1    3    3    0  501  0.92578008005E+01  0.14801744443E+02 -0.76193654472E+02  0.78309395963E+02  0.47000000000E+01 0. -1.
          5    1    4    4  502    0  0.41616157006E+02  0.19318539794E+02  0.48552479873E+02  0.66966736561E+02  0.47000000000E+01 0.  1.
         -5    1    4    4    0  502 -0.29772687859E+02 -0.21098510005E+02 -0.45669646568E+02  0.58646113976E+02  0.47000000000E+01 0.  1.
<mgrwt>
<rscale>  0 0.25348390E+03</rscale>
<asrwt>0</asrwt>
<pdfrwt beam="1">  1       21 0.17410548E-01 0.25348390E+03</pdfrwt>
<pdfrwt beam="2">  1       21 0.21837436E-01 0.25348390E+03</pdfrwt>
<totfact> 0.57808868E+05</totfact>
</mgrwt>
</event>
<event>
 8    1  0.9331162E-006  0.3375539E+03  0.7546771E-02  0.1067843E+00
         21   -1    0    0  504  503  0.00000000000E+00  0.00000000000E+00  0.27233848637E+03  0.27233848637E+03  0.00000000000E+00 0. -1.
         21   -1    0    0  503  504 -0.00000000000E+00 -0.00000000000E+00 -0.10459651962E+03  0.10459651962E+03  0.00000000000E+00 0. -1.
         25    2    1    2    0    0  0.10322110848E+03 -0.46150765371E+02  0.93607522979E+02  0.19280092532E+03  0.12500135226E+03 0.  0.
         25    2    1    2    0    0 -0.10322110848E+03  0.46150765371E+02  0.74134443776E+02  0.18413408067E+03  0.12499981412E+03 0.  0.
          5    1    3    3  501    0  0.12664211389E+03 -0.13178962900E+02  0.76675260224E+02  0.14870472623E+03  0.47000000000E+01 0.  1.
         -5    1    3    3    0  501 -0.23421005407E+02 -0.32971802470E+02  0.16932262755E+02  0.44096199093E+02  0.47000000000E+01 0.  1.
          5    1    4    4  502    0 -0.20051218071E+02 -0.42300826272E+02  0.20632461820E+02  0.51373142109E+02  0.47000000000E+01 0. -1.
         -5    1    4    4    0  502 -0.83169890408E+02  0.88451591643E+02  0.53501981955E+02  0.13276093856E+03  0.47000000000E+01 0. -1.
<mgrwt>
<rscale>  0 0.33755389E+03</rscale>
<asrwt>0</asrwt>
<pdfrwt beam="1">  1       21 0.41898228E-01 0.33755389E+03</pdfrwt>
<pdfrwt beam="2">  1       21 0.16091772E-01 0.33755389E+03</pdfrwt>
<totfact> 0.18213211E+05</totfact>
</mgrwt>
</event>
<event>
 8    1  0.9331162E-006  0.2642539E+03  0.7546771E-02  0.1104614E+00
         21   -1    0    0  504  503  0.00000000000E+00  0.00000000000E+00  0.23057138342E+03  0.23057138342E+03  0.00000000000E+00 0.  1.
         21   -1    0    0  503  504 -0.00000000000E+00 -0.00000000000E+00 -0.75714239453E+02  0.75714239453E+02  0.00000000000E+00 0.  1.
         25    2    1    2    0    0  0.10493181067E+02  0.25390619875E+02  0.39377570109E+02  0.13390380808E+03  0.12499938545E+03 0.  0.
         25    2    1    2    0    0 -0.10493181067E+02 -0.25390619875E+02  0.11547957385E+03  0.17238181480E+03  0.12500067067E+03 0.  0.
          5    1    3    3  501    0 -0.18853289696E+02  0.10153822998E+02 -0.41204917957E+02  0.46674210413E+02  0.47000000000E+01 0. -1.
         -5    1    3    3    0  501  0.29346470763E+02  0.15236796877E+02  0.80582488066E+02  0.87229597662E+02  0.47000000000E+01 0. -1.
          5    1    4    4  502    0  0.39270127035E+02  0.92678843094E+01 -0.13746061604E+01  0.40645000910E+02  0.47000000000E+01 0. -1.
         -5    1    4    4    0  502 -0.49763308102E+02 -0.34658504185E+02  0.11685418002E+03  0.13173681389E+03  0.47000000000E+01 0. -1.
<mgrwt>
<rscale>  0 0.26425395E+03</rscale>
<asrwt>0</asrwt>
<pdfrwt beam="1">  1       21 0.35472520E-01 0.26425395E+03</pdfrwt>
<pdfrwt beam="2">  1       21 0.11648345E-01 0.26425395E+03</pdfrwt>
<totfact> 0.46743638E+05</totfact>
</mgrwt>
</event>
<event>
 8    1  0.9331162E-006  0.3143480E+03  0.7546771E-02  0.1078280E+00
         21   -1    0    0  504  503  0.00000000000E+00  0.00000000000E+00  0.60331676389E+02  0.60331676389E+02  0.00000000000E+00 0.  1.
         21   -1    0    0  503  504 -0.00000000000E+00 -0.00000000000E+00 -0.40946426384E+03  0.40946426384E+03  0.00000000000E+00 0.  1.
         25    2    1    2    0    0 -0.10136102539E+02  0.72205083205E+02 -0.26616418984E+03  0.30299107516E+03  0.12507558138E+03 0.  0.
         25    2    1    2    0    0  0.10136102539E+02 -0.72205083205E+02 -0.82968397614E+02  0.16680486507E+03  0.12499517348E+03 0.  0.
          5    1    3    3  501    0 -0.39823131206E+02 -0.17143501128E+02 -0.45451930058E+02  0.62990073472E+02  0.47000000000E+01 0.  1.
         -5    1    3    3    0  501  0.29687028667E+02  0.89348584333E+02 -0.22071225978E+03  0.24000100169E+03  0.47000000000E+01 0.  1.
          5    1    4    4  502    0  0.45986177413E+02 -0.66101045654E+02 -0.98215903038E+02  0.12709260545E+03  0.47000000000E+01 0. -1.
         -5    1    4    4    0  502 -0.35850074874E+02 -0.61040375516E+01  0.15247505424E+02  0.39712259625E+02  0.47000000000E+01 0. -1.
<mgrwt>
<rscale>  0 0.31434799E+03</rscale>
<asrwt>0</asrwt>
<pdfrwt beam="1">  1       21 0.92817960E-02 0.31434799E+03</pdfrwt>
<pdfrwt beam="2">  1       21 0.62994505E-01 0.31434799E+03</pdfrwt>
<totfact> 0.20896938E+05</totfact>
</mgrwt>
</event>
<event>
 8    1  0.9331162E-006  0.2832430E+03  0.7546771E-02  0.1093931E+00
         21   -1    0    0  504  503  0.00000000000E+00  0.00000000000E+00  0.82735857928E+02  0.82735857928E+02  0.00000000000E+00 0.  1.
         21   -1    0    0  503  504 -0.00000000000E+00 -0.00000000000E+00 -0.24241779760E+03  0.24241779760E+03  0.00000000000E+00 0.  1.
         25    2    1    2    0    0 -0.42764261535E+01  0.64133839489E+02 -0.99664796012E+02  0.17232026606E+03  0.12501905991E+03 0.  0.
         25    2    1    2    0    0  0.42764261535E+01 -0.64133839489E+02 -0.60017143656E+02  0.15283338947E+03  0.12499820085E+03 0.  0.
          5    1    3    3  501    0  0.22696060005E+02  0.66915277950E+02 -0.11914637007E+03  0.13860271666E+03  0.47000000000E+01 0.  1.
         -5    1    3    3    0  501 -0.26972486159E+02 -0.27814384614E+01  0.19481574062E+02  0.33717549399E+02  0.47000000000E+01 0.  1.
          5    1    4    4  502    0 -0.57195902940E+01  0.33747182513E+02 -0.39020923068E+02  0.52118216372E+02  0.47000000000E+01 0. -1.
         -5    1    4    4    0  502  0.99960164475E+01 -0.97881022002E+02 -0.20996220588E+02  0.10071517310E+03  0.47000000000E+01 0. -1.
<mgrwt>
<rscale>  0 0.28324297E+03</rscale>
<asrwt>0</asrwt>
<pdfrwt beam="1">  1       21 0.12728594E-01 0.28324297E+03</pdfrwt>
<pdfrwt beam="2">  1       21 0.37295045E-01 0.28324297E+03</pdfrwt>
<totfact> 0.35885186E+05</totfact>
</mgrwt>
</event>
<event>
 8    1  0.9331162E-006  0.4545471E+03  0.7546771E-02  0.1026375E+00
         21   -1    0    0  504  503  0.00000000000E+00  0.00000000000E+00  0.11299731397E+04  0.11299731397E+04  0.00000000000E+00 0. -1.
         21   -1    0    0  503  504 -0.00000000000E+00 -0.00000000000E+00 -0.45711945665E+02  0.45711945665E+02  0.00000000000E+00 0. -1.
         25    2    1    2    0    0 -0.17240272794E+03  0.78254137817E+02  0.57677138020E+03  0.61978747242E+03  0.12499950107E+03 0.  0.
         25    2    1    2    0    0  0.17240272794E+03 -0.78254137817E+02  0.50748981386E+03  0.55589761297E+03  0.12501933548E+03 0.  0.
          5    1    3    3  501    0 -0.12316461976E+03  0.62540852138E+02  0.22392723419E+03  0.26314706527E+03  0.47000000000E+01 0.  1.
         -5    1    3    3    0  501 -0.49238108181E+02  0.15713285680E+02  0.35284414601E+03  0.35664040715E+03  0.47000000000E+01 0.  1.
          5    1    4    4  502    0  0.16069432519E+02  0.28586019373E+02  0.12154078738E+03  0.12597476002E+03  0.47000000000E+01 0.  1.
         -5    1    4    4    0  502  0.15633329542E+03 -0.10684015719E+03  0.38594902648E+03  0.42992285294E+03  0.47000000000E+01 0.  1.
<mgrwt>
<rscale>  0 0.45454712E+03</rscale>
<asrwt>0</asrwt>
<pdfrwt beam="1">  1       21 0.17384200E+00 0.45454712E+03</pdfrwt>
<pdfrwt beam="2">  1       21 0.70326079E-02 0.45454712E+03</pdfrwt>
<totfact> 0.26851549E+04</totfact>
</mgrwt>
</event>
<event>
 8    1  0.9331162E-006  0.2993071E+03  0.7546771E-02  0.1085588E+00
         21   -1    0    0  504  503  0.00000000000E+00  0.00000000000E+00  0.93743331356E+02  0.93743331356E+02  0.00000000000E+00 0. -1.
         21   -1    0    0  503  504 -0.00000000000E+00 -0.00000000000E+00 -0.23890956598E+03  0.23890956598E+03  0.00000000000E+00 0. -1.
         25    2    1    2    0    0 -0.52737114189E+02  0.30034011682E+02 -0.13432463565E+03  0.19326419543E+03  0.12499878567E+03 0.  0.
         25    2    1    2    0    0  0.52737114189E+02 -0.30034011682E+02 -0.10841598976E+02  0.13938870191E+03  0.12501369878E+03 0.  0.
          5    1    3    3  501    0 -0.54606386260E+02  0.80054238253E+01 -0.15377426945E+03  0.16344589373E+03  0.47000000000E+01 0.  1.
         -5    1    3    3    0  501  0.18692720716E+01  0.22028587856E+02  0.19449633802E+02  0.29818301696E+02  0.47000000000E+01 0.  1.
          5    1    4    4  502    0  0.59231759840E+02  0.18398858086E+02 -0.47380396436E+02  0.78191504136E+02  0.47000000000E+01 0. -1.
         -5    1    4    4    0  502 -0.64946456512E+01 -0.48432869768E+02  0.36538797460E+02  0.61197197778E+02  0.47000000000E+01 0. -1.
<mgrwt>
<rscale>  0 0.29930706E+03</rscale>
<asrwt>0</asrwt>
<pdfrwt beam="1">  1       21 0.14422051E-01 0.29930706E+03</pdfrwt>
<pdfrwt beam="2">  1       21 0.36755317E-01 0.29930706E+03</pdfrwt>
<totfact> 0.29338092E+05</totfact>
</mgrwt>
</event>
<event>
 8    1  0.9331162E-006  0.3295096E+03  0.7546771E-02  0.1071354E+00
         21   -1    0    0  504  503  0.00000000000E+00  0.00000000000E+00  0.97295340064E+03  0.97295340064E+03  0.00000000000E+00 0.  1.
         21   -1    0    0  503  504 -0.00000000000E+00 -0.00000000000E+00 -0.27898702908E+02  0.27898702908E+02  0.00000000000E+00 0.  1.
         25    2    1    2    0    0 -0.66079228008E+02  0.84113526490E+02  0.44551629651E+03  0.47492068556E+03  0.12499334944E+03 0.  0.
         25    2    1    2    0    0  0.66079228008E+02 -0.84113526490E+02  0.49953840122E+03  0.52593141799E+03  0.12499476957E+03 0.  0.
          5    1    3    3  501    0  0.24971191709E+02  0.52833504219E+02  0.97179155198E+02  0.11349369052E+03  0.47000000000E+01 0.  1.
         -5    1    3    3    0  501 -0.91050419717E+02  0.31280022271E+02  0.34833714131E+03  0.36142699504E+03  0.47000000000E+01 0.  1.
          5    1    4    4  502    0  0.70528465523E+02  0.79557994174E+01  0.18791362765E+03  0.20092580882E+03  0.47000000000E+01 0.  1.
         -5    1    4    4    0  502 -0.44492375148E+01 -0.92069325907E+02  0.31162477357E+03  0.32500560917E+03  0.47000000000E+01 0.  1.
<mgrwt>
<rscale>  0 0.32950956E+03</rscale>
<asrwt>0</asrwt>
<pdfrwt beam="1">  1       21 0.14968511E+00 0.32950956E+03</pdfrwt>
<pdfrwt beam="2">  1       21 0.42921089E-02 0.32950956E+03</pdfrwt>
<totfact> 0.99203997E+04</totfact>
</mgrwt>
</event>
<event>
 8    1  0.9331162E-006  0.3309059E+03  0.7546771E-02  0.1070737E+00
         21   -1    0    0  504  503  0.00000000000E+00  0.00000000000E+00  0.49626121832E+02  0.49626121832E+02  0.00000000000E+00 0. -1.
         21   -1    0    0  503  504 -0.00000000000E+00 -0.00000000000E+00 -0.55161825382E+03  0.55161825382E+03  0.00000000000E+00 0. -1.
         25    2    1    2    0    0  0.68820563183E+01  0.70182817499E+02 -0.40056964423E+03  0.42550409472E+03  0.12499881669E+03 0.  0.
         25    2    1    2    0    0 -0.68820563183E+01 -0.70182817499E+02 -0.10142248776E+03  0.17574028093E+03  0.12500053899E+03 0.  0.
          5    1    3    3  501    0 -0.46693817801E+02  0.23592271459E+02 -0.28489194705E+03  0.28969366473E+03  0.47000000000E+01 0.  1.
         -5    1    3    3    0  501  0.53575874119E+02  0.46590546040E+02 -0.11567769718E+03  0.13581042998E+03  0.47000000000E+01 0.  1.
          5    1    4    4  502    0 -0.17826637644E+01  0.12097864854E+02 -0.91661466204E+02  0.92592929594E+02  0.47000000000E+01 0.  1.
         -5    1    4    4    0  502 -0.50993925538E+01 -0.82280682353E+02 -0.97610215562E+01  0.83147351339E+02  0.47000000000E+01 0.  1.
<mgrwt>
<rscale>  0 0.33090588E+03</rscale>
<asrwt>0</asrwt>
<pdfrwt beam="1">  1       21 0.76347883E-02 0.33090588E+03</pdfrwt>
<pdfrwt beam="2">  1       21 0.84864343E-01 0.33090588E+03</pdfrwt>
<totfact> 0.15019631E+05</totfact>
</mgrwt>
</event>
<event>
 8    1  0.9331162E-006  0.2665204E+03  0.7546771E-02  0.1103288E+00
         21   -1    0    0  504  503  0.00000000000E+00  0.00000000000E+00  0.27113721275E+02  0.27113721275E+02  0.00000000000E+00 0.  1.
         21   -1    0    0  503  504 -0.00000000000E+00 -0.00000000000E+00 -0.65495564326E+03  0.65495564326E+03  0.00000000000E+00 0.  1.
         25    2    1    2    0    0  0.22236485502E+02 -0.33848750598E+02 -0.25708798422E+03  0.28871889799E+03  0.12499668483E+03 0.  0.
         25    2    1    2    0    0 -0.22236485502E+02  0.33848750598E+02 -0.37075393776E+03  0.39335046655E+03  0.12500363180E+03 0.  0.
          5    1    3    3  501    0 -0.49583355572E+02 -0.20804406865E+02 -0.74279546103E+02  0.91819787976E+02  0.47000000000E+01 0.  1.
         -5    1    3    3    0  501  0.71819841074E+02 -0.13044343734E+02 -0.18280843812E+03  0.19689911001E+03  0.47000000000E+01 0.  1.
          5    1    4    4  502    0  0.31103871819E+02 -0.24136561267E+01 -0.21545636633E+02  0.38204463561E+02  0.47000000000E+01 0.  1.
         -5    1    4    4    0  502 -0.53340357321E+02  0.36262406725E+02 -0.34920830113E+03  0.35514600299E+03  0.47000000000E+01 0.  1.
<mgrwt>
<rscale>  0 0.26652043E+03</rscale>
<asrwt>0</asrwt>
<pdfrwt beam="1">  1       21 0.41713418E-02 0.26652043E+03</pdfrwt>
<pdfrwt beam="2">  1       21 0.10076240E+00 0.26652043E+03</pdfrwt>
<totfact> 0.28836110E+05</totfact>
</mgrwt>
</event>
<event>
 8    1  0.9331162E-006  0.3845648E+03  0.7546771E-02  0.1049259E+00
         21   -1    0    0  504  503  0.00000000000E+00  0.00000000000E+00  0.29263411054E+03  0.29263411054E+03  0.00000000000E+00 0. -1.
         21   -1    0    0  503  504 -0.00000000000E+00 -0.00000000000E+00 -0.12634387197E+03  0.12634387197E+03  0.00000000000E+00 0. -1.
         25    2    1    2    0    0  0.45488668194E+02 -0.11017657142E+03 -0.89989907282E+01  0.17290186098E+03  0.12492388032E+03 0.  0.
         25    2    1    2    0    0 -0.45488668194E+02  0.11017657142E+03  0.17528922929E+03  0.24607612152E+03  0.12497618915E+03 0.  0.
          5    1    3    3  501    0  0.51254279649E+02 -0.89309441380E+02 -0.58604880620E+02  0.11857402555E+03  0.47000000000E+01 0.  1.
         -5    1    3    3    0  501 -0.57656114551E+01 -0.20867130035E+02  0.49605889892E+02  0.54327835438E+02  0.47000000000E+01 0.  1.
          5    1    4    4  502    0 -0.21116535780E+02  0.10724634018E+03  0.18839206159E+03  0.21785624718E+03  0.47000000000E+01 0. -1.
         -5    1    4    4    0  502 -0.24372132414E+02  0.29302312373E+01 -0.13102832299E+02  0.28219874340E+02  0.47000000000E+01 0. -1.
<mgrwt>
<rscale>  0 0.38456483E+03</rscale>
<asrwt>0</asrwt>
<pdfrwt beam="1">  1       21 0.45020632E-01 0.38456483E+03</pdfrwt>
<pdfrwt beam="2">  1       21 0.19437519E-01 0.38456483E+03</pdfrwt>
<totfact> 0.10907838E+05</totfact>
</mgrwt>
</event>
<event>
 8    1  0.9331162E-006  0.2867788E+03  0.7546771E-02  0.1092043E+00
         21   -1    0    0  504  503  0.00000000000E+00  0.00000000000E+00  0.74264907042E+02  0.74264907042E+02  0.00000000000E+00 0.  1.
         21   -1    0    0  503  504 -0.00000000000E+00 -0.00000000000E+00 -0.27685373007E+03  0.27685373007E+03  0.00000000000E+00 0.  1.
         25    2    1    2    0    0  0.94684317680E+01 -0.63069587152E+02 -0.65192099505E+02  0.15472924841E+03  0.12499482570E+03 0.  0.
         25    2    1    2    0    0 -0.94684317680E+01  0.63069587152E+02 -0.13739672352E+03  0.19638938870E+03  0.12499403321E+03 0.  0.
          5    1    3    3  501    0  0.53464792889E+02  0.25732680017E-02 -0.55282190683E+02  0.77049949332E+02  0.47000000000E+01 0. -1.
         -5    1    3    3    0  501 -0.43996361121E+02 -0.63072160420E+02 -0.99099088221E+01  0.77679299076E+02  0.47000000000E+01 0. -1.
          5    1    4    4  502    0 -0.58224343197E+02  0.52233118210E+02 -0.42735787183E+02  0.89256990117E+02  0.47000000000E+01 0.  1.
         -5    1    4    4    0  502  0.48755911429E+02  0.10836468943E+02 -0.94660936336E+02  0.10713239858E+03  0.47000000000E+01 0.  1.
<mgrwt>
<rscale>  0 0.28677878E+03</rscale>
<asrwt>0</asrwt>
<pdfrwt beam="1">  1       21 0.11425370E-01 0.28677878E+03</pdfrwt>
<pdfrwt beam="2">  1       21 0.42592881E-01 0.28677878E+03</pdfrwt>
<totfact> 0.33245908E+05</totfact>
</mgrwt>
</event>
<event>
 8    1  0.9331162E-006  0.2586111E+03  0.7546771E-02  0.1107981E+00
         21   -1    0    0  504  503  0.00000000000E+00  0.00000000000E+00  0.75741574225E+02  0.75741574225E+02  0.00000000000E+00 0. -1.
         21   -1    0    0  503  504 -0.00000000000E+00 -0.00000000000E+00 -0.22074971755E+03  0.22074971755E+03  0.00000000000E+00 0. -1.
         25    2    1    2    0    0  0.19570495814E+01 -0.26166399453E+02 -0.49308925965E+02  0.13690017984E+03  0.12498711356E+03 0.  0.
         25    2    1    2    0    0 -0.19570495814E+01  0.26166399453E+02 -0.95699217366E+02  0.15959111194E+03  0.12498988881E+03 0.  0.
          5    1    3    3  501    0  0.24674756132E+01 -0.54591687595E+02  0.22683773275E+02  0.59354733260E+02  0.47000000000E+01 0. -1.
         -5    1    3    3    0  501 -0.51042603184E+00  0.28425288143E+02 -0.71992699240E+02  0.77545446575E+02  0.47000000000E+01 0. -1.
          5    1    4    4  502    0  0.54647664149E+02  0.32042988784E+02 -0.76302795164E+02  0.99284071618E+02  0.47000000000E+01 0. -1.
         -5    1    4    4    0  502 -0.56604713730E+02 -0.58765893314E+01 -0.19396422201E+02  0.60307040326E+02  0.47000000000E+01 0. -1.
<mgrwt>
<rscale>  0 0.25861115E+03</rscale>
<asrwt>0</asrwt>
<pdfrwt beam="1">  1       21 0.11652550E-01 0.25861115E+03</pdfrwt>
<pdfrwt beam="2">  1       21 0.33961495E-01 0.25861115E+03</pdfrwt>
<totfact> 0.51007436E+05</totfact>
</mgrwt>
</event>
<event>
 8    1  0.9331162E-006  0.3174974E+03  0.7546771E-02  0.1076807E+00
         21   -1    0    0  504  503  0.00000000000E+00  0.00000000000E+00  0.18809454352E+03  0.18809454352E+03  0.00000000000E+00 0. -1.
         21   -1    0    0  503  504 -0.00000000000E+00 -0.00000000000E+00 -0.13398130655E+03  0.13398130655E+03  0.00000000000E+00 0. -1.
         25    2    1    2    0    0  0.75056967227E+02 -0.51744167828E+02 -0.90240092740E+01  0.15497903195E+03  0.12500424140E+03 0.  0.
         25    2    1    2    0    0 -0.75056967227E+02  0.51744167828E+02  0.63137246246E+02  0.16709681811E+03  0.12499611005E+03 0.  0.
          5    1    3    3  501    0  0.55371835178E+02  0.14667327301E+02  0.39969466850E+02  0.70005849052E+02  0.47000000000E+01 0. -1.
         -5    1    3    3    0  501  0.19685132049E+02 -0.66411495129E+02 -0.48993476124E+02  0.84973182898E+02  0.47000000000E+01 0. -1.
          5    1    4    4  502    0 -0.74349628187E+02  0.88937250604E+02  0.56406784249E+02  0.12900200412E+03  0.47000000000E+01 0. -1.
         -5    1    4    4    0  502 -0.70733904088E+00 -0.37193082776E+02  0.67304619969E+01  0.38094813998E+02  0.47000000000E+01 0. -1.
<mgrwt>
<rscale>  0 0.31749742E+03</rscale>
<asrwt>0</asrwt>
<pdfrwt beam="1">  1       21 0.28937622E-01 0.31749742E+03</pdfrwt>
<pdfrwt beam="2">  1       21 0.20612509E-01 0.31749742E+03</pdfrwt>
<totfact> 0.24191475E+05</totfact>
</mgrwt>
</event>
<event>
 8    1  0.9331162E-006  0.4560084E+03  0.7546771E-02  0.1025945E+00
         21   -1    0    0  504  503  0.00000000000E+00  0.00000000000E+00  0.24772792525E+03  0.24772792525E+03  0.00000000000E+00 0.  1.
         21   -1    0    0  503  504 -0.00000000000E+00 -0.00000000000E+00 -0.20985080720E+03  0.20985080720E+03  0.00000000000E+00 0.  1.
         25    2    1    2    0    0  0.24171647531E+02  0.54251816082E+01  0.20865858716E+03  0.24449440579E+03  0.12500162929E+03 0.  0.
         25    2    1    2    0    0 -0.24171647531E+02 -0.54251816082E+01 -0.17078146911E+03  0.21308432667E+03  0.12499967577E+03 0.  0.
          5    1    3    3  501    0  0.17663628463E+02  0.58728553179E+02  0.58227358901E+02  0.84696883376E+02  0.47000000000E+01 0. -1.
         -5    1    3    3    0  501  0.65080190678E+01 -0.53303371571E+02  0.15043122826E+03  0.15979752241E+03  0.47000000000E+01 0. -1.
          5    1    4    4  502    0  0.50534925332E+02  0.77310491463E+01 -0.72819935875E+02  0.89097591774E+02  0.47000000000E+01 0. -1.
         -5    1    4    4    0  502 -0.74706572862E+02 -0.13156230754E+02 -0.97961533232E+02  0.12398673489E+03  0.47000000000E+01 0. -1.
<mgrwt>
<rscale>  0 0.45600836E+03</rscale>
<asrwt>0</asrwt>
<pdfrwt beam="1">  1       21 0.38111988E-01 0.45600836E+03</pdfrwt>
<pdfrwt beam="2">  1       21 0.32284740E-01 0.45600836E+03</pdfrwt>
<totfact> 0.56511398E+04</totfact>
</mgrwt>
</event>
<event>
 8    1  0.9331162E-006  0.4193733E+03  0.7546771E-02  0.1037270E+00
         21   -1    0    0  504  503  0.00000000000E+00  0.00000000000E+00  0.81446693312E+02  0.81446693312E+02  0.00000000000E+00 0.  1.
         21   -1    0    0  503  504 -0.00000000000E+00 -0.00000000000E+00 -0.53984373593E+03  0.53984373593E+03  0.00000000000E+00 0.  1.
         25    2    1    2    0    0 -0.11626183557E+03 -0.10372337113E+03 -0.32368264146E+03  0.38035565708E+03  0.12499848544E+03 0.  0.
         25    2    1    2    0    0  0.11626183557E+03  0.10372337113E+03 -0.13471440116E+03  0.24093477216E+03  0.12500496961E+03 0.  0.
          5    1    3    3  501    0 -0.54187925781E+01 -0.71139718473E+02 -0.63462627856E+02  0.95602395325E+02  0.47000000000E+01 0. -1.
         -5    1    3    3    0  501 -0.11084304300E+03 -0.32583652659E+02 -0.26022001360E+03  0.28475326176E+03  0.47000000000E+01 0.  1.
          5    1    4    4  502    0  0.59116416751E+02  0.11848848735E+03 -0.12255856562E+03  0.18049089831E+03  0.47000000000E+01 0.  1.
         -5    1    4    4    0  502  0.57145418822E+02 -0.14765116215E+02 -0.12155835537E+02  0.60443873857E+02  0.47000000000E+01 0.  1.
<mgrwt>
<rscale>  0 0.41937328E+03</rscale>
<asrwt>0</asrwt>
<pdfrwt beam="1">  1       21 0.12530260E-01 0.41937328E+03</pdfrwt>
<pdfrwt beam="2">  1       21 0.83052888E-01 0.41937328E+03</pdfrwt>
<totfact> 0.63735539E+04</totfact>
</mgrwt>
</event>
<event>
 8    1  0.9331162E-006  0.2855928E+03  0.7546771E-02  0.1092673E+00
         21   -1    0    0  504  503  0.00000000000E+00  0.00000000000E+00  0.33357169022E+02  0.33357169022E+02  0.00000000000E+00 0.  1.
         21   -1    0    0  503  504 -0.00000000000E+00 -0.00000000000E+00 -0.61128741560E+03  0.61128741560E+03  0.00000000000E+00 0.  1.
         25    2    1    2    0    0  0.21082239009E+02 -0.59311808911E+02 -0.35290247060E+03  0.37964192657E+03  0.12500194869E+03 0.  0.
         25    2    1    2    0    0 -0.21082239009E+02  0.59311808911E+02 -0.22502777598E+03  0.26500265805E+03  0.12500622919E+03 0.  0.
          5    1    3    3  501    0  0.24697451367E+02 -0.58983421114E+02 -0.63709694234E+02  0.90388180697E+02  0.47000000000E+01 0.  1.
         -5    1    3    3    0  501 -0.36152123578E+01 -0.32838779759E+00 -0.28919277636E+03  0.28925374587E+03  0.47000000000E+01 0.  1.
          5    1    4    4  502    0  0.24768319615E+02  0.64197201063E+02 -0.20159551226E+03  0.21306710409E+03  0.47000000000E+01 0. -1.
         -5    1    4    4    0  502 -0.45850558624E+02 -0.48853921518E+01 -0.23432263716E+02  0.51935553963E+02  0.47000000000E+01 0. -1.
<mgrwt>
<rscale>  0 0.28559284E+03</rscale>
<asrwt>0</asrwt>
<pdfrwt beam="1">  1       21 0.51318724E-02 0.28559284E+03</pdfrwt>
<pdfrwt beam="2">  1       21 0.94044213E-01 0.28559284E+03</pdfrwt>
<totfact> 0.23769904E+05</totfact>
</mgrwt>
</event>
<event>
 8    1  0.9331162E-006  0.2592002E+03  0.7546771E-02  0.1107625E+00
         21   -1    0    0  504  503  0.00000000000E+00  0.00000000000E+00  0.12939211604E+04  0.12939211604E+04  0.00000000000E+00 0. -1.
         21   -1    0    0  503  504 -0.00000000000E+00 -0.00000000000E+00 -0.12980844667E+02  0.12980844667E+02  0.00000000000E+00 0. -1.
         25    2    1    2    0    0 -0.20375019171E+01 -0.23707517586E+02  0.51625152772E+03  0.53169954545E+03  0.12499027542E+03 0.  0.
         25    2    1    2    0    0  0.20375019171E+01  0.23707517586E+02  0.76468878797E+03  0.77520245958E+03  0.12499485223E+03 0.  0.
          5    1    3    3  501    0  0.79020642446E+01  0.41821690930E+02  0.83123558484E+02  0.93504611793E+02  0.47000000000E+01 0.  1.
         -5    1    3    3    0  501 -0.99395661617E+01 -0.65529208517E+02  0.43312796924E+03  0.43819493365E+03  0.47000000000E+01 0.  1.
          5    1    4    4  502    0 -0.25582961895E+02  0.26400824661E+02  0.64060159685E+02  0.74008685578E+02  0.47000000000E+01 0.  1.
         -5    1    4    4    0  502  0.27620463812E+02 -0.26933070748E+01  0.70062862829E+03  0.70119377400E+03  0.47000000000E+01 0.  1.
<mgrwt>
<rscale>  0 0.25920023E+03</rscale>
<asrwt>0</asrwt>
<pdfrwt beam="1">  1       21 0.19906469E+00 0.25920023E+03</pdfrwt>
<pdfrwt beam="2">  1       21 0.19970541E-02 0.25920023E+03</pdfrwt>
<totfact> 0.16278229E+05</totfact>
</mgrwt>
</event>
<event>
 8    1  0.9331162E-006  0.3165047E+03  0.7546771E-02  0.1077269E+00
         21   -1    0    0  504  503  0.00000000000E+00  0.00000000000E+00  0.37085141825E+03  0.37085141825E+03  0.00000000000E+00 0.  1.
         21   -1    0    0  503  504 -0.00000000000E+00 -0.00000000000E+00 -0.67530576606E+02  0.67530576606E+02  0.00000000000E+00 0.  1.
         25    2    1    2    0    0 -0.60524244199E+02  0.21057579628E+02  0.25258046379E+03  0.28901912267E+03  0.12501422632E+03 0.  0.
         25    2    1    2    0    0  0.60524244199E+02 -0.21057579628E+02  0.50740377851E+02  0.14936287219E+03  0.12501230279E+03 0.  0.
          5    1    3    3  501    0  0.23182576273E+01  0.99638739918E+01  0.21401059767E+03  0.21430650718E+03  0.47000000000E+01 0.  1.
         -5    1    3    3    0  501 -0.62842501826E+02  0.11093705636E+02  0.38569866122E+02  0.74712615489E+02  0.47000000000E+01 0.  1.
          5    1    4    4  502    0  0.24677648084E+02 -0.35595992114E+02 -0.34542203036E+02  0.55599593165E+02  0.47000000000E+01 0.  1.
         -5    1    4    4    0  502  0.35846596115E+02  0.14538412486E+02  0.85282580887E+02  0.93763279024E+02  0.47000000000E+01 0.  1.
<mgrwt>
<rscale>  0 0.31650472E+03</rscale>
<asrwt>0</asrwt>
<pdfrwt beam="1">  1       21 0.57054063E-01 0.31650472E+03</pdfrwt>
<pdfrwt beam="2">  1       21 0.10389320E-01 0.31650472E+03</pdfrwt>
<totfact> 0.21185955E+05</totfact>
</mgrwt>
</event>
<event>
 8    1  0.9331162E-006  0.2766431E+03  0.7546771E-02  0.1097537E+00
         21   -1    0    0  504  503  0.00000000000E+00  0.00000000000E+00  0.17979040068E+02  0.17979040068E+02  0.00000000000E+00 0.  1.
         21   -1    0    0  503  504 -0.00000000000E+00 -0.00000000000E+00 -0.10641750787E+04  0.10641750787E+04  0.00000000000E+00 0.  1.
         25    2    1    2    0    0  0.48175960251E+02 -0.82574549738E+01 -0.65396374678E+03  0.66759416980E+03  0.12499713893E+03 0.  0.
         25    2    1    2    0    0 -0.48175960251E+02  0.82574549738E+01 -0.39223229182E+03  0.41455994893E+03  0.12499868722E+03 0.  0.
          5    1    3    3  501    0  0.77533592109E+02 -0.20205122657E+02 -0.25469676842E+03  0.26704351467E+03  0.47000000000E+01 0. -1.
         -5    1    3    3    0  501 -0.29357631858E+02  0.11947667683E+02 -0.39926697837E+03  0.40055065513E+03  0.47000000000E+01 0. -1.
          5    1    4    4  502    0 -0.79296177075E+01  0.27922481858E+01 -0.36568263770E+03  0.36580945450E+03  0.47000000000E+01 0.  1.
         -5    1    4    4    0  502 -0.40246342544E+02  0.54652067880E+01 -0.26549654112E+02  0.48750494427E+02  0.47000000000E+01 0.  1.
<mgrwt>
<rscale>  0 0.27664307E+03</rscale>
<asrwt>0</asrwt>
<pdfrwt beam="1">  1       21 0.27660045E-02 0.27664307E+03</pdfrwt>
<pdfrwt beam="2">  1       21 0.16371934E+00 0.27664307E+03</pdfrwt>
<totfact> 0.16548458E+05</totfact>
</mgrwt>
</event>
<event>
 8    1  0.9331162E-006  0.3802733E+03  0.7546771E-02  0.1050833E+00
         21   -1    0    0  504  503  0.00000000000E+00  0.00000000000E+00  0.12675368109E+03  0.12675368109E+03  0.00000000000E+00 0. -1.
         21   -1    0    0  503  504 -0.00000000000E+00 -0.00000000000E+00 -0.28521416485E+03  0.28521416485E+03  0.00000000000E+00 0. -1.
         25    2    1    2    0    0 -0.13151310339E+02 -0.39726153523E+02 -0.22767414151E+03  0.26308200980E+03  0.12500201970E+03 0.  0.
         25    2    1    2    0    0  0.13151310339E+02  0.39726153523E+02  0.69213657750E+02  0.14888583614E+03  0.12500135017E+03 0.  0.
          5    1    3    3  501    0 -0.61627717291E+02 -0.16779433337E+02 -0.63025546237E+02  0.89854517972E+02  0.47000000000E+01 0. -1.
         -5    1    3    3    0  501  0.48476406952E+02 -0.22946720186E+02 -0.16464859527E+03  0.17322749182E+03  0.47000000000E+01 0. -1.
          5    1    4    4  502    0 -0.38131200840E+02  0.64047811184E+02  0.35397924437E+02  0.82651156371E+02  0.47000000000E+01 0.  1.
         -5    1    4    4    0  502  0.51282511179E+02 -0.24321657661E+02  0.33815733312E+02  0.66234679766E+02  0.47000000000E+01 0.  1.
<mgrwt>
<rscale>  0 0.38027330E+03</rscale>
<asrwt>0</asrwt>
<pdfrwt beam="1">  1       21 0.19500566E-01 0.38027330E+03</pdfrwt>
<pdfrwt beam="2">  1       21 0.43879102E-01 0.38027330E+03</pdfrwt>
<totfact> 0.11447495E+05</totfact>
</mgrwt>
</event>
<event>
 8    1  0.9331162E-006  0.3477175E+03  0.7546771E-02  0.1063556E+00
         21   -1    0    0  504  503  0.00000000000E+00  0.00000000000E+00  0.70808186478E+02  0.70808186478E+02  0.00000000000E+00 0.  1.
         21   -1    0    0  503  504 -0.00000000000E+00 -0.00000000000E+00 -0.42688379524E+03  0.42688379524E+03  0.00000000000E+00 0.  1.
         25    2    1    2    0    0 -0.10124600188E+03 -0.21121820135E+02 -0.26748317323E+03  0.31284074503E+03  0.12500079843E+03 0.  0.
         25    2    1    2    0    0  0.10124600188E+03  0.21121820135E+02 -0.88592435534E+02  0.18485123669E+03  0.12499790354E+03 0.  0.
          5    1    3    3  501    0 -0.97347933373E+02 -0.60885369893E+02 -0.23323148423E+03  0.26000512232E+03  0.47000000000E+01 0.  1.
         -5    1    3    3    0  501 -0.38980685028E+01  0.39763549758E+02 -0.34251689004E+02  0.52835622708E+02  0.47000000000E+01 0.  1.
          5    1    4    4  502    0  0.12985122194E+03  0.73649753164E+01 -0.71722169903E+02  0.14859926768E+03  0.47000000000E+01 0.  1.
         -5    1    4    4    0  502 -0.28605220064E+02  0.13756844819E+02 -0.16870265631E+02  0.36251969006E+02  0.47000000000E+01 0.  1.
<mgrwt>
<rscale>  0 0.34771751E+03</rscale>
<asrwt>0</asrwt>
<pdfrwt beam="1">  1       21 0.10893567E-01 0.34771751E+03</pdfrwt>
<pdfrwt beam="2">  1       21 0.65674428E-01 0.34771751E+03</pdfrwt>
<totfact> 0.14212891E+05</totfact>
</mgrwt>
</event>
<event>
 8    1  0.9331162E-006  0.6403161E+03  0.7546771E-02  0.9825122E-01
         21   -1    0    0  504  503  0.00000000000E+00  0.00000000000E+00  0.20827798518E+04  0.20827798518E+04  0.00000000000E+00 0.  1.
         21   -1    0    0  503  504 -0.00000000000E+00 -0.00000000000E+00 -0.49213640287E+02  0.49213640287E+02  0.00000000000E+00 0.  1.
         25    2    1    2    0    0  0.29188711552E+03  0.40641714407E+02  0.10342228648E+04  0.10826316340E+04  0.12499793449E+03 0.  0.
         25    2    1    2    0    0 -0.29188711552E+03 -0.40641714407E+02  0.99934334669E+03  0.10493618581E+04  0.12499338987E+03 0.  0.
          5    1    3    3  501    0  0.15552320155E+03  0.22103029618E+02  0.33568777610E+03  0.37065399386E+03  0.47000000000E+01 0.  1.
         -5    1    3    3    0  501  0.13636391396E+03  0.18538684789E+02  0.69853508869E+03  0.71197764010E+03  0.47000000000E+01 0.  1.
          5    1    4    4  502    0 -0.64712152502E+02  0.36284159010E+01  0.42793685318E+03  0.43284277560E+03  0.47000000000E+01 0. -1.
         -5    1    4    4    0  502 -0.22717496301E+03 -0.44270130308E+02  0.57140649351E+03  0.61651908250E+03  0.47000000000E+01 0. -1.
<mgrwt>
<rscale>  0 0.64031610E+03</rscale>
<asrwt>0</asrwt>
<pdfrwt beam="1">  1       21 0.32042760E+00 0.64031610E+03</pdfrwt>
<pdfrwt beam="2">  1       21 0.75713309E-02 0.64031610E+03</pdfrwt>
<totfact> 0.25941411E+03</totfact>
</mgrwt>
</event>
<event>
 8    1  0.9331162E-006  0.3129485E+03  0.7546771E-02  0.1078941E+00
         21   -1    0    0  504  503  0.00000000000E+00  0.00000000000E+00  0.69883578306E+03  0.69883578306E+03  0.00000000000E+00 0.  1.
         21   -1    0    0  503  504 -0.00000000000E+00 -0.00000000000E+00 -0.35035684951E+02  0.35035684951E+02  0.00000000000E+00 0.  1.
         25    2    1    2    0    0  0.58417215721E+01  0.85213965491E+02  0.42462301660E+03  0.45080545833E+03  0.12500123760E+03 0.  0.
         25    2    1    2    0    0 -0.58417215721E+01 -0.85213965491E+02  0.23917708150E+03  0.28306600968E+03  0.12500057558E+03 0.  0.
          5    1    3    3  501    0  0.20502685123E+02  0.62291141995E+02  0.73565662235E+02  0.98663788334E+02  0.47000000000E+01 0. -1.
         -5    1    3    3    0  501 -0.14660963551E+02  0.22922823496E+02  0.35105735437E+03  0.35214166999E+03  0.47000000000E+01 0. -1.
          5    1    4    4  502    0 -0.16630772849E+02 -0.10727544584E+03  0.12252953473E+03  0.16376868067E+03  0.47000000000E+01 0.  1.
         -5    1    4    4    0  502  0.10789051277E+02  0.22061480348E+02  0.11664754677E+03  0.11929732902E+03  0.47000000000E+01 0.  1.
<mgrwt>
<rscale>  0 0.31294850E+03</rscale>
<asrwt>0</asrwt>
<pdfrwt beam="1">  1       21 0.10751319E+00 0.31294850E+03</pdfrwt>
<pdfrwt beam="2">  1       21 0.53901059E-02 0.31294850E+03</pdfrwt>
<totfact> 0.15725202E+05</totfact>
</mgrwt>
</event>
<event>
 8    1  0.9331162E-006  0.2845156E+03  0.7546771E-02  0.1093248E+00
         21   -1    0    0  504  503  0.00000000000E+00  0.00000000000E+00  0.86180994913E+02  0.86180994913E+02  0.00000000000E+00 0.  1.
         21   -1    0    0  503  504 -0.00000000000E+00 -0.00000000000E+00 -0.23482302170E+03  0.23482302170E+03  0.00000000000E+00 0.  1.
         25    2    1    2    0    0 -0.61524890777E+01 -0.36330444893E+02 -0.99525844227E+01  0.13069226738E+03  0.12499464176E+03 0.  0.
         25    2    1    2    0    0  0.61524890777E+01  0.36330444893E+02 -0.13868944237E+03  0.19031174924E+03  0.12500418443E+03 0.  0.
          5    1    3    3  501    0 -0.41135148514E+02 -0.12960873487E+02  0.44215450320E+02  0.61944981490E+02  0.47000000000E+01 0. -1.
         -5    1    3    3    0  501  0.34982659436E+02 -0.23369571406E+02 -0.54168034743E+02  0.68747285887E+02  0.47000000000E+01 0. -1.
          5    1    4    4  502    0  0.90774964524E+00  0.64193496886E+02 -0.14693163136E+03  0.16041391257E+03  0.47000000000E+01 0.  1.
         -5    1    4    4    0  502  0.52447394325E+01 -0.27863051993E+02  0.82421889934E+01  0.29897836669E+02  0.47000000000E+01 0.  1.
<mgrwt>
<rscale>  0 0.28451560E+03</rscale>
<asrwt>0</asrwt>
<pdfrwt beam="1">  1       21 0.13258615E-01 0.28451560E+03</pdfrwt>
<pdfrwt beam="2">  1       21 0.36126618E-01 0.28451560E+03</pdfrwt>
<totfact> 0.35521373E+05</totfact>
</mgrwt>
</event>
<event>
 8    1  0.9331162E-006  0.2618267E+03  0.7546771E-02  0.1106051E+00
         21   -1    0    0  504  503  0.00000000000E+00  0.00000000000E+00  0.10110898749E+03  0.10110898749E+03  0.00000000000E+00 0.  1.
         21   -1    0    0  503  504 -0.00000000000E+00 -0.00000000000E+00 -0.16950333019E+03  0.16950333019E+03  0.00000000000E+00 0.  1.
         25    2    1    2    0    0  0.32249757705E+01 -0.63936402150E+01 -0.73709696356E+02  0.14529264485E+03  0.12500221680E+03 0.  0.
         25    2    1    2    0    0 -0.32249757705E+01  0.63936402150E+01  0.53153536632E+01  0.12531967283E+03  0.12500195323E+03 0.  0.
          5    1    3    3  501    0  0.12425520227E+02 -0.43942236631E+02 -0.91581952343E+02  0.10244343663E+03  0.47000000000E+01 0.  1.
         -5    1    3    3    0  501 -0.92005444561E+01  0.37548596416E+02  0.17872255987E+02  0.42849208221E+02  0.47000000000E+01 0.  1.
          5    1    4    4  502    0  0.60292915552E+02  0.60162805152E+01 -0.42039740994E+01  0.60919575633E+02  0.47000000000E+01 0.  1.
         -5    1    4    4    0  502 -0.63517891323E+02  0.37735969981E+00  0.95193277626E+01  0.64400097201E+02  0.47000000000E+01 0.  1.
<mgrwt>
<rscale>  0 0.26182674E+03</rscale>
<asrwt>0</asrwt>
<pdfrwt beam="1">  1       21 0.15555229E-01 0.26182674E+03</pdfrwt>
<pdfrwt beam="2">  1       21 0.26077435E-01 0.26182674E+03</pdfrwt>
<totfact> 0.50621818E+05</totfact>
</mgrwt>
</event>
<event>
 8    1  0.9331162E-006  0.5633813E+03  0.7546771E-02  0.9984433E-01
         21   -1    0    0  504  503  0.00000000000E+00  0.00000000000E+00  0.30409508306E+03  0.30409508306E+03  0.00000000000E+00 0.  1.
         21   -1    0    0  503  504 -0.00000000000E+00 -0.00000000000E+00 -0.26093691795E+03  0.26093691795E+03  0.00000000000E+00 0.  1.
         25    2    1    2    0    0 -0.10700668411E+03 -0.47648301522E+02 -0.20269215038E+03  0.26538576819E+03  0.12499882820E+03 0.  0.
         25    2    1    2    0    0  0.10700668411E+03  0.47648301522E+02  0.24585031549E+03  0.29964623282E+03  0.12499878453E+03 0.  0.
          5    1    3    3  501    0 -0.15036931883E+02 -0.14812338586E+02  0.15288921906E+02  0.26483123454E+02  0.47000000000E+01 0.  1.
         -5    1    3    3    0  501 -0.91969752228E+02 -0.32835962936E+02 -0.21798107229E+03  0.23890264474E+03  0.47000000000E+01 0.  1.
          5    1    4    4  502    0  0.34937562238E+02  0.13526863354E+02 -0.33985064562E+01  0.37911068746E+02  0.47000000000E+01 0.  1.
         -5    1    4    4    0  502  0.72069121872E+02  0.34121438168E+02  0.24924882195E+03  0.26173516408E+03  0.47000000000E+01 0.  1.
<mgrwt>
<rscale>  0 0.56338134E+03</rscale>
<asrwt>0</asrwt>
<pdfrwt beam="1">  1       21 0.46783859E-01 0.56338134E+03</pdfrwt>
<pdfrwt beam="2">  1       21 0.40144141E-01 0.56338134E+03</pdfrwt>
<totfact> 0.23152913E+04</totfact>
</mgrwt>
</event>
<event>
 8    1  0.9331162E-006  0.3461794E+03  0.7546771E-02  0.1064194E+00
         21   -1    0    0  504  503  0.00000000000E+00  0.00000000000E+00  0.65801480756E+02  0.65801480756E+02  0.00000000000E+00 0. -1.
         21   -1    0    0  503  504 -0.00000000000E+00 -0.00000000000E+00 -0.45530955584E+03  0.45530955584E+03  0.00000000000E+00 0. -1.
         25    2    1    2    0    0 -0.11666191064E+03 -0.25512433321E+02 -0.18196451496E+03  0.25099618462E+03  0.12500845707E+03 0.  0.
         25    2    1    2    0    0  0.11666191064E+03  0.25512433321E+02 -0.20754356012E+03  0.27011485198E+03  0.12500727285E+03 0.  0.
          5    1    3    3  501    0 -0.13863451478E+03 -0.32372250482E+02 -0.17662210976E+03  0.22690295491E+03  0.47000000000E+01 0. -1.
         -5    1    3    3    0  501  0.21972604145E+02  0.68598171608E+01 -0.53424052035E+01  0.24093229708E+02  0.47000000000E+01 0. -1.
          5    1    4    4  502    0  0.72780524531E+02  0.16920987176E+01 -0.19520182788E+02  0.75518179832E+02  0.47000000000E+01 0.  1.
         -5    1    4    4    0  502  0.43881386108E+02  0.23820334603E+02 -0.18802337733E+03  0.19459667214E+03  0.47000000000E+01 0.  1.
<mgrwt>
<rscale>  0 0.34617939E+03</rscale>
<asrwt>0</asrwt>
<pdfrwt beam="1">  1       21 0.10123305E-01 0.34617939E+03</pdfrwt>
<pdfrwt beam="2">  1       21 0.70047625E-01 0.34617939E+03</pdfrwt>
<totfact> 0.14051087E+05</totfact>
</mgrwt>
</event>
<event>
 8    1  0.9331162E-006  0.3230051E+03  0.7546771E-02  0.1074275E+00
         21   -1    0    0  504  503  0.00000000000E+00  0.00000000000E+00  0.11438917630E+04  0.11438917630E+04  0.00000000000E+00 0. -1.
         21   -1    0    0  503  504 -0.00000000000E+00 -0.00000000000E+00 -0.22802050027E+02  0.22802050027E+02  0.00000000000E+00 0. -1.
         25    2    1    2    0    0  0.41798757104E+02  0.10562428125E+02  0.89561466827E+03  0.90532282468E+03  0.12500032749E+03 0.  0.
         25    2    1    2    0    0 -0.41798757104E+02 -0.10562428125E+02  0.22547504466E+03  0.26137098831E+03  0.12496838313E+03 0.  0.
          5    1    3    3  501    0  0.16197934055E+02 -0.55327780368E+02  0.50848243121E+03  0.51176167226E+03  0.47000000000E+01 0.  1.
         -5    1    3    3    0  501  0.25600823049E+02  0.65890208493E+02  0.38713223707E+03  0.39356115242E+03  0.47000000000E+01 0.  1.
          5    1    4    4  502    0 -0.65535498596E+02 -0.28264626474E+02  0.21942089141E+03  0.23078433281E+03  0.47000000000E+01 0.  1.
         -5    1    4    4    0  502  0.23736741492E+02  0.17702198349E+02  0.60541532563E+01  0.30586655500E+02  0.47000000000E+01 0.  1.
<mgrwt>
<rscale>  0 0.32300512E+03</rscale>
<asrwt>0</asrwt>
<pdfrwt beam="1">  1       21 0.17598330E+00 0.32300512E+03</pdfrwt>
<pdfrwt beam="2">  1       21 0.35080086E-02 0.32300512E+03</pdfrwt>
<totfact> 0.89387506E+04</totfact>
</mgrwt>
</event>
<event>
 8    1  0.9331162E-006  0.2670270E+03  0.7546771E-02  0.1102993E+00
         21   -1    0    0  504  503  0.00000000000E+00  0.00000000000E+00  0.32200801717E+02  0.32200801717E+02  0.00000000000E+00 0. -1.
         21   -1    0    0  503  504 -0.00000000000E+00 -0.00000000000E+00 -0.55358412747E+03  0.55358412747E+03  0.00000000000E+00 0. -1.
         25    2    1    2    0    0 -0.21964666956E+02  0.38462767025E+02 -0.29471210724E+03  0.32317414875E+03  0.12499789289E+03 0.  0.
         25    2    1    2    0    0  0.21964666956E+02 -0.38462767025E+02 -0.22667121852E+03  0.26261078044E+03  0.12499099830E+03 0.  0.
          5    1    3    3  501    0 -0.24436344750E+02  0.33417122368E+01  0.12014755407E+01  0.25136338812E+02  0.47000000000E+01 0. -1.
         -5    1    3    3    0  501  0.24716777938E+01  0.35121054789E+02 -0.29591358278E+03  0.29803780994E+03  0.47000000000E+01 0. -1.
          5    1    4    4  502    0  0.43309115877E+02 -0.43042241316E+01 -0.21639284759E+03  0.22077626764E+03  0.47000000000E+01 0. -1.
         -5    1    4    4    0  502 -0.21344448921E+02 -0.34158542894E+02 -0.10278370927E+02  0.41834512801E+02  0.47000000000E+01 0. -1.
<mgrwt>
<rscale>  0 0.26702699E+03</rscale>
<asrwt>0</asrwt>
<pdfrwt beam="1">  1       21 0.49539698E-02 0.26702699E+03</pdfrwt>
<pdfrwt beam="2">  1       21 0.85166784E-01 0.26702699E+03</pdfrwt>
<totfact> 0.31967019E+05</totfact>
</mgrwt>
</event>
<event>
 8    1  0.9331162E-006  0.2683723E+03  0.7546771E-02  0.1102215E+00
         21   -1    0    0  504  503  0.00000000000E+00  0.00000000000E+00  0.14555556879E+04  0.14555556879E+04  0.00000000000E+00 0. -1.
         21   -1    0    0  503  504 -0.00000000000E+00 -0.00000000000E+00 -0.12370483842E+02  0.12370483842E+02  0.00000000000E+00 0. -1.
         25    2    1    2    0    0  0.39285571671E+02 -0.28452805148E+02  0.75077565916E+03  0.76265398744E+03  0.12499638358E+03 0.  0.
         25    2    1    2    0    0 -0.39285571671E+02  0.28452805148E+02  0.69240954495E+03  0.70527218436E+03  0.12499983129E+03 0.  0.
          5    1    3    3  501    0  0.16536024031E+02  0.31544097122E+01  0.69060862986E+03  0.69082976197E+03  0.47000000000E+01 0. -1.
         -5    1    3    3    0  501  0.22749547640E+02 -0.31607214860E+02  0.60167029295E+02  0.71824225462E+02  0.47000000000E+01 0. -1.
          5    1    4    4  502    0  0.19520545202E+02  0.13230716940E+02  0.23595661658E+02  0.33689001244E+02  0.47000000000E+01 0.  1.
         -5    1    4    4    0  502 -0.58806116873E+02  0.15222088207E+02  0.66881388329E+03  0.67158318311E+03  0.47000000000E+01 0.  1.
<mgrwt>
<rscale>  0 0.26837234E+03</rscale>
<asrwt>0</asrwt>
<pdfrwt beam="1">  1       21 0.22393151E+00 0.26837234E+03</pdfrwt>
<pdfrwt beam="2">  1       21 0.19031525E-02 0.26837234E+03</pdfrwt>
<totfact> 0.12195629E+05</totfact>
</mgrwt>
</event>
<event>
 8    1  0.9331162E-006  0.6122355E+03  0.7546771E-02  0.9880342E-01
         21   -1    0    0  504  503  0.00000000000E+00  0.00000000000E+00  0.22643015064E+03  0.22643015064E+03  0.00000000000E+00 0.  1.
         21   -1    0    0  503  504 -0.00000000000E+00 -0.00000000000E+00 -0.41384979949E+03  0.41384979949E+03  0.00000000000E+00 0.  1.
         25    2    1    2    0    0 -0.10673123897E+03 -0.14449116748E+02 -0.36334800965E+03  0.39905725857E+03  0.12499834063E+03 0.  0.
         25    2    1    2    0    0  0.10673123897E+03  0.14449116748E+02  0.17592836080E+03  0.24122269156E+03  0.12504904815E+03 0.  0.
          5    1    3    3  501    0 -0.94336307617E+02 -0.60632256822E+02 -0.29394898396E+03  0.31464854151E+03  0.47000000000E+01 0.  1.
         -5    1    3    3    0  501 -0.12394931350E+02  0.46183140074E+02 -0.69399025682E+02  0.84408717060E+02  0.47000000000E+01 0.  1.
          5    1    4    4  502    0  0.21358593673E+02 -0.26737831532E+02  0.13236337290E+03  0.13679639485E+03  0.47000000000E+01 0. -1.
         -5    1    4    4    0  502  0.85372645294E+02  0.41186948280E+02  0.43564987896E+02  0.10442629671E+03  0.47000000000E+01 0. -1.
<mgrwt>
<rscale>  0 0.61223549E+03</rscale>
<asrwt>0</asrwt>
<pdfrwt beam="1">  1       21 0.34835408E-01 0.61223549E+03</pdfrwt>
<pdfrwt beam="2">  1       21 0.63669199E-01 0.61223549E+03</pdfrwt>
<totfact> 0.15716241E+04</totfact>
</mgrwt>
</event>
<event>
 8    1  0.9331162E-006  0.2741040E+03  0.7546771E-02  0.1098953E+00
         21   -1    0    0  504  503  0.00000000000E+00  0.00000000000E+00  0.14325166188E+03  0.14325166188E+03  0.00000000000E+00 0.  1.
         21   -1    0    0  503  504 -0.00000000000E+00 -0.00000000000E+00 -0.13112064477E+03  0.13112064477E+03  0.00000000000E+00 0.  1.
         25    2    1    2    0    0 -0.46211617334E+02 -0.68887265175E+01  0.37303314120E+02  0.13856400603E+03  0.12500191356E+03 0.  0.
         25    2    1    2    0    0  0.46211617334E+02  0.68887265175E+01 -0.25172297012E+02  0.13580830062E+03  0.12500912707E+03 0.  0.
          5    1    3    3  501    0 -0.68724529909E+02 -0.30450490126E+02 -0.14967103042E+02  0.76788003839E+02  0.47000000000E+01 0. -1.
         -5    1    3    3    0  501  0.22512912575E+02  0.23561763608E+02  0.52270417162E+02  0.61776002195E+02  0.47000000000E+01 0. -1.
          5    1    4    4  502    0  0.67796511669E+02 -0.63679314035E+01  0.30273588404E+02  0.74669255384E+02  0.47000000000E+01 0. -1.
         -5    1    4    4    0  502 -0.21584894335E+02  0.13256657921E+02 -0.55445885416E+02  0.61139045235E+02  0.47000000000E+01 0. -1.
<mgrwt>
<rscale>  0 0.27410400E+03</rscale>
<asrwt>0</asrwt>
<pdfrwt beam="1">  1       21 0.22038717E-01 0.27410400E+03</pdfrwt>
<pdfrwt beam="2">  1       21 0.20172407E-01 0.27410400E+03</pdfrwt>
<totfact> 0.42986995E+05</totfact>
</mgrwt>
</event>
<event>
 8    1  0.9331162E-006  0.5167200E+03  0.7546771E-02  0.1009505E+00
         21   -1    0    0  504  503  0.00000000000E+00  0.00000000000E+00  0.13687905659E+03  0.13687905659E+03  0.00000000000E+00 0. -1.
         21   -1    0    0  503  504 -0.00000000000E+00 -0.00000000000E+00 -0.48765602472E+03  0.48765602472E+03  0.00000000000E+00 0. -1.
         25    2    1    2    0    0  0.15349923209E+03 -0.14387738344E+03 -0.75251650866E+02  0.25602455258E+03  0.12499217914E+03 0.  0.
         25    2    1    2    0    0 -0.15349923209E+03  0.14387738344E+03 -0.27552531726E+03  0.36851052874E+03  0.12499237425E+03 0.  0.
          5    1    3    3  501    0  0.13676247171E+03 -0.16493575539E+03 -0.79107871440E+02  0.22844676053E+03  0.47000000000E+01 0. -1.
         -5    1    3    3    0  501  0.16736760375E+02  0.21058371945E+02  0.38562205746E+01  0.27577792042E+02  0.47000000000E+01 0. -1.
          5    1    4    4  502    0 -0.10232610789E+03  0.14016132610E+03 -0.13838036702E+03  0.22200685950E+03  0.47000000000E+01 0.  1.
         -5    1    4    4    0  502 -0.51173124196E+02  0.37160573434E+01 -0.13714495025E+03  0.14650366924E+03  0.47000000000E+01 0.  1.
<mgrwt>
<rscale>  0 0.51672003E+03</rscale>
<asrwt>0</asrwt>
<pdfrwt beam="1">  1       21 0.21058316E-01 0.51672003E+03</pdfrwt>
<pdfrwt beam="2">  1       21 0.75024004E-01 0.51672003E+03</pdfrwt>
<totfact> 0.29876887E+04</totfact>
</mgrwt>
</event>
<event>
 8    1  0.9331162E-006  0.2633074E+03  0.7546771E-02  0.1105172E+00
         21   -1    0    0  504  503  0.00000000000E+00  0.00000000000E+00  0.21146860064E+03  0.21146860064E+03  0.00000000000E+00 0.  1.
         21   -1    0    0  503  504 -0.00000000000E+00 -0.00000000000E+00 -0.81963479048E+02  0.81963479048E+02  0.00000000000E+00 0.  1.
         25    2    1    2    0    0  0.74880006208E-01  0.39534330452E+02  0.78124286186E+02  0.15262261216E+03  0.12500915470E+03 0.  0.
         25    2    1    2    0    0 -0.74880006208E-01 -0.39534330452E+02  0.51380835401E+02  0.14080946753E+03  0.12499738800E+03 0.  0.
          5    1    3    3  501    0  0.53180289672E+02  0.88387621510E+01  0.73029603763E+02  0.90893783901E+02  0.47000000000E+01 0.  1.
         -5    1    3    3    0  501 -0.53105409666E+02  0.30695568301E+02  0.50946824228E+01  0.61728828258E+02  0.47000000000E+01 0.  1.
          5    1    4    4  502    0  0.42427345246E+02 -0.64319224702E+02  0.48780294906E+02  0.91316205911E+02  0.47000000000E+01 0.  1.
         -5    1    4    4    0  502 -0.42502225253E+02  0.24784894249E+02  0.26005404953E+01  0.49493261614E+02  0.47000000000E+01 0.  1.
<mgrwt>
<rscale>  0 0.26330744E+03</rscale>
<asrwt>0</asrwt>
<pdfrwt beam="1">  1       21 0.32533631E-01 0.26330744E+03</pdfrwt>
<pdfrwt beam="2">  1       21 0.12609766E-01 0.26330744E+03</pdfrwt>
<totfact> 0.48142774E+05</totfact>
</mgrwt>
</event>
<event>
 8    1  0.9331162E-006  0.2742861E+03  0.7546771E-02  0.1098851E+00
         21   -1    0    0  504  503  0.00000000000E+00  0.00000000000E+00  0.13336492515E+04  0.13336492515E+04  0.00000000000E+00 0.  1.
         21   -1    0    0  503  504 -0.00000000000E+00 -0.00000000000E+00 -0.14102823657E+02  0.14102823657E+02  0.00000000000E+00 0.  1.
         25    2    1    2    0    0 -0.81724210910E+01 -0.34013177164E+02  0.87713329273E+03  0.88668626193E+03  0.12500411671E+03 0.  0.
         25    2    1    2    0    0  0.81724210910E+01  0.34013177164E+02  0.44241313511E+03  0.46106581322E+03  0.12501446843E+03 0.  0.
          5    1    3    3  501    0 -0.42380326572E+02  0.25877222776E+02  0.20385945594E+03  0.20987255780E+03  0.47000000000E+01 0.  1.
         -5    1    3    3    0  501  0.34207905481E+02 -0.59890399939E+02  0.67327383678E+03  0.67681370413E+03  0.47000000000E+01 0.  1.
          5    1    4    4  502    0  0.37225192028E+02 -0.24484002906E+02  0.31132201684E+03  0.31452928240E+03  0.47000000000E+01 0.  1.
         -5    1    4    4    0  502 -0.29052770937E+02  0.58497180070E+02  0.13109111827E+03  0.14653653082E+03  0.47000000000E+01 0.  1.
<mgrwt>
<rscale>  0 0.27428613E+03</rscale>
<asrwt>0</asrwt>
<pdfrwt beam="1">  1       21 0.20517671E+00 0.27428613E+03</pdfrwt>
<pdfrwt beam="2">  1       21 0.21696662E-02 0.27428613E+03</pdfrwt>
<totfact> 0.12886385E+05</totfact>
</mgrwt>
</event>
<event>
 8    1  0.9331162E-006  0.4514112E+03  0.7546771E-02  0.1027302E+00
         21   -1    0    0  504  503  0.00000000000E+00  0.00000000000E+00  0.93357267729E+03  0.93357267729E+03  0.00000000000E+00 0.  1.
         21   -1    0    0  503  504 -0.00000000000E+00 -0.00000000000E+00 -0.54567809236E+02  0.54567809236E+02  0.00000000000E+00 0.  1.
         25    2    1    2    0    0 -0.40761903973E+02  0.12271168352E+03  0.14100620395E+03  0.22854611009E+03  0.12502353699E+03 0.  0.
         25    2    1    2    0    0  0.40761903973E+02 -0.12271168352E+03  0.73799866411E+03  0.75959437643E+03  0.12498759296E+03 0.  0.
          5    1    3    3  501    0 -0.26010663969E+02  0.14567171274E+03  0.98528847836E+02  0.17783932745E+03  0.47000000000E+01 0.  1.
         -5    1    3    3    0  501 -0.14751240004E+02 -0.22960029225E+02  0.42477356109E+02  0.50706782640E+02  0.47000000000E+01 0.  1.
          5    1    4    4  502    0 -0.22793342447E+02 -0.62563075230E+01  0.26508843256E+02  0.35825781422E+02  0.47000000000E+01 0. -1.
         -5    1    4    4    0  502  0.63555246420E+02 -0.11645537599E+03  0.71148982085E+03  0.72376859501E+03  0.47000000000E+01 0. -1.
<mgrwt>
<rscale>  0 0.45141119E+03</rscale>
<asrwt>0</asrwt>
<pdfrwt beam="1">  1       21 0.14362655E+00 0.45141119E+03</pdfrwt>
<pdfrwt beam="2">  1       21 0.83950483E-02 0.45141119E+03</pdfrwt>
<totfact> 0.33361832E+04</totfact>
</mgrwt>
</event>
<event>
 8    1  0.9331162E-006  0.3314536E+03  0.7546771E-02  0.1070496E+00
         21   -1    0    0  504  503  0.00000000000E+00  0.00000000000E+00  0.10390601612E+03  0.10390601612E+03  0.00000000000E+00 0.  1.
         21   -1    0    0  503  504 -0.00000000000E+00 -0.00000000000E+00 -0.26432891034E+03  0.26432891034E+03  0.00000000000E+00 0.  1.
         25    2    1    2    0    0 -0.91190879506E+02 -0.27702453375E+02 -0.13855884633E+03  0.20954247297E+03  0.12500516652E+03 0.  0.
         25    2    1    2    0    0  0.91190879506E+02  0.27702453375E+02 -0.21864047891E+02  0.15869245349E+03  0.12498822255E+03 0.  0.
          5    1    3    3  501    0 -0.60455419814E+02 -0.73748608723E+02 -0.11426206952E+03  0.14890139557E+03  0.47000000000E+01 0.  1.
         -5    1    3    3    0  501 -0.30735459693E+02  0.46046155347E+02 -0.24296776810E+02  0.60641077400E+02  0.47000000000E+01 0.  1.
          5    1    4    4  502    0 -0.29549204608E+02  0.20068607942E+02 -0.29054100644E+01  0.36144652791E+02  0.47000000000E+01 0. -1.
         -5    1    4    4    0  502  0.12074008411E+03  0.76338454328E+01 -0.18958637827E+02  0.12254780070E+03  0.47000000000E+01 0. -1.
<mgrwt>
<rscale>  0 0.33145355E+03</rscale>
<asrwt>0</asrwt>
<pdfrwt beam="1">  1       21 0.15985541E-01 0.33145355E+03</pdfrwt>
<pdfrwt beam="2">  1       21 0.40665985E-01 0.33145355E+03</pdfrwt>
<totfact> 0.19629982E+05</totfact>
</mgrwt>
</event>
<event>
 8    1  0.9331162E-006  0.5409797E+03  0.7546771E-02  0.1003604E+00
         21   -1    0    0  504  503  0.00000000000E+00  0.00000000000E+00  0.56761856333E+03  0.56761856333E+03  0.00000000000E+00 0.  1.
         21   -1    0    0  503  504 -0.00000000000E+00 -0.00000000000E+00 -0.12889777148E+03  0.12889777148E+03  0.00000000000E+00 0.  1.
         25    2    1    2    0    0 -0.14229335232E+02 -0.63944829783E+01  0.52755123612E+03  0.54237900169E+03  0.12498524451E+03 0.  0.
         25    2    1    2    0    0  0.14229335232E+02  0.63944829783E+01 -0.88830444270E+02  0.15413733312E+03  0.12499642491E+03 0.  0.
          5    1    3    3  501    0 -0.30497057206E+02 -0.61154003061E+02  0.29986109356E+03  0.30758518823E+03  0.47000000000E+01 0.  1.
         -5    1    3    3    0  501  0.16267721974E+02  0.54759520082E+02  0.22769014256E+03  0.23479381346E+03  0.47000000000E+01 0.  1.
          5    1    4    4  502    0  0.15320593257E+02 -0.55714206398E+02 -0.65861992781E+02  0.87742153298E+02  0.47000000000E+01 0.  1.
         -5    1    4    4    0  502 -0.10912580255E+01  0.62108689376E+02 -0.22968451489E+02  0.66395179825E+02  0.47000000000E+01 0.  1.
<mgrwt>
<rscale>  0 0.54097973E+03</rscale>
<asrwt>0</asrwt>
<pdfrwt beam="1">  1       21 0.87325932E-01 0.54097973E+03</pdfrwt>
<pdfrwt beam="2">  1       21 0.19830427E-01 0.54097973E+03</pdfrwt>
<totfact> 0.23425933E+04</totfact>
</mgrwt>
</event>
<event>
 8    1  0.9331162E-006  0.3209380E+03  0.7546771E-02  0.1075218E+00
         21   -1    0    0  504  503  0.00000000000E+00  0.00000000000E+00  0.15849151323E+02  0.15849151323E+02  0.00000000000E+00 0.  1.
         21   -1    0    0  503  504 -0.00000000000E+00 -0.00000000000E+00 -0.16247119830E+04  0.16247119830E+04  0.00000000000E+00 0.  1.
         25    2    1    2    0    0  0.58929082386E+01  0.21103381740E+02 -0.30240141367E+03  0.32795169725E+03  0.12500248660E+03 0.  0.
         25    2    1    2    0    0 -0.58929082386E+01 -0.21103381740E+02 -0.13064614180E+04  0.13126094371E+04  0.12498807320E+03 0.  0.
          5    1    3    3  501    0 -0.19452865386E+01 -0.51292424105E+02 -0.15739776149E+03  0.16562258974E+03  0.47000000000E+01 0.  1.
         -5    1    3    3    0  501  0.78381947772E+01  0.72395805845E+02 -0.14500365217E+03  0.16232910751E+03  0.47000000000E+01 0.  1.
          5    1    4    4  502    0 -0.29717445095E+02  0.24594850977E+02 -0.10629434198E+04  0.10636535323E+04  0.47000000000E+01 0. -1.
         -5    1    4    4    0  502  0.23824536856E+02 -0.45698232717E+02 -0.24351799825E+03  0.24895590474E+03  0.47000000000E+01 0. -1.
<mgrwt>
<rscale>  0 0.32093804E+03</rscale>
<asrwt>0</asrwt>
<pdfrwt beam="1">  1       21 0.24383301E-02 0.32093804E+03</pdfrwt>
<pdfrwt beam="2">  1       21 0.24995578E+00 0.32093804E+03</pdfrwt>
<totfact> 0.54878253E+04</totfact>
</mgrwt>
</event>
<event>
 8    1  0.9331162E-006  0.2596365E+03  0.7546771E-02  0.1107362E+00
         21   -1    0    0  504  503  0.00000000000E+00  0.00000000000E+00  0.51773141623E+02  0.51773141623E+02  0.00000000000E+00 0.  1.
         21   -1    0    0  503  504 -0.00000000000E+00 -0.00000000000E+00 -0.32551190389E+03  0.32551190389E+03  0.00000000000E+00 0.  1.
         25    2    1    2    0    0 -0.26838363973E+02 -0.19175636329E+02 -0.11953379948E+03  0.17605880358E+03  0.12498147979E+03 0.  0.
         25    2    1    2    0    0  0.26838363973E+02  0.19175636329E+02 -0.15420496279E+03  0.20122624194E+03  0.12499930833E+03 0.  0.
          5    1    3    3  501    0  0.22981676930E+02  0.19928919787E+02  0.95253080085E+01  0.32220192598E+02  0.47000000000E+01 0. -1.
         -5    1    3    3    0  501 -0.49820040904E+02 -0.39104556116E+02 -0.12905910749E+03  0.14383861098E+03  0.47000000000E+01 0. -1.
          5    1    4    4  502    0  0.44796692629E+02  0.47205921097E+02 -0.28672082659E+02  0.71269355134E+02  0.47000000000E+01 0. -1.
         -5    1    4    4    0  502 -0.17958328656E+02 -0.28030284768E+02 -0.12553288013E+03  0.12995688680E+03  0.47000000000E+01 0. -1.
<mgrwt>
<rscale>  0 0.25963647E+03</rscale>
<asrwt>0</asrwt>
<pdfrwt beam="1">  1       21 0.79650990E-02 0.25963647E+03</pdfrwt>
<pdfrwt beam="2">  1       21 0.50078753E-01 0.25963647E+03</pdfrwt>
<totfact> 0.45279647E+05</totfact>
</mgrwt>
</event>
<event>
 8    1  0.9331162E-006  0.2591308E+03  0.7546771E-02  0.1107667E+00
         21   -1    0    0  504  503  0.00000000000E+00  0.00000000000E+00  0.14867978692E+03  0.14867978692E+03  0.00000000000E+00 0. -1.
         21   -1    0    0  503  504 -0.00000000000E+00 -0.00000000000E+00 -0.11290837117E+03  0.11290837117E+03  0.00000000000E+00 0. -1.
         25    2    1    2    0    0  0.37983725625E+01 -0.78065989247E+01 -0.15403004922E+02  0.12624516543E+03  0.12500087445E+03 0.  0.
         25    2    1    2    0    0 -0.37983725625E+01  0.78065989247E+01  0.51174420667E+02  0.13534299266E+03  0.12499413470E+03 0.  0.
          5    1    3    3  501    0  0.28974573520E+02  0.46162499798E+02 -0.33102737493E+02  0.63940468623E+02  0.47000000000E+01 0.  1.
         -5    1    3    3    0  501 -0.25176200957E+02 -0.53969098723E+02  0.17699732570E+02  0.62304696810E+02  0.47000000000E+01 0.  1.
          5    1    4    4  502    0  0.15354654816E+02 -0.46491699980E+02  0.59257336842E+02  0.77011463829E+02  0.47000000000E+01 0.  1.
         -5    1    4    4    0  502 -0.19153027379E+02  0.54298298905E+02 -0.80829161743E+01  0.58331528830E+02  0.47000000000E+01 0.  1.
<mgrwt>
<rscale>  0 0.25913080E+03</rscale>
<asrwt>0</asrwt>
<pdfrwt beam="1">  1       21 0.22873813E-01 0.25913080E+03</pdfrwt>
<pdfrwt beam="2">  1       21 0.17370519E-01 0.25913080E+03</pdfrwt>
<totfact> 0.53109512E+05</totfact>
</mgrwt>
</event>
<event>
 8    1  0.9331162E-006  0.2732889E+03  0.7546771E-02  0.1099412E+00
         21   -1    0    0  504  503  0.00000000000E+00  0.00000000000E+00  0.46141231687E+03  0.46141231687E+03  0.00000000000E+00 0. -1.
         21   -1    0    0  503  504 -0.00000000000E+00 -0.00000000000E+00 -0.40466426478E+02  0.40466426478E+02  0.00000000000E+00 0. -1.
         25    2    1    2    0    0  0.37845300120E+02 -0.39416335254E+02  0.22460297566E+03  0.26278776615E+03  0.12499999654E+03 0.  0.
         25    2    1    2    0    0 -0.37845300120E+02  0.39416335254E+02  0.19634291473E+03  0.23909097720E+03  0.12501216336E+03 0.  0.
          5    1    3    3  501    0  0.61870680547E+02 -0.65762765831E+02  0.19919276131E+03  0.21875229973E+03  0.47000000000E+01 0. -1.
         -5    1    3    3    0  501 -0.24025380427E+02  0.26346430577E+02  0.25410214355E+02  0.44035466415E+02  0.47000000000E+01 0. -1.
          5    1    4    4  502    0 -0.37531573061E+02 -0.40654277626E+02  0.92354137277E+02  0.10776254423E+03  0.47000000000E+01 0. -1.
         -5    1    4    4    0  502 -0.31372705918E+00  0.80070612880E+02  0.10398877745E+03  0.13132843297E+03  0.47000000000E+01 0. -1.
<mgrwt>
<rscale>  0 0.27328891E+03</rscale>
<asrwt>0</asrwt>
<pdfrwt beam="1">  1       21 0.70986507E-01 0.27328891E+03</pdfrwt>
<pdfrwt beam="2">  1       21 0.62256044E-02 0.27328891E+03</pdfrwt>
<totfact> 0.32594558E+05</totfact>
</mgrwt>
</event>
<event>
 8    1  0.9331162E-006  0.3042359E+03  0.7546771E-02  0.1083142E+00
         21   -1    0    0  504  503  0.00000000000E+00  0.00000000000E+00  0.33929619149E+03  0.33929619149E+03  0.00000000000E+00 0.  1.
         21   -1    0    0  503  504 -0.00000000000E+00 -0.00000000000E+00 -0.68199624824E+02  0.68199624824E+02  0.00000000000E+00 0.  1.
         25    2    1    2    0    0 -0.12923786914E+02  0.24324091213E+01  0.25033542756E+03  0.28011209687E+03  0.12498807799E+03 0.  0.
         25    2    1    2    0    0  0.12923786914E+02 -0.24324091213E+01  0.20761139109E+02  0.12738371945E+03  0.12499058445E+03 0.  0.
          5    1    3    3  501    0 -0.32406993334E+02  0.39146938873E+02  0.37828972292E+02  0.63528081859E+02  0.47000000000E+01 0. -1.
         -5    1    3    3    0  501  0.19483206420E+02 -0.36714529751E+02  0.21250645527E+03  0.21658401501E+03  0.47000000000E+01 0. -1.
          5    1    4    4  502    0  0.34513504210E+02 -0.56050021403E+02  0.62182982055E+00  0.65994420556E+02  0.47000000000E+01 0. -1.
         -5    1    4    4    0  502 -0.21589717297E+02  0.53617612282E+02  0.20139309288E+02  0.61389298891E+02  0.47000000000E+01 0. -1.
<mgrwt>
<rscale>  0 0.30423591E+03</rscale>
<asrwt>0</asrwt>
<pdfrwt beam="1">  1       21 0.52199413E-01 0.30423591E+03</pdfrwt>
<pdfrwt beam="2">  1       21 0.10492250E-01 0.30423591E+03</pdfrwt>
<totfact> 0.25238847E+05</totfact>
</mgrwt>
</event>
<event>
 8    1  0.9331162E-006  0.2985382E+03  0.7546771E-02  0.1085974E+00
         21   -1    0    0  504  503  0.00000000000E+00  0.00000000000E+00  0.22244606095E+03  0.22244606095E+03  0.00000000000E+00 0.  1.
         21   -1    0    0  503  504 -0.00000000000E+00 -0.00000000000E+00 -0.10016482270E+03  0.10016482270E+03  0.00000000000E+00 0.  1.
         25    2    1    2    0    0  0.45089357973E+02  0.61177152340E+02  0.29111592888E+02  0.14915448087E+03  0.12499552053E+03 0.  0.
         25    2    1    2    0    0 -0.45089357973E+02 -0.61177152340E+02  0.93169645366E+02  0.17345640278E+03  0.12502338452E+03 0.  0.
          5    1    3    3  501    0  0.14816466151E+02  0.87797413840E+02 -0.13647230405E+02  0.90201166533E+02  0.47000000000E+01 0. -1.
         -5    1    3    3    0  501  0.30272891822E+02 -0.26620261500E+02  0.42758823293E+02  0.58953314334E+02  0.47000000000E+01 0. -1.
          5    1    4    4  502    0 -0.53513269933E+02 -0.90686257481E+02  0.41706976995E+02  0.11335444096E+03  0.47000000000E+01 0.  1.
         -5    1    4    4    0  502  0.84239119601E+01  0.29509105141E+02  0.51462668371E+02  0.60101961821E+02  0.47000000000E+01 0.  1.
<mgrwt>
<rscale>  0 0.29853824E+03</rscale>
<asrwt>0</asrwt>
<pdfrwt beam="1">  1       21 0.34222471E-01 0.29853824E+03</pdfrwt>
<pdfrwt beam="2">  1       21 0.15409973E-01 0.29853824E+03</pdfrwt>
<totfact> 0.29984416E+05</totfact>
</mgrwt>
</event>
<event>
 8    1  0.9331162E-006  0.2862258E+03  0.7546771E-02  0.1092336E+00
         21   -1    0    0  504  503  0.00000000000E+00  0.00000000000E+00  0.64855519222E+02  0.64855519222E+02  0.00000000000E+00 0. -1.
         21   -1    0    0  503  504 -0.00000000000E+00 -0.00000000000E+00 -0.31579901794E+03  0.31579901794E+03  0.00000000000E+00 0. -1.
         25    2    1    2    0    0 -0.32960104886E+02  0.40645282624E+02 -0.64314123459E+02  0.14999952047E+03  0.12500056860E+03 0.  0.
         25    2    1    2    0    0  0.32960104886E+02 -0.40645282624E+02 -0.18662937526E+03  0.23065501670E+03  0.12503121811E+03 0.  0.
          5    1    3    3  501    0  0.15692308859E+02  0.38436906887E+02  0.24618672254E+02  0.48495498677E+02  0.47000000000E+01 0.  1.
         -5    1    3    3    0  501 -0.48652413746E+02  0.22083757372E+01 -0.88932795713E+02  0.10150402179E+03  0.47000000000E+01 0.  1.
          5    1    4    4  502    0 -0.15944165057E+02  0.30634571828E+02 -0.14049261412E+02  0.37578785726E+02  0.47000000000E+01 0.  1.
         -5    1    4    4    0  502  0.48904269943E+02 -0.71279854452E+02 -0.17258011385E+03  0.19307623097E+03  0.47000000000E+01 0.  1.
<mgrwt>
<rscale>  0 0.28622585E+03</rscale>
<asrwt>0</asrwt>
<pdfrwt beam="1">  1       21 0.99777722E-02 0.28622585E+03</pdfrwt>
<pdfrwt beam="2">  1       21 0.48584464E-01 0.28622585E+03</pdfrwt>
<totfact> 0.32241166E+05</totfact>
</mgrwt>
</event>
<event>
 8    1  0.9331162E-006  0.3545184E+03  0.7546771E-02  0.1060776E+00
         21   -1    0    0  504  503  0.00000000000E+00  0.00000000000E+00  0.50654324567E+03  0.50654324567E+03  0.00000000000E+00 0.  1.
         21   -1    0    0  503  504 -0.00000000000E+00 -0.00000000000E+00 -0.62029882938E+02  0.62029882938E+02  0.00000000000E+00 0.  1.
         25    2    1    2    0    0  0.14140074975E+02 -0.11923583317E+02  0.42164456177E+03  0.44017072959E+03  0.12499608459E+03 0.  0.
         25    2    1    2    0    0 -0.14140074975E+02  0.11923583317E+02  0.22868800967E+02  0.12840239902E+03  0.12498832128E+03 0.  0.
          5    1    3    3  501    0  0.16146394206E+02  0.52918149248E+02  0.26133413581E+03  0.26716784444E+03  0.47000000000E+01 0.  1.
         -5    1    3    3    0  501 -0.20063192302E+01 -0.64841732565E+02  0.16031042596E+03  0.17300288515E+03  0.47000000000E+01 0.  1.
          5    1    4    4  502    0 -0.67360800829E+02 -0.88341808807E+01  0.46523121747E+01  0.68258730201E+02  0.47000000000E+01 0. -1.
         -5    1    4    4    0  502  0.53220725853E+02  0.20757764198E+02  0.18216488792E+02  0.60143668817E+02  0.47000000000E+01 0. -1.
<mgrwt>
<rscale>  0 0.35451837E+03</rscale>
<asrwt>0</asrwt>
<pdfrwt beam="1">  1       21 0.77929728E-01 0.35451837E+03</pdfrwt>
<pdfrwt beam="2">  1       21 0.95430592E-02 0.35451837E+03</pdfrwt>
<totfact> 0.12246337E+05</totfact>
</mgrwt>
</event>
<event>
 8    1  0.9331162E-006  0.3915291E+03  0.7546771E-02  0.1046753E+00
         21   -1    0    0  504  503  0.00000000000E+00  0.00000000000E+00  0.27033302548E+02  0.27033302548E+02  0.00000000000E+00 0.  1.
         21   -1    0    0  503  504 -0.00000000000E+00 -0.00000000000E+00 -0.14176500100E+04  0.14176500100E+04  0.00000000000E+00 0.  1.
         25    2    1    2    0    0  0.23766843665E+02 -0.27402239307E+02 -0.12348511015E+04  0.12416916686E+04  0.12500084546E+03 0.  0.
         25    2    1    2    0    0 -0.23766843665E+02  0.27402239307E+02 -0.15576560590E+03  0.20299164392E+03  0.12500775153E+03 0.  0.
          5    1    3    3  501    0 -0.37205398103E+02  0.26891906486E+02 -0.56144723257E+03  0.56334048429E+03  0.47000000000E+01 0.  1.
         -5    1    3    3    0  501  0.60972241768E+02 -0.54294145793E+02 -0.67340386897E+03  0.67835118433E+03  0.47000000000E+01 0.  1.
          5    1    4    4  502    0  0.41301427100E+02 -0.36978123273E+01 -0.10949202089E+03  0.11717539987E+03  0.47000000000E+01 0. -1.
         -5    1    4    4    0  502 -0.65068270765E+02  0.31100051634E+02 -0.46273585005E+02  0.85816244040E+02  0.47000000000E+01 0. -1.
<mgrwt>
<rscale>  0 0.39152911E+03</rscale>
<asrwt>0</asrwt>
<pdfrwt beam="1">  1       21 0.41589689E-02 0.39152911E+03</pdfrwt>
<pdfrwt beam="2">  1       21 0.21810004E+00 0.39152911E+03</pdfrwt>
<totfact> 0.34229065E+04</totfact>
</mgrwt>
</event>
<event>
 8    1  0.9331162E-006  0.2829572E+03  0.7546771E-02  0.1094085E+00
         21   -1    0    0  504  503  0.00000000000E+00  0.00000000000E+00  0.70011339351E+02  0.70011339351E+02  0.00000000000E+00 0. -1.
         21   -1    0    0  503  504 -0.00000000000E+00 -0.00000000000E+00 -0.28589923599E+03  0.28589923599E+03  0.00000000000E+00 0. -1.
         25    2    1    2    0    0  0.55327900447E+02 -0.22522744094E+02 -0.14404975821E+03  0.19985931034E+03  0.12499984209E+03 0.  0.
         25    2    1    2    0    0 -0.55327900447E+02  0.22522744094E+02 -0.71838138431E+02  0.15605126500E+03  0.12499131412E+03 0.  0.
          5    1    3    3  501    0 -0.13331256143E+02 -0.15867701976E+02 -0.12684126136E+03  0.12860910520E+03  0.47000000000E+01 0. -1.
         -5    1    3    3    0  501  0.68659156590E+02 -0.66550421181E+01 -0.17208496844E+02  0.71250205142E+02  0.47000000000E+01 0. -1.
          5    1    4    4  502    0  0.10124560033E+02  0.77142042466E+01 -0.86202307982E+02  0.87263644001E+02  0.47000000000E+01 0. -1.
         -5    1    4    4    0  502 -0.65452460480E+02  0.14808539848E+02  0.14364169550E+02  0.68787620995E+02  0.47000000000E+01 0. -1.
<mgrwt>
<rscale>  0 0.28295716E+03</rscale>
<asrwt>0</asrwt>
<pdfrwt beam="1">  1       21 0.10770975E-01 0.28295716E+03</pdfrwt>
<pdfrwt beam="2">  1       21 0.43984497E-01 0.28295716E+03</pdfrwt>
<totfact> 0.34613768E+05</totfact>
</mgrwt>
</event>
<event>
 8    1  0.9331162E-006  0.4227673E+03  0.7546771E-02  0.1036169E+00
         21   -1    0    0  504  503  0.00000000000E+00  0.00000000000E+00  0.50742901324E+03  0.50742901324E+03  0.00000000000E+00 0. -1.
         21   -1    0    0  503  504 -0.00000000000E+00 -0.00000000000E+00 -0.88057744945E+02  0.88057744945E+02  0.00000000000E+00 0. -1.
         25    2    1    2    0    0  0.12405785341E+03 -0.93669994027E+02  0.11114384200E+03  0.22834423662E+03  0.12499487193E+03 0.  0.
         25    2    1    2    0    0 -0.12405785341E+03  0.93669994027E+02  0.30822742630E+03  0.36714252156E+03  0.12500026418E+03 0.  0.
          5    1    3    3  501    0  0.12136164776E+03 -0.88278701289E+02  0.38104263845E+02  0.15490578934E+03  0.47000000000E+01 0.  1.
         -5    1    3    3    0  501  0.26962056532E+01 -0.53912927388E+01  0.73039578152E+02  0.73438447280E+02  0.47000000000E+01 0.  1.
          5    1    4    4  502    0 -0.54352203165E+02 -0.12747660548E+02  0.17107777473E+03  0.18001766537E+03  0.47000000000E+01 0.  1.
         -5    1    4    4    0  502 -0.69705650245E+02  0.10641765458E+03  0.13714965157E+03  0.18712485620E+03  0.47000000000E+01 0.  1.
<mgrwt>
<rscale>  0 0.42276733E+03</rscale>
<asrwt>0</asrwt>
<pdfrwt beam="1">  1       21 0.78066000E-01 0.42276733E+03</pdfrwt>
<pdfrwt beam="2">  1       21 0.13547346E-01 0.42276733E+03</pdfrwt>
<totfact> 0.63690630E+04</totfact>
</mgrwt>
</event>
<event>
 8    1  0.9331162E-006  0.2920617E+03  0.7546771E-02  0.1089278E+00
         21   -1    0    0  504  503  0.00000000000E+00  0.00000000000E+00  0.62774858582E+02  0.62774858582E+02  0.00000000000E+00 0. -1.
         21   -1    0    0  503  504 -0.00000000000E+00 -0.00000000000E+00 -0.33970628487E+03  0.33970628487E+03  0.00000000000E+00 0. -1.
         25    2    1    2    0    0  0.67528480105E+02 -0.16951909075E+01 -0.92011124508E+02  0.16928144481E+03  0.12500876460E+03 0.  0.
         25    2    1    2    0    0 -0.67528480105E+02  0.16951909075E+01 -0.18492030178E+03  0.23319969864E+03  0.12499444843E+03 0.  0.
          5    1    3    3  501    0  0.76166784187E+02 -0.28758571532E+02 -0.97564002818E+01  0.82132282304E+02  0.47000000000E+01 0.  1.
         -5    1    3    3    0  501 -0.86383040821E+01  0.27063380625E+02 -0.82254724226E+02  0.87149162508E+02  0.47000000000E+01 0.  1.
          5    1    4    4  502    0  0.29433707942E+02  0.14126331431E+02 -0.93985156717E+02  0.99605201099E+02  0.47000000000E+01 0.  1.
         -5    1    4    4    0  502 -0.96962188047E+02 -0.12431140524E+02 -0.90935145064E+02  0.13359449754E+03  0.47000000000E+01 0.  1.
<mgrwt>
<rscale>  0 0.29206173E+03</rscale>
<asrwt>0</asrwt>
<pdfrwt beam="1">  1       21 0.96576706E-02 0.29206173E+03</pdfrwt>
<pdfrwt beam="2">  1       21 0.52262505E-01 0.29206173E+03</pdfrwt>
<totfact> 0.29260985E+05</totfact>
</mgrwt>
</event>
<event>
 8    1  0.9331162E-006  0.2591417E+03  0.7546771E-02  0.1107660E+00
         21   -1    0    0  504  503  0.00000000000E+00  0.00000000000E+00  0.34533193294E+02  0.34533193294E+02  0.00000000000E+00 0.  1.
         21   -1    0    0  503  504 -0.00000000000E+00 -0.00000000000E+00 -0.48615859322E+03  0.48615859322E+03  0.00000000000E+00 0.  1.
         25    2    1    2    0    0  0.10347879004E+02 -0.32368629327E+02 -0.23183115621E+03  0.26556310075E+03  0.12499307472E+03 0.  0.
         25    2    1    2    0    0 -0.10347879004E+02  0.32368629327E+02 -0.21979424372E+03  0.25512868576E+03  0.12500531973E+03 0.  0.
          5    1    3    3  501    0  0.57294938653E+02  0.17785714317E+02 -0.96600310329E+02  0.11381015589E+03  0.47000000000E+01 0. -1.
         -5    1    3    3    0  501 -0.46947059649E+02 -0.50154343645E+02 -0.13523084588E+03  0.15175294486E+03  0.47000000000E+01 0. -1.
          5    1    4    4  502    0  0.37153971204E+02  0.42342411790E+02 -0.18942735379E+03  0.19768183977E+03  0.47000000000E+01 0. -1.
         -5    1    4    4    0  502 -0.47501850208E+02 -0.99737824631E+01 -0.30366889926E+02  0.57446845985E+02  0.47000000000E+01 0. -1.
<mgrwt>
<rscale>  0 0.25914173E+03</rscale>
<asrwt>0</asrwt>
<pdfrwt beam="1">  1       21 0.53127992E-02 0.25914173E+03</pdfrwt>
<pdfrwt beam="2">  1       21 0.74793627E-01 0.25914173E+03</pdfrwt>
<totfact> 0.38201263E+05</totfact>
</mgrwt>
</event>
<event>
 8    1  0.9331162E-006  0.3119417E+03  0.7546771E-02  0.1079419E+00
         21   -1    0    0  504  503  0.00000000000E+00  0.00000000000E+00  0.29979983445E+03  0.29979983445E+03  0.00000000000E+00 0.  1.
         21   -1    0    0  503  504 -0.00000000000E+00 -0.00000000000E+00 -0.81143830672E+02  0.81143830672E+02  0.00000000000E+00 0.  1.
         25    2    1    2    0    0 -0.41375172109E+02  0.24577567283E+02  0.20690057726E+03  0.24647109083E+03  0.12499675222E+03 0.  0.
         25    2    1    2    0    0  0.41375172109E+02 -0.24577567283E+02  0.11755426527E+02  0.13447257430E+03  0.12501488513E+03 0.  0.
          5    1    3    3  501    0 -0.20115702827E+02  0.27595694151E+02  0.21878438076E+03  0.22148331562E+03  0.47000000000E+01 0.  1.
         -5    1    3    3    0  501 -0.21259469282E+02 -0.30181268676E+01 -0.11883803503E+02  0.24987775204E+02  0.47000000000E+01 0.  1.
          5    1    4    4  502    0 -0.33143360891E+02  0.11574940452E+02  0.33456628749E+02  0.48722660281E+02  0.47000000000E+01 0. -1.
         -5    1    4    4    0  502  0.74518533000E+02 -0.36152507735E+02 -0.21701202222E+02  0.85749914017E+02  0.47000000000E+01 0. -1.
<mgrwt>
<rscale>  0 0.31194171E+03</rscale>
<asrwt>0</asrwt>
<pdfrwt beam="1">  1       21 0.46123051E-01 0.31194171E+03</pdfrwt>
<pdfrwt beam="2">  1       21 0.12483666E-01 0.31194171E+03</pdfrwt>
<totfact> 0.23901888E+05</totfact>
</mgrwt>
</event>
<event>
 8    1  0.9331162E-006  0.3249077E+03  0.7546771E-02  0.1073413E+00
         21   -1    0    0  504  503  0.00000000000E+00  0.00000000000E+00  0.40304546248E+03  0.40304546248E+03  0.00000000000E+00 0.  1.
         21   -1    0    0  503  504 -0.00000000000E+00 -0.00000000000E+00 -0.65479576605E+02  0.65479576605E+02  0.00000000000E+00 0.  1.
         25    2    1    2    0    0 -0.13068669920E+02 -0.93981853069E+02  0.22930890170E+03  0.27787001675E+03  0.12500317985E+03 0.  0.
         25    2    1    2    0    0  0.13068669920E+02  0.93981853069E+02  0.10825698418E+03  0.19065502234E+03  0.12500553619E+03 0.  0.
          5    1    3    3  501    0 -0.52619355246E+01 -0.98552842653E+01  0.17903232565E+03  0.17944213056E+03  0.47000000000E+01 0.  1.
         -5    1    3    3    0  501 -0.78067343957E+01 -0.84126568803E+02  0.50276576050E+02  0.98427886190E+02  0.47000000000E+01 0.  1.
          5    1    4    4  502    0 -0.28942660150E+02  0.97294890538E+01 -0.15918822283E+02  0.34753984472E+02  0.47000000000E+01 0.  1.
         -5    1    4    4    0  502  0.42011330071E+02  0.84252364015E+02  0.12417580646E+03  0.15590103786E+03  0.47000000000E+01 0.  1.
<mgrwt>
<rscale>  0 0.32490766E+03</rscale>
<asrwt>0</asrwt>
<pdfrwt beam="1">  1       21 0.62006993E-01 0.32490766E+03</pdfrwt>
<pdfrwt beam="2">  1       21 0.10073781E-01 0.32490766E+03</pdfrwt>
<totfact> 0.18651864E+05</totfact>
</mgrwt>
</event>
<event>
 8    1  0.9331162E-006  0.2933024E+03  0.7546771E-02  0.1088637E+00
         21   -1    0    0  504  503  0.00000000000E+00  0.00000000000E+00  0.29134132993E+02  0.29134132993E+02  0.00000000000E+00 0. -1.
         21   -1    0    0  503  504 -0.00000000000E+00 -0.00000000000E+00 -0.73819155856E+03  0.73819155856E+03  0.00000000000E+00 0. -1.
         25    2    1    2    0    0  0.46141020594E+02  0.11775303679E+01 -0.19418373604E+03  0.23549049673E+03  0.12497227832E+03 0.  0.
         25    2    1    2    0    0 -0.46141020594E+02 -0.11775303679E+01 -0.51487368953E+03  0.53183519482E+03  0.12499351153E+03 0.  0.
          5    1    3    3  501    0  0.83890804092E+02  0.19064924440E+02 -0.15826878338E+03  0.18020054425E+03  0.47000000000E+01 0. -1.
         -5    1    3    3    0  501 -0.37749783498E+02 -0.17887394072E+02 -0.35914952660E+02  0.55289952482E+02  0.47000000000E+01 0. -1.
          5    1    4    4  502    0 -0.13946049113E+02 -0.48969109790E+02 -0.93984681025E+02  0.10699381415E+03  0.47000000000E+01 0. -1.
         -5    1    4    4    0  502 -0.32194971480E+02  0.47791579422E+02 -0.42088900850E+03  0.42484138067E+03  0.47000000000E+01 0. -1.
<mgrwt>
<rscale>  0 0.29330238E+03</rscale>
<asrwt>0</asrwt>
<pdfrwt beam="1">  1       21 0.44821743E-02 0.29330238E+03</pdfrwt>
<pdfrwt beam="2">  1       21 0.11356793E+00 0.29330238E+03</pdfrwt>
<totfact> 0.18941934E+05</totfact>
</mgrwt>
</event>
<event>
 8    1  0.9331162E-006  0.2916102E+03  0.7546771E-02  0.1089511E+00
         21   -1    0    0  504  503  0.00000000000E+00  0.00000000000E+00  0.40233356392E+02  0.40233356392E+02  0.00000000000E+00 0. -1.
         21   -1    0    0  503  504 -0.00000000000E+00 -0.00000000000E+00 -0.52839541698E+03  0.52839541698E+03  0.00000000000E+00 0. -1.
         25    2    1    2    0    0  0.67347801907E+02 -0.32847751680E+01 -0.30853003653E+03  0.33963282207E+03  0.12495260787E+03 0.  0.
         25    2    1    2    0    0 -0.67347801907E+02  0.32847751680E+01 -0.17963202406E+03  0.22899595130E+03  0.12499986191E+03 0.  0.
          5    1    3    3  501    0  0.10233516145E+03 -0.21444700528E+01 -0.18893964278E+03  0.21493571745E+03  0.47000000000E+01 0. -1.
         -5    1    3    3    0  501 -0.34987359541E+02 -0.11403051151E+01 -0.11959039375E+03  0.12469710462E+03  0.47000000000E+01 0. -1.
          5    1    4    4  502    0 -0.25751921805E+01  0.55900387498E+02 -0.52670243086E+02  0.76991749195E+02  0.47000000000E+01 0.  1.
         -5    1    4    4    0  502 -0.64772609726E+02 -0.52615612331E+02 -0.12696178097E+03  0.15200420211E+03  0.47000000000E+01 0.  1.
<mgrwt>
<rscale>  0 0.29161016E+03</rscale>
<asrwt>0</asrwt>
<pdfrwt beam="1">  1       21 0.61897470E-02 0.29161016E+03</pdfrwt>
<pdfrwt beam="2">  1       21 0.81291605E-01 0.29161016E+03</pdfrwt>
<totfact> 0.24132669E+05</totfact>
</mgrwt>
</event>
<event>
 8    1  0.9331162E-006  0.4427603E+03  0.7546771E-02  0.1029903E+00
         21   -1    0    0  504  503  0.00000000000E+00  0.00000000000E+00  0.22083777008E+03  0.22083777008E+03  0.00000000000E+00 0. -1.
         21   -1    0    0  503  504 -0.00000000000E+00 -0.00000000000E+00 -0.22192384457E+03  0.22192384457E+03  0.00000000000E+00 0. -1.
         25    2    1    2    0    0 -0.72123951113E+02 -0.12769429147E+03 -0.10953225101E+03  0.22164096737E+03  0.12497883023E+03 0.  0.
         25    2    1    2    0    0  0.72123951113E+02  0.12769429147E+03  0.10844617652E+03  0.22112064728E+03  0.12500428414E+03 0.  0.
          5    1    3    3  501    0 -0.41783733240E+02 -0.10354233641E+03 -0.13481360506E+03  0.17511051910E+03  0.47000000000E+01 0.  1.
         -5    1    3    3    0  501 -0.30340217873E+02 -0.24151955063E+02  0.25281354041E+02  0.46530448269E+02  0.47000000000E+01 0.  1.
          5    1    4    4  502    0 -0.15510622300E+02 -0.38017386006E+01 -0.13522559531E+02  0.21447196478E+02  0.47000000000E+01 0.  1.
         -5    1    4    4    0  502  0.87634573413E+02  0.13149603007E+03  0.12196873605E+03  0.19967345080E+03  0.47000000000E+01 0.  1.
<mgrwt>
<rscale>  0 0.44276028E+03</rscale>
<asrwt>0</asrwt>
<pdfrwt beam="1">  1       21 0.33975042E-01 0.44276028E+03</pdfrwt>
<pdfrwt beam="2">  1       21 0.34142130E-01 0.44276028E+03</pdfrwt>
<totfact> 0.63947218E+04</totfact>
</mgrwt>
</event>
<event>
 8    1  0.9331162E-006  0.3826118E+03  0.7546771E-02  0.1049973E+00
         21   -1    0    0  504  503  0.00000000000E+00  0.00000000000E+00  0.27927828068E+03  0.27927828068E+03  0.00000000000E+00 0. -1.
         21   -1    0    0  503  504 -0.00000000000E+00 -0.00000000000E+00 -0.13104474349E+03  0.13104474349E+03  0.00000000000E+00 0. -1.
         25    2    1    2    0    0 -0.11035292023E+03  0.45230810470E+02  0.16222074768E+03  0.23698909798E+03  0.12499867346E+03 0.  0.
         25    2    1    2    0    0  0.11035292023E+03 -0.45230810470E+02 -0.13987210484E+02  0.17333392620E+03  0.12500165877E+03 0.  0.
          5    1    3    3  501    0 -0.55392835563E+02 -0.39848745972E+02  0.44405758226E+02  0.81549065911E+02  0.47000000000E+01 0. -1.
         -5    1    3    3    0  501 -0.54960084664E+02  0.85079556442E+02  0.11781498945E+03  0.15544003207E+03  0.47000000000E+01 0. -1.
          5    1    4    4  502    0 -0.22803608850E+02 -0.30759331260E+02  0.51447118663E-01  0.38577631899E+02  0.47000000000E+01 0.  1.
         -5    1    4    4    0  502  0.13315652908E+03 -0.14471479210E+02 -0.14038657603E+02  0.13475629430E+03  0.47000000000E+01 0.  1.
<mgrwt>
<rscale>  0 0.38261182E+03</rscale>
<asrwt>0</asrwt>
<pdfrwt beam="1">  1       21 0.42965889E-01 0.38261182E+03</pdfrwt>
<pdfrwt beam="2">  1       21 0.20160730E-01 0.38261182E+03</pdfrwt>
<totfact> 0.11221702E+05</totfact>
</mgrwt>
</event>
<event>
 8    1  0.9331162E-006  0.7204646E+03  0.7546771E-02  0.9682861E-01
         21   -1    0    0  504  503  0.00000000000E+00  0.00000000000E+00  0.25927987567E+03  0.25927987567E+03  0.00000000000E+00 0. -1.
         21   -1    0    0  503  504 -0.00000000000E+00 -0.00000000000E+00 -0.50049130250E+03  0.50049130250E+03  0.00000000000E+00 0. -1.
         25    2    1    2    0    0  0.32347173496E+03  0.79734488619E+02 -0.61416952323E+02  0.36109320257E+03  0.12499882765E+03 0.  0.
         25    2    1    2    0    0 -0.32347173496E+03 -0.79734488619E+02 -0.17979447450E+03  0.39867797560E+03  0.12500609255E+03 0.  0.
          5    1    3    3  501    0  0.17214215675E+03 -0.21554319899E+02 -0.25237814560E+02  0.17537544902E+03  0.47000000000E+01 0.  1.
         -5    1    3    3    0  501  0.15132957822E+03  0.10128880852E+03 -0.36179137763E+02  0.18571775355E+03  0.47000000000E+01 0.  1.
          5    1    4    4  502    0 -0.21738878430E+03 -0.64070589854E+02 -0.18294307546E+03  0.29129569664E+03  0.47000000000E+01 0. -1.
         -5    1    4    4    0  502 -0.10608295066E+03 -0.15663898765E+02  0.31486009626E+01  0.10738227896E+03  0.47000000000E+01 0. -1.
<mgrwt>
<rscale>  0 0.72046464E+03</rscale>
<asrwt>0</asrwt>
<pdfrwt beam="1">  1       21 0.39889212E-01 0.72046464E+03</pdfrwt>
<pdfrwt beam="2">  1       21 0.76998662E-01 0.72046464E+03</pdfrwt>
<totfact> 0.75636304E+03</totfact>
</mgrwt>
</event>
<event>
 8    1  0.9331162E-006  0.2800957E+03  0.7546771E-02  0.1095637E+00
         21   -1    0    0  504  503  0.00000000000E+00  0.00000000000E+00  0.75049371298E+02  0.75049371298E+02  0.00000000000E+00 0.  1.
         21   -1    0    0  503  504 -0.00000000000E+00 -0.00000000000E+00 -0.26133993442E+03  0.26133993442E+03  0.00000000000E+00 0.  1.
         25    2    1    2    0    0 -0.33510921205E+02 -0.53445610730E+02 -0.96352007368E+02  0.16997534634E+03  0.12501397479E+03 0.  0.
         25    2    1    2    0    0  0.33510921205E+02  0.53445610730E+02 -0.89938555758E+02  0.16641395939E+03  0.12500098768E+03 0.  0.
          5    1    3    3  501    0 -0.37904658762E+02  0.12272422847E+02  0.13052455756E+02  0.42188056600E+02  0.47000000000E+01 0.  1.
         -5    1    3    3    0  501  0.43937375570E+01 -0.65718033577E+02 -0.10940446312E+03  0.12778728974E+03  0.47000000000E+01 0.  1.
          5    1    4    4  502    0 -0.31182288527E+02  0.66116867283E+02 -0.55406913872E+02  0.91846564236E+02  0.47000000000E+01 0. -1.
         -5    1    4    4    0  502  0.64693209732E+02 -0.12671256553E+02 -0.34531641886E+02  0.74567395150E+02  0.47000000000E+01 0. -1.
<mgrwt>
<rscale>  0 0.28009568E+03</rscale>
<asrwt>0</asrwt>
<pdfrwt beam="1">  1       21 0.11546057E-01 0.28009568E+03</pdfrwt>
<pdfrwt beam="2">  1       21 0.40206144E-01 0.28009568E+03</pdfrwt>
<totfact> 0.36762818E+05</totfact>
</mgrwt>
</event>
<event>
 8    1  0.9331162E-006  0.4844013E+03  0.7546771E-02  0.1017933E+00
         21   -1    0    0  504  503  0.00000000000E+00  0.00000000000E+00  0.24043448173E+03  0.24043448173E+03  0.00000000000E+00 0.  1.
         21   -1    0    0  503  504 -0.00000000000E+00 -0.00000000000E+00 -0.24397977549E+03  0.24397977549E+03  0.00000000000E+00 0.  1.
         25    2    1    2    0    0  0.54563635434E+02  0.19688368651E+03 -0.37721167026E+02  0.24249893793E+03  0.12506986900E+03 0.  0.
         25    2    1    2    0    0 -0.54563635434E+02 -0.19688368651E+03  0.34175873263E+02  0.24191531929E+03  0.12495861342E+03 0.  0.
          5    1    3    3  501    0  0.26441692686E+02  0.20657774582E+03 -0.25013006585E+02  0.20981246073E+03  0.47000000000E+01 0. -1.
         -5    1    3    3    0  501  0.28121942748E+02 -0.96940593130E+01 -0.12708160441E+02  0.32686477199E+02  0.47000000000E+01 0. -1.
          5    1    4    4  502    0 -0.91456306195E+02 -0.10827379622E+03  0.67000755541E+01  0.14196637596E+03  0.47000000000E+01 0.  1.
         -5    1    4    4    0  502  0.36892670761E+02 -0.88609890292E+02  0.27475797708E+02  0.99948943332E+02  0.47000000000E+01 0.  1.
<mgrwt>
<rscale>  0 0.48440128E+03</rscale>
<asrwt>0</asrwt>
<pdfrwt beam="1">  1       21 0.36989920E-01 0.48440128E+03</pdfrwt>
<pdfrwt beam="2">  1       21 0.37535350E-01 0.48440128E+03</pdfrwt>
<totfact> 0.44017074E+04</totfact>
</mgrwt>
</event>
<event>
 8    1  0.9331162E-006  0.3334329E+03  0.7546771E-02  0.1069628E+00
         21   -1    0    0  504  503  0.00000000000E+00  0.00000000000E+00  0.14775752997E+03  0.14775752997E+03  0.00000000000E+00 0. -1.
         21   -1    0    0  503  504 -0.00000000000E+00 -0.00000000000E+00 -0.18810803188E+03  0.18810803188E+03  0.00000000000E+00 0. -1.
         25    2    1    2    0    0  0.54911462997E+02  0.92234643242E+02 -0.45784797587E+02  0.17101009338E+03  0.12500282464E+03 0.  0.
         25    2    1    2    0    0 -0.54911462997E+02 -0.92234643242E+02  0.54342956726E+01  0.16485546846E+03  0.12500118292E+03 0.  0.
          5    1    3    3  501    0 -0.71832333652E+01  0.68070244650E+02 -0.71815060779E+02  0.99320944433E+02  0.47000000000E+01 0.  1.
         -5    1    3    3    0  501  0.62094696362E+02  0.24164398593E+02  0.26030263192E+02  0.71689148952E+02  0.47000000000E+01 0.  1.
          5    1    4    4  502    0  0.31264740493E+02 -0.31301354792E+02 -0.29731013623E+02  0.53509643813E+02  0.47000000000E+01 0. -1.
         -5    1    4    4    0  502 -0.86176203490E+02 -0.60933288451E+02  0.35165309296E+02  0.11134582465E+03  0.47000000000E+01 0. -1.
<mgrwt>
<rscale>  0 0.33343292E+03</rscale>
<asrwt>0</asrwt>
<pdfrwt beam="1">  1       21 0.22731928E-01 0.33343292E+03</pdfrwt>
<pdfrwt beam="2">  1       21 0.28939697E-01 0.33343292E+03</pdfrwt>
<totfact> 0.20010565E+05</totfact>
</mgrwt>
</event>
<event>
 8    1  0.9331162E-006  0.5451567E+03  0.7546771E-02  0.1002621E+00
         21   -1    0    0  504  503  0.00000000000E+00  0.00000000000E+00  0.17236081303E+03  0.17236081303E+03  0.00000000000E+00 0.  1.
         21   -1    0    0  503  504 -0.00000000000E+00 -0.00000000000E+00 -0.43106634961E+03  0.43106634961E+03  0.00000000000E+00 0.  1.
         25    2    1    2    0    0  0.20357940566E+01  0.10575290641E+03  0.11185189371E+03  0.19830291738E+03  0.12500151697E+03 0.  0.
         25    2    1    2    0    0 -0.20357940566E+01 -0.10575290641E+03 -0.37055743028E+03  0.40512424526E+03  0.12500009316E+03 0.  0.
          5    1    3    3  501    0  0.49860789202E+02  0.95450130881E+02  0.48704377059E+02  0.11828369342E+03  0.47000000000E+01 0. -1.
         -5    1    3    3    0  501 -0.47824995146E+02  0.10302775532E+02  0.63147516646E+02  0.80019223959E+02  0.47000000000E+01 0. -1.
          5    1    4    4  502    0  0.32943714668E+02  0.15929906153E+02 -0.76399629973E+02  0.84841285387E+02  0.47000000000E+01 0. -1.
         -5    1    4    4    0  502 -0.34979508724E+02 -0.12168281257E+03 -0.29415780031E+03  0.32028295988E+03  0.47000000000E+01 0. -1.
<mgrwt>
<rscale>  0 0.54515666E+03</rscale>
<asrwt>0</asrwt>
<pdfrwt beam="1">  1       21 0.26517048E-01 0.54515666E+03</pdfrwt>
<pdfrwt beam="2">  1       21 0.66317899E-01 0.54515666E+03</pdfrwt>
<totfact> 0.25101587E+04</totfact>
</mgrwt>
</event>
<event>
 8    1  0.9331162E-006  0.2560485E+03  0.7546771E-02  0.1109541E+00
         21   -1    0    0  504  503  0.00000000000E+00  0.00000000000E+00  0.16949844278E+03  0.16949844278E+03  0.00000000000E+00 0.  1.
         21   -1    0    0  503  504 -0.00000000000E+00 -0.00000000000E+00 -0.96698313989E+02  0.96698313989E+02  0.00000000000E+00 0.  1.
         25    2    1    2    0    0  0.86872794529E+01  0.25109206280E+02  0.44383172126E+02  0.13527881735E+03  0.12499820556E+03 0.  0.
         25    2    1    2    0    0 -0.86872794529E+01 -0.25109206280E+02  0.28416956661E+02  0.13091793941E+03  0.12500416941E+03 0.  0.
          5    1    3    3  501    0  0.24821091511E+02  0.35043299336E+02 -0.33701792833E+02  0.54790694943E+02  0.47000000000E+01 0. -1.
         -5    1    3    3    0  501 -0.16133812059E+02 -0.99340930558E+01  0.78084964960E+02  0.80488122410E+02  0.47000000000E+01 0. -1.
          5    1    4    4  502    0 -0.56418395559E+02  0.12875973456E+02  0.37425116934E+02  0.69076446256E+02  0.47000000000E+01 0.  1.
         -5    1    4    4    0  502  0.47731116106E+02 -0.37985179736E+02 -0.90081602729E+01  0.61841493156E+02  0.47000000000E+01 0.  1.
<mgrwt>
<rscale>  0 0.25604854E+03</rscale>
<asrwt>0</asrwt>
<pdfrwt beam="1">  1       21 0.26076684E-01 0.25604854E+03</pdfrwt>
<pdfrwt beam="2">  1       21 0.14876664E-01 0.25604854E+03</pdfrwt>
<totfact> 0.54997090E+05</totfact>
</mgrwt>
</event>
<event>
 8    1  0.9331162E-006  0.2826749E+03  0.7546771E-02  0.1094237E+00
         21   -1    0    0  504  503  0.00000000000E+00  0.00000000000E+00  0.10883868366E+03  0.10883868366E+03  0.00000000000E+00 0. -1.
         21   -1    0    0  503  504 -0.00000000000E+00 -0.00000000000E+00 -0.18354019718E+03  0.18354019718E+03  0.00000000000E+00 0. -1.
         25    2    1    2    0    0  0.65951103479E+02  0.65818690725E+00 -0.38618989521E+02  0.14651317560E+03  0.12499881204E+03 0.  0.
         25    2    1    2    0    0 -0.65951103479E+02 -0.65818690725E+00 -0.36082524006E+02  0.14586570524E+03  0.12499949666E+03 0.  0.
          5    1    3    3  501    0 -0.14583793914E+01  0.38764106362E+02  0.24827187668E+02  0.46295378386E+02  0.47000000000E+01 0. -1.
         -5    1    3    3    0  501  0.67409482871E+02 -0.38105919454E+02 -0.63446177188E+02  0.10021779721E+03  0.47000000000E+01 0. -1.
          5    1    4    4  502    0  0.20911782988E+02  0.39922626701E+02 -0.10165734255E+02  0.46438679389E+02  0.47000000000E+01 0. -1.
         -5    1    4    4    0  502 -0.86862886467E+02 -0.40580813608E+02 -0.25916789752E+02  0.99427025851E+02  0.47000000000E+01 0. -1.
<mgrwt>
<rscale>  0 0.28267489E+03</rscale>
<asrwt>0</asrwt>
<pdfrwt beam="1">  1       21 0.16744413E-01 0.28267489E+03</pdfrwt>
<pdfrwt beam="2">  1       21 0.28236953E-01 0.28267489E+03</pdfrwt>
<totfact> 0.37718184E+05</totfact>
</mgrwt>
</event>
<event>
 8    1  0.9331162E-006  0.3323254E+03  0.7546771E-02  0.1070113E+00
         21   -1    0    0  504  503  0.00000000000E+00  0.00000000000E+00  0.33467919474E+02  0.33467919474E+02  0.00000000000E+00 0. -1.
         21   -1    0    0  503  504 -0.00000000000E+00 -0.00000000000E+00 -0.82497060325E+03  0.82497060325E+03  0.00000000000E+00 0. -1.
         25    2    1    2    0    0 -0.49961478961E+01  0.28856149879E+02 -0.66824178060E+03  0.68046220631E+03  0.12499639193E+03 0.  0.
         25    2    1    2    0    0  0.49961478961E+01 -0.28856149879E+02 -0.12326090318E+03  0.17797631642E+03  0.12499872029E+03 0.  0.
          5    1    3    3  501    0  0.33365020283E+02 -0.19595996638E+02 -0.49382452587E+03  0.49536045464E+03  0.47000000000E+01 0. -1.
         -5    1    3    3    0  501 -0.38361168179E+02  0.48452146517E+02 -0.17441725473E+03  0.18510175167E+03  0.47000000000E+01 0. -1.
          5    1    4    4  502    0  0.14767846579E+01 -0.18213794003E+02  0.23823624058E+02  0.30390430207E+02  0.47000000000E+01 0.  1.
         -5    1    4    4    0  502  0.35193632382E+01 -0.10642355876E+02 -0.14708452723E+03  0.14758588621E+03  0.47000000000E+01 0.  1.
<mgrwt>
<rscale>  0 0.33232544E+03</rscale>
<asrwt>0</asrwt>
<pdfrwt beam="1">  1       21 0.51489108E-02 0.33232544E+03</pdfrwt>
<pdfrwt beam="2">  1       21 0.12691855E+00 0.33232544E+03</pdfrwt>
<totfact> 0.11184097E+05</totfact>
</mgrwt>
</event>
<event>
 8    1  0.9331162E-006  0.3307244E+03  0.7546771E-02  0.1070817E+00
         21   -1    0    0  504  503  0.00000000000E+00  0.00000000000E+00  0.13171132577E+03  0.13171132577E+03  0.00000000000E+00 0. -1.
         21   -1    0    0  503  504 -0.00000000000E+00 -0.00000000000E+00 -0.20761047078E+03  0.20761047078E+03  0.00000000000E+00 0. -1.
         25    2    1    2    0    0  0.22496603623E+02  0.67335770475E+02  0.45908319838E+02  0.15089733913E+03  0.12498891937E+03 0.  0.
         25    2    1    2    0    0 -0.22496603623E+02 -0.67335770475E+02 -0.12180746484E+03  0.18842445742E+03  0.12500605787E+03 0.  0.
          5    1    3    3  501    0  0.33099744285E+02  0.51438039915E+02 -0.32938989617E+02  0.69631401386E+02  0.47000000000E+01 0. -1.
         -5    1    3    3    0  501 -0.10603140663E+02  0.15897730560E+02  0.78847309455E+02  0.81265937743E+02  0.47000000000E+01 0. -1.
          5    1    4    4  502    0  0.29482505034E+02 -0.41314902140E+02  0.25867451452E+01  0.51038421727E+02  0.47000000000E+01 0.  1.
         -5    1    4    4    0  502 -0.51979108657E+02 -0.26020868334E+02 -0.12439420999E+03  0.13738603570E+03  0.47000000000E+01 0.  1.
<mgrwt>
<rscale>  0 0.33072436E+03</rscale>
<asrwt>0</asrwt>
<pdfrwt beam="1">  1       21 0.20263281E-01 0.33072436E+03</pdfrwt>
<pdfrwt beam="2">  1       21 0.31940072E-01 0.33072436E+03</pdfrwt>
<totfact> 0.20505091E+05</totfact>
</mgrwt>
</event>
<event>
 8    1  0.9331162E-006  0.3054115E+03  0.7546771E-02  0.1082566E+00
         21   -1    0    0  504  503  0.00000000000E+00  0.00000000000E+00  0.35502531881E+02  0.35502531881E+02  0.00000000000E+00 0.  1.
         21   -1    0    0  503  504 -0.00000000000E+00 -0.00000000000E+00 -0.65682787992E+03  0.65682787992E+03  0.00000000000E+00 0.  1.
         25    2    1    2    0    0  0.58932179929E+02 -0.84689177062E+00 -0.16340548868E+03  0.21401135616E+03  0.12500315107E+03 0.  0.
         25    2    1    2    0    0 -0.58932179929E+02  0.84689177062E+00 -0.45791985937E+03  0.47831905565E+03  0.12499920934E+03 0.  0.
          5    1    3    3  501    0  0.77230800534E+02 -0.14640705151E+02 -0.17193683614E+03  0.18911190449E+03  0.47000000000E+01 0.  1.
         -5    1    3    3    0  501 -0.18298620605E+02  0.13793813380E+02  0.85313474661E+01  0.24899451665E+02  0.47000000000E+01 0.  1.
          5    1    4    4  502    0 -0.42289765002E+02  0.61618597837E+02 -0.23796008520E+03  0.24946416170E+03  0.47000000000E+01 0. -1.
         -5    1    4    4    0  502 -0.16642414927E+02 -0.60771706066E+02 -0.21995977417E+03  0.22885489395E+03  0.47000000000E+01 0. -1.
<mgrwt>
<rscale>  0 0.30541154E+03</rscale>
<asrwt>0</asrwt>
<pdfrwt beam="1">  1       21 0.54619282E-02 0.30541154E+03</pdfrwt>
<pdfrwt beam="2">  1       21 0.10105044E+00 0.30541154E+03</pdfrwt>
<totfact> 0.17906647E+05</totfact>
</mgrwt>
</event>
<event>
 8    1  0.9331162E-006  0.3877297E+03  0.7546771E-02  0.1048113E+00
         21   -1    0    0  504  503  0.00000000000E+00  0.00000000000E+00  0.68924295836E+02  0.68924295836E+02  0.00000000000E+00 0.  1.
         21   -1    0    0  503  504 -0.00000000000E+00 -0.00000000000E+00 -0.54528771974E+03  0.54528771974E+03  0.00000000000E+00 0.  1.
         25    2    1    2    0    0  0.42271987505E+02  0.12404539382E+03 -0.12861427044E+03  0.22212911977E+03  0.12500213850E+03 0.  0.
         25    2    1    2    0    0 -0.42271987505E+02 -0.12404539382E+03 -0.34774915346E+03  0.39208289581E+03  0.12500137118E+03 0.  0.
          5    1    3    3  501    0  0.69454355935E+02  0.11887259068E+03 -0.13550276753E+03  0.19322963122E+03  0.47000000000E+01 0. -1.
         -5    1    3    3    0  501 -0.27182368430E+02  0.51728031391E+01  0.68884970894E+01  0.28899488541E+02  0.47000000000E+01 0. -1.
          5    1    4    4  502    0  0.37314296757E+02 -0.26111741306E+02 -0.45660930036E+02  0.64662124217E+02  0.47000000000E+01 0.  1.
         -5    1    4    4    0  502 -0.79586284262E+02 -0.97933652518E+02 -0.30208822342E+03  0.32742077159E+03  0.47000000000E+01 0.  1.
<mgrwt>
<rscale>  0 0.38772966E+03</rscale>
<asrwt>0</asrwt>
<pdfrwt beam="1">  1       21 0.10603738E-01 0.38772966E+03</pdfrwt>
<pdfrwt beam="2">  1       21 0.83890420E-01 0.38772966E+03</pdfrwt>
<totfact> 0.84889958E+04</totfact>
</mgrwt>
</event>
<event>
 8    1  0.9331162E-006  0.3637648E+03  0.7546771E-02  0.1057103E+00
         21   -1    0    0  504  503  0.00000000000E+00  0.00000000000E+00  0.21370144120E+03  0.21370144120E+03  0.00000000000E+00 0. -1.
         21   -1    0    0  503  504 -0.00000000000E+00 -0.00000000000E+00 -0.15480103577E+03  0.15480103577E+03  0.00000000000E+00 0. -1.
         25    2    1    2    0    0  0.77488830247E+02 -0.10610696823E+03  0.43607179249E+02  0.18651668798E+03  0.12499472506E+03 0.  0.
         25    2    1    2    0    0 -0.77488830247E+02  0.10610696823E+03  0.15293226185E+02  0.18198578899E+03  0.12498694774E+03 0.  0.
          5    1    3    3  501    0  0.70357795006E+02 -0.66480387301E+02  0.84762441743E+02  0.12875023396E+03  0.47000000000E+01 0.  1.
         -5    1    3    3    0  501  0.71310352410E+01 -0.39626580924E+02 -0.41155262494E+02  0.57766454022E+02  0.47000000000E+01 0.  1.
          5    1    4    4  502    0 -0.10786565303E+03  0.75375864344E+02 -0.93726747992E+01  0.13200930672E+03  0.47000000000E+01 0.  1.
         -5    1    4    4    0  502  0.30376822780E+02  0.30731103881E+02  0.24665900984E+02  0.49976482262E+02  0.47000000000E+01 0.  1.
<mgrwt>
<rscale>  0 0.36376478E+03</rscale>
<asrwt>0</asrwt>
<pdfrwt beam="1">  1       21 0.32877145E-01 0.36376478E+03</pdfrwt>
<pdfrwt beam="2">  1       21 0.23815544E-01 0.36376478E+03</pdfrwt>
<totfact> 0.14121698E+05</totfact>
</mgrwt>
</event>
<event>
 8    1  0.9331162E-006  0.3229711E+03  0.7546771E-02  0.1074290E+00
         21   -1    0    0  504  503  0.00000000000E+00  0.00000000000E+00  0.13129728279E+02  0.13129728279E+02  0.00000000000E+00 0. -1.
         21   -1    0    0  503  504 -0.00000000000E+00 -0.00000000000E+00 -0.19861479842E+04  0.19861479842E+04  0.00000000000E+00 0. -1.
         25    2    1    2    0    0  0.20549418464E+02 -0.25836812848E+02 -0.38756284324E+03  0.40855919364E+03  0.12500335095E+03 0.  0.
         25    2    1    2    0    0 -0.20549418464E+02  0.25836812848E+02 -0.15854554127E+04  0.15907185189E+04  0.12500688418E+03 0.  0.
          5    1    3    3  501    0  0.36317656302E+02 -0.69365947588E+02 -0.29072010569E+03  0.30111605187E+03  0.47000000000E+01 0. -1.
         -5    1    3    3    0  501 -0.15768237838E+02  0.43529134739E+02 -0.96842737551E+02  0.10744314176E+03  0.47000000000E+01 0. -1.
          5    1    4    4  502    0 -0.68617471342E+02  0.10924637218E+02 -0.11915250835E+04  0.11935584693E+04  0.47000000000E+01 0. -1.
         -5    1    4    4    0  502  0.48068052878E+02  0.14912175630E+02 -0.39393032923E+03  0.39716004958E+03  0.47000000000E+01 0. -1.
<mgrwt>
<rscale>  0 0.32297110E+03</rscale>
<asrwt>0</asrwt>
<pdfrwt beam="1">  1       21 0.20199590E-02 0.32297110E+03</pdfrwt>
<pdfrwt beam="2">  1       21 0.30556111E+00 0.32297110E+03</pdfrwt>
<totfact> 0.34921094E+04</totfact>
</mgrwt>
</event>
<event>
 8    1  0.9331162E-006  0.3969560E+03  0.7546771E-02  0.1044839E+00
         21   -1    0    0  504  503  0.00000000000E+00  0.00000000000E+00  0.11220528835E+03  0.11220528835E+03  0.00000000000E+00 0.  1.
         21   -1    0    0  503  504 -0.00000000000E+00 -0.00000000000E+00 -0.35108429729E+03  0.35108429729E+03  0.00000000000E+00 0.  1.
         25    2    1    2    0    0  0.93986078856E+02 -0.11492116873E+03 -0.70896339530E+02  0.20661131856E+03  0.12498675113E+03 0.  0.
         25    2    1    2    0    0 -0.93986078856E+02  0.11492116873E+03 -0.16798266941E+03  0.25667826708E+03  0.12500119010E+03 0.  0.
          5    1    3    3  501    0  0.17036583249E+02 -0.22107510745E+02 -0.80738088643E+02  0.85555339739E+02  0.47000000000E+01 0. -1.
         -5    1    3    3    0  501  0.76949495608E+02 -0.92813657987E+02  0.98417491128E+01  0.12105597882E+03  0.47000000000E+01 0. -1.
          5    1    4    4  502    0 -0.13821435203E+02  0.11231551435E+03 -0.89392813522E+02  0.14428780941E+03  0.47000000000E+01 0.  1.
         -5    1    4    4    0  502 -0.80164643653E+02  0.26056543818E+01 -0.78589855887E+02  0.11239045767E+03  0.47000000000E+01 0.  1.
<mgrwt>
<rscale>  0 0.39695599E+03</rscale>
<asrwt>0</asrwt>
<pdfrwt beam="1">  1       21 0.17262353E-01 0.39695599E+03</pdfrwt>
<pdfrwt beam="2">  1       21 0.54012967E-01 0.39695599E+03</pdfrwt>
<totfact> 0.92511172E+04</totfact>
</mgrwt>
</event>
<event>
 8    1  0.9331162E-006  0.3155926E+03  0.7546771E-02  0.1077696E+00
         21   -1    0    0  504  503  0.00000000000E+00  0.00000000000E+00  0.17206544477E+03  0.17206544477E+03  0.00000000000E+00 0.  1.
         21   -1    0    0  503  504 -0.00000000000E+00 -0.00000000000E+00 -0.14471046134E+03  0.14471046134E+03  0.00000000000E+00 0.  1.
         25    2    1    2    0    0  0.25206305480E+02 -0.92859788694E+02  0.17683213252E+02  0.15873386726E+03  0.12500178556E+03 0.  0.
         25    2    1    2    0    0 -0.25206305480E+02  0.92859788694E+02  0.96717701776E+01  0.15804203884E+03  0.12500177883E+03 0.  0.
          5    1    3    3  501    0  0.45464110133E+02  0.12162014183E+02  0.20704969279E+02  0.51630278442E+02  0.47000000000E+01 0. -1.
         -5    1    3    3    0  501 -0.20257804653E+02 -0.10502180288E+03 -0.30217560270E+01  0.10710358882E+03  0.47000000000E+01 0. -1.
          5    1    4    4  502    0  0.13775881405E+02  0.81230451577E+01 -0.46267624541E+02  0.49178672733E+02  0.47000000000E+01 0. -1.
         -5    1    4    4    0  502 -0.38982186886E+02  0.84736743536E+02  0.55939394719E+02  0.10886336611E+03  0.47000000000E+01 0. -1.
<mgrwt>
<rscale>  0 0.31559258E+03</rscale>
<asrwt>0</asrwt>
<pdfrwt beam="1">  1       21 0.26471607E-01 0.31559258E+03</pdfrwt>
<pdfrwt beam="2">  1       21 0.22263148E-01 0.31559258E+03</pdfrwt>
<totfact> 0.24875306E+05</totfact>
</mgrwt>
</event>
<event>
 8    1  0.9331162E-006  0.3215211E+03  0.7546771E-02  0.1074951E+00
         21   -1    0    0  504  503  0.00000000000E+00  0.00000000000E+00  0.86351745882E+02  0.86351745882E+02  0.00000000000E+00 0. -1.
         21   -1    0    0  503  504 -0.00000000000E+00 -0.00000000000E+00 -0.29928697382E+03  0.29928697382E+03  0.00000000000E+00 0. -1.
         25    2    1    2    0    0  0.84671896201E+02 -0.79014137945E+01 -0.40902007839E+02  0.15661445279E+03  0.12499340075E+03 0.  0.
         25    2    1    2    0    0 -0.84671896201E+02  0.79014137945E+01 -0.17203322010E+03  0.22902426691E+03  0.12499969468E+03 0.  0.
          5    1    3    3  501    0  0.90415071705E+02  0.13950630089E+02 -0.72962641874E+02  0.11711166629E+03  0.47000000000E+01 0.  1.
         -5    1    3    3    0  501 -0.57431755040E+01 -0.21852043884E+02  0.32060634036E+02  0.39502786504E+02  0.47000000000E+01 0.  1.
          5    1    4    4  502    0 -0.11398130916E+03  0.20477794482E+02 -0.15170372181E+03  0.19091146670E+03  0.47000000000E+01 0. -1.
         -5    1    4    4    0  502  0.29309412962E+02 -0.12576380688E+02 -0.20329498290E+02  0.38112800214E+02  0.47000000000E+01 0. -1.
<mgrwt>
<rscale>  0 0.32152109E+03</rscale>
<asrwt>0</asrwt>
<pdfrwt beam="1">  1       21 0.13284884E-01 0.32152109E+03</pdfrwt>
<pdfrwt beam="2">  1       21 0.46044149E-01 0.32152109E+03</pdfrwt>
<totfact> 0.21378954E+05</totfact>
</mgrwt>
</event>
<event>
 8    1  0.9331162E-006  0.3135091E+03  0.7546771E-02  0.1078676E+00
         21   -1    0    0  504  503  0.00000000000E+00  0.00000000000E+00  0.35131313357E+03  0.35131313357E+03  0.00000000000E+00 0.  1.
         21   -1    0    0  503  504 -0.00000000000E+00 -0.00000000000E+00 -0.69943259153E+02  0.69943259153E+02  0.00000000000E+00 0.  1.
         25    2    1    2    0    0  0.16141754625E+02 -0.75466631045E+02  0.67188454283E+02  0.16153557745E+03  0.12499474289E+03 0.  0.
         25    2    1    2    0    0 -0.16141754625E+02  0.75466631045E+02  0.21418142014E+03  0.25972081527E+03  0.12500181003E+03 0.  0.
          5    1    3    3  501    0  0.20917209551E+02  0.16684934943E+02  0.63500115025E+02  0.69067150786E+02  0.47000000000E+01 0. -1.
         -5    1    3    3    0  501 -0.47754549254E+01 -0.92151565988E+02  0.36883392576E+01  0.92468426667E+02  0.47000000000E+01 0. -1.
          5    1    4    4  502    0 -0.53871661397E+02  0.56912965309E+02  0.20039504605E+03  0.21522431555E+03  0.47000000000E+01 0.  1.
         -5    1    4    4    0  502  0.37729906772E+02  0.18553665736E+02  0.13786374085E+02  0.44496499724E+02  0.47000000000E+01 0.  1.
<mgrwt>
<rscale>  0 0.31350908E+03</rscale>
<asrwt>0</asrwt>
<pdfrwt beam="1">  1       21 0.54048173E-01 0.31350908E+03</pdfrwt>
<pdfrwt beam="2">  1       21 0.10760502E-01 0.31350908E+03</pdfrwt>
<totfact> 0.22356276E+05</totfact>
</mgrwt>
</event>
<event>
 8    1  0.9331162E-006  0.3006743E+03  0.7546771E-02  0.1084904E+00
         21   -1    0    0  504  503  0.00000000000E+00  0.00000000000E+00  0.38544941272E+03  0.38544941272E+03  0.00000000000E+00 0.  1.
         21   -1    0    0  503  504 -0.00000000000E+00 -0.00000000000E+00 -0.58636138437E+02  0.58636138437E+02  0.00000000000E+00 0.  1.
         25    2    1    2    0    0 -0.28641633395E+01  0.38619989610E+02  0.54096710024E+02  0.14159760331E+03  0.12499488069E+03 0.  0.
         25    2    1    2    0    0  0.28641633395E+01 -0.38619989610E+02  0.27271656426E+03  0.30248794785E+03  0.12499970858E+03 0.  0.
          5    1    3    3  501    0 -0.26484165937E+02 -0.40234975425E+02  0.20768135921E+02  0.52665641195E+02  0.47000000000E+01 0.  1.
         -5    1    3    3    0  501  0.23620002598E+02  0.78854965036E+02  0.33328574103E+02  0.88931962113E+02  0.47000000000E+01 0.  1.
          5    1    4    4  502    0  0.27951221789E+02  0.38990904200E+02  0.11935820786E+03  0.12872464097E+03  0.47000000000E+01 0. -1.
         -5    1    4    4    0  502 -0.25087058450E+02 -0.77610893810E+02  0.15335835640E+03  0.17376330688E+03  0.47000000000E+01 0. -1.
<mgrwt>
<rscale>  0 0.30067434E+03</rscale>
<asrwt>0</asrwt>
<pdfrwt beam="1">  1       21 0.59299908E-01 0.30067434E+03</pdfrwt>
<pdfrwt beam="2">  1       21 0.90209446E-02 0.30067434E+03</pdfrwt>
<totfact> 0.25149496E+05</totfact>
</mgrwt>
</event>
<event>
 8    1  0.9331162E-006  0.2807139E+03  0.7546771E-02  0.1095300E+00
         21   -1    0    0  504  503  0.00000000000E+00  0.00000000000E+00  0.21262303926E+03  0.21262303926E+03  0.00000000000E+00 0. -1.
         21   -1    0    0  503  504 -0.00000000000E+00 -0.00000000000E+00 -0.92652585399E+02  0.92652585399E+02  0.00000000000E+00 0. -1.
         25    2    1    2    0    0 -0.26848082671E+02 -0.57120792051E+02  0.70421233056E+02  0.15674165924E+03  0.12500077299E+03 0.  0.
         25    2    1    2    0    0  0.26848082671E+02  0.57120792051E+02  0.49549220806E+02  0.14853396542E+03  0.12499443657E+03 0.  0.
          5    1    3    3  501    0  0.44370114657E+02  0.16401797013E+01  0.38440691671E+02  0.58916670309E+02  0.47000000000E+01 0. -1.
         -5    1    3    3    0  501 -0.71218197328E+02 -0.58760971752E+02  0.31980541385E+02  0.97824988930E+02  0.47000000000E+01 0. -1.
          5    1    4    4  502    0  0.11912053736E+02  0.96382651302E+02  0.28540756990E+02  0.10133201521E+03  0.47000000000E+01 0. -1.
         -5    1    4    4    0  502  0.14936028935E+02 -0.39261859251E+02  0.21008463816E+02  0.47201950215E+02  0.47000000000E+01 0. -1.
<mgrwt>
<rscale>  0 0.28071391E+03</rscale>
<asrwt>0</asrwt>
<pdfrwt beam="1">  1       21 0.32711237E-01 0.28071391E+03</pdfrwt>
<pdfrwt beam="2">  1       21 0.14254244E-01 0.28071391E+03</pdfrwt>
<totfact> 0.37987539E+05</totfact>
</mgrwt>
</event>
<event>
 8    1  0.9331162E-006  0.3259967E+03  0.7546771E-02  0.1072922E+00
         21   -1    0    0  504  503  0.00000000000E+00  0.00000000000E+00  0.14930978797E+04  0.14930978797E+04  0.00000000000E+00 0. -1.
         21   -1    0    0  503  504 -0.00000000000E+00 -0.00000000000E+00 -0.17794188831E+02  0.17794188831E+02  0.00000000000E+00 0. -1.
         25    2    1    2    0    0  0.10287180314E+03 -0.12702585929E+02  0.80324491031E+03  0.81949306922E+03  0.12499016359E+03 0.  0.
         25    2    1    2    0    0 -0.10287180314E+03  0.12702585929E+02  0.67205878052E+03  0.69139899927E+03  0.12500243257E+03 0.  0.
          5    1    3    3  501    0 -0.13113524572E+02 -0.26965970912E+02  0.61470478120E+02  0.68555362987E+02  0.47000000000E+01 0.  1.
         -5    1    3    3    0  501  0.11598532771E+03  0.14263384984E+02  0.74177443219E+03  0.75093770624E+03  0.47000000000E+01 0.  1.
          5    1    4    4  502    0 -0.15096821465E+02  0.46055716766E+02  0.95216108101E+02  0.10694503405E+03  0.47000000000E+01 0.  1.
         -5    1    4    4    0  502 -0.87774981670E+02 -0.33353130837E+02  0.57684267242E+03  0.58445396523E+03  0.47000000000E+01 0.  1.
<mgrwt>
<rscale>  0 0.32599672E+03</rscale>
<asrwt>0</asrwt>
<pdfrwt beam="1">  1       21 0.22970727E+00 0.32599672E+03</pdfrwt>
<pdfrwt beam="2">  1       21 0.27375687E-02 0.32599672E+03</pdfrwt>
<totfact> 0.60075695E+04</totfact>
</mgrwt>
</event>
<event>
 8    1  0.9331162E-006  0.2871855E+03  0.7546771E-02  0.1091828E+00
         21   -1    0    0  504  503  0.00000000000E+00  0.00000000000E+00  0.46731593078E+02  0.46731593078E+02  0.00000000000E+00 0.  1.
         21   -1    0    0  503  504 -0.00000000000E+00 -0.00000000000E+00 -0.44121923887E+03  0.44121923887E+03  0.00000000000E+00 0.  1.
         25    2    1    2    0    0  0.38795712982E+02  0.68505658156E+01 -0.29688148250E+03  0.32452424105E+03  0.12500132312E+03 0.  0.
         25    2    1    2    0    0 -0.38795712982E+02 -0.68505658156E+01 -0.97606163292E+02  0.16342659090E+03  0.12501699845E+03 0.  0.
          5    1    3    3  501    0 -0.28591089266E+02  0.39282322192E+02 -0.17289631046E+03  0.17965460025E+03  0.47000000000E+01 0.  1.
         -5    1    3    3    0  501  0.67386802248E+02 -0.32431756376E+02 -0.12398517204E+03  0.14486964080E+03  0.47000000000E+01 0.  1.
          5    1    4    4  502    0  0.24534109788E+02  0.43399915336E+02 -0.35871634535E+02  0.61598209053E+02  0.47000000000E+01 0.  1.
         -5    1    4    4    0  502 -0.63329822771E+02 -0.50250481152E+02 -0.61734528758E+02  0.10182838184E+03  0.47000000000E+01 0.  1.
<mgrwt>
<rscale>  0 0.28718550E+03</rscale>
<asrwt>0</asrwt>
<pdfrwt beam="1">  1       21 0.71894761E-02 0.28718550E+03</pdfrwt>
<pdfrwt beam="2">  1       21 0.67879881E-01 0.28718550E+03</pdfrwt>
<totfact> 0.27954804E+05</totfact>
</mgrwt>
</event>
<event>
 8    1  0.9331162E-006  0.4015906E+03  0.7546771E-02  0.1043230E+00
         21   -1    0    0  504  503  0.00000000000E+00  0.00000000000E+00  0.30716822002E+02  0.30716822002E+02  0.00000000000E+00 0. -1.
         21   -1    0    0  503  504 -0.00000000000E+00 -0.00000000000E+00 -0.13125949654E+04  0.13125949654E+04  0.00000000000E+00 0. -1.
         25    2    1    2    0    0  0.10626451119E+03 -0.15029959776E+02 -0.10248873902E+04  0.10380449668E+04  0.12500057783E+03 0.  0.
         25    2    1    2    0    0 -0.10626451119E+03  0.15029959776E+02 -0.25699075321E+03  0.30526682063E+03  0.12500215402E+03 0.  0.
          5    1    3    3  501    0  0.47422253591E+02  0.51377850231E+02 -0.59201078848E+03  0.59614378912E+03  0.47000000000E+01 0. -1.
         -5    1    3    3    0  501  0.58842257595E+02 -0.66407810007E+02 -0.43287660174E+03  0.44190117769E+03  0.47000000000E+01 0. -1.
          5    1    4    4  502    0 -0.10679885468E+03  0.38933586223E+02 -0.25682756534E+03  0.28089910611E+03  0.47000000000E+01 0. -1.
         -5    1    4    4    0  502  0.53434349198E+00 -0.23903626447E+02 -0.16318787112E+00  0.24367714512E+02  0.47000000000E+01 0. -1.
<mgrwt>
<rscale>  0 0.40159057E+03</rscale>
<asrwt>0</asrwt>
<pdfrwt beam="1">  1       21 0.47256647E-02 0.40159057E+03</pdfrwt>
<pdfrwt beam="2">  1       21 0.20193769E+00 0.40159057E+03</pdfrwt>
<totfact> 0.34894796E+04</totfact>
</mgrwt>
</event>
<event>
 8    1  0.9331162E-006  0.2711504E+03  0.7546771E-02  0.1100623E+00
         21   -1    0    0  504  503  0.00000000000E+00  0.00000000000E+00  0.30527977121E+03  0.30527977121E+03  0.00000000000E+00 0.  1.
         21   -1    0    0  503  504 -0.00000000000E+00 -0.00000000000E+00 -0.60209130634E+02  0.60209130634E+02  0.00000000000E+00 0.  1.
         25    2    1    2    0    0 -0.14231534646E+00  0.35278622672E+02  0.17489446805E+03  0.21784895299E+03  0.12500195956E+03 0.  0.
         25    2    1    2    0    0  0.14231534646E+00 -0.35278622672E+02  0.70176172535E+02  0.14763994886E+03  0.12501303067E+03 0.  0.
          5    1    3    3  501    0  0.40789607032E+02 -0.54279824323E+01  0.14855907246E+03  0.15422432702E+03  0.47000000000E+01 0.  1.
         -5    1    3    3    0  501 -0.40931922378E+02  0.40706605104E+02  0.26335395588E+02  0.63624625967E+02  0.47000000000E+01 0.  1.
          5    1    4    4  502    0  0.51233011460E+02 -0.22776751782E+00  0.68255761332E+02  0.85474044576E+02  0.47000000000E+01 0.  1.
         -5    1    4    4    0  502 -0.51090696114E+02 -0.35050855154E+02  0.19204112033E+01  0.62165904285E+02  0.47000000000E+01 0.  1.
<mgrwt>
<rscale>  0 0.27115036E+03</rscale>
<asrwt>0</asrwt>
<pdfrwt beam="1">  1       21 0.46966118E-01 0.27115036E+03</pdfrwt>
<pdfrwt beam="2">  1       21 0.92629433E-02 0.27115036E+03</pdfrwt>
<totfact> 0.39609482E+05</totfact>
</mgrwt>
</event>
<event>
 8    1  0.9331162E-006  0.3127327E+03  0.7546771E-02  0.1079043E+00
         21   -1    0    0  504  503  0.00000000000E+00  0.00000000000E+00  0.40284927873E+03  0.40284927873E+03  0.00000000000E+00 0.  1.
         21   -1    0    0  503  504 -0.00000000000E+00 -0.00000000000E+00 -0.60693764696E+02  0.60693764696E+02  0.00000000000E+00 0.  1.
         25    2    1    2    0    0  0.59612764775E+02 -0.65795828956E+02  0.21665073910E+03  0.26541582622E+03  0.12500098089E+03 0.  0.
         25    2    1    2    0    0 -0.59612764775E+02  0.65795828956E+02  0.12550477494E+03  0.19812721721E+03  0.12498068985E+03 0.  0.
          5    1    3    3  501    0 -0.14634385899E+02  0.26150559524E+02  0.21351351605E+02  0.37094301845E+02  0.47000000000E+01 0.  1.
         -5    1    3    3    0  501  0.74247150674E+02 -0.91946388480E+02  0.19529938749E+03  0.22832152437E+03  0.47000000000E+01 0.  1.
          5    1    4    4  502    0 -0.71916933421E+02 -0.18963000971E+01  0.25138237453E+02  0.76352224912E+02  0.47000000000E+01 0. -1.
         -5    1    4    4    0  502  0.12304168646E+02  0.67692129053E+02  0.10036653749E+03  0.12177499230E+03  0.47000000000E+01 0. -1.
<mgrwt>
<rscale>  0 0.31273273E+03</rscale>
<asrwt>0</asrwt>
<pdfrwt beam="1">  1       21 0.61976811E-01 0.31273273E+03</pdfrwt>
<pdfrwt beam="2">  1       21 0.93375025E-02 0.31273273E+03</pdfrwt>
<totfact> 0.21433621E+05</totfact>
</mgrwt>
</event>
<event>
 8    1  0.9331162E-006  0.2558679E+03  0.7546771E-02  0.1109652E+00
         21   -1    0    0  504  503  0.00000000000E+00  0.00000000000E+00  0.67028666510E+03  0.67028666510E+03  0.00000000000E+00 0. -1.
         21   -1    0    0  503  504 -0.00000000000E+00 -0.00000000000E+00 -0.24418056011E+02  0.24418056011E+02  0.00000000000E+00 0. -1.
         25    2    1    2    0    0  0.23935166774E+02 -0.12853749907E+02  0.31632868169E+03  0.34121177712E+03  0.12499412344E+03 0.  0.
         25    2    1    2    0    0 -0.23935166774E+02  0.12853749907E+02  0.32953992740E+03  0.35349294398E+03  0.12499034603E+03 0.  0.
          5    1    3    3  501    0  0.33311585086E+02 -0.47299575036E+02  0.64295070423E+02  0.86619037054E+02  0.47000000000E+01 0. -1.
         -5    1    3    3    0  501 -0.93764183122E+01  0.34445825129E+02  0.25203361126E+03  0.25459274007E+03  0.47000000000E+01 0. -1.
          5    1    4    4  502    0 -0.63777039762E+02  0.32913662924E+02  0.26708975646E+03  0.27660413593E+03  0.47000000000E+01 0. -1.
         -5    1    4    4    0  502  0.39841872988E+02 -0.20059913016E+02  0.62450170936E+02  0.76888808050E+02  0.47000000000E+01 0. -1.
<mgrwt>
<rscale>  0 0.25586791E+03</rscale>
<asrwt>0</asrwt>
<pdfrwt beam="1">  1       21 0.10312101E+00 0.25586791E+03</pdfrwt>
<pdfrwt beam="2">  1       21 0.37566245E-02 0.25586791E+03</pdfrwt>
<totfact> 0.32627189E+05</totfact>
</mgrwt>
</event>
<event>
 8    1  0.9331162E-006  0.3974303E+03  0.7546771E-02  0.1044673E+00
         21   -1    0    0  504  503  0.00000000000E+00  0.00000000000E+00  0.14906436136E+02  0.14906436136E+02  0.00000000000E+00 0. -1.
         21   -1    0    0  503  504 -0.00000000000E+00 -0.00000000000E+00 -0.26490381569E+04  0.26490381569E+04  0.00000000000E+00 0. -1.
         25    2    1    2    0    0  0.11538692012E+03  0.59787388427E+02 -0.75712616056E+03  0.77829810042E+03  0.12497694577E+03 0.  0.
         25    2    1    2    0    0 -0.11538692012E+03 -0.59787388427E+02 -0.18770055602E+04  0.18856464926E+04  0.12499659556E+03 0.  0.
          5    1    3    3  501    0  0.52303517751E+02 -0.39687042652E+01 -0.83565888612E+02  0.98776294333E+02  0.47000000000E+01 0. -1.
         -5    1    3    3    0  501  0.63083402369E+02  0.63756092692E+02 -0.67356027194E+03  0.67952180609E+03  0.47000000000E+01 0. -1.
          5    1    4    4  502    0 -0.62893929388E+02  0.23598027166E+02 -0.42577601426E+03  0.43106822843E+03  0.47000000000E+01 0.  1.
         -5    1    4    4    0  502 -0.52492990732E+02 -0.83385415593E+02 -0.14512295459E+04  0.14545782642E+04  0.47000000000E+01 0.  1.
<mgrwt>
<rscale>  0 0.39743034E+03</rscale>
<asrwt>0</asrwt>
<pdfrwt beam="1">  1       21 0.22932975E-02 0.39743034E+03</pdfrwt>
<pdfrwt beam="2">  1       21 0.40754439E+00 0.39743034E+03</pdfrwt>
<totfact> 0.64156532E+03</totfact>
</mgrwt>
</event>
<event>
 8    1  0.9331162E-006  0.2669983E+03  0.7546771E-02  0.1103010E+00
         21   -1    0    0  504  503  0.00000000000E+00  0.00000000000E+00  0.77314125059E+02  0.77314125059E+02  0.00000000000E+00 0.  1.
         21   -1    0    0  503  504 -0.00000000000E+00 -0.00000000000E+00 -0.23051439804E+03  0.23051439804E+03  0.00000000000E+00 0.  1.
         25    2    1    2    0    0 -0.38065271976E+01  0.42911309134E+02 -0.97855296325E+02  0.16449828537E+03  0.12501262644E+03 0.  0.
         25    2    1    2    0    0  0.38065271976E+01 -0.42911309134E+02 -0.55344976659E+02  0.14333023774E+03  0.12499848202E+03 0.  0.
          5    1    3    3  501    0  0.64708588170E+00  0.87206955459E+02 -0.61281081507E+02  0.10669082787E+03  0.47000000000E+01 0. -1.
         -5    1    3    3    0  501 -0.44536130793E+01 -0.44295646325E+02 -0.36574214818E+02  0.57807457498E+02  0.47000000000E+01 0. -1.
          5    1    4    4  502    0 -0.40357128708E+02 -0.51852439895E+02 -0.69605008375E+02  0.95834860836E+02  0.47000000000E+01 0. -1.
         -5    1    4    4    0  502  0.44163655906E+02  0.89411307609E+01  0.14260031717E+02  0.47495376900E+02  0.47000000000E+01 0. -1.
<mgrwt>
<rscale>  0 0.26699827E+03</rscale>
<asrwt>0</asrwt>
<pdfrwt beam="1">  1       21 0.11894481E-01 0.26699827E+03</pdfrwt>
<pdfrwt beam="2">  1       21 0.35463754E-01 0.26699827E+03</pdfrwt>
<totfact> 0.45017515E+05</totfact>
</mgrwt>
</event>
<event>
 8    1  0.9331162E-006  0.2626135E+03  0.7546771E-02  0.1105583E+00
         21   -1    0    0  504  503  0.00000000000E+00  0.00000000000E+00  0.87667696017E+02  0.87667696017E+02  0.00000000000E+00 0.  1.
         21   -1    0    0  503  504 -0.00000000000E+00 -0.00000000000E+00 -0.19666842367E+03  0.19666842367E+03  0.00000000000E+00 0.  1.
         25    2    1    2    0    0 -0.17423891261E+02  0.29948702411E+02 -0.32283501411E+02  0.13363122248E+03  0.12495824261E+03 0.  0.
         25    2    1    2    0    0  0.17423891261E+02 -0.29948702411E+02 -0.76717226238E+02  0.15070489720E+03  0.12500366585E+03 0.  0.
          5    1    3    3  501    0  0.10997146168E+02  0.73444048970E+02 -0.33132731377E+02  0.81454486933E+02  0.47000000000E+01 0. -1.
         -5    1    3    3    0  501 -0.28421037429E+02 -0.43495346559E+02  0.84922996666E+00  0.52176735547E+02  0.47000000000E+01 0. -1.
          5    1    4    4  502    0 -0.13729832001E+02  0.92821360471E+01 -0.95467106562E+02  0.97008890169E+02  0.47000000000E+01 0.  1.
         -5    1    4    4    0  502  0.31153723262E+02 -0.39230838458E+02  0.18749880325E+02  0.53696007034E+02  0.47000000000E+01 0.  1.
<mgrwt>
<rscale>  0 0.26261354E+03</rscale>
<asrwt>0</asrwt>
<pdfrwt beam="1">  1       21 0.13487338E-01 0.26261354E+03</pdfrwt>
<pdfrwt beam="2">  1       21 0.30256680E-01 0.26261354E+03</pdfrwt>
<totfact> 0.49179706E+05</totfact>
</mgrwt>
</event>
<event>
 8    1  0.9331162E-006  0.3782790E+03  0.7546771E-02  0.1051572E+00
         21   -1    0    0  504  503  0.00000000000E+00  0.00000000000E+00  0.75541439321E+02  0.75541439321E+02  0.00000000000E+00 0.  1.
         21   -1    0    0  503  504 -0.00000000000E+00 -0.00000000000E+00 -0.47356461610E+03  0.47356461610E+03  0.00000000000E+00 0.  1.
         25    2    1    2    0    0 -0.39225146936E+02 -0.11415137721E+03 -0.90595811512E+02  0.19596837038E+03  0.12500740799E+03 0.  0.
         25    2    1    2    0    0  0.39225146936E+02  0.11415137721E+03 -0.30742736527E+03  0.35313768505E+03  0.12500196243E+03 0.  0.
          5    1    3    3  501    0 -0.80786138827E+02 -0.71762986457E+02 -0.32898756663E+02  0.11305195550E+03  0.47000000000E+01 0.  1.
         -5    1    3    3    0  501  0.41560991891E+02 -0.42388390758E+02 -0.57697054849E+02  0.82916414878E+02  0.47000000000E+01 0.  1.
          5    1    4    4  502    0  0.75365745852E+02  0.10367064202E+03 -0.18604892247E+03  0.22597320464E+03  0.47000000000E+01 0. -1.
         -5    1    4    4    0  502 -0.36140598916E+02  0.10480735195E+02 -0.12137844280E+03  0.12716448040E+03  0.47000000000E+01 0. -1.
<mgrwt>
<rscale>  0 0.37827901E+03</rscale>
<asrwt>0</asrwt>
<pdfrwt beam="1">  1       21 0.11621760E-01 0.37827901E+03</pdfrwt>
<pdfrwt beam="2">  1       21 0.72856095E-01 0.37827901E+03</pdfrwt>
<totfact> 0.99587298E+04</totfact>
</mgrwt>
</event>
<event>
 8    1  0.9331162E-006  0.2701113E+03  0.7546771E-02  0.1101216E+00
         21   -1    0    0  504  503  0.00000000000E+00  0.00000000000E+00  0.58091863197E+03  0.58091863197E+03  0.00000000000E+00 0.  1.
         21   -1    0    0  503  504 -0.00000000000E+00 -0.00000000000E+00 -0.31398598507E+02  0.31398598507E+02  0.00000000000E+00 0.  1.
         25    2    1    2    0    0  0.22344800797E+02  0.97228110433E+01  0.37670687454E+03  0.39765063429E+03  0.12499653774E+03 0.  0.
         25    2    1    2    0    0 -0.22344800797E+02 -0.97228110433E+01  0.17281315892E+03  0.21466659618E+03  0.12499414564E+03 0.  0.
          5    1    3    3  501    0  0.10369630220E+02 -0.57540960261E+02  0.18523312268E+03  0.19429845876E+03  0.47000000000E+01 0. -1.
         -5    1    3    3    0  501  0.11975170577E+02  0.67263771304E+02  0.19147375187E+03  0.20335217553E+03  0.47000000000E+01 0. -1.
          5    1    4    4  502    0  0.25595556904E+02 -0.14884343293E+02  0.16236145698E+03  0.16510605356E+03  0.47000000000E+01 0. -1.
         -5    1    4    4    0  502 -0.47940357701E+02  0.51615322500E+01  0.10451701933E+02  0.49560542622E+02  0.47000000000E+01 0. -1.
<mgrwt>
<rscale>  0 0.27011132E+03</rscale>
<asrwt>0</asrwt>
<pdfrwt beam="1">  1       21 0.89372090E-01 0.27011132E+03</pdfrwt>
<pdfrwt beam="2">  1       21 0.48305540E-02 0.27011132E+03</pdfrwt>
<totfact> 0.29818931E+05</totfact>
</mgrwt>
</event>
<event>
 8    1  0.9331162E-006  0.3272815E+03  0.7546771E-02  0.1072346E+00
         21   -1    0    0  504  503  0.00000000000E+00  0.00000000000E+00  0.57614310660E+02  0.57614310660E+02  0.00000000000E+00 0.  1.
         21   -1    0    0  503  504 -0.00000000000E+00 -0.00000000000E+00 -0.46478558966E+03  0.46478558966E+03  0.00000000000E+00 0.  1.
         25    2    1    2    0    0 -0.85097107568E+02  0.61705544389E+02 -0.21990775636E+03  0.27392160105E+03  0.12499812114E+03 0.  0.
         25    2    1    2    0    0  0.85097107568E+02 -0.61705544389E+02 -0.18726352264E+03  0.24847829928E+03  0.12499898549E+03 0.  0.
          5    1    3    3  501    0  0.82109694205E+01 -0.14914337325E+02  0.52214491546E+01  0.18417681937E+02  0.47000000000E+01 0.  1.
         -5    1    3    3    0  501 -0.93308076988E+02  0.76619881714E+02 -0.22512920552E+03  0.25550391911E+03  0.47000000000E+01 0.  1.
          5    1    4    4  502    0  0.10203684975E+02 -0.65393540591E+02 -0.15124521992E+03  0.16515942870E+03  0.47000000000E+01 0. -1.
         -5    1    4    4    0  502  0.74893422593E+02  0.36879962019E+01 -0.36018302722E+02  0.83318870579E+02  0.47000000000E+01 0. -1.
<mgrwt>
<rscale>  0 0.32728154E+03</rscale>
<asrwt>0</asrwt>
<pdfrwt beam="1">  1       21 0.88637401E-02 0.32728154E+03</pdfrwt>
<pdfrwt beam="2">  1       21 0.71505476E-01 0.32728154E+03</pdfrwt>
<totfact> 0.17074222E+05</totfact>
</mgrwt>
</event>
<event>
 8    1  0.9331162E-006  0.2866126E+03  0.7546771E-02  0.1092131E+00
         21   -1    0    0  504  503  0.00000000000E+00  0.00000000000E+00  0.31051084926E+03  0.31051084926E+03  0.00000000000E+00 0.  1.
         21   -1    0    0  503  504 -0.00000000000E+00 -0.00000000000E+00 -0.66138434430E+02  0.66138434430E+02  0.00000000000E+00 0.  1.
         25    2    1    2    0    0  0.36664498257E+02  0.19539722154E+01  0.43758850591E+02  0.13744412016E+03  0.12501178234E+03 0.  0.
         25    2    1    2    0    0 -0.36664498257E+02 -0.19539722154E+01  0.20061356424E+03  0.23920516353E+03  0.12500081864E+03 0.  0.
          5    1    3    3  501    0  0.48700316410E+02  0.37395138867E+02 -0.18804467115E+02  0.64388005194E+02  0.47000000000E+01 0. -1.
         -5    1    3    3    0  501 -0.12035818153E+02 -0.35441166652E+02  0.62563317706E+02  0.73056114971E+02  0.47000000000E+01 0. -1.
          5    1    4    4  502    0  0.43219269526E+02 -0.19572934063E+02  0.62409430095E+02  0.78536819206E+02  0.47000000000E+01 0.  1.
         -5    1    4    4    0  502 -0.79883767783E+02  0.17618961848E+02  0.13820413415E+03  0.16066834432E+03  0.47000000000E+01 0.  1.
<mgrwt>
<rscale>  0 0.28661264E+03</rscale>
<asrwt>0</asrwt>
<pdfrwt beam="1">  1       21 0.47770899E-01 0.28661264E+03</pdfrwt>
<pdfrwt beam="2">  1       21 0.10175144E-01 0.28661264E+03</pdfrwt>
<totfact> 0.32252545E+05</totfact>
</mgrwt>
</event>
<event>
 8    1  0.9331162E-006  0.2846530E+03  0.7546771E-02  0.1093174E+00
         21   -1    0    0  504  503  0.00000000000E+00  0.00000000000E+00  0.33916677808E+03  0.33916677808E+03  0.00000000000E+00 0.  1.
         21   -1    0    0  503  504 -0.00000000000E+00 -0.00000000000E+00 -0.59725288613E+02  0.59725288613E+02  0.00000000000E+00 0.  1.
         25    2    1    2    0    0 -0.58338385529E+02  0.28821357591E+02  0.16723509272E+03  0.21869205365E+03  0.12499840085E+03 0.  0.
         25    2    1    2    0    0  0.58338385529E+02 -0.28821357591E+02  0.11220639675E+03  0.18020001305E+03  0.12509089235E+03 0.  0.
          5    1    3    3  501    0  0.30561141420E+02  0.27451515149E+02  0.96480529506E+02  0.10496738361E+03  0.47000000000E+01 0. -1.
         -5    1    3    3    0  501 -0.88899526949E+02  0.13698424412E+01  0.70754563214E+02  0.11372467004E+03  0.47000000000E+01 0. -1.
          5    1    4    4  502    0  0.62797328499E+02 -0.31649296670E+02  0.27676446088E+01  0.70533200005E+02  0.47000000000E+01 0. -1.
         -5    1    4    4    0  502 -0.44589429698E+01  0.28279390793E+01  0.10943875214E+03  0.10966681304E+03  0.47000000000E+01 0. -1.
<mgrwt>
<rscale>  0 0.28465301E+03</rscale>
<asrwt>0</asrwt>
<pdfrwt beam="1">  1       21 0.52179503E-01 0.28465301E+03</pdfrwt>
<pdfrwt beam="2">  1       21 0.91885061E-02 0.28465301E+03</pdfrwt>
<totfact> 0.32122473E+05</totfact>
</mgrwt>
</event>
<event>
 8    1  0.9331162E-006  0.4907163E+03  0.7546771E-02  0.1016231E+00
         21   -1    0    0  504  503  0.00000000000E+00  0.00000000000E+00  0.39268132716E+03  0.39268132716E+03  0.00000000000E+00 0. -1.
         21   -1    0    0  503  504 -0.00000000000E+00 -0.00000000000E+00 -0.15330656299E+03  0.15330656299E+03  0.00000000000E+00 0. -1.
         25    2    1    2    0    0 -0.13229271951E+02  0.20052577257E+01 -0.11474626760E+03  0.17020638173E+03  0.12499788702E+03 0.  0.
         25    2    1    2    0    0  0.13229271951E+02 -0.20052577257E+01  0.35412103176E+03  0.37578150842E+03  0.12502400664E+03 0.  0.
          5    1    3    3  501    0  0.53257355584E+02 -0.91992863236E+01 -0.30626945441E+02  0.62298255029E+02  0.47000000000E+01 0. -1.
         -5    1    3    3    0  501 -0.66486627535E+02  0.11204544049E+02 -0.84119322160E+02  0.10790812670E+03  0.47000000000E+01 0. -1.
          5    1    4    4  502    0  0.26965140103E+02  0.56982736842E+02  0.21192987506E+03  0.22115721336E+03  0.47000000000E+01 0.  1.
         -5    1    4    4    0  502 -0.13735868152E+02 -0.58987994568E+02  0.14219115671E+03  0.15462429506E+03  0.47000000000E+01 0.  1.
<mgrwt>
<rscale>  0 0.49071631E+03</rscale>
<asrwt>0</asrwt>
<pdfrwt beam="1">  1       21 0.60412512E-01 0.49071631E+03</pdfrwt>
<pdfrwt beam="2">  1       21 0.23585625E-01 0.49071631E+03</pdfrwt>
<totfact> 0.39242923E+04</totfact>
</mgrwt>
</event>
<event>
 8    1  0.9331162E-006  0.2975842E+03  0.7546771E-02  0.1086455E+00
         21   -1    0    0  504  503  0.00000000000E+00  0.00000000000E+00  0.41959497609E+02  0.41959497609E+02  0.00000000000E+00 0. -1.
         21   -1    0    0  503  504 -0.00000000000E+00 -0.00000000000E+00 -0.52762983979E+03  0.52762983979E+03  0.00000000000E+00 0. -1.
         25    2    1    2    0    0  0.13348840586E+02 -0.55540801742E+02 -0.13371287103E+03  0.19174869164E+03  0.12500182665E+03 0.  0.
         25    2    1    2    0    0 -0.13348840586E+02  0.55540801742E+02 -0.35195747115E+03  0.37784064576E+03  0.12500607938E+03 0.  0.
          5    1    3    3  501    0  0.20504918659E+02 -0.43387984019E+02  0.83273763677E+01  0.48932648033E+02  0.47000000000E+01 0.  1.
         -5    1    3    3    0  501 -0.71560780725E+01 -0.12152817723E+02 -0.14204024739E+03  0.14281604361E+03  0.47000000000E+01 0.  1.
          5    1    4    4  502    0  0.30532562328E+02  0.77640887302E+02 -0.26488043784E+03  0.27774823328E+03  0.47000000000E+01 0. -1.
         -5    1    4    4    0  502 -0.43881402914E+02 -0.22100085560E+02 -0.87077033315E+02  0.10009241247E+03  0.47000000000E+01 0. -1.
<mgrwt>
<rscale>  0 0.29758416E+03</rscale>
<asrwt>0</asrwt>
<pdfrwt beam="1">  1       21 0.64553072E-02 0.29758416E+03</pdfrwt>
<pdfrwt beam="2">  1       21 0.81173823E-01 0.29758416E+03</pdfrwt>
<totfact> 0.22481836E+05</totfact>
</mgrwt>
</event>
<event>
 8    1  0.9331162E-006  0.3076689E+03  0.7546771E-02  0.1081469E+00
         21   -1    0    0  504  503  0.00000000000E+00  0.00000000000E+00  0.41622538855E+02  0.41622538855E+02  0.00000000000E+00 0.  1.
         21   -1    0    0  503  504 -0.00000000000E+00 -0.00000000000E+00 -0.56856297971E+03  0.56856297971E+03  0.00000000000E+00 0.  1.
         25    2    1    2    0    0 -0.61086538768E+01 -0.37754870230E+02 -0.42429020404E+03  0.44397401768E+03  0.12501202042E+03 0.  0.
         25    2    1    2    0    0  0.61086538768E+01  0.37754870230E+02 -0.10265023682E+03  0.16621150089E+03  0.12500578399E+03 0.  0.
          5    1    3    3  501    0 -0.22335038815E+02  0.37259750985E+02 -0.24537600717E+03  0.24923606861E+03  0.47000000000E+01 0.  1.
         -5    1    3    3    0  501  0.16226384938E+02 -0.75014621215E+02 -0.17891419688E+03  0.19473794907E+03  0.47000000000E+01 0.  1.
          5    1    4    4  502    0  0.35955476976E+02  0.19446811425E+02 -0.11999579425E+03  0.12685446557E+03  0.47000000000E+01 0.  1.
         -5    1    4    4    0  502 -0.29846823099E+02  0.18308058805E+02  0.17345557430E+02  0.39357035316E+02  0.47000000000E+01 0.  1.
<mgrwt>
<rscale>  0 0.30766888E+03</rscale>
<asrwt>0</asrwt>
<pdfrwt beam="1">  1       21 0.64034677E-02 0.30766888E+03</pdfrwt>
<pdfrwt beam="2">  1       21 0.87471225E-01 0.30766888E+03</pdfrwt>
<totfact> 0.19136536E+05</totfact>
</mgrwt>
</event>
<event>
 8    1  0.9331162E-006  0.6003414E+03  0.7546771E-02  0.9904698E-01
         21   -1    0    0  504  503  0.00000000000E+00  0.00000000000E+00  0.18060696303E+03  0.18060696303E+03  0.00000000000E+00 0. -1.
         21   -1    0    0  503  504 -0.00000000000E+00 -0.00000000000E+00 -0.49888682502E+03  0.49888682502E+03  0.00000000000E+00 0. -1.
         25    2    1    2    0    0 -0.12476216919E+03  0.21016883071E+03 -0.29656410317E+03  0.40411888768E+03  0.12500108728E+03 0.  0.
         25    2    1    2    0    0  0.12476216919E+03 -0.21016883071E+03 -0.21715758816E+02  0.27537490037E+03  0.12499290103E+03 0.  0.
          5    1    3    3  501    0 -0.12671860431E+03  0.21945705035E+03 -0.30022945624E+03  0.39291069980E+03  0.47000000000E+01 0.  1.
         -5    1    3    3    0  501  0.19564351192E+01 -0.92882196357E+01  0.36653530637E+01  0.11208187876E+02  0.47000000000E+01 0.  1.
          5    1    4    4  502    0  0.11545254579E+03 -0.15068644595E+03 -0.65406463650E+02  0.20083772258E+03  0.47000000000E+01 0. -1.
         -5    1    4    4    0  502  0.93096234051E+01 -0.59482384758E+02  0.43690704834E+02  0.74537177793E+02  0.47000000000E+01 0. -1.
<mgrwt>
<rscale>  0 0.60034135E+03</rscale>
<asrwt>0</asrwt>
<pdfrwt beam="1">  1       21 0.27785687E-01 0.60034135E+03</pdfrwt>
<pdfrwt beam="2">  1       21 0.76751819E-01 0.60034135E+03</pdfrwt>
<totfact> 0.16238381E+04</totfact>
</mgrwt>
</event>
<event>
 8    1  0.9331162E-006  0.2881985E+03  0.7546771E-02  0.1091293E+00
         21   -1    0    0  504  503  0.00000000000E+00  0.00000000000E+00  0.43706472602E+02  0.43706472602E+02  0.00000000000E+00 0.  1.
         21   -1    0    0  503  504 -0.00000000000E+00 -0.00000000000E+00 -0.47509195542E+03  0.47509195542E+03  0.00000000000E+00 0.  1.
         25    2    1    2    0    0  0.54061655249E+02 -0.39860542640E+02 -0.17056079839E+03  0.22186729704E+03  0.12499034412E+03 0.  0.
         25    2    1    2    0    0 -0.54061655249E+02  0.39860542640E+02 -0.26082468443E+03  0.29693113098E+03  0.12500822016E+03 0.  0.
          5    1    3    3  501    0 -0.59342074693E+01  0.20917085980E+02 -0.12097343069E+03  0.12300162697E+03  0.47000000000E+01 0. -1.
         -5    1    3    3    0  501  0.59995862718E+02 -0.60777628620E+02 -0.49587367695E+02  0.98865670073E+02  0.47000000000E+01 0. -1.
          5    1    4    4  502    0 -0.65502611914E+02  0.13918697291E+02 -0.48863516556E+02  0.83030449547E+02  0.47000000000E+01 0. -1.
         -5    1    4    4    0  502  0.11440956665E+02  0.25941845349E+02 -0.21196116788E+03  0.21390068143E+03  0.47000000000E+01 0. -1.
<mgrwt>
<rscale>  0 0.28819850E+03</rscale>
<asrwt>0</asrwt>
<pdfrwt beam="1">  1       21 0.67240730E-02 0.28819850E+03</pdfrwt>
<pdfrwt beam="2">  1       21 0.73091067E-01 0.28819850E+03</pdfrwt>
<totfact> 0.26627865E+05</totfact>
</mgrwt>
</event>
<event>
 8    1  0.9331162E-006  0.2666919E+03  0.7546771E-02  0.1103188E+00
         21   -1    0    0  504  503  0.00000000000E+00  0.00000000000E+00  0.12540964255E+04  0.12540964255E+04  0.00000000000E+00 0. -1.
         21   -1    0    0  503  504 -0.00000000000E+00 -0.00000000000E+00 -0.14178452392E+02  0.14178452392E+02  0.00000000000E+00 0. -1.
         25    2    1    2    0    0  0.22054261885E+02  0.37396166926E+02  0.69818516877E+03  0.71061369997E+03  0.12499774769E+03 0.  0.
         25    2    1    2    0    0 -0.22054261885E+02 -0.37396166926E+02  0.54173280432E+03  0.55766117790E+03  0.12500677699E+03 0.  0.
          5    1    3    3  501    0 -0.86893476693E+01 -0.43041264234E+02  0.18248795475E+03  0.18775515657E+03  0.47000000000E+01 0.  1.
         -5    1    3    3    0  501  0.30743609554E+02  0.80437431160E+02  0.51569721402E+03  0.52285854340E+03  0.47000000000E+01 0.  1.
          5    1    4    4  502    0 -0.68129837341E+01 -0.54346786640E+02  0.90916630917E+02  0.10624459395E+03  0.47000000000E+01 0.  1.
         -5    1    4    4    0  502 -0.15241278150E+02  0.16950619714E+02  0.45081617340E+03  0.45141658395E+03  0.47000000000E+01 0.  1.
<mgrwt>
<rscale>  0 0.26669193E+03</rscale>
<asrwt>0</asrwt>
<pdfrwt beam="1">  1       21 0.19293782E+00 0.26669193E+03</pdfrwt>
<pdfrwt beam="2">  1       21 0.21813014E-02 0.26669193E+03</pdfrwt>
<totfact> 0.15407495E+05</totfact>
</mgrwt>
</event>
<event>
 8    1  0.9331162E-006  0.2850702E+03  0.7546771E-02  0.1092951E+00
         21   -1    0    0  504  503  0.00000000000E+00  0.00000000000E+00  0.29439866042E+03  0.29439866042E+03  0.00000000000E+00 0. -1.
         21   -1    0    0  503  504 -0.00000000000E+00 -0.00000000000E+00 -0.69009335997E+02  0.69009335997E+02  0.00000000000E+00 0. -1.
         25    2    1    2    0    0 -0.10341934309E+02  0.77043011147E+01  0.19845527911E+03  0.23489573649E+03  0.12500078942E+03 0.  0.
         25    2    1    2    0    0  0.10341934309E+02 -0.77043011147E+01  0.26934045312E+02  0.12851225992E+03  0.12499458505E+03 0.  0.
          5    1    3    3  501    0 -0.22701122925E+02 -0.50575502370E+02  0.14270919930E+03  0.15317058460E+03  0.47000000000E+01 0. -1.
         -5    1    3    3    0  501  0.12359188617E+02  0.58279803485E+02  0.55746079811E+02  0.81725151892E+02  0.47000000000E+01 0. -1.
          5    1    4    4  502    0  0.34543804741E+02 -0.52084251062E+02 -0.12891939745E+02  0.63986996844E+02  0.47000000000E+01 0.  1.
         -5    1    4    4    0  502 -0.24201870433E+02  0.44379949948E+02  0.39825985057E+02  0.64525263080E+02  0.47000000000E+01 0.  1.
<mgrwt>
<rscale>  0 0.28507021E+03</rscale>
<asrwt>0</asrwt>
<pdfrwt beam="1">  1       21 0.45292101E-01 0.28507021E+03</pdfrwt>
<pdfrwt beam="2">  1       21 0.10616821E-01 0.28507021E+03</pdfrwt>
<totfact> 0.33414108E+05</totfact>
</mgrwt>
</event>
<event>
 8    1  0.9331162E-006  0.3096723E+03  0.7546771E-02  0.1080503E+00
         21   -1    0    0  504  503  0.00000000000E+00  0.00000000000E+00  0.65891287384E+02  0.65891287384E+02  0.00000000000E+00 0.  1.
         21   -1    0    0  503  504 -0.00000000000E+00 -0.00000000000E+00 -0.36384536090E+03  0.36384536090E+03  0.00000000000E+00 0.  1.
         25    2    1    2    0    0  0.77901488853E+02 -0.45040421829E+02 -0.17104499232E+03  0.23017425532E+03  0.12500606726E+03 0.  0.
         25    2    1    2    0    0 -0.77901488853E+02  0.45040421829E+02 -0.12690908120E+03  0.19956239296E+03  0.12498780832E+03 0.  0.
          5    1    3    3  501    0 -0.32159624648E+02 -0.24763197866E+02 -0.58777870017E+02  0.71584812843E+02  0.47000000000E+01 0. -1.
         -5    1    3    3    0  501  0.11006111350E+03 -0.20277223963E+02 -0.11226712230E+03  0.15858944248E+03  0.47000000000E+01 0. -1.
          5    1    4    4  502    0 -0.10830807508E+03  0.44991328055E+02 -0.75221000687E+02  0.13940999847E+03  0.47000000000E+01 0. -1.
         -5    1    4    4    0  502  0.30406586230E+02  0.49093774043E-01 -0.51688080510E+02  0.60152394492E+02  0.47000000000E+01 0. -1.
<mgrwt>
<rscale>  0 0.30967234E+03</rscale>
<asrwt>0</asrwt>
<pdfrwt beam="1">  1       21 0.10137121E-01 0.30967234E+03</pdfrwt>
<pdfrwt beam="2">  1       21 0.55976209E-01 0.30967234E+03</pdfrwt>
<totfact> 0.23098233E+05</totfact>
</mgrwt>
</event>
<event>
 8    1  0.9331162E-006  0.2903709E+03  0.7546771E-02  0.1090156E+00
         21   -1    0    0  504  503  0.00000000000E+00  0.00000000000E+00  0.16245504123E+03  0.16245504123E+03  0.00000000000E+00 0. -1.
         21   -1    0    0  503  504 -0.00000000000E+00 -0.00000000000E+00 -0.12975172307E+03  0.12975172307E+03  0.00000000000E+00 0. -1.
         25    2    1    2    0    0  0.17580591579E+02  0.20565612108E+01 -0.55795483432E+02  0.13802365976E+03  0.12499635210E+03 0.  0.
         25    2    1    2    0    0 -0.17580591579E+02 -0.20565612108E+01  0.88498801588E+02  0.15418310455E+03  0.12500834052E+03 0.  0.
          5    1    3    3  501    0 -0.14776157664E+02 -0.55544717170E+02 -0.12842099632E+02  0.59080961094E+02  0.47000000000E+01 0.  1.
         -5    1    3    3    0  501  0.32356749243E+02  0.57601278380E+02 -0.42953383799E+02  0.78942698665E+02  0.47000000000E+01 0.  1.
          5    1    4    4  502    0  0.19756745071E+02  0.55175000817E+01 -0.25983489647E+02  0.33436559590E+02  0.47000000000E+01 0.  1.
         -5    1    4    4    0  502 -0.37337336650E+02 -0.75740612925E+01  0.11448229123E+03  0.12074654496E+03  0.47000000000E+01 0.  1.
<mgrwt>
<rscale>  0 0.29037095E+03</rscale>
<asrwt>0</asrwt>
<pdfrwt beam="1">  1       21 0.24993083E-01 0.29037095E+03</pdfrwt>
<pdfrwt beam="2">  1       21 0.19961804E-01 0.29037095E+03</pdfrwt>
<totfact> 0.34361255E+05</totfact>
</mgrwt>
</event>
<event>
 8    1  0.9331162E-006  0.3268080E+03  0.7546771E-02  0.1072558E+00
         21   -1    0    0  504  503  0.00000000000E+00  0.00000000000E+00  0.77046639012E+02  0.77046639012E+02  0.00000000000E+00 0.  1.
         21   -1    0    0  503  504 -0.00000000000E+00 -0.00000000000E+00 -0.34655456861E+03  0.34655456861E+03  0.00000000000E+00 0.  1.
         25    2    1    2    0    0 -0.47741038750E+02 -0.84164941631E+02 -0.18835535325E+03  0.24591121936E+03  0.12502657529E+03 0.  0.
         25    2    1    2    0    0  0.47741038750E+02  0.84164941631E+02 -0.81152576344E+02  0.17768998826E+03  0.12500018840E+03 0.  0.
          5    1    3    3  501    0  0.37892047456E+02 -0.56059340942E+02 -0.82736889497E+02  0.10698569928E+03  0.47000000000E+01 0.  1.
         -5    1    3    3    0  501 -0.85633086206E+02 -0.28105600689E+02 -0.10561846376E+03  0.13892552008E+03  0.47000000000E+01 0.  1.
          5    1    4    4  502    0 -0.29340164952E+02  0.71499699419E+02 -0.55762727420E+02  0.95418153753E+02  0.47000000000E+01 0. -1.
         -5    1    4    4    0  502  0.77081203703E+02  0.12665242212E+02 -0.25389848924E+02  0.82271834506E+02  0.47000000000E+01 0. -1.
<mgrwt>
<rscale>  0 0.32680798E+03</rscale>
<asrwt>0</asrwt>
<pdfrwt beam="1">  1       21 0.11853329E-01 0.32680798E+03</pdfrwt>
<pdfrwt beam="2">  1       21 0.53316088E-01 0.32680798E+03</pdfrwt>
<totfact> 0.19281337E+05</totfact>
</mgrwt>
</event>
<event>
 8    1  0.9331162E-006  0.2916062E+03  0.7546771E-02  0.1089514E+00
         21   -1    0    0  504  503  0.00000000000E+00  0.00000000000E+00  0.78759133641E+02  0.78759133641E+02  0.00000000000E+00 0.  1.
         21   -1    0    0  503  504 -0.00000000000E+00 -0.00000000000E+00 -0.26991837896E+03  0.26991837896E+03  0.00000000000E+00 0.  1.
         25    2    1    2    0    0 -0.45520613214E+02 -0.57534251733E+02 -0.11463082822E+03  0.18479724404E+03  0.12500991271E+03 0.  0.
         25    2    1    2    0    0  0.45520613214E+02  0.57534251733E+02 -0.76528417091E+02  0.16388026856E+03  0.12497130650E+03 0.  0.
          5    1    3    3  501    0 -0.24249396743E+01 -0.68942070874E+02 -0.85968552661E+01  0.69677007609E+02  0.47000000000E+01 0. -1.
         -5    1    3    3    0  501 -0.43095673540E+02  0.11407819141E+02 -0.10603397296E+03  0.11512023643E+03  0.47000000000E+01 0. -1.
          5    1    4    4  502    0  0.51719167524E+02  0.22813958475E+02 -0.10431194560E+03  0.11873677184E+03  0.47000000000E+01 0.  1.
         -5    1    4    4    0  502 -0.61985543099E+01  0.34720293259E+02  0.27783528511E+02  0.45143496719E+02  0.47000000000E+01 0.  1.
<mgrwt>
<rscale>  0 0.29160616E+03</rscale>
<asrwt>0</asrwt>
<pdfrwt beam="1">  1       21 0.12116790E-01 0.29160616E+03</pdfrwt>
<pdfrwt beam="2">  1       21 0.41525904E-01 0.29160616E+03</pdfrwt>
<totfact> 0.31474331E+05</totfact>
</mgrwt>
</event>
<event>
 8    1  0.9331162E-006  0.3455639E+03  0.7546771E-02  0.1064451E+00
         21   -1    0    0  504  503  0.00000000000E+00  0.00000000000E+00  0.18696031432E+04  0.18696031432E+04  0.00000000000E+00 0. -1.
         21   -1    0    0  503  504 -0.00000000000E+00 -0.00000000000E+00 -0.15967885861E+02  0.15967885861E+02  0.00000000000E+00 0. -1.
         25    2    1    2    0    0 -0.71197023515E+02 -0.67381767545E+02  0.12976752272E+04  0.13073617934E+04  0.12499817866E+03 0.  0.
         25    2    1    2    0    0  0.71197023515E+02  0.67381767545E+02  0.55596003016E+03  0.57820923573E+03  0.12500018558E+03 0.  0.
          5    1    3    3  501    0 -0.95524110769E+02 -0.28961997250E+02  0.60657458110E+03  0.61475073441E+03  0.47000000000E+01 0.  1.
         -5    1    3    3    0  501  0.24327087254E+02 -0.38419770296E+02  0.69110064613E+03  0.69261105897E+03  0.47000000000E+01 0.  1.
          5    1    4    4  502    0  0.40816794289E+02  0.55002159769E+02  0.10147434287E+03  0.12251685817E+03  0.47000000000E+01 0. -1.
         -5    1    4    4    0  502  0.30380229226E+02  0.12379607777E+02  0.45448568728E+03  0.45569237756E+03  0.47000000000E+01 0. -1.
<mgrwt>
<rscale>  0 0.34556394E+03</rscale>
<asrwt>0</asrwt>
<pdfrwt beam="1">  1       21 0.28763108E+00 0.34556394E+03</pdfrwt>
<pdfrwt beam="2">  1       21 0.24565993E-02 0.34556394E+03</pdfrwt>
<totfact> 0.31885317E+04</totfact>
</mgrwt>
</event>
<event>
 8    1  0.9331162E-006  0.2515117E+03  0.7546771E-02  0.1112353E+00
         21   -1    0    0  504  503  0.00000000000E+00  0.00000000000E+00  0.16375509970E+03  0.16375509970E+03  0.00000000000E+00 0.  1.
         21   -1    0    0  503  504 -0.00000000000E+00 -0.00000000000E+00 -0.96574314649E+02  0.96574314649E+02  0.00000000000E+00 0.  1.
         25    2    1    2    0    0 -0.98031371780E+01 -0.34257513756E+01  0.24250242821E+02  0.12774558088E+03  0.12499208729E+03 0.  0.
         25    2    1    2    0    0  0.98031371780E+01  0.34257513756E+01  0.42930542229E+02  0.13258383347E+03  0.12501041625E+03 0.  0.
          5    1    3    3  501    0  0.29575864297E+02 -0.92067961810E+01 -0.40738522330E+02  0.51392743130E+02  0.47000000000E+01 0.  1.
         -5    1    3    3    0  501 -0.39379001475E+02  0.57810448054E+01  0.64988765151E+02  0.76352837747E+02  0.47000000000E+01 0.  1.
          5    1    4    4  502    0 -0.37630928093E+02  0.38870915770E+02 -0.72972321378E+01  0.54793927025E+02  0.47000000000E+01 0. -1.
         -5    1    4    4    0  502  0.47434065271E+02 -0.35445164394E+02  0.50227774367E+02  0.77789906446E+02  0.47000000000E+01 0. -1.
<mgrwt>
<rscale>  0 0.25151172E+03</rscale>
<asrwt>0</asrwt>
<pdfrwt beam="1">  1       21 0.25193092E-01 0.25151172E+03</pdfrwt>
<pdfrwt beam="2">  1       21 0.14857587E-01 0.25151172E+03</pdfrwt>
<totfact> 0.58956123E+05</totfact>
</mgrwt>
</event>
<event>
 8    1  0.9331162E-006  0.3594226E+03  0.7546771E-02  0.1058813E+00
         21   -1    0    0  504  503  0.00000000000E+00  0.00000000000E+00  0.17302584336E+03  0.17302584336E+03  0.00000000000E+00 0. -1.
         21   -1    0    0  503  504 -0.00000000000E+00 -0.00000000000E+00 -0.18665509780E+03  0.18665509780E+03  0.00000000000E+00 0. -1.
         25    2    1    2    0    0 -0.28383782622E+02 -0.50256967717E+02  0.10876979984E+03  0.17546219800E+03  0.12499884659E+03 0.  0.
         25    2    1    2    0    0  0.28383782622E+02  0.50256967717E+02 -0.12239905428E+03  0.18421874316E+03  0.12499445957E+03 0.  0.
          5    1    3    3  501    0  0.42687705412E+02 -0.43646023949E+02  0.73631858781E+02  0.95765109656E+02  0.47000000000E+01 0.  1.
         -5    1    3    3    0  501 -0.71071488033E+02 -0.66109437675E+01  0.35137941062E+02  0.79697088346E+02  0.47000000000E+01 0.  1.
          5    1    4    4  502    0 -0.40371123956E+01  0.55203643933E+02 -0.13713451828E+03  0.14795846270E+03  0.47000000000E+01 0. -1.
         -5    1    4    4    0  502  0.32420895017E+02 -0.49466762160E+01  0.14735464007E+02  0.36260280457E+02  0.47000000000E+01 0. -1.
<mgrwt>
<rscale>  0 0.35942262E+03</rscale>
<asrwt>0</asrwt>
<pdfrwt beam="1">  1       21 0.26619361E-01 0.35942262E+03</pdfrwt>
<pdfrwt beam="2">  1       21 0.28716169E-01 0.35942262E+03</pdfrwt>
<totfact> 0.14898088E+05</totfact>
</mgrwt>
</event>
<event>
 8    1  0.9331162E-006  0.3110823E+03  0.7546771E-02  0.1079828E+00
         21   -1    0    0  504  503  0.00000000000E+00  0.00000000000E+00  0.13511741990E+04  0.13511741990E+04  0.00000000000E+00 0.  1.
         21   -1    0    0  503  504 -0.00000000000E+00 -0.00000000000E+00 -0.17905201731E+02  0.17905201731E+02  0.00000000000E+00 0.  1.
         25    2    1    2    0    0 -0.46191211394E+02 -0.78179903909E+02  0.74560443536E+03  0.76144412764E+03  0.12500184043E+03 0.  0.
         25    2    1    2    0    0  0.46191211394E+02  0.78179903909E+02  0.58766456193E+03  0.60763527311E+03  0.12500104956E+03 0.  0.
          5    1    3    3  501    0 -0.70676596518E+02 -0.15421221175E+02  0.54449941936E+03  0.54930383491E+03  0.47000000000E+01 0.  1.
         -5    1    3    3    0  501  0.24485385124E+02 -0.62758682734E+02  0.20110501600E+03  0.21214029274E+03  0.47000000000E+01 0.  1.
          5    1    4    4  502    0 -0.22573934063E+02 -0.18019964215E+02  0.58652812359E+02  0.65548028246E+02  0.47000000000E+01 0.  1.
         -5    1    4    4    0  502  0.68765145457E+02  0.96199868124E+02  0.52901174957E+03  0.54208724486E+03  0.47000000000E+01 0.  1.
<mgrwt>
<rscale>  0 0.31108228E+03</rscale>
<asrwt>0</asrwt>
<pdfrwt beam="1">  1       21 0.20787287E+00 0.31108228E+03</pdfrwt>
<pdfrwt beam="2">  1       21 0.27546475E-02 0.31108228E+03</pdfrwt>
<totfact> 0.82171750E+04</totfact>
</mgrwt>
</event>
<event>
 8    1  0.9331162E-006  0.2663992E+03  0.7546771E-02  0.1103358E+00
         21   -1    0    0  504  503  0.00000000000E+00  0.00000000000E+00  0.88580849540E+03  0.88580849540E+03  0.00000000000E+00 0. -1.
         21   -1    0    0  503  504 -0.00000000000E+00 -0.00000000000E+00 -0.20029314733E+02  0.20029314733E+02  0.00000000000E+00 0. -1.
         25    2    1    2    0    0  0.18292911539E+02  0.40631390437E+02  0.39395022910E+03  0.41570152884E+03  0.12500175028E+03 0.  0.
         25    2    1    2    0    0 -0.18292911539E+02 -0.40631390437E+02  0.47182895157E+03  0.49013628129E+03  0.12500189678E+03 0.  0.
          5    1    3    3  501    0  0.21507168956E+02  0.84997694905E+02  0.25076486335E+03  0.26569206452E+03  0.47000000000E+01 0.  1.
         -5    1    3    3    0  501 -0.32142574171E+01 -0.44366304468E+02  0.14318536575E+03  0.15000946432E+03  0.47000000000E+01 0.  1.
          5    1    4    4  502    0 -0.67623975102E+02 -0.39671626332E+02  0.22322261169E+03  0.23663741106E+03  0.47000000000E+01 0. -1.
         -5    1    4    4    0  502  0.49331063562E+02 -0.95976410515E+00  0.24860633988E+03  0.25349887023E+03  0.47000000000E+01 0. -1.
<mgrwt>
<rscale>  0 0.26639923E+03</rscale>
<asrwt>0</asrwt>
<pdfrwt beam="1">  1       21 0.13627820E+00 0.26639923E+03</pdfrwt>
<pdfrwt beam="2">  1       21 0.30814337E-02 0.26639923E+03</pdfrwt>
<totfact> 0.22636309E+05</totfact>
</mgrwt>
</event>
<event>
 8    1  0.9331162E-006  0.2625829E+03  0.7546771E-02  0.1105601E+00
         21   -1    0    0  504  503  0.00000000000E+00  0.00000000000E+00  0.11763901155E+04  0.11763901155E+04  0.00000000000E+00 0. -1.
         21   -1    0    0  503  504 -0.00000000000E+00 -0.00000000000E+00 -0.14652826438E+02  0.14652826438E+02  0.00000000000E+00 0. -1.
         25    2    1    2    0    0  0.29040612326E+02 -0.49749362781E+01  0.45690431468E+03  0.47460697594E+03  0.12498848620E+03 0.  0.
         25    2    1    2    0    0 -0.29040612326E+02  0.49749362781E+01  0.70483297436E+03  0.71643596598E+03  0.12499145748E+03 0.  0.
          5    1    3    3  501    0  0.23194436278E+02 -0.62393057192E+02  0.30069018167E+03  0.30800576426E+03  0.47000000000E+01 0. -1.
         -5    1    3    3    0  501  0.58461760481E+01  0.57418120914E+02  0.15621413301E+03  0.16660121169E+03  0.47000000000E+01 0. -1.
          5    1    4    4  502    0  0.15566841434E+02 -0.48334219971E+02  0.42553727452E+03  0.42858206376E+03  0.47000000000E+01 0. -1.
         -5    1    4    4    0  502 -0.44607453760E+02  0.53309156249E+02  0.27929569984E+03  0.28785390221E+03  0.47000000000E+01 0. -1.
<mgrwt>
<rscale>  0 0.26258286E+03</rscale>
<asrwt>0</asrwt>
<pdfrwt beam="1">  1       21 0.18098302E+00 0.26258286E+03</pdfrwt>
<pdfrwt beam="2">  1       21 0.22542819E-02 0.26258286E+03</pdfrwt>
<totfact> 0.17603595E+05</totfact>
</mgrwt>
</event>
<event>
 8    1  0.9331162E-006  0.2723353E+03  0.7546771E-02  0.1099950E+00
         21   -1    0    0  504  503  0.00000000000E+00  0.00000000000E+00  0.11172992901E+03  0.11172992901E+03  0.00000000000E+00 0. -1.
         21   -1    0    0  503  504 -0.00000000000E+00 -0.00000000000E+00 -0.16595047258E+03  0.16595047258E+03  0.00000000000E+00 0. -1.
         25    2    1    2    0    0  0.48165563477E+02  0.15206580083E+02 -0.46582779097E+02  0.14263816971E+03  0.12499812226E+03 0.  0.
         25    2    1    2    0    0 -0.48165563477E+02 -0.15206580083E+02 -0.76377644770E+01  0.13504223187E+03  0.12500762921E+03 0.  0.
          5    1    3    3  501    0  0.55681450456E+02  0.47816949782E+02  0.12474056237E+02  0.74596090315E+02  0.47000000000E+01 0.  1.
         -5    1    3    3    0  501 -0.75158869795E+01 -0.32610369699E+02 -0.59056835334E+02  0.68042079397E+02  0.47000000000E+01 0.  1.
          5    1    4    4  502    0 -0.41315242964E+02  0.39513471453E+02  0.33184602289E+02  0.66268933570E+02  0.47000000000E+01 0. -1.
         -5    1    4    4    0  502 -0.68503205125E+01 -0.54720051536E+02 -0.40822366766E+02  0.68773298304E+02  0.47000000000E+01 0. -1.
<mgrwt>
<rscale>  0 0.27233534E+03</rscale>
<asrwt>0</asrwt>
<pdfrwt beam="1">  1       21 0.17189220E-01 0.27233534E+03</pdfrwt>
<pdfrwt beam="2">  1       21 0.25530842E-01 0.27233534E+03</pdfrwt>
<totfact> 0.43767504E+05</totfact>
</mgrwt>
</event>
<event>
 8    1  0.9331162E-006  0.3040078E+03  0.7546771E-02  0.1083254E+00
         21   -1    0    0  504  503  0.00000000000E+00  0.00000000000E+00  0.29223483442E+02  0.29223483442E+02  0.00000000000E+00 0. -1.
         21   -1    0    0  503  504 -0.00000000000E+00 -0.00000000000E+00 -0.79063781701E+03  0.79063781701E+03  0.00000000000E+00 0. -1.
         25    2    1    2    0    0 -0.51983396847E+02 -0.66265958738E+02 -0.32772451108E+03  0.36072522447E+03  0.12500352624E+03 0.  0.
         25    2    1    2    0    0  0.51983396847E+02  0.66265958738E+02 -0.43368982249E+03  0.45913607598E+03  0.12500249319E+03 0.  0.
          5    1    3    3  501    0 -0.11532297738E+02  0.12121151853E+02  0.36684985554E+01  0.17761308933E+02  0.47000000000E+01 0. -1.
         -5    1    3    3    0  501 -0.40451099109E+02 -0.78387110591E+02 -0.33139300963E+03  0.34296391554E+03  0.47000000000E+01 0. -1.
          5    1    4    4  502    0  0.71446146370E+02  0.19290839278E+02 -0.11816131202E+03  0.13950223643E+03  0.47000000000E+01 0. -1.
         -5    1    4    4    0  502 -0.19462749523E+02  0.46975119460E+02 -0.31552851047E+03  0.31963383955E+03  0.47000000000E+01 0. -1.
<mgrwt>
<rscale>  0 0.30400784E+03</rscale>
<asrwt>0</asrwt>
<pdfrwt beam="1">  1       21 0.44959200E-02 0.30400784E+03</pdfrwt>
<pdfrwt beam="2">  1       21 0.12163660E+00 0.30400784E+03</pdfrwt>
<totfact> 0.15835988E+05</totfact>
</mgrwt>
</event>
<event>
 8    1  0.9331162E-006  0.3745216E+03  0.7546771E-02  0.1052977E+00
         21   -1    0    0  504  503  0.00000000000E+00  0.00000000000E+00  0.55334342032E+03  0.55334342032E+03  0.00000000000E+00 0. -1.
         21   -1    0    0  503  504 -0.00000000000E+00 -0.00000000000E+00 -0.63372230286E+02  0.63372230286E+02  0.00000000000E+00 0. -1.
         25    2    1    2    0    0  0.63016329322E+02 -0.20349213425E+02  0.44703952277E+03  0.46888619267E+03  0.12499911406E+03 0.  0.
         25    2    1    2    0    0 -0.63016329322E+02  0.20349213425E+02  0.42931667263E+02  0.14782945793E+03  0.12500108931E+03 0.  0.
          5    1    3    3  501    0 -0.43590050792E+01  0.46161171378E+02  0.14087445727E+03  0.14838314385E+03  0.47000000000E+01 0. -1.
         -5    1    3    3    0  501  0.67375334401E+02 -0.66510384803E+02  0.30616506550E+03  0.32050304882E+03  0.47000000000E+01 0. -1.
          5    1    4    4  502    0 -0.53051392069E+01  0.66719970711E+02  0.24126804079E+02  0.71301414213E+02  0.47000000000E+01 0. -1.
         -5    1    4    4    0  502 -0.57711190115E+02 -0.46370757287E+02  0.18804863184E+02  0.76528043717E+02  0.47000000000E+01 0. -1.
<mgrwt>
<rscale>  0 0.37452160E+03</rscale>
<asrwt>0</asrwt>
<pdfrwt beam="1">  1       21 0.85129754E-01 0.37452160E+03</pdfrwt>
<pdfrwt beam="2">  1       21 0.97495743E-02 0.37452160E+03</pdfrwt>
<totfact> 0.95685081E+04</totfact>
</mgrwt>
</event>
<event>
 8    1  0.9331162E-006  0.4092389E+03  0.7546771E-02  0.1040627E+00
         21   -1    0    0  504  503  0.00000000000E+00  0.00000000000E+00  0.34119184527E+03  0.34119184527E+03  0.00000000000E+00 0. -1.
         21   -1    0    0  503  504 -0.00000000000E+00 -0.00000000000E+00 -0.12271430706E+03  0.12271430706E+03  0.00000000000E+00 0. -1.
         25    2    1    2    0    0 -0.32355669687E+02  0.40469440797E+02  0.28321713984E+03  0.31388513666E+03  0.12500906254E+03 0.  0.
         25    2    1    2    0    0  0.32355669687E+02 -0.40469440797E+02 -0.64739601635E+02  0.15002101567E+03  0.12502169461E+03 0.  0.
          5    1    3    3  501    0 -0.58653131382E+02  0.72349078233E+02  0.20759916636E+03  0.22758313385E+03  0.47000000000E+01 0. -1.
         -5    1    3    3    0  501  0.26297461696E+02 -0.31879637436E+02  0.75617973487E+02  0.86302002809E+02  0.47000000000E+01 0. -1.
          5    1    4    4  502    0  0.16881669954E+02  0.37815666861E+02 -0.55709111198E+02  0.69574496125E+02  0.47000000000E+01 0. -1.
         -5    1    4    4    0  502  0.15473999732E+02 -0.78285107658E+02 -0.90304904362E+01  0.80446519541E+02  0.47000000000E+01 0. -1.
<mgrwt>
<rscale>  0 0.40923891E+03</rscale>
<asrwt>0</asrwt>
<pdfrwt beam="1">  1       21 0.52491053E-01 0.40923891E+03</pdfrwt>
<pdfrwt beam="2">  1       21 0.18879124E-01 0.40923891E+03</pdfrwt>
<totfact> 0.82897031E+04</totfact>
</mgrwt>
</event>
<event>
 8    1  0.9331162E-006  0.2693211E+03  0.7546771E-02  0.1101669E+00
         21   -1    0    0  504  503  0.00000000000E+00  0.00000000000E+00  0.88014845207E+02  0.88014845207E+02  0.00000000000E+00 0. -1.
         21   -1    0    0  503  504 -0.00000000000E+00 -0.00000000000E+00 -0.20602730907E+03  0.20602730907E+03  0.00000000000E+00 0. -1.
         25    2    1    2    0    0  0.23931030324E+02 -0.35494803776E+02 -0.87407118422E+02  0.15841628390E+03  0.12499255716E+03 0.  0.
         25    2    1    2    0    0 -0.23931030324E+02  0.35494803776E+02 -0.30605345437E+02  0.13562587037E+03  0.12500045695E+03 0.  0.
          5    1    3    3  501    0 -0.88346677081E+01  0.34802434169E+02 -0.69966522184E+02  0.78782390191E+02  0.47000000000E+01 0. -1.
         -5    1    3    3    0  501  0.32765698032E+02 -0.70297237945E+02 -0.17440596238E+02  0.79633893710E+02  0.47000000000E+01 0. -1.
          5    1    4    4  502    0 -0.57633051363E+02  0.64977551153E+02 -0.22924947381E+02  0.89951620195E+02  0.47000000000E+01 0. -1.
         -5    1    4    4    0  502  0.33702021039E+02 -0.29482747376E+02 -0.76803980567E+01  0.45674250178E+02  0.47000000000E+01 0. -1.
<mgrwt>
<rscale>  0 0.26932109E+03</rscale>
<asrwt>0</asrwt>
<pdfrwt beam="1">  1       21 0.13540746E-01 0.26932109E+03</pdfrwt>
<pdfrwt beam="2">  1       21 0.31696509E-01 0.26932109E+03</pdfrwt>
<totfact> 0.44499169E+05</totfact>
</mgrwt>
</event>
<event>
 8    1  0.9331162E-006  0.2825084E+03  0.7546771E-02  0.1094327E+00
         21   -1    0    0  504  503  0.00000000000E+00  0.00000000000E+00  0.98399880657E+02  0.98399880657E+02  0.00000000000E+00 0.  1.
         21   -1    0    0  503  504 -0.00000000000E+00 -0.00000000000E+00 -0.20277215711E+03  0.20277215711E+03  0.00000000000E+00 0.  1.
         25    2    1    2    0    0 -0.28718500126E+02 -0.16172071635E+02 -0.11288607538E+03  0.17161920632E+03  0.12499439112E+03 0.  0.
         25    2    1    2    0    0  0.28718500126E+02  0.16172071635E+02  0.85137989351E+01  0.12955283144E+03  0.12500065285E+03 0.  0.
          5    1    3    3  501    0 -0.35005896942E+02  0.51094793664E+01 -0.13518177587E+03  0.13981316865E+03  0.47000000000E+01 0. -1.
         -5    1    3    3    0  501  0.62873968157E+01 -0.21281551001E+02  0.22295700491E+02  0.31806037668E+02  0.47000000000E+01 0. -1.
          5    1    4    4  502    0 -0.35018603127E+02  0.66774726336E+01  0.43210048285E+02  0.56214673161E+02  0.47000000000E+01 0.  1.
         -5    1    4    4    0  502  0.63737103253E+02  0.94945990011E+01 -0.34696249350E+02  0.73338158283E+02  0.47000000000E+01 0.  1.
<mgrwt>
<rscale>  0 0.28250845E+03</rscale>
<asrwt>0</asrwt>
<pdfrwt beam="1">  1       21 0.15138443E-01 0.28250845E+03</pdfrwt>
<pdfrwt beam="2">  1       21 0.31195716E-01 0.28250845E+03</pdfrwt>
<totfact> 0.37357720E+05</totfact>
</mgrwt>
</event>
<event>
 8    1  0.9331162E-006  0.3684571E+03  0.7546771E-02  0.1055284E+00
         21   -1    0    0  504  503  0.00000000000E+00  0.00000000000E+00  0.33242841506E+02  0.33242841506E+02  0.00000000000E+00 0. -1.
         21   -1    0    0  503  504 -0.00000000000E+00 -0.00000000000E+00 -0.10209763482E+04  0.10209763482E+04  0.00000000000E+00 0. -1.
         25    2    1    2    0    0  0.11775695344E+03 -0.42089813642E+02 -0.64197400867E+03  0.66587233461E+03  0.12496833873E+03 0.  0.
         25    2    1    2    0    0 -0.11775695344E+03  0.42089813642E+02 -0.34575949805E+03  0.38834685513E+03  0.12500158760E+03 0.  0.
          5    1    3    3  501    0  0.34648696120E+02 -0.69624395005E+02 -0.42083802075E+03  0.42798927350E+03  0.47000000000E+01 0.  1.
         -5    1    3    3    0  501  0.83108257320E+02  0.27534581363E+02 -0.22113598793E+03  0.23788306111E+03  0.47000000000E+01 0.  1.
          5    1    4    4  502    0 -0.19544450014E+02 -0.25293687263E+02 -0.18726627739E+03  0.19003290449E+03  0.47000000000E+01 0. -1.
         -5    1    4    4    0  502 -0.98212503426E+02  0.67383500905E+02 -0.15849322066E+03  0.19831395064E+03  0.47000000000E+01 0. -1.
<mgrwt>
<rscale>  0 0.36845708E+03</rscale>
<asrwt>0</asrwt>
<pdfrwt beam="1">  1       21 0.51142843E-02 0.36845708E+03</pdfrwt>
<pdfrwt beam="2">  1       21 0.15707325E+00 0.36845708E+03</pdfrwt>
<totfact> 0.63740810E+04</totfact>
</mgrwt>
</event>
<event>
 8    1  0.9331162E-006  0.2914766E+03  0.7546771E-02  0.1089581E+00
         21   -1    0    0  504  503  0.00000000000E+00  0.00000000000E+00  0.23605570056E+02  0.23605570056E+02  0.00000000000E+00 0. -1.
         21   -1    0    0  503  504 -0.00000000000E+00 -0.00000000000E+00 -0.89977269971E+03  0.89977269971E+03  0.00000000000E+00 0. -1.
         25    2    1    2    0    0  0.67241634197E+02  0.24373256277E+02 -0.36738981338E+03  0.39461201638E+03  0.12501150152E+03 0.  0.
         25    2    1    2    0    0 -0.67241634197E+02 -0.24373256277E+02 -0.50877731628E+03  0.52876625338E+03  0.12499560058E+03 0.  0.
          5    1    3    3  501    0  0.10328602028E+03  0.24086341300E+02 -0.24684455682E+03  0.26870518985E+03  0.47000000000E+01 0.  1.
         -5    1    3    3    0  501 -0.36044386088E+02  0.28691497675E+00 -0.12054525656E+03  0.12590682653E+03  0.47000000000E+01 0.  1.
          5    1    4    4  502    0 -0.93128347193E+02 -0.47290202133E+02 -0.31572528534E+03  0.33258652720E+03  0.47000000000E+01 0. -1.
         -5    1    4    4    0  502  0.25886712996E+02  0.22916945856E+02 -0.19305203094E+03  0.19617972618E+03  0.47000000000E+01 0. -1.
<mgrwt>
<rscale>  0 0.29147657E+03</rscale>
<asrwt>0</asrwt>
<pdfrwt beam="1">  1       21 0.36316270E-02 0.29147657E+03</pdfrwt>
<pdfrwt beam="2">  1       21 0.13842654E+00 0.29147657E+03</pdfrwt>
<totfact> 0.16379442E+05</totfact>
</mgrwt>
</event>
<event>
 8    1  0.9331162E-006  0.3163444E+03  0.7546771E-02  0.1077344E+00
         21   -1    0    0  504  503  0.00000000000E+00  0.00000000000E+00  0.21643407075E+03  0.21643407075E+03  0.00000000000E+00 0.  1.
         21   -1    0    0  503  504 -0.00000000000E+00 -0.00000000000E+00 -0.11559381779E+03  0.11559381779E+03  0.00000000000E+00 0.  1.
         25    2    1    2    0    0 -0.19878283162E+02  0.75018845793E+02  0.11136320357E+03  0.18452453832E+03  0.12499827506E+03 0.  0.
         25    2    1    2    0    0  0.19878283162E+02 -0.75018845793E+02 -0.10522950612E+02  0.14750335021E+03  0.12499412974E+03 0.  0.
          5    1    3    3  501    0 -0.50044375128E+01  0.10053301883E+02 -0.27692898016E+02  0.30250617748E+02  0.47000000000E+01 0.  1.
         -5    1    3    3    0  501 -0.14873845649E+02  0.64965543911E+02  0.13905610159E+03  0.15427392057E+03  0.47000000000E+01 0.  1.
          5    1    4    4  502    0  0.66922156665E+02 -0.33824130264E+02  0.20020118719E+02  0.77753083504E+02  0.47000000000E+01 0. -1.
         -5    1    4    4    0  502 -0.47043873504E+02 -0.41194715529E+02 -0.30543069331E+02  0.69750266708E+02  0.47000000000E+01 0. -1.
<mgrwt>
<rscale>  0 0.31634437E+03</rscale>
<asrwt>0</asrwt>
<pdfrwt beam="1">  1       21 0.33297550E-01 0.31634437E+03</pdfrwt>
<pdfrwt beam="2">  1       21 0.17783664E-01 0.31634437E+03</pdfrwt>
<totfact> 0.24194164E+05</totfact>
</mgrwt>
</event>
<event>
 8    1  0.9331162E-006  0.2583049E+03  0.7546771E-02  0.1108166E+00
         21   -1    0    0  504  503  0.00000000000E+00  0.00000000000E+00  0.28803849843E+03  0.28803849843E+03  0.00000000000E+00 0.  1.
         21   -1    0    0  503  504 -0.00000000000E+00 -0.00000000000E+00 -0.57910147205E+02  0.57910147205E+02  0.00000000000E+00 0.  1.
         25    2    1    2    0    0 -0.18718521284E+01  0.63279827440E+01  0.72475750989E+02  0.14464353465E+03  0.12500188174E+03 0.  0.
         25    2    1    2    0    0  0.18718521284E+01 -0.63279827440E+01  0.15765260023E+03  0.20130511098E+03  0.12500343255E+03 0.  0.
          5    1    3    3  501    0  0.21020777096E+02 -0.44315058706E+02 -0.46188759418E+01  0.49488599826E+02  0.47000000000E+01 0. -1.
         -5    1    3    3    0  501 -0.22892629224E+02  0.50643041450E+02  0.77094626930E+02  0.95154934825E+02  0.47000000000E+01 0. -1.
          5    1    4    4  502    0 -0.22568728446E+02 -0.54669536851E+01 -0.14223726804E+02  0.27634027764E+02  0.47000000000E+01 0. -1.
         -5    1    4    4    0  502  0.24440580575E+02 -0.86102905887E+00  0.17187632704E+03  0.17367108322E+03  0.47000000000E+01 0. -1.
<mgrwt>
<rscale>  0 0.25830487E+03</rscale>
<asrwt>0</asrwt>
<pdfrwt beam="1">  1       21 0.44313614E-01 0.25830487E+03</pdfrwt>
<pdfrwt beam="2">  1       21 0.89092536E-02 0.25830487E+03</pdfrwt>
<totfact> 0.47983460E+05</totfact>
</mgrwt>
</event>
<event>
 8    1  0.9331162E-006  0.3168479E+03  0.7546771E-02  0.1077109E+00
         21   -1    0    0  504  503  0.00000000000E+00  0.00000000000E+00  0.64271632005E+02  0.64271632005E+02  0.00000000000E+00 0.  1.
         21   -1    0    0  503  504 -0.00000000000E+00 -0.00000000000E+00 -0.39050114858E+03  0.39050114858E+03  0.00000000000E+00 0.  1.
         25    2    1    2    0    0 -0.48846519790E+02 -0.82506013913E+02 -0.18710176741E+03  0.24459623001E+03  0.12500807790E+03 0.  0.
         25    2    1    2    0    0  0.48846519790E+02  0.82506013913E+02 -0.13912774916E+03  0.21017655057E+03  0.12499770796E+03 0.  0.
          5    1    3    3  501    0  0.40717022028E+01 -0.97402609250E+02 -0.89223938260E+02  0.13223784710E+03  0.47000000000E+01 0.  1.
         -5    1    3    3    0  501 -0.52918221993E+02  0.14896595336E+02 -0.97877829148E+02  0.11235838291E+03  0.47000000000E+01 0.  1.
          5    1    4    4  502    0  0.85805304957E+02  0.64431176071E+02 -0.12840122091E+03  0.16740038930E+03  0.47000000000E+01 0. -1.
         -5    1    4    4    0  502 -0.36958785167E+02  0.18074837842E+02 -0.10726528254E+02  0.42776161263E+02  0.47000000000E+01 0. -1.
<mgrwt>
<rscale>  0 0.31684789E+03</rscale>
<asrwt>0</asrwt>
<pdfrwt beam="1">  1       21 0.98879432E-02 0.31684789E+03</pdfrwt>
<pdfrwt beam="2">  1       21 0.60077101E-01 0.31684789E+03</pdfrwt>
<totfact> 0.20695426E+05</totfact>
</mgrwt>
</event>
<event>
 8    1  0.9331162E-006  0.4856251E+03  0.7546771E-02  0.1017601E+00
         21   -1    0    0  504  503  0.00000000000E+00  0.00000000000E+00  0.52981960102E+02  0.52981960102E+02  0.00000000000E+00 0.  1.
         21   -1    0    0  503  504 -0.00000000000E+00 -0.00000000000E+00 -0.11127924808E+04  0.11127924808E+04  0.00000000000E+00 0.  1.
         25    2    1    2    0    0 -0.20537538345E+03  0.16891850452E+02 -0.45917591570E+03  0.51858750468E+03  0.12500438278E+03 0.  0.
         25    2    1    2    0    0  0.20537538345E+03 -0.16891850452E+02 -0.60063460505E+03  0.64718693627E+03  0.12499847584E+03 0.  0.
          5    1    3    3  501    0 -0.11442858131E+03 -0.17132829436E+02 -0.12428549237E+03  0.16987173890E+03  0.47000000000E+01 0. -1.
         -5    1    3    3    0  501 -0.90946802133E+02  0.34024679888E+02 -0.33489042334E+03  0.34871576578E+03  0.47000000000E+01 0. -1.
          5    1    4    4  502    0  0.12917831989E+03 -0.35169077824E+02 -0.50991994152E+03  0.52722323462E+03  0.47000000000E+01 0. -1.
         -5    1    4    4    0  502  0.76197063552E+02  0.18277227372E+02 -0.90714663528E+02  0.11996370165E+03  0.47000000000E+01 0. -1.
<mgrwt>
<rscale>  0 0.48562507E+03</rscale>
<asrwt>0</asrwt>
<pdfrwt beam="1">  1       21 0.81510707E-02 0.48562507E+03</pdfrwt>
<pdfrwt beam="2">  1       21 0.17119884E+00 0.48562507E+03</pdfrwt>
<totfact> 0.21422122E+04</totfact>
</mgrwt>
</event>
<event>
 8    1  0.9331162E-006  0.6116544E+03  0.7546771E-02  0.9881518E-01
         21   -1    0    0  504  503  0.00000000000E+00  0.00000000000E+00  0.87767284812E+03  0.87767284812E+03  0.00000000000E+00 0.  1.
         21   -1    0    0  503  504 -0.00000000000E+00 -0.00000000000E+00 -0.10656622473E+03  0.10656622473E+03  0.00000000000E+00 0.  1.
         25    2    1    2    0    0 -0.26806433246E+03 -0.75947218786E+02  0.35800724931E+03  0.47052867836E+03  0.12490628576E+03 0.  0.
         25    2    1    2    0    0  0.26806433246E+03  0.75947218786E+02  0.41309937408E+03  0.51371039449E+03  0.12498323955E+03 0.  0.
          5    1    3    3  501    0 -0.15733365776E+03 -0.83702821460E+02  0.14310825789E+03  0.22860906732E+03  0.47000000000E+01 0. -1.
         -5    1    3    3    0  501 -0.11073067469E+03  0.77556026733E+01  0.21489899142E+03  0.24191961104E+03  0.47000000000E+01 0. -1.
          5    1    4    4  502    0  0.14718295603E+02 -0.27193951393E+02  0.33895709401E+02  0.46121018350E+02  0.47000000000E+01 0.  1.
         -5    1    4    4    0  502  0.25334603685E+03  0.10314117018E+03  0.37920366467E+03  0.46758937614E+03  0.47000000000E+01 0.  1.
<mgrwt>
<rscale>  0 0.61165442E+03</rscale>
<asrwt>0</asrwt>
<pdfrwt beam="1">  1       21 0.13502659E+00 0.61165442E+03</pdfrwt>
<pdfrwt beam="2">  1       21 0.16394804E-01 0.61165442E+03</pdfrwt>
<totfact> 0.11140699E+04</totfact>
</mgrwt>
</event>
<event>
 8    1  0.9331162E-006  0.4104624E+03  0.7546771E-02  0.1040216E+00
         21   -1    0    0  504  503  0.00000000000E+00  0.00000000000E+00  0.31589233840E+02  0.31589233840E+02  0.00000000000E+00 0.  1.
         21   -1    0    0  503  504 -0.00000000000E+00 -0.00000000000E+00 -0.13333604791E+04  0.13333604791E+04  0.00000000000E+00 0.  1.
         25    2    1    2    0    0  0.40566145961E+02 -0.15658901758E+03 -0.71122440194E+03  0.74002122552E+03  0.12500212668E+03 0.  0.
         25    2    1    2    0    0 -0.40566145961E+02  0.15658901758E+03 -0.59054684331E+03  0.62492848741E+03  0.12499723042E+03 0.  0.
          5    1    3    3  501    0 -0.29785128416E+02 -0.11643330979E+03 -0.36055549723E+03  0.38008712960E+03  0.47000000000E+01 0.  1.
         -5    1    3    3    0  501  0.70351274377E+02 -0.40155707791E+02 -0.35066890471E+03  0.35993409592E+03  0.47000000000E+01 0.  1.
          5    1    4    4  502    0 -0.24695180999E+02  0.66251252689E+01 -0.15169642654E+02  0.30099041640E+02  0.47000000000E+01 0.  1.
         -5    1    4    4    0  502 -0.15870964962E+02  0.14996389231E+03 -0.57537720065E+03  0.59482944577E+03  0.47000000000E+01 0.  1.
<mgrwt>
<rscale>  0 0.41046235E+03</rscale>
<asrwt>0</asrwt>
<pdfrwt beam="1">  1       21 0.48598822E-02 0.41046235E+03</pdfrwt>
<pdfrwt beam="2">  1       21 0.20513238E+00 0.41046235E+03</pdfrwt>
<totfact> 0.31586065E+04</totfact>
</mgrwt>
</event>
<event>
 8    1  0.9331162E-006  0.3265845E+03  0.7546771E-02  0.1072658E+00
         21   -1    0    0  504  503  0.00000000000E+00  0.00000000000E+00  0.11412712563E+03  0.11412712563E+03  0.00000000000E+00 0.  1.
         21   -1    0    0  503  504 -0.00000000000E+00 -0.00000000000E+00 -0.23363728922E+03  0.23363728922E+03  0.00000000000E+00 0.  1.
         25    2    1    2    0    0  0.10384750095E+03 -0.18645771989E+01 -0.76580019436E+02  0.17966453469E+03  0.12500826191E+03 0.  0.
         25    2    1    2    0    0 -0.10384750095E+03  0.18645771989E+01 -0.42930144153E+02  0.16809988015E+03  0.12500716910E+03 0.  0.
          5    1    3    3  501    0  0.13189881644E+03 -0.70663256440E+01 -0.53184313832E+02  0.14247067057E+03  0.47000000000E+01 0.  1.
         -5    1    3    3    0  501 -0.28051315485E+02  0.52017484451E+01 -0.23395705604E+02  0.37193864118E+02  0.47000000000E+01 0.  1.
          5    1    4    4  502    0 -0.10609085485E+03 -0.38007109911E+01  0.17055255076E+02  0.10762289074E+03  0.47000000000E+01 0. -1.
         -5    1    4    4    0  502  0.22433538925E+01  0.56652881900E+01 -0.59985399229E+02  0.60476989406E+02  0.47000000000E+01 0. -1.
<mgrwt>
<rscale>  0 0.32658446E+03</rscale>
<asrwt>0</asrwt>
<pdfrwt beam="1">  1       21 0.17558019E-01 0.32658446E+03</pdfrwt>
<pdfrwt beam="2">  1       21 0.35944198E-01 0.32658446E+03</pdfrwt>
<totfact> 0.21210069E+05</totfact>
</mgrwt>
</event>
<event>
 8    1  0.9331162E-006  0.2945347E+03  0.7546771E-02  0.1088005E+00
         21   -1    0    0  504  503  0.00000000000E+00  0.00000000000E+00  0.21741978949E+02  0.21741978949E+02  0.00000000000E+00 0.  1.
         21   -1    0    0  503  504 -0.00000000000E+00 -0.00000000000E+00 -0.99750222782E+03  0.99750222782E+03  0.00000000000E+00 0.  1.
         25    2    1    2    0    0 -0.48113298384E+02  0.48152547981E+02 -0.61873983401E+03  0.63489784914E+03  0.12499095683E+03 0.  0.
         25    2    1    2    0    0  0.48113298384E+02 -0.48152547981E+02 -0.35702041486E+03  0.38434635763E+03  0.12499995456E+03 0.  0.
          5    1    3    3  501    0 -0.13650622081E+02  0.70873584062E+02 -0.54882644267E+03  0.55357199945E+03  0.47000000000E+01 0. -1.
         -5    1    3    3    0  501 -0.34462676302E+02 -0.22721036081E+02 -0.69913391341E+02  0.81325849687E+02  0.47000000000E+01 0. -1.
          5    1    4    4  502    0 -0.40038887861E+02 -0.18260606052E+02 -0.72404795701E+02  0.84859334872E+02  0.47000000000E+01 0. -1.
         -5    1    4    4    0  502  0.88152186244E+02 -0.29891941929E+02 -0.28461561916E+03  0.29948702276E+03  0.47000000000E+01 0. -1.
<mgrwt>
<rscale>  0 0.29453470E+03</rscale>
<asrwt>0</asrwt>
<pdfrwt beam="1">  1       21 0.33449196E-02 0.29453470E+03</pdfrwt>
<pdfrwt beam="2">  1       21 0.15346189E+00 0.29453470E+03</pdfrwt>
<totfact> 0.14292368E+05</totfact>
</mgrwt>
</event>
<event>
 8    1  0.9331162E-006  0.3124813E+03  0.7546771E-02  0.1079163E+00
         21   -1    0    0  504  503  0.00000000000E+00  0.00000000000E+00  0.85281623237E+03  0.85281623237E+03  0.00000000000E+00 0. -1.
         21   -1    0    0  503  504 -0.00000000000E+00 -0.00000000000E+00 -0.28624159365E+02  0.28624159365E+02  0.00000000000E+00 0. -1.
         25    2    1    2    0    0  0.60368951457E+02  0.60419024826E+02  0.30318406330E+03  0.33888129863E+03  0.12500035786E+03 0.  0.
         25    2    1    2    0    0 -0.60368951457E+02 -0.60419024826E+02  0.52100800971E+03  0.54255909310E+03  0.12500461778E+03 0.  0.
          5    1    3    3  501    0  0.54576749790E+01  0.88306059233E+02  0.19768023687E+03  0.21662712749E+03  0.47000000000E+01 0.  1.
         -5    1    3    3    0  501  0.54911276478E+02 -0.27887034407E+02  0.10550382642E+03  0.12225417115E+03  0.47000000000E+01 0.  1.
          5    1    4    4  502    0 -0.19356113390E+02 -0.87066043053E+02  0.21790004593E+03  0.23549453283E+03  0.47000000000E+01 0.  1.
         -5    1    4    4    0  502 -0.41012838067E+02  0.26647018227E+02  0.30310796378E+03  0.30706456027E+03  0.47000000000E+01 0.  1.
<mgrwt>
<rscale>  0 0.31248135E+03</rscale>
<asrwt>0</asrwt>
<pdfrwt beam="1">  1       21 0.13120248E+00 0.31248135E+03</pdfrwt>
<pdfrwt beam="2">  1       21 0.44037175E-02 0.31248135E+03</pdfrwt>
<totfact> 0.13495099E+05</totfact>
</mgrwt>
</event>
<event>
 8    1  0.9331162E-006  0.4041573E+03  0.7546771E-02  0.1042350E+00
         21   -1    0    0  504  503  0.00000000000E+00  0.00000000000E+00  0.29432553724E+03  0.29432553724E+03  0.00000000000E+00 0.  1.
         21   -1    0    0  503  504 -0.00000000000E+00 -0.00000000000E+00 -0.13874361344E+03  0.13874361344E+03  0.00000000000E+00 0.  1.
         25    2    1    2    0    0  0.12496910117E+03 -0.28579087915E+02 -0.22588639952E+02  0.18047023071E+03  0.12500086802E+03 0.  0.
         25    2    1    2    0    0 -0.12496910117E+03  0.28579087915E+02  0.17817056375E+03  0.25259891997E+03  0.12500969590E+03 0.  0.
          5    1    3    3  501    0  0.20030094319E+02 -0.15467790629E+02  0.47139915895E+02  0.53709579183E+02  0.47000000000E+01 0. -1.
         -5    1    3    3    0  501  0.10493900685E+03 -0.13111297286E+02 -0.69728555848E+02  0.12676065153E+03  0.47000000000E+01 0. -1.
          5    1    4    4  502    0  0.31645928225E+01  0.10976983229E+02 -0.15403291386E+02  0.19744877667E+02  0.47000000000E+01 0. -1.
         -5    1    4    4    0  502 -0.12813369399E+03  0.17602104686E+02  0.19357385513E+03  0.23285404230E+03  0.47000000000E+01 0. -1.
<mgrwt>
<rscale>  0 0.40415734E+03</rscale>
<asrwt>0</asrwt>
<pdfrwt beam="1">  1       21 0.45280852E-01 0.40415734E+03</pdfrwt>
<pdfrwt beam="2">  1       21 0.21345171E-01 0.40415734E+03</pdfrwt>
<totfact> 0.89824222E+04</totfact>
</mgrwt>
</event>
<event>
 8    1  0.9331162E-006  0.2722550E+03  0.7546771E-02  0.1099996E+00
         21   -1    0    0  504  503  0.00000000000E+00  0.00000000000E+00  0.48259006791E+02  0.48259006791E+02  0.00000000000E+00 0. -1.
         21   -1    0    0  503  504 -0.00000000000E+00 -0.00000000000E+00 -0.38398433397E+03  0.38398433397E+03  0.00000000000E+00 0. -1.
         25    2    1    2    0    0  0.31925348473E+02 -0.34652482572E+02 -0.12627774279E+03  0.18382451732E+03  0.12500144967E+03 0.  0.
         25    2    1    2    0    0 -0.31925348473E+02  0.34652482572E+02 -0.20944758439E+03  0.24841882344E+03  0.12499439511E+03 0.  0.
          5    1    3    3  501    0 -0.16236455654E+02  0.11266807846E+02  0.16539264449E+02  0.26195433185E+02  0.47000000000E+01 0. -1.
         -5    1    3    3    0  501  0.48161804127E+02 -0.45919290418E+02 -0.14281700724E+03  0.15762908413E+03  0.47000000000E+01 0. -1.
          5    1    4    4  502    0 -0.42475959117E+02 -0.36461711982E+02 -0.12735984432E+03  0.13919871942E+03  0.47000000000E+01 0.  1.
         -5    1    4    4    0  502  0.10550610643E+02  0.71114194554E+02 -0.82087740071E+02  0.10922010402E+03  0.47000000000E+01 0.  1.
<mgrwt>
<rscale>  0 0.27225505E+03</rscale>
<asrwt>0</asrwt>
<pdfrwt beam="1">  1       21 0.74244625E-02 0.27225505E+03</pdfrwt>
<pdfrwt beam="2">  1       21 0.59074513E-01 0.27225505E+03</pdfrwt>
<totfact> 0.35928164E+05</totfact>
</mgrwt>
</event>
<event>
 8    1  0.9331162E-006  0.2600679E+03  0.7546771E-02  0.1107102E+00
         21   -1    0    0  504  503  0.00000000000E+00  0.00000000000E+00  0.12142620954E+03  0.12142620954E+03  0.00000000000E+00 0. -1.
         21   -1    0    0  503  504 -0.00000000000E+00 -0.00000000000E+00 -0.13925191045E+03  0.13925191045E+03  0.00000000000E+00 0. -1.
         25    2    1    2    0    0 -0.11676981415E+02 -0.20209081932E+02 -0.36153004585E+02  0.13220431896E+03  0.12500473321E+03 0.  0.
         25    2    1    2    0    0  0.11676981415E+02  0.20209081932E+02  0.18327303675E+02  0.12847380102E+03  0.12499947441E+03 0.  0.
          5    1    3    3  501    0 -0.57435326485E+02 -0.36714172988E+02 -0.45975434564E+02  0.82356407219E+02  0.47000000000E+01 0.  1.
         -5    1    3    3    0  501  0.45758345070E+02  0.16505091056E+02  0.98224299797E+01  0.49847911742E+02  0.47000000000E+01 0.  1.
          5    1    4    4  502    0 -0.50079601539E+02 -0.14992122118E+01  0.34336013408E+02  0.60920160409E+02  0.47000000000E+01 0. -1.
         -5    1    4    4    0  502  0.61756582954E+02  0.21708294144E+02 -0.16008709732E+02  0.67553640613E+02  0.47000000000E+01 0. -1.
<mgrwt>
<rscale>  0 0.26006793E+03</rscale>
<asrwt>0</asrwt>
<pdfrwt beam="1">  1       21 0.18680955E-01 0.26006793E+03</pdfrwt>
<pdfrwt beam="2">  1       21 0.21423371E-01 0.26006793E+03</pdfrwt>
<totfact> 0.52520768E+05</totfact>
</mgrwt>
</event>
<event>
 8    1  0.9331162E-006  0.4076428E+03  0.7546771E-02  0.1041165E+00
         21   -1    0    0  504  503  0.00000000000E+00  0.00000000000E+00  0.46916444476E+03  0.46916444476E+03  0.00000000000E+00 0.  1.
         21   -1    0    0  503  504 -0.00000000000E+00 -0.00000000000E+00 -0.88547141430E+02  0.88547141430E+02  0.00000000000E+00 0.  1.
         25    2    1    2    0    0  0.98096958695E+02 -0.12521358579E+03  0.22448115488E+03  0.30216317239E+03  0.12493733821E+03 0.  0.
         25    2    1    2    0    0 -0.98096958695E+02  0.12521358579E+03  0.15613614845E+03  0.25554841380E+03  0.12500015828E+03 0.  0.
          5    1    3    3  501    0  0.87642997664E+02 -0.10944156549E+03  0.90893002886E+02  0.16715974177E+03  0.47000000000E+01 0.  1.
         -5    1    3    3    0  501  0.10453961031E+02 -0.15772020309E+02  0.13358815199E+03  0.13500343062E+03  0.47000000000E+01 0.  1.
          5    1    4    4  502    0 -0.28200223672E+02 -0.21456840135E+02  0.49847877630E+02  0.61339624289E+02  0.47000000000E+01 0. -1.
         -5    1    4    4    0  502 -0.69896735023E+02  0.14667042593E+03  0.10628827082E+03  0.19420878951E+03  0.47000000000E+01 0. -1.
<mgrwt>
<rscale>  0 0.40764284E+03</rscale>
<asrwt>0</asrwt>
<pdfrwt beam="1">  1       21 0.72179144E-01 0.40764284E+03</pdfrwt>
<pdfrwt beam="2">  1       21 0.13622637E-01 0.40764284E+03</pdfrwt>
<totfact> 0.75623886E+04</totfact>
</mgrwt>
</event>
<event>
 8    1  0.9331162E-006  0.2813624E+03  0.7546771E-02  0.1094947E+00
         21   -1    0    0  504  503  0.00000000000E+00  0.00000000000E+00  0.22735057010E+03  0.22735057010E+03  0.00000000000E+00 0. -1.
         21   -1    0    0  503  504 -0.00000000000E+00 -0.00000000000E+00 -0.87051489760E+02  0.87051489760E+02  0.00000000000E+00 0. -1.
         25    2    1    2    0    0  0.64515786196E+02  0.16248946088E+01  0.70828460265E+02  0.15750283804E+03  0.12500218501E+03 0.  0.
         25    2    1    2    0    0 -0.64515786196E+02 -0.16248946088E+01  0.69470620071E+02  0.15689922181E+03  0.12500508710E+03 0.  0.
          5    1    3    3  501    0 -0.13939007667E+02 -0.14068314826E+02  0.74540952035E+02  0.77270026188E+02  0.47000000000E+01 0. -1.
         -5    1    3    3    0  501  0.78454793864E+02  0.15693209435E+02 -0.37124917702E+01  0.80232811852E+02  0.47000000000E+01 0. -1.
          5    1    4    4  502    0  0.18105552833E+02  0.36818569859E+02  0.47692526642E+02  0.63087916650E+02  0.47000000000E+01 0.  1.
         -5    1    4    4    0  502 -0.82621339029E+02 -0.38443464468E+02  0.21778093429E+02  0.93811305164E+02  0.47000000000E+01 0.  1.
<mgrwt>
<rscale>  0 0.28136244E+03</rscale>
<asrwt>0</asrwt>
<pdfrwt beam="1">  1       21 0.34977011E-01 0.28136244E+03</pdfrwt>
<pdfrwt beam="2">  1       21 0.13392537E-01 0.28136244E+03</pdfrwt>
<totfact> 0.37238709E+05</totfact>
</mgrwt>
</event>
<event>
 8    1  0.9331162E-006  0.3521148E+03  0.7546771E-02  0.1061750E+00
         21   -1    0    0  504  503  0.00000000000E+00  0.00000000000E+00  0.85356061615E+03  0.85356061615E+03  0.00000000000E+00 0.  1.
         21   -1    0    0  503  504 -0.00000000000E+00 -0.00000000000E+00 -0.36314012455E+02  0.36314012455E+02  0.00000000000E+00 0.  1.
         25    2    1    2    0    0  0.54798647571E+02  0.57942229558E+02  0.16873854907E+03  0.22462870125E+03  0.12500064696E+03 0.  0.
         25    2    1    2    0    0 -0.54798647571E+02 -0.57942229558E+02  0.64850805463E+03  0.66524592736E+03  0.12501701168E+03 0.  0.
          5    1    3    3  501    0 -0.32405870507E+02  0.47343927336E+02  0.46358429318E+02  0.73910634335E+02  0.47000000000E+01 0.  1.
         -5    1    3    3    0  501  0.87204518078E+02  0.10598302223E+02  0.12238011975E+03  0.15071806691E+03  0.47000000000E+01 0.  1.
          5    1    4    4  502    0  0.21825072923E+01 -0.21525146766E+02  0.12086416985E+02  0.25224328671E+02  0.47000000000E+01 0. -1.
         -5    1    4    4    0  502 -0.56981154863E+02 -0.36417082793E+02  0.63642163764E+03  0.64002159869E+03  0.47000000000E+01 0. -1.
<mgrwt>
<rscale>  0 0.35211482E+03</rscale>
<asrwt>0</asrwt>
<pdfrwt beam="1">  1       21 0.13131700E+00 0.35211482E+03</pdfrwt>
<pdfrwt beam="2">  1       21 0.55867718E-02 0.35211482E+03</pdfrwt>
<totfact> 0.88546892E+04</totfact>
</mgrwt>
</event>
<event>
 8    1  0.9331162E-006  0.3208814E+03  0.7546771E-02  0.1075244E+00
         21   -1    0    0  504  503  0.00000000000E+00  0.00000000000E+00  0.16153269139E+02  0.16153269139E+02  0.00000000000E+00 0. -1.
         21   -1    0    0  503  504 -0.00000000000E+00 -0.00000000000E+00 -0.15935612918E+04  0.15935612918E+04  0.00000000000E+00 0. -1.
         25    2    1    2    0    0 -0.54927478411E+02  0.83275277215E+02 -0.72450236646E+03  0.74194383249E+03  0.12500068752E+03 0.  0.
         25    2    1    2    0    0  0.54927478411E+02 -0.83275277215E+02 -0.85290565621E+03  0.86777072845E+03  0.12500471629E+03 0.  0.
          5    1    3    3  501    0 -0.73483891734E+02  0.91282813756E+02 -0.40157033947E+03  0.41834586406E+03  0.47000000000E+01 0.  1.
         -5    1    3    3    0  501  0.18556413323E+02 -0.80075365414E+01 -0.32293202699E+03  0.32359796843E+03  0.47000000000E+01 0.  1.
          5    1    4    4  502    0 -0.37115765980E+02 -0.32485990883E+02 -0.18035274448E+03  0.18703508262E+03  0.47000000000E+01 0.  1.
         -5    1    4    4    0  502  0.92043244391E+02 -0.50789286332E+02 -0.67255291172E+03  0.68073564584E+03  0.47000000000E+01 0.  1.
<mgrwt>
<rscale>  0 0.32088144E+03</rscale>
<asrwt>0</asrwt>
<pdfrwt beam="1">  1       21 0.24851183E-02 0.32088144E+03</pdfrwt>
<pdfrwt beam="2">  1       21 0.24516328E+00 0.32088144E+03</pdfrwt>
<totfact> 0.56852985E+04</totfact>
</mgrwt>
</event>
<event>
 8    1  0.9331162E-006  0.2685961E+03  0.7546771E-02  0.1102086E+00
         21   -1    0    0  504  503  0.00000000000E+00  0.00000000000E+00  0.92978820941E+02  0.92978820941E+02  0.00000000000E+00 0.  1.
         21   -1    0    0  503  504 -0.00000000000E+00 -0.00000000000E+00 -0.19397928551E+03  0.19397928551E+03  0.00000000000E+00 0.  1.
         25    2    1    2    0    0  0.46208717185E+02  0.12698329996E+02 -0.38848094401E+02  0.13939461121E+03  0.12500076027E+03 0.  0.
         25    2    1    2    0    0 -0.46208717185E+02 -0.12698329996E+02 -0.62152370164E+02  0.14756349524E+03  0.12496229384E+03 0.  0.
          5    1    3    3  501    0 -0.69685087986E+01  0.51116398390E+02  0.15502342404E+02  0.54072718808E+02  0.47000000000E+01 0. -1.
         -5    1    3    3    0  501  0.53177225984E+02 -0.38418068395E+02 -0.54350436806E+02  0.85321892404E+02  0.47000000000E+01 0. -1.
          5    1    4    4  502    0 -0.80547681052E+02 -0.11670465414E+02 -0.74814018701E+02  0.11064969986E+03  0.47000000000E+01 0.  1.
         -5    1    4    4    0  502  0.34338963867E+02 -0.10278645813E+01  0.12661648537E+02  0.36913795371E+02  0.47000000000E+01 0.  1.
<mgrwt>
<rscale>  0 0.26859609E+03</rscale>
<asrwt>0</asrwt>
<pdfrwt beam="1">  1       21 0.14304434E-01 0.26859609E+03</pdfrwt>
<pdfrwt beam="2">  1       21 0.29842967E-01 0.26859609E+03</pdfrwt>
<totfact> 0.45342193E+05</totfact>
</mgrwt>
</event>
<event>
 8    1  0.9331162E-006  0.6563212E+03  0.7546771E-02  0.9794990E-01
         21   -1    0    0  504  503  0.00000000000E+00  0.00000000000E+00  0.11643712032E+04  0.11643712032E+04  0.00000000000E+00 0. -1.
         21   -1    0    0  503  504 -0.00000000000E+00 -0.00000000000E+00 -0.92487156086E+02  0.92487156086E+02  0.00000000000E+00 0. -1.
         25    2    1    2    0    0 -0.10848994528E+03 -0.10377834283E+03  0.30990580559E+02  0.19779106774E+03  0.12498350981E+03 0.  0.
         25    2    1    2    0    0  0.10848994528E+03  0.10377834283E+03  0.10408934666E+04  0.10590672916E+04  0.12499722655E+03 0.  0.
          5    1    3    3  501    0  0.22240604097E+02  0.35986302292E+01  0.15702581333E+02  0.27861365197E+02  0.47000000000E+01 0.  1.
         -5    1    3    3    0  501 -0.13073054938E+03 -0.10737697306E+03  0.15287999226E+02  0.16992970254E+03  0.47000000000E+01 0.  1.
          5    1    4    4  502    0  0.86616482114E+02  0.11941136457E+03  0.62141945428E+03  0.63870628392E+03  0.47000000000E+01 0. -1.
         -5    1    4    4    0  502  0.21873463168E+02 -0.15633021738E+02  0.41947401230E+03  0.42036100765E+03  0.47000000000E+01 0. -1.
<mgrwt>
<rscale>  0 0.65632121E+03</rscale>
<asrwt>0</asrwt>
<pdfrwt beam="1">  1       21 0.17913402E+00 0.65632121E+03</pdfrwt>
<pdfrwt beam="2">  1       21 0.14228794E-01 0.65632121E+03</pdfrwt>
<totfact> 0.65281077E+03</totfact>
</mgrwt>
</event>
<event>
 8    1  0.9331162E-006  0.3547078E+03  0.7546771E-02  0.1060699E+00
         21   -1    0    0  504  503  0.00000000000E+00  0.00000000000E+00  0.96823729038E+03  0.96823729038E+03  0.00000000000E+00 0. -1.
         21   -1    0    0  503  504 -0.00000000000E+00 -0.00000000000E+00 -0.32486251683E+02  0.32486251683E+02  0.00000000000E+00 0. -1.
         25    2    1    2    0    0 -0.52339502582E+02 -0.90722580113E+02  0.27124548591E+03  0.31649960048E+03  0.12501149309E+03 0.  0.
         25    2    1    2    0    0  0.52339502582E+02  0.90722580113E+02  0.66450555278E+03  0.68422394157E+03  0.12499904990E+03 0.  0.
          5    1    3    3  501    0 -0.61396035865E+02  0.68806576460E+01  0.13552557085E+03  0.14901706957E+03  0.47000000000E+01 0. -1.
         -5    1    3    3    0  501  0.90565332834E+01 -0.97603237759E+02  0.13571991507E+03  0.16748253092E+03  0.47000000000E+01 0. -1.
          5    1    4    4  502    0  0.22400980757E+02  0.11626160969E+03  0.41479193474E+03  0.43138498462E+03  0.47000000000E+01 0.  1.
         -5    1    4    4    0  502  0.29938521824E+02 -0.25539029580E+02  0.24971361804E+03  0.25283895696E+03  0.47000000000E+01 0.  1.
<mgrwt>
<rscale>  0 0.35470777E+03</rscale>
<asrwt>0</asrwt>
<pdfrwt beam="1">  1       21 0.14895956E+00 0.35470777E+03</pdfrwt>
<pdfrwt beam="2">  1       21 0.49978856E-02 0.35470777E+03</pdfrwt>
<totfact> 0.76893431E+04</totfact>
</mgrwt>
</event>
<event>
 8    1  0.9331162E-006  0.2876855E+03  0.7546771E-02  0.1091564E+00
         21   -1    0    0  504  503  0.00000000000E+00  0.00000000000E+00  0.10162760801E+03  0.10162760801E+03  0.00000000000E+00 0.  1.
         21   -1    0    0  503  504 -0.00000000000E+00 -0.00000000000E+00 -0.20359360326E+03  0.20359360326E+03  0.00000000000E+00 0.  1.
         25    2    1    2    0    0 -0.16088411216E+02  0.35425516398E+02  0.12251611653E+02  0.13149021604E+03  0.12500308291E+03 0.  0.
         25    2    1    2    0    0  0.16088411216E+02 -0.35425516398E+02 -0.11421760690E+03  0.17373099524E+03  0.12499197091E+03 0.  0.
          5    1    3    3  501    0  0.51120700789E+02  0.21725634902E+02  0.25784888706E+02  0.61418887540E+02  0.47000000000E+01 0.  1.
         -5    1    3    3    0  501 -0.67209112005E+02  0.13699881496E+02 -0.13533277053E+02  0.70071328497E+02  0.47000000000E+01 0.  1.
          5    1    4    4  502    0 -0.49978804695E+02 -0.14566898739E+02 -0.81851412111E+02  0.97117553111E+02  0.47000000000E+01 0.  1.
         -5    1    4    4    0  502  0.66067215911E+02 -0.20858617659E+02 -0.32366194792E+02  0.76613442125E+02  0.47000000000E+01 0.  1.
<mgrwt>
<rscale>  0 0.28768546E+03</rscale>
<asrwt>0</asrwt>
<pdfrwt beam="1">  1       21 0.15635017E-01 0.28768546E+03</pdfrwt>
<pdfrwt beam="2">  1       21 0.31322093E-01 0.28768546E+03</pdfrwt>
<totfact> 0.34888200E+05</totfact>
</mgrwt>
</event>
<event>
 8    1  0.9331162E-006  0.5755953E+03  0.7546771E-02  0.9957373E-01
         21   -1    0    0  504  503  0.00000000000E+00  0.00000000000E+00  0.16635828937E+03  0.16635828937E+03  0.00000000000E+00 0.  1.
         21   -1    0    0  503  504 -0.00000000000E+00 -0.00000000000E+00 -0.49788613330E+03  0.49788613330E+03  0.00000000000E+00 0.  1.
         25    2    1    2    0    0 -0.21984182869E+03 -0.34527518099E+02 -0.12318605753E+02  0.25553621860E+03  0.12499772725E+03 0.  0.
         25    2    1    2    0    0  0.21984182869E+03  0.34527518099E+02 -0.31920923818E+03  0.40870820407E+03  0.12500111675E+03 0.  0.
          5    1    3    3  501    0 -0.47206498351E+02 -0.63103954087E+02 -0.15525429814E+02  0.80459253532E+02  0.47000000000E+01 0. -1.
         -5    1    3    3    0  501 -0.17263533034E+03  0.28576435988E+02  0.32068240609E+01  0.17507696506E+03  0.47000000000E+01 0. -1.
          5    1    4    4  502    0  0.49568954343E+02  0.27880371019E+02 -0.13433510541E+02  0.58625468256E+02  0.47000000000E+01 0. -1.
         -5    1    4    4    0  502  0.17027287435E+03  0.66471470801E+01 -0.30577572764E+03  0.35008273582E+03  0.47000000000E+01 0. -1.
<mgrwt>
<rscale>  0 0.57559529E+03</rscale>
<asrwt>0</asrwt>
<pdfrwt beam="1">  1       21 0.25593583E-01 0.57559529E+03</pdfrwt>
<pdfrwt beam="2">  1       21 0.76597866E-01 0.57559529E+03</pdfrwt>
<totfact> 0.19278170E+04</totfact>
</mgrwt>
</event>
<event>
 8    1  0.9331162E-006  0.2706772E+03  0.7546771E-02  0.1100893E+00
         21   -1    0    0  504  503  0.00000000000E+00  0.00000000000E+00  0.11990408337E+03  0.11990408337E+03  0.00000000000E+00 0. -1.
         21   -1    0    0  503  504 -0.00000000000E+00 -0.00000000000E+00 -0.15275988414E+03  0.15275988414E+03  0.00000000000E+00 0. -1.
         25    2    1    2    0    0  0.47457929190E+02  0.68073892602E+01  0.37714133597E+01  0.13385823236E+03  0.12492080380E+03 0.  0.
         25    2    1    2    0    0 -0.47457929190E+02 -0.68073892602E+01 -0.36627214127E+02  0.13880573514E+03  0.12500753458E+03 0.  0.
          5    1    3    3  501    0 -0.13397148421E+02 -0.54946134658E+01  0.52582862505E+02  0.54742321765E+02  0.47000000000E+01 0.  1.
         -5    1    3    3    0  501  0.60855077611E+02  0.12302002726E+02 -0.48811449146E+02  0.79115910598E+02  0.47000000000E+01 0.  1.
          5    1    4    4  502    0 -0.60175454962E+02 -0.71396155957E+01 -0.75911879756E+02  0.97245889264E+02  0.47000000000E+01 0. -1.
         -5    1    4    4    0  502  0.12717525772E+02  0.33222633550E+00  0.39284665629E+02  0.41559845881E+02  0.47000000000E+01 0. -1.
<mgrwt>
<rscale>  0 0.27067718E+03</rscale>
<asrwt>0</asrwt>
<pdfrwt beam="1">  1       21 0.18446782E-01 0.27067718E+03</pdfrwt>
<pdfrwt beam="2">  1       21 0.23501521E-01 0.27067718E+03</pdfrwt>
<totfact> 0.45005578E+05</totfact>
</mgrwt>
</event>
<event>
 8    1  0.9331162E-006  0.3155822E+03  0.7546771E-02  0.1077701E+00
         21   -1    0    0  504  503  0.00000000000E+00  0.00000000000E+00  0.63964739869E+03  0.63964739869E+03  0.00000000000E+00 0.  1.
         21   -1    0    0  503  504 -0.00000000000E+00 -0.00000000000E+00 -0.38924627276E+02  0.38924627276E+02  0.00000000000E+00 0.  1.
         25    2    1    2    0    0  0.67685185580E+02  0.48919024772E+02  0.40343013426E+03  0.43053079376E+03  0.12500614311E+03 0.  0.
         25    2    1    2    0    0 -0.67685185580E+02 -0.48919024772E+02  0.19729263715E+03  0.24804123221E+03  0.12500285144E+03 0.  0.
          5    1    3    3  501    0  0.21573402644E+02 -0.38778551543E+02  0.19009843610E+03  0.19526569891E+03  0.47000000000E+01 0.  1.
         -5    1    3    3    0  501  0.46111782936E+02  0.87697576315E+02  0.21333169816E+03  0.23526509485E+03  0.47000000000E+01 0.  1.
          5    1    4    4  502    0 -0.24212090200E+02 -0.85830271515E+02  0.14625821447E+03  0.17136690497E+03  0.47000000000E+01 0. -1.
         -5    1    4    4    0  502 -0.43473095380E+02  0.36911246743E+02  0.51034422685E+02  0.76674327234E+02  0.47000000000E+01 0. -1.
<mgrwt>
<rscale>  0 0.31558223E+03</rscale>
<asrwt>0</asrwt>
<pdfrwt beam="1">  1       21 0.98407284E-01 0.31558223E+03</pdfrwt>
<pdfrwt beam="2">  1       21 0.59884047E-02 0.31558223E+03</pdfrwt>
<totfact> 0.16242239E+05</totfact>
</mgrwt>
</event>
<event>
 8    1  0.9331162E-006  0.2660261E+03  0.7546771E-02  0.1103576E+00
         21   -1    0    0  504  503  0.00000000000E+00  0.00000000000E+00  0.27764261779E+03  0.27764261779E+03  0.00000000000E+00 0. -1.
         21   -1    0    0  503  504 -0.00000000000E+00 -0.00000000000E+00 -0.63723904392E+02  0.63723904392E+02  0.00000000000E+00 0. -1.
         25    2    1    2    0    0 -0.41471114148E+02 -0.65123561901E+01  0.12937725088E+03  0.18473124780E+03  0.12499958710E+03 0.  0.
         25    2    1    2    0    0  0.41471114148E+02  0.65123561901E+01  0.84541462517E+02  0.15663527438E+03  0.12500034482E+03 0.  0.
          5    1    3    3  501    0 -0.34717962080E+00 -0.31238600905E+02  0.13269370839E+03  0.13640264282E+03  0.47000000000E+01 0. -1.
         -5    1    3    3    0  501 -0.41123934528E+02  0.24726244715E+02 -0.33164575158E+01  0.48328604979E+02  0.47000000000E+01 0. -1.
          5    1    4    4  502    0  0.57290677698E+02 -0.31099813488E+02  0.31089663103E+01  0.65430694797E+02  0.47000000000E+01 0. -1.
         -5    1    4    4    0  502 -0.15819563550E+02  0.37612169678E+02  0.81432496207E+02  0.91204579585E+02  0.47000000000E+01 0. -1.
<mgrwt>
<rscale>  0 0.26602610E+03</rscale>
<asrwt>0</asrwt>
<pdfrwt beam="1">  1       21 0.42714248E-01 0.26602610E+03</pdfrwt>
<pdfrwt beam="2">  1       21 0.98036778E-02 0.26602610E+03</pdfrwt>
<totfact> 0.43628654E+05</totfact>
</mgrwt>
</event>
<event>
 8    1  0.9331162E-006  0.3375146E+03  0.7546771E-02  0.1067859E+00
         21   -1    0    0  504  503  0.00000000000E+00  0.00000000000E+00  0.82124594580E+02  0.82124594580E+02  0.00000000000E+00 0. -1.
         21   -1    0    0  503  504 -0.00000000000E+00 -0.00000000000E+00 -0.34677828809E+03  0.34677828809E+03  0.00000000000E+00 0. -1.
         25    2    1    2    0    0 -0.12751238261E+02 -0.32427481091E+02 -0.26943379868E+03  0.29904903258E+03  0.12498646489E+03 0.  0.
         25    2    1    2    0    0  0.12751238261E+02  0.32427481091E+02  0.47801051772E+01  0.12985385009E+03  0.12500014948E+03 0.  0.
          5    1    3    3  501    0  0.17627201782E+02 -0.40745220977E+02 -0.22356400752E+02  0.49927847237E+02  0.47000000000E+01 0.  1.
         -5    1    3    3    0  501 -0.30378440043E+02  0.83177398867E+01 -0.24707739793E+03  0.24912118534E+03  0.47000000000E+01 0.  1.
          5    1    4    4  502    0  0.43042397410E+02 -0.34614963854E+02 -0.41900006527E+01  0.55592173936E+02  0.47000000000E+01 0.  1.
         -5    1    4    4    0  502 -0.30291159149E+02  0.67042444945E+02  0.89701058298E+01  0.74261676155E+02  0.47000000000E+01 0.  1.
<mgrwt>
<rscale>  0 0.33751460E+03</rscale>
<asrwt>0</asrwt>
<pdfrwt beam="1">  1       21 0.12634553E-01 0.33751460E+03</pdfrwt>
<pdfrwt beam="2">  1       21 0.53350506E-01 0.33751460E+03</pdfrwt>
<totfact> 0.17111345E+05</totfact>
</mgrwt>
</event>
<event>
 8    1  0.9331162E-006  0.2962463E+03  0.7546771E-02  0.1087132E+00
         21   -1    0    0  504  503  0.00000000000E+00  0.00000000000E+00  0.13260936312E+03  0.13260936312E+03  0.00000000000E+00 0.  1.
         21   -1    0    0  503  504 -0.00000000000E+00 -0.00000000000E+00 -0.16545188660E+03  0.16545188660E+03  0.00000000000E+00 0.  1.
         25    2    1    2    0    0 -0.45828835220E+02 -0.58447116858E+02  0.12043565901E+02  0.14588960397E+03  0.12498952541E+03 0.  0.
         25    2    1    2    0    0  0.45828835220E+02  0.58447116858E+02 -0.44886089381E+02  0.15217164575E+03  0.12500040458E+03 0.  0.
          5    1    3    3  501    0  0.31201749166E+01 -0.78436335178E+02  0.37380354958E+02  0.87071092243E+02  0.47000000000E+01 0.  1.
         -5    1    3    3    0  501 -0.48949010136E+02  0.19989218321E+02 -0.25336789057E+02  0.58818511730E+02  0.47000000000E+01 0.  1.
          5    1    4    4  502    0 -0.13898611392E+02 -0.27729934663E+02  0.11023189747E+02  0.33252389196E+02  0.47000000000E+01 0.  1.
         -5    1    4    4    0  502  0.59727446611E+02  0.86177051520E+02 -0.55909279128E+02  0.11891925656E+03  0.47000000000E+01 0.  1.
<mgrwt>
<rscale>  0 0.29624631E+03</rscale>
<asrwt>0</asrwt>
<pdfrwt beam="1">  1       21 0.20401440E-01 0.29624631E+03</pdfrwt>
<pdfrwt beam="2">  1       21 0.25454136E-01 0.29624631E+03</pdfrwt>
<totfact> 0.31798448E+05</totfact>
</mgrwt>
</event>
<event>
 8    1  0.9331162E-006  0.2854178E+03  0.7546771E-02  0.1092766E+00
         21   -1    0    0  504  503  0.00000000000E+00  0.00000000000E+00  0.22671076510E+03  0.22671076510E+03  0.00000000000E+00 0.  1.
         21   -1    0    0  503  504 -0.00000000000E+00 -0.00000000000E+00 -0.89831762902E+02  0.89831762902E+02  0.00000000000E+00 0.  1.
         25    2    1    2    0    0 -0.66285914833E+02 -0.15741324471E+02  0.57361325032E+02  0.15348216404E+03  0.12499936506E+03 0.  0.
         25    2    1    2    0    0  0.66285914833E+02  0.15741324471E+02  0.79517677162E+02  0.16306036396E+03  0.12499603799E+03 0.  0.
          5    1    3    3  501    0  0.31018265103E+02 -0.16450862519E+00 -0.11233845773E+02  0.33323402047E+02  0.47000000000E+01 0.  1.
         -5    1    3    3    0  501 -0.97304179936E+02 -0.15576815846E+02  0.68595170805E+02  0.12015876199E+03  0.47000000000E+01 0.  1.
          5    1    4    4  502    0  0.10065333260E+03 -0.28846402220E+01  0.43827542265E+02  0.10991977972E+03  0.47000000000E+01 0. -1.
         -5    1    4    4    0  502 -0.34367417767E+02  0.18625964693E+02  0.35690134896E+02  0.53140584243E+02  0.47000000000E+01 0. -1.
<mgrwt>
<rscale>  0 0.28541778E+03</rscale>
<asrwt>0</asrwt>
<pdfrwt beam="1">  1       21 0.34878579E-01 0.28541778E+03</pdfrwt>
<pdfrwt beam="2">  1       21 0.13820271E-01 0.28541778E+03</pdfrwt>
<totfact> 0.35336268E+05</totfact>
</mgrwt>
</event>
<event>
 8    1  0.9331162E-006  0.2896609E+03  0.7546771E-02  0.1090526E+00
         21   -1    0    0  504  503  0.00000000000E+00  0.00000000000E+00  0.17229566953E+03  0.17229566953E+03  0.00000000000E+00 0.  1.
         21   -1    0    0  503  504 -0.00000000000E+00 -0.00000000000E+00 -0.12174338261E+03  0.12174338261E+03  0.00000000000E+00 0.  1.
         25    2    1    2    0    0  0.15418940273E+02 -0.57969560240E+02  0.67794768803E+02  0.15432393653E+03  0.12498613153E+03 0.  0.
         25    2    1    2    0    0 -0.15418940273E+02  0.57969560240E+02 -0.17242481887E+02  0.13971511562E+03  0.12499918686E+03 0.  0.
          5    1    3    3  501    0  0.88492974797E+01  0.36242523733E+02 -0.62737808555E+00  0.37607368902E+02  0.47000000000E+01 0. -1.
         -5    1    3    3    0  501  0.65696427931E+01 -0.94212083973E+02  0.68422146889E+02  0.11671656762E+03  0.47000000000E+01 0. -1.
          5    1    4    4  502    0 -0.58474647934E+01 -0.12635293041E+02  0.43533659193E+02  0.45946849266E+02  0.47000000000E+01 0.  1.
         -5    1    4    4    0  502 -0.95714754794E+01  0.70604853281E+02 -0.60776141080E+02  0.93768266350E+02  0.47000000000E+01 0.  1.
<mgrwt>
<rscale>  0 0.28966089E+03</rscale>
<asrwt>0</asrwt>
<pdfrwt beam="1">  1       21 0.26507026E-01 0.28966089E+03</pdfrwt>
<pdfrwt beam="2">  1       21 0.18729751E-01 0.28966089E+03</pdfrwt>
<totfact> 0.34574643E+05</totfact>
</mgrwt>
</event>
<event>
 8    1  0.9331162E-006  0.4300116E+03  0.7546771E-02  0.1033856E+00
         21   -1    0    0  504  503  0.00000000000E+00  0.00000000000E+00  0.41146279589E+03  0.41146279589E+03  0.00000000000E+00 0. -1.
         21   -1    0    0  503  504 -0.00000000000E+00 -0.00000000000E+00 -0.11234912740E+03  0.11234912740E+03  0.00000000000E+00 0. -1.
         25    2    1    2    0    0 -0.11472733097E+03 -0.39651675767E+02  0.30299786926E+03  0.34952466761E+03  0.12500067451E+03 0.  0.
         25    2    1    2    0    0  0.11472733097E+03  0.39651675767E+02 -0.38842007710E+01  0.17428725568E+03  0.12500537834E+03 0.  0.
          5    1    3    3  501    0 -0.11022149410E+03 -0.54789876112E+02  0.30847519884E+03  0.33215921873E+03  0.47000000000E+01 0. -1.
         -5    1    3    3    0  501 -0.45058368663E+01  0.15138200344E+02 -0.54773295777E+01  0.17365448881E+02  0.47000000000E+01 0. -1.
          5    1    4    4  502    0  0.47878132133E+02  0.65446207553E+02 -0.43642821229E+02  0.92207957706E+02  0.47000000000E+01 0.  1.
         -5    1    4    4    0  502  0.66849198835E+02 -0.25794531786E+02  0.39758620458E+02  0.82079297972E+02  0.47000000000E+01 0.  1.
<mgrwt>
<rscale>  0 0.43001156E+03</rscale>
<asrwt>0</asrwt>
<pdfrwt beam="1">  1       21 0.63301968E-01 0.43001156E+03</pdfrwt>
<pdfrwt beam="2">  1       21 0.17284481E-01 0.43001156E+03</pdfrwt>
<totfact> 0.64858931E+04</totfact>
</mgrwt>
</event>
<event>
 8    1  0.9331162E-006  0.3024830E+03  0.7546771E-02  0.1084006E+00
         21   -1    0    0  504  503  0.00000000000E+00  0.00000000000E+00  0.23114626526E+03  0.23114626526E+03  0.00000000000E+00 0. -1.
         21   -1    0    0  503  504 -0.00000000000E+00 -0.00000000000E+00 -0.98958918337E+02  0.98958918337E+02  0.00000000000E+00 0. -1.
         25    2    1    2    0    0 -0.69664735896E+02 -0.18384454854E+02  0.11562816871E+03  0.18487733111E+03  0.12497435958E+03 0.  0.
         25    2    1    2    0    0  0.69664735896E+02  0.18384454854E+02  0.16559178213E+02  0.14522785249E+03  0.12500303655E+03 0.  0.
          5    1    3    3  501    0 -0.24488838462E+02  0.40231533380E+02 -0.21503990111E+00  0.47333030005E+02  0.47000000000E+01 0. -1.
         -5    1    3    3    0  501 -0.45175897434E+02 -0.58615988234E+02  0.11584320861E+03  0.13754430110E+03  0.47000000000E+01 0. -1.
          5    1    4    4  502    0 -0.82882965570E+01 -0.41210200919E+02 -0.10003271712E+02  0.43464145736E+02  0.47000000000E+01 0. -1.
         -5    1    4    4    0  502  0.77953032453E+02  0.59594655773E+02  0.26562449925E+02  0.10176370675E+03  0.47000000000E+01 0. -1.
<mgrwt>
<rscale>  0 0.30248295E+03</rscale>
<asrwt>0</asrwt>
<pdfrwt beam="1">  1       21 0.35560964E-01 0.30248295E+03</pdfrwt>
<pdfrwt beam="2">  1       21 0.15224449E-01 0.30248295E+03</pdfrwt>
<totfact> 0.28369011E+05</totfact>
</mgrwt>
</event>
<event>
 8    1  0.9331162E-006  0.3433089E+03  0.7546771E-02  0.1065395E+00
         21   -1    0    0  504  503  0.00000000000E+00  0.00000000000E+00  0.59064373891E+03  0.59064373891E+03  0.00000000000E+00 0.  1.
         21   -1    0    0  503  504 -0.00000000000E+00 -0.00000000000E+00 -0.49886659999E+02  0.49886659999E+02  0.00000000000E+00 0.  1.
         25    2    1    2    0    0 -0.10697258260E+03 -0.43728515770E+02  0.22937344852E+03  0.28564471759E+03  0.12500163711E+03 0.  0.
         25    2    1    2    0    0  0.10697258260E+03  0.43728515770E+02  0.31138363039E+03  0.35488568132E+03  0.12501505913E+03 0.  0.
          5    1    3    3  501    0 -0.86166301918E+02 -0.35436284489E+02  0.24210523597E+03  0.25945596376E+03  0.47000000000E+01 0.  1.
         -5    1    3    3    0  501 -0.20806280684E+02 -0.82922312806E+01 -0.12731787452E+02  0.26188753831E+02  0.47000000000E+01 0.  1.
          5    1    4    4  502    0  0.10901818104E+03  0.78019471174E+02  0.22724628898E+03  0.26388438289E+03  0.47000000000E+01 0. -1.
         -5    1    4    4    0  502 -0.20455984398E+01 -0.34290955405E+02  0.84137341414E+02  0.91001298429E+02  0.47000000000E+01 0. -1.
<mgrwt>
<rscale>  0 0.34330886E+03</rscale>
<asrwt>0</asrwt>
<pdfrwt beam="1">  1       21 0.90868263E-01 0.34330886E+03</pdfrwt>
<pdfrwt beam="2">  1       21 0.76748712E-02 0.34330886E+03</pdfrwt>
<totfact> 0.12645893E+05</totfact>
</mgrwt>
</event>
<event>
 8    1  0.9331162E-006  0.3601851E+03  0.7546771E-02  0.1058511E+00
         21   -1    0    0  504  503  0.00000000000E+00  0.00000000000E+00  0.36203827422E+02  0.36203827422E+02  0.00000000000E+00 0.  1.
         21   -1    0    0  503  504 -0.00000000000E+00 -0.00000000000E+00 -0.89585339154E+03  0.89585339154E+03  0.00000000000E+00 0.  1.
         25    2    1    2    0    0 -0.91704533998E+02 -0.15657726348E+02 -0.19617489452E+03  0.25053094820E+03  0.12500512317E+03 0.  0.
         25    2    1    2    0    0  0.91704533998E+02  0.15657726348E+02 -0.66347466960E+03  0.68152627076E+03  0.12499813833E+03 0.  0.
          5    1    3    3  501    0  0.15408469623E+02  0.22902875320E+02 -0.56950121071E+01  0.28574215596E+02  0.47000000000E+01 0.  1.
         -5    1    3    3    0  501 -0.10711300362E+03 -0.38560601668E+02 -0.19047988241E+03  0.22195673260E+03  0.47000000000E+01 0.  1.
          5    1    4    4  502    0  0.54005439293E+02 -0.17959084505E+02 -0.95364507248E+02  0.11115572604E+03  0.47000000000E+01 0. -1.
         -5    1    4    4    0  502  0.37699094705E+02  0.33616810853E+02 -0.56811016235E+03  0.57037054472E+03  0.47000000000E+01 0. -1.
<mgrwt>
<rscale>  0 0.36018507E+03</rscale>
<asrwt>0</asrwt>
<pdfrwt beam="1">  1       21 0.55698204E-02 0.36018507E+03</pdfrwt>
<pdfrwt beam="2">  1       21 0.13782358E+00 0.36018507E+03</pdfrwt>
<totfact> 0.78323001E+04</totfact>
</mgrwt>
</event>
<event>
 8    1  0.9331162E-006  0.4395343E+03  0.7546771E-02  0.1030890E+00
         21   -1    0    0  504  503  0.00000000000E+00  0.00000000000E+00  0.33705556683E+03  0.33705556683E+03  0.00000000000E+00 0.  1.
         21   -1    0    0  503  504 -0.00000000000E+00 -0.00000000000E+00 -0.14329268837E+03  0.14329268837E+03  0.00000000000E+00 0.  1.
         25    2    1    2    0    0  0.14503729515E+03 -0.10762728753E+03  0.10484317765E+03  0.24338211294E+03  0.12499324379E+03 0.  0.
         25    2    1    2    0    0 -0.14503729515E+03  0.10762728753E+03  0.88919700799E+02  0.23696614226E+03  0.12500715734E+03 0.  0.
          5    1    3    3  501    0  0.33953283749E+02 -0.10228379189E+03  0.59441128746E+02  0.12316711146E+03  0.47000000000E+01 0. -1.
         -5    1    3    3    0  501  0.11108401140E+03 -0.53434956414E+01  0.45402048907E+02  0.12021500147E+03  0.47000000000E+01 0. -1.
          5    1    4    4  502    0 -0.96938082360E+02  0.81077674867E+02  0.11943353370E+03  0.17394550913E+03  0.47000000000E+01 0.  1.
         -5    1    4    4    0  502 -0.48099212786E+02  0.26549612660E+02 -0.30513832898E+02  0.63020633138E+02  0.47000000000E+01 0.  1.
<mgrwt>
<rscale>  0 0.43953429E+03</rscale>
<asrwt>0</asrwt>
<pdfrwt beam="1">  1       21 0.51854702E-01 0.43953429E+03</pdfrwt>
<pdfrwt beam="2">  1       21 0.22045029E-01 0.43953429E+03</pdfrwt>
<totfact> 0.62925029E+04</totfact>
</mgrwt>
</event>
<event>
 8    1  0.9331162E-006  0.5881449E+03  0.7546771E-02  0.9930312E-01
         21   -1    0    0  504  503  0.00000000000E+00  0.00000000000E+00  0.18766208769E+04  0.18766208769E+04  0.00000000000E+00 0.  1.
         21   -1    0    0  503  504 -0.00000000000E+00 -0.00000000000E+00 -0.46082080541E+02  0.46082080541E+02  0.00000000000E+00 0.  1.
         25    2    1    2    0    0 -0.14265937497E+03  0.11149676159E+03  0.15531202395E+04  0.15686269218E+04  0.12499886633E+03 0.  0.
         25    2    1    2    0    0  0.14265937497E+03 -0.11149676159E+03  0.27741855688E+03  0.35407603558E+03  0.12500223262E+03 0.  0.
          5    1    3    3  501    0 -0.73171165851E+02  0.10292859486E+03  0.61296881550E+03  0.62586034698E+03  0.47000000000E+01 0.  1.
         -5    1    3    3    0  501 -0.69488209119E+02  0.85681667301E+01  0.94015142396E+03  0.94276657485E+03  0.47000000000E+01 0.  1.
          5    1    4    4  502    0  0.83027416483E+02 -0.53601466644E+02  0.24590904800E+03  0.26506606535E+03  0.47000000000E+01 0.  1.
         -5    1    4    4    0  502  0.59631958486E+02 -0.57895294949E+02  0.31509508879E+02  0.89009970228E+02  0.47000000000E+01 0.  1.
<mgrwt>
<rscale>  0 0.58814486E+03</rscale>
<asrwt>0</asrwt>
<pdfrwt beam="1">  1       21 0.28871085E+00 0.58814486E+03</pdfrwt>
<pdfrwt beam="2">  1       21 0.70895523E-02 0.58814486E+03</pdfrwt>
<totfact> 0.46330624E+03</totfact>
</mgrwt>
</event>
<event>
 8    1  0.9331162E-006  0.2639686E+03  0.7546771E-02  0.1104782E+00
         21   -1    0    0  504  503  0.00000000000E+00  0.00000000000E+00  0.53238778593E+03  0.53238778593E+03  0.00000000000E+00 0. -1.
         21   -1    0    0  503  504 -0.00000000000E+00 -0.00000000000E+00 -0.32720234025E+02  0.32720234025E+02  0.00000000000E+00 0. -1.
         25    2    1    2    0    0 -0.41356994733E+02  0.80118809246E+01  0.24055108683E+03  0.27434889600E+03  0.12501159992E+03 0.  0.
         25    2    1    2    0    0  0.41356994733E+02 -0.80118809246E+01  0.25911646508E+03  0.29075912396E+03  0.12499973775E+03 0.  0.
          5    1    3    3  501    0 -0.49342137221E+02 -0.30613416707E+02  0.22376878693E+03  0.23122799959E+03  0.47000000000E+01 0. -1.
         -5    1    3    3    0  501  0.79851424887E+01  0.38625297632E+02  0.16782299893E+02  0.43120896412E+02  0.47000000000E+01 0. -1.
          5    1    4    4  502    0  0.28039466578E+02  0.17000758934E+02  0.32495505630E+01  0.33284937572E+02  0.47000000000E+01 0.  1.
         -5    1    4    4    0  502  0.13317528154E+02 -0.25012639859E+02  0.25586691452E+03  0.25747418638E+03  0.47000000000E+01 0.  1.
<mgrwt>
<rscale>  0 0.26396858E+03</rscale>
<asrwt>0</asrwt>
<pdfrwt beam="1">  1       21 0.81905807E-01 0.26396858E+03</pdfrwt>
<pdfrwt beam="2">  1       21 0.50338825E-02 0.26396858E+03</pdfrwt>
<totfact> 0.34051266E+05</totfact>
</mgrwt>
</event>
<event>
 8    1  0.9331162E-006  0.2870162E+03  0.7546771E-02  0.1091917E+00
         21   -1    0    0  504  503  0.00000000000E+00  0.00000000000E+00  0.68333879183E+02  0.68333879183E+02  0.00000000000E+00 0. -1.
         21   -1    0    0  503  504 -0.00000000000E+00 -0.00000000000E+00 -0.30138170952E+03  0.30138170952E+03  0.00000000000E+00 0. -1.
         25    2    1    2    0    0 -0.41700601982E+02 -0.56843072270E+02 -0.11737118761E+03  0.18538945077E+03  0.12499271060E+03 0.  0.
         25    2    1    2    0    0  0.41700601982E+02  0.56843072270E+02 -0.11567664273E+03  0.18432613793E+03  0.12499985753E+03 0.  0.
          5    1    3    3  501    0 -0.78953060243E+02 -0.52345239492E+02 -0.11267951810E+03  0.14728331073E+03  0.47000000000E+01 0. -1.
         -5    1    3    3    0  501  0.37252458261E+02 -0.44978327779E+01 -0.46916695130E+01  0.38106140043E+02  0.47000000000E+01 0. -1.
          5    1    4    4  502    0  0.77401014402E+02  0.45507516590E+01 -0.46961972705E+02  0.90769726514E+02  0.47000000000E+01 0.  1.
         -5    1    4    4    0  502 -0.35700412420E+02  0.52292320611E+02 -0.68714670021E+02  0.93556411420E+02  0.47000000000E+01 0.  1.
<mgrwt>
<rscale>  0 0.28701625E+03</rscale>
<asrwt>0</asrwt>
<pdfrwt beam="1">  1       21 0.10512904E-01 0.28701625E+03</pdfrwt>
<pdfrwt beam="2">  1       21 0.46366417E-01 0.28701625E+03</pdfrwt>
<totfact> 0.32377206E+05</totfact>
</mgrwt>
</event>
<event>
 8    1  0.9331162E-006  0.2679587E+03  0.7546771E-02  0.1102454E+00
         21   -1    0    0  504  503  0.00000000000E+00  0.00000000000E+00  0.10773882312E+02  0.10773882312E+02  0.00000000000E+00 0. -1.
         21   -1    0    0  503  504 -0.00000000000E+00 -0.00000000000E+00 -0.16661095991E+04  0.16661095991E+04  0.00000000000E+00 0. -1.
         25    2    1    2    0    0 -0.33371931043E+01 -0.14299584579E+02 -0.54028923233E+03  0.55475509181E+03  0.12500056936E+03 0.  0.
         25    2    1    2    0    0  0.33371931043E+01  0.14299584579E+02 -0.11150464845E+04  0.11221283896E+04  0.12501138056E+03 0.  0.
          5    1    3    3  501    0  0.47059325667E+02  0.23378814651E+02 -0.14170157112E+03  0.15120375116E+03  0.47000000000E+01 0. -1.
         -5    1    3    3    0  501 -0.50396518772E+02 -0.37678399231E+02 -0.39858766120E+03  0.40355134064E+03  0.47000000000E+01 0. -1.
          5    1    4    4  502    0 -0.47862370965E+01 -0.66869442037E+01 -0.31317612131E+01  0.99760321082E+01  0.47000000000E+01 0.  1.
         -5    1    4    4    0  502  0.81234302008E+01  0.20986528783E+02 -0.11119147233E+04  0.11121523575E+04  0.47000000000E+01 0.  1.
<mgrwt>
<rscale>  0 0.26795872E+03</rscale>
<asrwt>0</asrwt>
<pdfrwt beam="1">  1       21 0.16575219E-02 0.26795872E+03</pdfrwt>
<pdfrwt beam="2">  1       21 0.25632431E+00 0.26795872E+03</pdfrwt>
<totfact> 0.97252754E+04</totfact>
</mgrwt>
</event>
<event>
 8    1  0.9331162E-006  0.2754088E+03  0.7546771E-02  0.1098223E+00
         21   -1    0    0  504  503  0.00000000000E+00  0.00000000000E+00  0.54136478021E+03  0.54136478021E+03  0.00000000000E+00 0. -1.
         21   -1    0    0  503  504 -0.00000000000E+00 -0.00000000000E+00 -0.35027219560E+02  0.35027219560E+02  0.00000000000E+00 0. -1.
         25    2    1    2    0    0  0.42736346197E+02 -0.14206795737E+01  0.17187188878E+03  0.21679141392E+03  0.12502062781E+03 0.  0.
         25    2    1    2    0    0 -0.42736346197E+02  0.14206795737E+01  0.33446567186E+03  0.35960058585E+03  0.12496752406E+03 0.  0.
          5    1    3    3  501    0  0.65803598090E+02 -0.46804716552E+02  0.10970903386E+03  0.13630464821E+03  0.47000000000E+01 0. -1.
         -5    1    3    3    0  501 -0.23067251894E+02  0.45384036978E+02  0.62162854919E+02  0.80486765707E+02  0.47000000000E+01 0. -1.
          5    1    4    4  502    0  0.42433305670E+02  0.15904061570E+02  0.11452266003E+03  0.12325199498E+03  0.47000000000E+01 0.  1.
         -5    1    4    4    0  502 -0.85169651866E+02 -0.14483381996E+02  0.21994301183E+03  0.23634859087E+03  0.47000000000E+01 0.  1.
<mgrwt>
<rscale>  0 0.27540881E+03</rscale>
<asrwt>0</asrwt>
<pdfrwt beam="1">  1       21 0.83286883E-01 0.27540881E+03</pdfrwt>
<pdfrwt beam="2">  1       21 0.53888034E-02 0.27540881E+03</pdfrwt>
<totfact> 0.29086948E+05</totfact>
</mgrwt>
</event>
<event>
 8    1  0.9331162E-006  0.3039437E+03  0.7546771E-02  0.1083286E+00
         21   -1    0    0  504  503  0.00000000000E+00  0.00000000000E+00  0.24873454408E+03  0.24873454408E+03  0.00000000000E+00 0. -1.
         21   -1    0    0  503  504 -0.00000000000E+00 -0.00000000000E+00 -0.92851767164E+02  0.92851767164E+02  0.00000000000E+00 0. -1.
         25    2    1    2    0    0 -0.60046978753E+02  0.54382131549E+02  0.44052773582E+02  0.15534025830E+03  0.12500757217E+03 0.  0.
         25    2    1    2    0    0  0.60046978753E+02 -0.54382131549E+02  0.11183000333E+03  0.18624605295E+03  0.12497434418E+03 0.  0.
          5    1    3    3  501    0  0.20039083950E+02  0.33386939048E+02  0.59228205049E+02  0.71037475025E+02  0.47000000000E+01 0.  1.
         -5    1    3    3    0  501 -0.80086062704E+02  0.20995192502E+02 -0.15175431467E+02  0.84302783274E+02  0.47000000000E+01 0.  1.
          5    1    4    4  502    0 -0.76461626851E+01  0.89153223390E+01  0.90042773522E+02  0.90927101789E+02  0.47000000000E+01 0. -1.
         -5    1    4    4    0  502  0.67693141438E+02 -0.63297453888E+02  0.21787229812E+02  0.95318951156E+02  0.47000000000E+01 0. -1.
<mgrwt>
<rscale>  0 0.30394369E+03</rscale>
<asrwt>0</asrwt>
<pdfrwt beam="1">  1       21 0.38266853E-01 0.30394369E+03</pdfrwt>
<pdfrwt beam="2">  1       21 0.14284887E-01 0.30394369E+03</pdfrwt>
<totfact> 0.27493233E+05</totfact>
</mgrwt>
</event>
<event>
 8    1  0.9331162E-006  0.3999644E+03  0.7546771E-02  0.1043792E+00
         21   -1    0    0  504  503  0.00000000000E+00  0.00000000000E+00  0.13141493621E+03  0.13141493621E+03  0.00000000000E+00 0. -1.
         21   -1    0    0  503  504 -0.00000000000E+00 -0.00000000000E+00 -0.30432530113E+03  0.30432530113E+03  0.00000000000E+00 0. -1.
         25    2    1    2    0    0 -0.78067398317E+02 -0.70152658671E+02 -0.21234420969E+03  0.26782949019E+03  0.12500663274E+03 0.  0.
         25    2    1    2    0    0  0.78067398317E+02  0.70152658671E+02  0.39433844769E+02  0.16791074715E+03  0.12499230655E+03 0.  0.
          5    1    3    3  501    0  0.23785194215E+02  0.71413223306E+01 -0.75961299835E+01  0.26391762715E+02  0.47000000000E+01 0.  1.
         -5    1    3    3    0  501 -0.10185259253E+03 -0.77293981001E+02 -0.20474807971E+03  0.24143772748E+03  0.47000000000E+01 0.  1.
          5    1    4    4  502    0  0.80186669424E+02 -0.90086737600E+01  0.36068450956E+02  0.88510345783E+02  0.47000000000E+01 0. -1.
         -5    1    4    4    0  502 -0.21192711070E+01  0.79161332431E+02  0.33653938132E+01  0.79400401370E+02  0.47000000000E+01 0. -1.
<mgrwt>
<rscale>  0 0.39996445E+03</rscale>
<asrwt>0</asrwt>
<pdfrwt beam="1">  1       21 0.20217683E-01 0.39996445E+03</pdfrwt>
<pdfrwt beam="2">  1       21 0.46819276E-01 0.39996445E+03</pdfrwt>
<totfact> 0.92956196E+04</totfact>
</mgrwt>
</event>
<event>
 8    1  0.9331162E-006  0.2872205E+03  0.7546771E-02  0.1091809E+00
         21   -1    0    0  504  503  0.00000000000E+00  0.00000000000E+00  0.57811789618E+03  0.57811789618E+03  0.00000000000E+00 0. -1.
         21   -1    0    0  503  504 -0.00000000000E+00 -0.00000000000E+00 -0.35674213136E+02  0.35674213136E+02  0.00000000000E+00 0. -1.
         25    2    1    2    0    0 -0.59245510006E+02 -0.24257369214E+01  0.35350595751E+03  0.37961572453E+03  0.12500288662E+03 0.  0.
         25    2    1    2    0    0  0.59245510006E+02  0.24257369214E+01  0.18893772553E+03  0.23417638478E+03  0.12500080161E+03 0.  0.
          5    1    3    3  501    0  0.29113090957E+02 -0.33389412606E+02  0.10867734248E+03  0.11745330863E+03  0.47000000000E+01 0. -1.
         -5    1    3    3    0  501 -0.88358600962E+02  0.30963675685E+02  0.24482861503E+03  0.26216241591E+03  0.47000000000E+01 0. -1.
          5    1    4    4  502    0  0.15633068044E+02  0.31812227945E+01 -0.16902515089E+02  0.23712823773E+02  0.47000000000E+01 0. -1.
         -5    1    4    4    0  502  0.43612441962E+02 -0.75548587310E+00  0.20584024062E+03  0.21046356101E+03  0.47000000000E+01 0. -1.
<mgrwt>
<rscale>  0 0.28722048E+03</rscale>
<asrwt>0</asrwt>
<pdfrwt beam="1">  1       21 0.88941208E-01 0.28722048E+03</pdfrwt>
<pdfrwt beam="2">  1       21 0.54883409E-02 0.28722048E+03</pdfrwt>
<totfact> 0.24140081E+05</totfact>
</mgrwt>
</event>
<event>
 8    1  0.9331162E-006  0.3233784E+03  0.7546771E-02  0.1074105E+00
         21   -1    0    0  504  503  0.00000000000E+00  0.00000000000E+00  0.79488321894E+02  0.79488321894E+02  0.00000000000E+00 0.  1.
         21   -1    0    0  503  504 -0.00000000000E+00 -0.00000000000E+00 -0.32889601703E+03  0.32889601703E+03  0.00000000000E+00 0.  1.
         25    2    1    2    0    0  0.37690835233E+02  0.87619991865E+02 -0.77115970415E+02  0.17512853506E+03  0.12500107546E+03 0.  0.
         25    2    1    2    0    0 -0.37690835233E+02 -0.87619991865E+02 -0.17229172472E+03  0.23325580386E+03  0.12500387831E+03 0.  0.
          5    1    3    3  501    0  0.16188231407E+01  0.97628786154E+02 -0.92313482597E+02  0.13445396812E+03  0.47000000000E+01 0. -1.
         -5    1    3    3    0  501  0.36072012092E+02 -0.10008794289E+02  0.15197512182E+02  0.40674566943E+02  0.47000000000E+01 0. -1.
          5    1    4    4  502    0 -0.49749020053E+02 -0.92278252523E+02 -0.61539943382E+02  0.12165317717E+03  0.47000000000E+01 0.  1.
         -5    1    4    4    0  502  0.12058184820E+02  0.46582606575E+01 -0.11075178134E+03  0.11160262669E+03  0.47000000000E+01 0.  1.
<mgrwt>
<rscale>  0 0.32337837E+03</rscale>
<asrwt>0</asrwt>
<pdfrwt beam="1">  1       21 0.12228973E-01 0.32337837E+03</pdfrwt>
<pdfrwt beam="2">  1       21 0.50599388E-01 0.32337837E+03</pdfrwt>
<totfact> 0.20377917E+05</totfact>
</mgrwt>
</event>
<event>
 8    1  0.9331162E-006  0.3256481E+03  0.7546771E-02  0.1073079E+00
         21   -1    0    0  504  503  0.00000000000E+00  0.00000000000E+00  0.15670307156E+03  0.15670307156E+03  0.00000000000E+00 0. -1.
         21   -1    0    0  503  504 -0.00000000000E+00 -0.00000000000E+00 -0.16918416925E+03  0.16918416925E+03  0.00000000000E+00 0. -1.
         25    2    1    2    0    0 -0.18028394176E+02 -0.74484522449E+02  0.64663070376E+02  0.16020310834E+03  0.12494301169E+03 0.  0.
         25    2    1    2    0    0  0.18028394176E+02  0.74484522449E+02 -0.77144168067E+02  0.16568413247E+03  0.12500816775E+03 0.  0.
          5    1    3    3  501    0  0.37618382628E+02  0.14749808120E+02  0.24782768849E+02  0.47633760958E+02  0.47000000000E+01 0.  1.
         -5    1    3    3    0  501 -0.55646776804E+02 -0.89234330570E+02  0.39880301527E+02  0.11256934739E+03  0.47000000000E+01 0.  1.
          5    1    4    4  502    0  0.53902991828E+02  0.77428909213E+02 -0.17808331147E+02  0.96124893592E+02  0.47000000000E+01 0.  1.
         -5    1    4    4    0  502 -0.35874597652E+02 -0.29443867637E+01 -0.59335836920E+02  0.69559238876E+02  0.47000000000E+01 0.  1.
<mgrwt>
<rscale>  0 0.32564815E+03</rscale>
<asrwt>0</asrwt>
<pdfrwt beam="1">  1       21 0.24108165E-01 0.32564815E+03</pdfrwt>
<pdfrwt beam="2">  1       21 0.26028334E-01 0.32564815E+03</pdfrwt>
<totfact> 0.22022391E+05</totfact>
</mgrwt>
</event>
<event>
 8    1  0.9331162E-006  0.5480957E+03  0.7546771E-02  0.1001936E+00
         21   -1    0    0  504  503  0.00000000000E+00  0.00000000000E+00  0.48532613829E+03  0.48532613829E+03  0.00000000000E+00 0.  1.
         21   -1    0    0  503  504 -0.00000000000E+00 -0.00000000000E+00 -0.15474587937E+03  0.15474587937E+03  0.00000000000E+00 0.  1.
         25    2    1    2    0    0 -0.12095068565E+03 -0.15770716847E+03  0.23924358611E+00  0.23478910715E+03  0.12500099301E+03 0.  0.
         25    2    1    2    0    0  0.12095068565E+03  0.15770716847E+03  0.33034101533E+03  0.40528291051E+03  0.12501372644E+03 0.  0.
          5    1    3    3  501    0 -0.35383401439E+01 -0.75323863175E+02 -0.40347149934E+02  0.85651542441E+02  0.47000000000E+01 0. -1.
         -5    1    3    3    0  501 -0.11741234550E+03 -0.82383305293E+02  0.40586393520E+02  0.14913756471E+03  0.47000000000E+01 0. -1.
          5    1    4    4  502    0 -0.15595113938E+02  0.64167136602E+02  0.12548284652E+03  0.14187552209E+03  0.47000000000E+01 0.  1.
         -5    1    4    4    0  502  0.13654579959E+03  0.93540031866E+02  0.20485816881E+03  0.26340738842E+03  0.47000000000E+01 0.  1.
<mgrwt>
<rscale>  0 0.54809569E+03</rscale>
<asrwt>0</asrwt>
<pdfrwt beam="1">  1       21 0.74665559E-01 0.54809569E+03</pdfrwt>
<pdfrwt beam="2">  1       21 0.23807059E-01 0.54809569E+03</pdfrwt>
<totfact> 0.23678908E+04</totfact>
</mgrwt>
</event>
<event>
 8    1  0.9331162E-006  0.2730958E+03  0.7546771E-02  0.1099521E+00
         21   -1    0    0  504  503  0.00000000000E+00  0.00000000000E+00  0.27027579727E+03  0.27027579727E+03  0.00000000000E+00 0.  1.
         21   -1    0    0  503  504 -0.00000000000E+00 -0.00000000000E+00 -0.68986304409E+02  0.68986304409E+02  0.00000000000E+00 0.  1.
         25    2    1    2    0    0  0.36704924258E+02 -0.39788243930E+02  0.88881561794E+02  0.16265182660E+03  0.12500131539E+03 0.  0.
         25    2    1    2    0    0 -0.36704924258E+02  0.39788243930E+02  0.11240793107E+03  0.17661027508E+03  0.12500116191E+03 0.  0.
          5    1    3    3  501    0 -0.42312981540E+02 -0.36337044849E+02  0.46670248573E+02  0.72876411390E+02  0.47000000000E+01 0. -1.
         -5    1    3    3    0  501  0.79017905799E+02 -0.34511990818E+01  0.42211313221E+02  0.89775415208E+02  0.47000000000E+01 0. -1.
          5    1    4    4  502    0  0.13429355518E+02  0.39471135009E+02  0.11866850540E+03  0.12586747897E+03  0.47000000000E+01 0. -1.
         -5    1    4    4    0  502 -0.50134279776E+02  0.31710892160E+00 -0.62605743275E+01  0.50742796116E+02  0.47000000000E+01 0. -1.
<mgrwt>
<rscale>  0 0.27309580E+03</rscale>
<asrwt>0</asrwt>
<pdfrwt beam="1">  1       21 0.41580891E-01 0.27309580E+03</pdfrwt>
<pdfrwt beam="2">  1       21 0.10613278E-01 0.27309580E+03</pdfrwt>
<totfact> 0.39970505E+05</totfact>
</mgrwt>
</event>
<event>
 8    1  0.9331162E-006  0.3596069E+03  0.7546771E-02  0.1058740E+00
         21   -1    0    0  504  503  0.00000000000E+00  0.00000000000E+00  0.18997734794E+04  0.18997734794E+04  0.00000000000E+00 0. -1.
         21   -1    0    0  503  504 -0.00000000000E+00 -0.00000000000E+00 -0.17017441202E+02  0.17017441202E+02  0.00000000000E+00 0. -1.
         25    2    1    2    0    0 -0.75871245467E+02 -0.92374147353E+02  0.12032765080E+04  0.12156439130E+04  0.12500535820E+03 0.  0.
         25    2    1    2    0    0  0.75871245467E+02  0.92374147353E+02  0.67947953023E+03  0.70114700761E+03  0.12500106116E+03 0.  0.
          5    1    3    3  501    0 -0.41412567515E+02 -0.47378048816E+02  0.17912255084E+03  0.18991223888E+03  0.47000000000E+01 0.  1.
         -5    1    3    3    0  501 -0.34458677952E+02 -0.44996098537E+02  0.10241539571E+04  0.10257316741E+04  0.47000000000E+01 0.  1.
          5    1    4    4  502    0  0.35486785839E+02  0.69176215388E+02  0.62273414748E+03  0.62758630417E+03  0.47000000000E+01 0. -1.
         -5    1    4    4    0  502  0.40384459628E+02  0.23197931966E+02  0.56745382743E+02  0.73560703433E+02  0.47000000000E+01 0. -1.
<mgrwt>
<rscale>  0 0.35960692E+03</rscale>
<asrwt>0</asrwt>
<pdfrwt beam="1">  1       21 0.29227268E+00 0.35960692E+03</pdfrwt>
<pdfrwt beam="2">  1       21 0.26180694E-02 0.35960692E+03</pdfrwt>
<totfact> 0.26730035E+04</totfact>
</mgrwt>
</event>
<event>
 8    1  0.9331162E-006  0.2759020E+03  0.7546771E-02  0.1097948E+00
         21   -1    0    0  504  503  0.00000000000E+00  0.00000000000E+00  0.39984658160E+03  0.39984658160E+03  0.00000000000E+00 0. -1.
         21   -1    0    0  503  504 -0.00000000000E+00 -0.00000000000E+00 -0.47594447990E+02  0.47594447990E+02  0.00000000000E+00 0. -1.
         25    2    1    2    0    0  0.23313514611E+02  0.23700090374E+02  0.98267567980E+02  0.16244150665E+03  0.12500205566E+03 0.  0.
         25    2    1    2    0    0 -0.23313514611E+02 -0.23700090374E+02  0.25398456563E+03  0.28499952294E+03  0.12494540508E+03 0.  0.
          5    1    3    3  501    0 -0.41976735273E+02 -0.80532709997E+01  0.37465375814E+01  0.43162808317E+02  0.47000000000E+01 0.  1.
         -5    1    3    3    0  501  0.65290249884E+02  0.31753361374E+02  0.94521030398E+02  0.11927869833E+03  0.47000000000E+01 0.  1.
          5    1    4    4  502    0 -0.48081614103E+02 -0.64907272598E+02  0.15437968445E+03  0.17429851583E+03  0.47000000000E+01 0. -1.
         -5    1    4    4    0  502  0.24768099492E+02  0.41207182223E+02  0.99604881178E+02  0.11070100710E+03  0.47000000000E+01 0. -1.
<mgrwt>
<rscale>  0 0.27590199E+03</rscale>
<asrwt>0</asrwt>
<pdfrwt beam="1">  1       21 0.61514856E-01 0.27590199E+03</pdfrwt>
<pdfrwt beam="2">  1       21 0.73222230E-02 0.27590199E+03</pdfrwt>
<totfact> 0.33690575E+05</totfact>
</mgrwt>
</event>
<event>
 8    1  0.9331162E-006  0.3837710E+03  0.7546771E-02  0.1049549E+00
         21   -1    0    0  504  503  0.00000000000E+00  0.00000000000E+00  0.21077181869E+04  0.21077181869E+04  0.00000000000E+00 0.  1.
         21   -1    0    0  503  504 -0.00000000000E+00 -0.00000000000E+00 -0.17469146745E+02  0.17469146745E+02  0.00000000000E+00 0.  1.
         25    2    1    2    0    0 -0.15195011098E+01 -0.14519409808E+03  0.11041526598E+04  0.11206517868E+04  0.12499478443E+03 0.  0.
         25    2    1    2    0    0  0.15195011098E+01  0.14519409808E+03  0.98609638034E+03  0.10045355468E+04  0.12498783344E+03 0.  0.
          5    1    3    3  501    0 -0.43261480615E+02 -0.81452447307E+02  0.85744221872E+03  0.86240089594E+03  0.47000000000E+01 0.  1.
         -5    1    3    3    0  501  0.41741979505E+02 -0.63741650774E+02  0.24671044110E+03  0.25825089089E+03  0.47000000000E+01 0.  1.
          5    1    4    4  502    0  0.25575730817E+01 -0.12492473337E+02  0.13248866069E+02  0.18979608064E+02  0.47000000000E+01 0.  1.
         -5    1    4    4    0  502 -0.10380719718E+01  0.15768657142E+03  0.97284751427E+03  0.98555593876E+03  0.47000000000E+01 0.  1.
<mgrwt>
<rscale>  0 0.38377096E+03</rscale>
<asrwt>0</asrwt>
<pdfrwt beam="1">  1       21 0.32426413E+00 0.38377096E+03</pdfrwt>
<pdfrwt beam="2">  1       21 0.26875627E-02 0.38377096E+03</pdfrwt>
<totfact> 0.16282820E+04</totfact>
</mgrwt>
</event>
<event>
 8    1  0.9331162E-006  0.2584064E+03  0.7546771E-02  0.1108104E+00
         21   -1    0    0  504  503  0.00000000000E+00  0.00000000000E+00  0.74849568437E+02  0.74849568437E+02  0.00000000000E+00 0.  1.
         21   -1    0    0  503  504 -0.00000000000E+00 -0.00000000000E+00 -0.22302689731E+03  0.22302689731E+03  0.00000000000E+00 0.  1.
         25    2    1    2    0    0  0.19448868313E+02 -0.19914474928E+02 -0.54334100529E+02  0.13910385973E+03  0.12499137778E+03 0.  0.
         25    2    1    2    0    0 -0.19448868313E+02  0.19914474928E+02 -0.93843228341E+02  0.15877260602E+03  0.12500937615E+03 0.  0.
          5    1    3    3  501    0  0.39879935407E+02 -0.51461467733E+02 -0.72107030010E+02  0.97263588697E+02  0.47000000000E+01 0. -1.
         -5    1    3    3    0  501 -0.20431067093E+02  0.31546992805E+02  0.17772929481E+02  0.41840271031E+02  0.47000000000E+01 0. -1.
          5    1    4    4  502    0  0.10289131229E+02 -0.49756774145E+02 -0.48287875646E+02  0.70252485573E+02  0.47000000000E+01 0. -1.
         -5    1    4    4    0  502 -0.29737999542E+02  0.69671249072E+02 -0.45555352694E+02  0.88520120443E+02  0.47000000000E+01 0. -1.
<mgrwt>
<rscale>  0 0.25840640E+03</rscale>
<asrwt>0</asrwt>
<pdfrwt beam="1">  1       21 0.11515318E-01 0.25840640E+03</pdfrwt>
<pdfrwt beam="2">  1       21 0.34311830E-01 0.25840640E+03</pdfrwt>
<totfact> 0.51051656E+05</totfact>
</mgrwt>
</event>
<event>
 8    1  0.9331162E-006  0.2987066E+03  0.7546771E-02  0.1085889E+00
         21   -1    0    0  504  503  0.00000000000E+00  0.00000000000E+00  0.43029997066E+03  0.43029997066E+03  0.00000000000E+00 0.  1.
         21   -1    0    0  503  504 -0.00000000000E+00 -0.00000000000E+00 -0.51839189278E+02  0.51839189278E+02  0.00000000000E+00 0.  1.
         25    2    1    2    0    0 -0.48632646822E+02  0.49905323617E+02  0.25819932518E+03  0.29520720682E+03  0.12499891107E+03 0.  0.
         25    2    1    2    0    0  0.48632646822E+02 -0.49905323617E+02  0.12026145620E+03  0.18693195312E+03  0.12500024636E+03 0.  0.
          5    1    3    3  501    0 -0.49082753044E+02  0.64137493933E+02  0.71683336419E+02  0.10808943285E+03  0.47000000000E+01 0. -1.
         -5    1    3    3    0  501  0.45010622212E+00 -0.14232170317E+02  0.18651598876E+03  0.18711777396E+03  0.47000000000E+01 0. -1.
          5    1    4    4  502    0  0.50461172124E+02 -0.31032675097E+02 -0.54836947514E+01  0.59678452761E+02  0.47000000000E+01 0.  1.
         -5    1    4    4    0  502 -0.18285253025E+01 -0.18872648519E+02  0.12574515095E+03  0.12725350036E+03  0.47000000000E+01 0.  1.
<mgrwt>
<rscale>  0 0.29870656E+03</rscale>
<asrwt>0</asrwt>
<pdfrwt beam="1">  1       21 0.66199993E-01 0.29870656E+03</pdfrwt>
<pdfrwt beam="2">  1       21 0.79752602E-02 0.29870656E+03</pdfrwt>
<totfact> 0.24578509E+05</totfact>
</mgrwt>
</event>
<event>
 8    1  0.9331162E-006  0.2932661E+03  0.7546771E-02  0.1088656E+00
         21   -1    0    0  504  503  0.00000000000E+00  0.00000000000E+00  0.73591529060E+01  0.73591529060E+01  0.00000000000E+00 0. -1.
         21   -1    0    0  503  504 -0.00000000000E+00 -0.00000000000E+00 -0.29217025093E+04  0.29217025093E+04  0.00000000000E+00 0. -1.
         25    2    1    2    0    0 -0.33071885148E+02  0.68662416487E+02 -0.15372394214E+04  0.15441977020E+04  0.12503290383E+03 0.  0.
         25    2    1    2    0    0  0.33071885148E+02 -0.68662416487E+02 -0.13771039350E+04  0.13848639602E+04  0.12499865422E+03 0.  0.
          5    1    3    3  501    0  0.46548836042E+02  0.11230228375E+02 -0.51985148869E+03  0.52207334012E+03  0.47000000000E+01 0. -1.
         -5    1    3    3    0  501 -0.79620721190E+02  0.57432188112E+02 -0.10173879327E+04  0.10221243619E+04  0.47000000000E+01 0. -1.
          5    1    4    4  502    0  0.47673804847E+02  0.11485751710E+02 -0.85532651694E+03  0.85674398436E+03  0.47000000000E+01 0. -1.
         -5    1    4    4    0  502 -0.14601919699E+02 -0.80148168197E+02 -0.52177741805E+03  0.52811997586E+03  0.47000000000E+01 0. -1.
<mgrwt>
<rscale>  0 0.29326613E+03</rscale>
<asrwt>0</asrwt>
<pdfrwt beam="1">  1       21 0.11321758E-02 0.29326613E+03</pdfrwt>
<pdfrwt beam="2">  1       21 0.44949330E+00 0.29326613E+03</pdfrwt>
<totfact> 0.11611313E+04</totfact>
</mgrwt>
</event>
<event>
 8    1  0.9331162E-006  0.2582513E+03  0.7546771E-02  0.1108198E+00
         21   -1    0    0  504  503  0.00000000000E+00  0.00000000000E+00  0.37924089645E+02  0.37924089645E+02  0.00000000000E+00 0. -1.
         21   -1    0    0  503  504 -0.00000000000E+00 -0.00000000000E+00 -0.43965298042E+03  0.43965298042E+03  0.00000000000E+00 0. -1.
         25    2    1    2    0    0  0.27100514339E+02  0.14147957962E+02 -0.18118177197E+03  0.22223241325E+03  0.12500323361E+03 0.  0.
         25    2    1    2    0    0 -0.27100514339E+02 -0.14147957962E+02 -0.22054711880E+03  0.25534465681E+03  0.12500103822E+03 0.  0.
          5    1    3    3  501    0  0.76554502354E+02  0.21914710990E+01 -0.12109701988E+03  0.14335959193E+03  0.47000000000E+01 0.  1.
         -5    1    3    3    0  501 -0.49453988015E+02  0.11956486863E+02 -0.60084752094E+02  0.78872821319E+02  0.47000000000E+01 0.  1.
          5    1    4    4  502    0 -0.74589193269E+02 -0.20801278289E+02 -0.10854042369E+03  0.13341422153E+03  0.47000000000E+01 0.  1.
         -5    1    4    4    0  502  0.47488678931E+02  0.66533203265E+01 -0.11200669511E+03  0.12193043528E+03  0.47000000000E+01 0.  1.
<mgrwt>
<rscale>  0 0.25825134E+03</rscale>
<asrwt>0</asrwt>
<pdfrwt beam="1">  1       21 0.58344750E-02 0.25825134E+03</pdfrwt>
<pdfrwt beam="2">  1       21 0.67638924E-01 0.25825134E+03</pdfrwt>
<totfact> 0.40707306E+05</totfact>
</mgrwt>
</event>
<event>
 8    1  0.9331162E-006  0.3726614E+03  0.7546771E-02  0.1053680E+00
         21   -1    0    0  504  503  0.00000000000E+00  0.00000000000E+00  0.59334367663E+03  0.59334367663E+03  0.00000000000E+00 0.  1.
         21   -1    0    0  503  504 -0.00000000000E+00 -0.00000000000E+00 -0.58514364664E+02  0.58514364664E+02  0.00000000000E+00 0.  1.
         25    2    1    2    0    0 -0.94980400419E+02  0.86517642036E+01  0.92503603460E+02  0.18241893524E+03  0.12499448706E+03 0.  0.
         25    2    1    2    0    0  0.94980400419E+02 -0.86517642036E+01  0.44232570850E+03  0.46943910604E+03  0.12499964958E+03 0.  0.
          5    1    3    3  501    0 -0.57699912306E+01  0.48159042414E+02  0.12520499474E+01  0.48746731112E+02  0.47000000000E+01 0.  1.
         -5    1    3    3    0  501 -0.89210409188E+02 -0.39507278210E+02  0.91251553513E+02  0.13367220413E+03  0.47000000000E+01 0.  1.
          5    1    4    4  502    0  0.77036112025E+02  0.50982830999E+02  0.30189109723E+03  0.31574378252E+03  0.47000000000E+01 0. -1.
         -5    1    4    4    0  502  0.17944288394E+02 -0.59634595202E+02  0.14043461127E+03  0.15369532353E+03  0.47000000000E+01 0. -1.
<mgrwt>
<rscale>  0 0.37266139E+03</rscale>
<asrwt>0</asrwt>
<pdfrwt beam="1">  1       21 0.91283638E-01 0.37266139E+03</pdfrwt>
<pdfrwt beam="2">  1       21 0.90022104E-02 0.37266139E+03</pdfrwt>
<totfact> 0.93693842E+04</totfact>
</mgrwt>
</event>
<event>
 8    1  0.9331162E-006  0.2656545E+03  0.7546771E-02  0.1103793E+00
         21   -1    0    0  504  503  0.00000000000E+00  0.00000000000E+00  0.11309204148E+03  0.11309204148E+03  0.00000000000E+00 0.  1.
         21   -1    0    0  503  504 -0.00000000000E+00 -0.00000000000E+00 -0.15600638073E+03  0.15600638073E+03  0.00000000000E+00 0.  1.
         25    2    1    2    0    0 -0.30819683191E+01  0.27791248802E+02  0.14164436567E+02  0.12887092181E+03  0.12500092474E+03 0.  0.
         25    2    1    2    0    0  0.30819683191E+01 -0.27791248802E+02 -0.57078775816E+02  0.14022750039E+03  0.12499565264E+03 0.  0.
          5    1    3    3  501    0 -0.30569547207E+02 -0.42224026247E+02  0.89640345139E+00  0.52347484639E+02  0.47000000000E+01 0. -1.
         -5    1    3    3    0  501  0.27487578887E+02  0.70015275049E+02  0.13268033115E+02  0.76523437168E+02  0.47000000000E+01 0. -1.
          5    1    4    4  502    0 -0.36323283725E+02  0.43886453165E+01  0.24276242171E+02  0.44159563881E+02  0.47000000000E+01 0.  1.
         -5    1    4    4    0  502  0.39405252044E+02 -0.32179894118E+02 -0.81355017987E+02  0.96067936512E+02  0.47000000000E+01 0.  1.
<mgrwt>
<rscale>  0 0.26565451E+03</rscale>
<asrwt>0</asrwt>
<pdfrwt beam="1">  1       21 0.17398776E-01 0.26565451E+03</pdfrwt>
<pdfrwt beam="2">  1       21 0.24000982E-01 0.26565451E+03</pdfrwt>
<totfact> 0.48247031E+05</totfact>
</mgrwt>
</event>
<event>
 8    1  0.9331162E-006  0.2577086E+03  0.7546771E-02  0.1108528E+00
         21   -1    0    0  504  503  0.00000000000E+00  0.00000000000E+00  0.25591251224E+03  0.25591251224E+03  0.00000000000E+00 0.  1.
         21   -1    0    0  503  504 -0.00000000000E+00 -0.00000000000E+00 -0.64879325122E+02  0.64879325122E+02  0.00000000000E+00 0.  1.
         25    2    1    2    0    0 -0.53835623417E+00 -0.10567064552E+02  0.58920166283E+02  0.13860514094E+03  0.12501138516E+03 0.  0.
         25    2    1    2    0    0  0.53835623417E+00  0.10567064552E+02  0.13211302084E+03  0.18218669642E+03  0.12500475750E+03 0.  0.
          5    1    3    3  501    0 -0.11311123779E+02  0.39293689864E+02  0.74455182232E+02  0.85074083865E+02  0.47000000000E+01 0. -1.
         -5    1    3    3    0  501  0.10772767545E+02 -0.49860754415E+02 -0.15535015949E+02  0.53531057079E+02  0.47000000000E+01 0. -1.
          5    1    4    4  502    0 -0.57078165306E+02 -0.15622266459E+02  0.82467730929E+02  0.10161195209E+03  0.47000000000E+01 0. -1.
         -5    1    4    4    0  502  0.57616521540E+02  0.26189331010E+02  0.49645289908E+02  0.80574744325E+02  0.47000000000E+01 0. -1.
<mgrwt>
<rscale>  0 0.25770860E+03</rscale>
<asrwt>0</asrwt>
<pdfrwt beam="1">  1       21 0.39371155E-01 0.25770860E+03</pdfrwt>
<pdfrwt beam="2">  1       21 0.99814348E-02 0.25770860E+03</pdfrwt>
<totfact> 0.49986662E+05</totfact>
</mgrwt>
</event>
<event>
 8    1  0.9331162E-006  0.2571166E+03  0.7546771E-02  0.1108888E+00
         21   -1    0    0  504  503  0.00000000000E+00  0.00000000000E+00  0.61594724954E+02  0.61594724954E+02  0.00000000000E+00 0.  1.
         21   -1    0    0  503  504 -0.00000000000E+00 -0.00000000000E+00 -0.26832227047E+03  0.26832227047E+03  0.00000000000E+00 0.  1.
         25    2    1    2    0    0 -0.12637807650E+02 -0.64335352130E+01 -0.13731409406E+03  0.18622910347E+03  0.12500005598E+03 0.  0.
         25    2    1    2    0    0  0.12637807650E+02  0.64335352130E+01 -0.69413451453E+02  0.14368789195E+03  0.12500751374E+03 0.  0.
          5    1    3    3  501    0 -0.28355942063E+02  0.10441265831E+02  0.13616147703E+02  0.33474900458E+02  0.47000000000E+01 0. -1.
         -5    1    3    3    0  501  0.15718134413E+02 -0.16874801044E+02 -0.15093024176E+03  0.15275420301E+03  0.47000000000E+01 0. -1.
          5    1    4    4  502    0 -0.48176543337E+02 -0.24535586133E+02 -0.15069608897E+02  0.56321908944E+02  0.47000000000E+01 0.  1.
         -5    1    4    4    0  502  0.60814350986E+02  0.30969121346E+02 -0.54343842556E+02  0.87365983006E+02  0.47000000000E+01 0.  1.
<mgrwt>
<rscale>  0 0.25711660E+03</rscale>
<asrwt>0</asrwt>
<pdfrwt beam="1">  1       21 0.94761115E-02 0.25711660E+03</pdfrwt>
<pdfrwt beam="2">  1       21 0.41280349E-01 0.25711660E+03</pdfrwt>
<totfact> 0.49779993E+05</totfact>
</mgrwt>
</event>
<event>
 8    1  0.9331162E-006  0.3056303E+03  0.7546771E-02  0.1082459E+00
         21   -1    0    0  504  503  0.00000000000E+00  0.00000000000E+00  0.11093399795E+03  0.11093399795E+03  0.00000000000E+00 0.  1.
         21   -1    0    0  503  504 -0.00000000000E+00 -0.00000000000E+00 -0.21050774567E+03  0.21050774567E+03  0.00000000000E+00 0.  1.
         25    2    1    2    0    0 -0.84962426655E+02 -0.15706865464E+02 -0.32749777146E+02  0.15544123556E+03  0.12499644093E+03 0.  0.
         25    2    1    2    0    0  0.84962426655E+02  0.15706865464E+02 -0.66823970579E+02  0.16600050806E+03  0.12500162426E+03 0.  0.
          5    1    3    3  501    0 -0.84058520993E+02 -0.35073044275E+02  0.24814103800E+02  0.94518691980E+02  0.47000000000E+01 0.  1.
         -5    1    3    3    0  501 -0.90390566245E+00  0.19366178811E+02 -0.57563880946E+02  0.60922543584E+02  0.47000000000E+01 0.  1.
          5    1    4    4  502    0  0.45364402426E+02 -0.25406989691E+02  0.24917422417E+02  0.57848181237E+02  0.47000000000E+01 0.  1.
         -5    1    4    4    0  502  0.39598024229E+02  0.41113855154E+02 -0.91741392995E+02  0.10815232682E+03  0.47000000000E+01 0.  1.
<mgrwt>
<rscale>  0 0.30563027E+03</rscale>
<asrwt>0</asrwt>
<pdfrwt beam="1">  1       21 0.17066769E-01 0.30563027E+03</pdfrwt>
<pdfrwt beam="2">  1       21 0.32385807E-01 0.30563027E+03</pdfrwt>
<totfact> 0.27666419E+05</totfact>
</mgrwt>
</event>
<event>
 8    1  0.9331162E-006  0.3317908E+03  0.7546771E-02  0.1070347E+00
         21   -1    0    0  504  503  0.00000000000E+00  0.00000000000E+00  0.62747602048E+02  0.62747602048E+02  0.00000000000E+00 0. -1.
         21   -1    0    0  503  504 -0.00000000000E+00 -0.00000000000E+00 -0.43860307094E+03  0.43860307094E+03  0.00000000000E+00 0. -1.
         25    2    1    2    0    0  0.84066023918E+02 -0.47964562042E+02 -0.26390880711E+03  0.30763753125E+03  0.12500118629E+03 0.  0.
         25    2    1    2    0    0 -0.84066023918E+02  0.47964562042E+02 -0.11194666178E+03  0.19371314174E+03  0.12500012244E+03 0.  0.
          5    1    3    3  501    0  0.94034697879E+01  0.46291199385E+01  0.12213274282E+02  0.16766277588E+02  0.47000000000E+01 0. -1.
         -5    1    3    3    0  501  0.74662554130E+02 -0.52593681981E+02 -0.27612208139E+03  0.29087125366E+03  0.47000000000E+01 0. -1.
          5    1    4    4  502    0  0.27564267747E+02  0.12520116785E+02 -0.55992599505E+02  0.63826353336E+02  0.47000000000E+01 0. -1.
         -5    1    4    4    0  502 -0.11163029167E+03  0.35444445257E+02 -0.55954062276E+02  0.12988678840E+03  0.47000000000E+01 0. -1.
<mgrwt>
<rscale>  0 0.33179084E+03</rscale>
<asrwt>0</asrwt>
<pdfrwt beam="1">  1       21 0.96534775E-02 0.33179084E+03</pdfrwt>
<pdfrwt beam="2">  1       21 0.67477394E-01 0.33179084E+03</pdfrwt>
<totfact> 0.16679820E+05</totfact>
</mgrwt>
</event>
<event>
 8    1  0.9331162E-006  0.2878333E+03  0.7546771E-02  0.1091486E+00
         21   -1    0    0  504  503  0.00000000000E+00  0.00000000000E+00  0.47172139781E+02  0.47172139781E+02  0.00000000000E+00 0. -1.
         21   -1    0    0  503  504 -0.00000000000E+00 -0.00000000000E+00 -0.43907271343E+03  0.43907271343E+03  0.00000000000E+00 0. -1.
         25    2    1    2    0    0  0.10595831206E+02 -0.48291423480E+01 -0.31482561420E+03  0.33893362777E+03  0.12500097769E+03 0.  0.
         25    2    1    2    0    0 -0.10595831206E+02  0.48291423480E+01 -0.77074959451E+02  0.14731122544E+03  0.12499782203E+03 0.  0.
          5    1    3    3  501    0 -0.53564939927E+02  0.15952606149E+02 -0.11432753709E+03  0.12734427419E+03  0.47000000000E+01 0. -1.
         -5    1    3    3    0  501  0.64160771133E+02 -0.20781748497E+02 -0.20049807711E+03  0.21158935358E+03  0.47000000000E+01 0. -1.
          5    1    4    4  502    0  0.28384777374E+02 -0.40903222700E+02 -0.69541607750E+00  0.50013426371E+02  0.47000000000E+01 0. -1.
         -5    1    4    4    0  502 -0.38980608580E+02  0.45732365048E+02 -0.76379543373E+02  0.97297799071E+02  0.47000000000E+01 0. -1.
<mgrwt>
<rscale>  0 0.28783328E+03</rscale>
<asrwt>0</asrwt>
<pdfrwt beam="1">  1       21 0.72572521E-02 0.28783328E+03</pdfrwt>
<pdfrwt beam="2">  1       21 0.67549650E-01 0.28783328E+03</pdfrwt>
<totfact> 0.27795389E+05</totfact>
</mgrwt>
</event>
<event>
 8    1  0.9331162E-006  0.3480776E+03  0.7546771E-02  0.1063407E+00
         21   -1    0    0  504  503  0.00000000000E+00  0.00000000000E+00  0.15973844492E+03  0.15973844492E+03  0.00000000000E+00 0. -1.
         21   -1    0    0  503  504 -0.00000000000E+00 -0.00000000000E+00 -0.18961934378E+03  0.18961934378E+03  0.00000000000E+00 0. -1.
         25    2    1    2    0    0 -0.55542051895E+02  0.10749227711E+03 -0.99192472194E+01  0.17425023723E+03  0.12500097817E+03 0.  0.
         25    2    1    2    0    0  0.55542051895E+02 -0.10749227711E+03 -0.19961651645E+02  0.17510755147E+03  0.12499871150E+03 0.  0.
          5    1    3    3  501    0 -0.24068195045E+02  0.11298216107E+03  0.33286977886E+02  0.12030943284E+03  0.47000000000E+01 0.  1.
         -5    1    3    3    0  501 -0.31473856850E+02 -0.54898839584E+01 -0.43206225105E+02  0.53940804395E+02  0.47000000000E+01 0.  1.
          5    1    4    4  502    0  0.24115367967E+02  0.21882556982E+02 -0.25722797097E+02  0.41763016686E+02  0.47000000000E+01 0. -1.
         -5    1    4    4    0  502  0.31426683928E+02 -0.12937483409E+03  0.57611454517E+01  0.13334453478E+03  0.47000000000E+01 0. -1.
<mgrwt>
<rscale>  0 0.34807757E+03</rscale>
<asrwt>0</asrwt>
<pdfrwt beam="1">  1       21 0.24575145E-01 0.34807757E+03</pdfrwt>
<pdfrwt beam="2">  1       21 0.29172207E-01 0.34807757E+03</pdfrwt>
<totfact> 0.16904738E+05</totfact>
</mgrwt>
</event>
<event>
 8    1  0.9331162E-006  0.3413825E+03  0.7546771E-02  0.1066209E+00
         21   -1    0    0  504  503  0.00000000000E+00  0.00000000000E+00  0.13280221901E+03  0.13280221901E+03  0.00000000000E+00 0. -1.
         21   -1    0    0  503  504 -0.00000000000E+00 -0.00000000000E+00 -0.21939019674E+03  0.21939019674E+03  0.00000000000E+00 0. -1.
         25    2    1    2    0    0 -0.64503659430E+02  0.70591180789E+02 -0.11147946125E+03  0.19285731544E+03  0.12498974739E+03 0.  0.
         25    2    1    2    0    0  0.64503659430E+02 -0.70591180789E+02  0.24891483517E+02  0.15933510032E+03  0.12499700539E+03 0.  0.
          5    1    3    3  501    0 -0.85410362301E+02  0.24686526805E+01 -0.54033815566E+02  0.10120655838E+03  0.47000000000E+01 0.  1.
         -5    1    3    3    0  501  0.20906702872E+02  0.68122528108E+02 -0.57445645686E+02  0.91650757057E+02  0.47000000000E+01 0.  1.
          5    1    4    4  502    0  0.20869652783E+02 -0.95270683873E+02 -0.98862137728E+01  0.98142105315E+02  0.47000000000E+01 0.  1.
         -5    1    4    4    0  502  0.43634006647E+02  0.24679503085E+02  0.34777697290E+02  0.61192995002E+02  0.47000000000E+01 0.  1.
<mgrwt>
<rscale>  0 0.34138251E+03</rscale>
<asrwt>0</asrwt>
<pdfrwt beam="1">  1       21 0.20431111E-01 0.34138251E+03</pdfrwt>
<pdfrwt beam="2">  1       21 0.33752338E-01 0.34138251E+03</pdfrwt>
<totfact> 0.18043084E+05</totfact>
</mgrwt>
</event>
<event>
 8    1  0.9331162E-006  0.2884207E+03  0.7546771E-02  0.1091177E+00
         21   -1    0    0  504  503  0.00000000000E+00  0.00000000000E+00  0.66310791148E+02  0.66310791148E+02  0.00000000000E+00 0.  1.
         21   -1    0    0  503  504 -0.00000000000E+00 -0.00000000000E+00 -0.31362362627E+03  0.31362362627E+03  0.00000000000E+00 0.  1.
         25    2    1    2    0    0 -0.44489008366E+02 -0.36639718184E+02 -0.18031787511E+03  0.22685014631E+03  0.12499884791E+03 0.  0.
         25    2    1    2    0    0  0.44489008366E+02  0.36639718184E+02 -0.66994960006E+02  0.15308427111E+03  0.12499891432E+03 0.  0.
          5    1    3    3  501    0  0.34007950008E+02 -0.29922316298E+02 -0.11737653033E+03  0.12590165030E+03  0.47000000000E+01 0.  1.
         -5    1    3    3    0  501 -0.78496958375E+02 -0.67174018856E+01 -0.62941344785E+02  0.10094849600E+03  0.47000000000E+01 0.  1.
          5    1    4    4  502    0  0.86601906922E+01 -0.26659125310E+02 -0.74571701473E+02  0.79804364077E+02  0.47000000000E+01 0.  1.
         -5    1    4    4    0  502  0.35828817674E+02  0.63298843494E+02  0.75767414670E+01  0.73279907033E+02  0.47000000000E+01 0.  1.
<mgrwt>
<rscale>  0 0.28842074E+03</rscale>
<asrwt>0</asrwt>
<pdfrwt beam="1">  1       21 0.10201660E-01 0.28842074E+03</pdfrwt>
<pdfrwt beam="2">  1       21 0.48249789E-01 0.28842074E+03</pdfrwt>
<totfact> 0.31428378E+05</totfact>
</mgrwt>
</event>
<event>
 8    1  0.9331162E-006  0.3484373E+03  0.7546771E-02  0.1063258E+00
         21   -1    0    0  504  503  0.00000000000E+00  0.00000000000E+00  0.59538534979E+03  0.59538534979E+03  0.00000000000E+00 0.  1.
         21   -1    0    0  503  504 -0.00000000000E+00 -0.00000000000E+00 -0.50978966281E+02  0.50978966281E+02  0.00000000000E+00 0.  1.
         25    2    1    2    0    0 -0.12030637684E+03  0.73712140632E+01  0.29846120554E+03  0.34530169909E+03  0.12500485221E+03 0.  0.
         25    2    1    2    0    0  0.12030637684E+03 -0.73712140632E+01  0.24594517797E+03  0.30106261698E+03  0.12498683800E+03 0.  0.
          5    1    3    3  501    0 -0.61663437976E+02 -0.14926450641E+02  0.26791291479E+03  0.27536266708E+03  0.47000000000E+01 0.  1.
         -5    1    3    3    0  501 -0.58642938868E+02  0.22297664704E+02  0.30548290753E+02  0.69939032009E+02  0.47000000000E+01 0.  1.
          5    1    4    4  502    0  0.44149206521E+02 -0.58913511922E+02  0.66261700478E+02  0.99159756321E+02  0.47000000000E+01 0.  1.
         -5    1    4    4    0  502  0.76157170323E+02  0.51542297859E+02  0.17968347749E+03  0.20190286066E+03  0.47000000000E+01 0.  1.
<mgrwt>
<rscale>  0 0.34843725E+03</rscale>
<asrwt>0</asrwt>
<pdfrwt beam="1">  1       21 0.91597741E-01 0.34843725E+03</pdfrwt>
<pdfrwt beam="2">  1       21 0.78429183E-02 0.34843725E+03</pdfrwt>
<totfact> 0.11930828E+05</totfact>
</mgrwt>
</event>
<event>
 8    1  0.9331162E-006  0.4757237E+03  0.7546771E-02  0.1020317E+00
         21   -1    0    0  504  503  0.00000000000E+00  0.00000000000E+00  0.12534738172E+03  0.12534738172E+03  0.00000000000E+00 0.  1.
         21   -1    0    0  503  504 -0.00000000000E+00 -0.00000000000E+00 -0.45137175676E+03  0.45137175676E+03  0.00000000000E+00 0.  1.
         25    2    1    2    0    0  0.74351762798E+02 -0.18788279910E+03 -0.17656105075E+03  0.29601925882E+03  0.12500186448E+03 0.  0.
         25    2    1    2    0    0 -0.74351762798E+02  0.18788279910E+03 -0.14946332429E+03  0.28069987966E+03  0.12500002521E+03 0.  0.
          5    1    3    3  501    0  0.83096633055E+02 -0.16056405520E+03 -0.84767421615E+02  0.19973350248E+03  0.47000000000E+01 0.  1.
         -5    1    3    3    0  501 -0.87448702572E+01 -0.27318743896E+02 -0.91793629134E+02  0.96285756337E+02  0.47000000000E+01 0.  1.
          5    1    4    4  502    0 -0.45536958659E+02  0.72340991161E+02 -0.13609132553E+03  0.16077864438E+03  0.47000000000E+01 0. -1.
         -5    1    4    4    0  502 -0.28814804138E+02  0.11554180793E+03 -0.13371998769E+02  0.11992123527E+03  0.47000000000E+01 0. -1.
<mgrwt>
<rscale>  0 0.47572373E+03</rscale>
<asrwt>0</asrwt>
<pdfrwt beam="1">  1       21 0.19284213E-01 0.47572373E+03</pdfrwt>
<pdfrwt beam="2">  1       21 0.69441808E-01 0.47572373E+03</pdfrwt>
<totfact> 0.42491857E+04</totfact>
</mgrwt>
</event>
<event>
 8    1  0.9331162E-006  0.3019791E+03  0.7546771E-02  0.1084255E+00
         21   -1    0    0  504  503  0.00000000000E+00  0.00000000000E+00  0.86883516955E+02  0.86883516955E+02  0.00000000000E+00 0.  1.
         21   -1    0    0  503  504 -0.00000000000E+00 -0.00000000000E+00 -0.26239551950E+03  0.26239551950E+03  0.00000000000E+00 0.  1.
         25    2    1    2    0    0 -0.59732812566E+01 -0.28576617165E+01 -0.18535369096E+03  0.22366375662E+03  0.12500255578E+03 0.  0.
         25    2    1    2    0    0  0.59732812566E+01  0.28576617165E+01  0.98416884206E+01  0.12561527983E+03  0.12505396186E+03 0.  0.
          5    1    3    3  501    0 -0.49061784684E+02 -0.30695234774E+02 -0.15091336010E+03  0.16169783057E+03  0.47000000000E+01 0. -1.
         -5    1    3    3    0  501  0.43088503427E+02  0.27837573057E+02 -0.34440330862E+02  0.61965926050E+02  0.47000000000E+01 0. -1.
          5    1    4    4  502    0  0.41767126431E+02 -0.47392684022E+02  0.41963811996E+01  0.63484320618E+02  0.47000000000E+01 0.  1.
         -5    1    4    4    0  502 -0.35793845174E+02  0.50250345739E+02  0.56453072210E+01  0.62130959214E+02  0.47000000000E+01 0.  1.
<mgrwt>
<rscale>  0 0.30197911E+03</rscale>
<asrwt>0</asrwt>
<pdfrwt beam="1">  1       21 0.13366695E-01 0.30197911E+03</pdfrwt>
<pdfrwt beam="2">  1       21 0.40368542E-01 0.30197911E+03</pdfrwt>
<totfact> 0.27850571E+05</totfact>
</mgrwt>
</event>
<event>
 8    1  0.9331162E-006  0.3723568E+03  0.7546771E-02  0.1053795E+00
         21   -1    0    0  504  503  0.00000000000E+00  0.00000000000E+00  0.49441361296E+02  0.49441361296E+02  0.00000000000E+00 0. -1.
         21   -1    0    0  503  504 -0.00000000000E+00 -0.00000000000E+00 -0.70108106479E+03  0.70108106479E+03  0.00000000000E+00 0. -1.
         25    2    1    2    0    0  0.47955456942E+02  0.12843147961E+03 -0.35733603199E+03  0.40262653316E+03  0.12499885856E+03 0.  0.
         25    2    1    2    0    0 -0.47955456942E+02 -0.12843147961E+03 -0.29430367150E+03  0.34789589293E+03  0.12499012141E+03 0.  0.
          5    1    3    3  501    0  0.20105287518E+02  0.14882103613E+03 -0.30043085721E+03  0.33590581022E+03  0.47000000000E+01 0.  1.
         -5    1    3    3    0  501  0.27850169424E+02 -0.20389556519E+02 -0.56905174781E+02  0.66720722934E+02  0.47000000000E+01 0.  1.
          5    1    4    4  502    0 -0.63368287522E+02 -0.99857459468E+02 -0.29192335831E+03  0.31500537964E+03  0.47000000000E+01 0. -1.
         -5    1    4    4    0  502  0.15412830579E+02 -0.28574020138E+02 -0.23803131933E+01  0.32890513286E+02  0.47000000000E+01 0. -1.
<mgrwt>
<rscale>  0 0.37235683E+03</rscale>
<asrwt>0</asrwt>
<pdfrwt beam="1">  1       21 0.76063640E-02 0.37235683E+03</pdfrwt>
<pdfrwt beam="2">  1       21 0.10785861E+00 0.37235683E+03</pdfrwt>
<totfact> 0.84405872E+04</totfact>
</mgrwt>
</event>
<event>
 8    1  0.9331162E-006  0.2604197E+03  0.7546771E-02  0.1106891E+00
         21   -1    0    0  504  503  0.00000000000E+00  0.00000000000E+00  0.18054241291E+02  0.18054241291E+02  0.00000000000E+00 0.  1.
         21   -1    0    0  503  504 -0.00000000000E+00 -0.00000000000E+00 -0.93909271052E+03  0.93909271052E+03  0.00000000000E+00 0.  1.
         25    2    1    2    0    0  0.26245710963E+02  0.51145352477E+01 -0.36945172131E+03  0.39094039251E+03  0.12499928119E+03 0.  0.
         25    2    1    2    0    0 -0.26245710963E+02 -0.51145352477E+01 -0.55158674792E+03  0.56620655930E+03  0.12500772578E+03 0.  0.
          5    1    3    3  501    0 -0.28708461124E+02  0.76929638675E+01 -0.17760329816E+02  0.34941046755E+02  0.47000000000E+01 0.  1.
         -5    1    3    3    0  501  0.54954172087E+02 -0.25784286197E+01 -0.35169139150E+03  0.35599934575E+03  0.47000000000E+01 0.  1.
          5    1    4    4  502    0  0.41526533765E+02 -0.31181453835E+02 -0.29178656511E+03  0.29640888254E+03  0.47000000000E+01 0. -1.
         -5    1    4    4    0  502 -0.67772244728E+02  0.26066918587E+02 -0.25980018281E+03  0.26979767676E+03  0.47000000000E+01 0. -1.
<mgrwt>
<rscale>  0 0.26041971E+03</rscale>
<asrwt>0</asrwt>
<pdfrwt beam="1">  1       21 0.27775755E-02 0.26041971E+03</pdfrwt>
<pdfrwt beam="2">  1       21 0.14447581E+00 0.26041971E+03</pdfrwt>
<totfact> 0.23136348E+05</totfact>
</mgrwt>
</event>
<event>
 8    1  0.9331162E-006  0.4968170E+03  0.7546771E-02  0.1014613E+00
         21   -1    0    0  504  503  0.00000000000E+00  0.00000000000E+00  0.63732877837E+03  0.63732877837E+03  0.00000000000E+00 0.  1.
         21   -1    0    0  503  504 -0.00000000000E+00 -0.00000000000E+00 -0.96820964575E+02  0.96820964575E+02  0.00000000000E+00 0.  1.
         25    2    1    2    0    0  0.58398523039E+02 -0.17211595615E+02  0.57444983886E+03  0.59103632464E+03  0.12499877266E+03 0.  0.
         25    2    1    2    0    0 -0.58398523039E+02  0.17211595615E+02 -0.33942025060E+02  0.14311341830E+03  0.12499105135E+03 0.  0.
          5    1    3    3  501    0  0.53078839631E+02  0.32083757461E+02  0.48225250816E+03  0.48624716178E+03  0.47000000000E+01 0. -1.
         -5    1    3    3    0  501  0.53196834084E+01 -0.49295353076E+02  0.92197330696E+02  0.10478916287E+03  0.47000000000E+01 0. -1.
          5    1    4    4  502    0 -0.92203061144E+02  0.12880284815E+02  0.21628150783E+01  0.93242018373E+02  0.47000000000E+01 0.  1.
         -5    1    4    4    0  502  0.33804538104E+02  0.43313107998E+01 -0.36104840138E+02  0.49871399931E+02  0.47000000000E+01 0.  1.
<mgrwt>
<rscale>  0 0.49681702E+03</rscale>
<asrwt>0</asrwt>
<pdfrwt beam="1">  1       21 0.98050579E-01 0.49681702E+03</pdfrwt>
<pdfrwt beam="2">  1       21 0.14895533E-01 0.49681702E+03</pdfrwt>
<totfact> 0.30723634E+04</totfact>
</mgrwt>
</event>
<event>
 8    1  0.9331162E-006  0.2586568E+03  0.7546771E-02  0.1107953E+00
         21   -1    0    0  504  503  0.00000000000E+00  0.00000000000E+00  0.10534956433E+02  0.10534956433E+02  0.00000000000E+00 0.  1.
         21   -1    0    0  503  504 -0.00000000000E+00 -0.00000000000E+00 -0.15876514981E+04  0.15876514981E+04  0.00000000000E+00 0.  1.
         25    2    1    2    0    0 -0.85906541784E+01  0.30338267918E+02 -0.72234795715E+03  0.73375134045E+03  0.12494098033E+03 0.  0.
         25    2    1    2    0    0  0.85906541784E+01 -0.30338267918E+02 -0.85476858450E+03  0.86443511407E+03  0.12499809420E+03 0.  0.
          5    1    3    3  501    0 -0.43983750592E+02  0.47625557476E+02 -0.62865975265E+03  0.63201102731E+03  0.47000000000E+01 0.  1.
         -5    1    3    3    0  501  0.35393096413E+02 -0.17287289558E+02 -0.93688204501E+02  0.10174031313E+03  0.47000000000E+01 0.  1.
          5    1    4    4  502    0  0.23399485189E+02  0.22393899886E+02 -0.65180667558E+02  0.72935807958E+02  0.47000000000E+01 0.  1.
         -5    1    4    4    0  502 -0.14808831011E+02 -0.52732167804E+02 -0.78958791694E+03  0.79149930612E+03  0.47000000000E+01 0.  1.
<mgrwt>
<rscale>  0 0.25865683E+03</rscale>
<asrwt>0</asrwt>
<pdfrwt beam="1">  1       21 0.16207620E-02 0.25865683E+03</pdfrwt>
<pdfrwt beam="2">  1       21 0.24425416E+00 0.25865683E+03</pdfrwt>
<totfact> 0.11969067E+05</totfact>
</mgrwt>
</event>
<event>
 8    1  0.9331162E-006  0.2609027E+03  0.7546771E-02  0.1106602E+00
         21   -1    0    0  504  503  0.00000000000E+00  0.00000000000E+00  0.22139303262E+03  0.22139303262E+03  0.00000000000E+00 0.  1.
         21   -1    0    0  503  504 -0.00000000000E+00 -0.00000000000E+00 -0.76865813011E+02  0.76865813011E+02  0.00000000000E+00 0.  1.
         25    2    1    2    0    0 -0.34746991310E+02  0.11981400844E+02  0.79473668744E+02  0.15262522232E+03  0.12500994798E+03 0.  0.
         25    2    1    2    0    0  0.34746991310E+02 -0.11981400844E+02  0.65053550866E+02  0.14563362331E+03  0.12500512144E+03 0.  0.
          5    1    3    3  501    0 -0.51247984333E+02 -0.46257340761E+02  0.48210914158E+02  0.84335518712E+02  0.47000000000E+01 0. -1.
         -5    1    3    3    0  501  0.16500993023E+02  0.58238741605E+02  0.31262754586E+02  0.68289703608E+02  0.47000000000E+01 0. -1.
          5    1    4    4  502    0 -0.48362374820E+01 -0.61424079697E+02  0.12150805284E+02  0.62976494255E+02  0.47000000000E+01 0. -1.
         -5    1    4    4    0  502  0.39583228792E+02  0.49442678853E+02  0.52902745582E+02  0.82657129056E+02  0.47000000000E+01 0. -1.
<mgrwt>
<rscale>  0 0.26090271E+03</rscale>
<asrwt>0</asrwt>
<pdfrwt beam="1">  1       21 0.34060466E-01 0.26090271E+03</pdfrwt>
<pdfrwt beam="2">  1       21 0.11825510E-01 0.26090271E+03</pdfrwt>
<totfact> 0.49366725E+05</totfact>
</mgrwt>
</event>
<event>
 8    1  0.9331162E-006  0.2851252E+03  0.7546771E-02  0.1092922E+00
         21   -1    0    0  504  503  0.00000000000E+00  0.00000000000E+00  0.49161445499E+03  0.49161445499E+03  0.00000000000E+00 0. -1.
         21   -1    0    0  503  504 -0.00000000000E+00 -0.00000000000E+00 -0.41341537780E+02  0.41341537780E+02  0.00000000000E+00 0. -1.
         25    2    1    2    0    0 -0.32213145072E+02 -0.94983241559E+01  0.11343875553E+03  0.17211119596E+03  0.12500403049E+03 0.  0.
         25    2    1    2    0    0  0.32213145072E+02  0.94983241559E+01  0.33683416168E+03  0.36084479682E+03  0.12499524005E+03 0.  0.
          5    1    3    3  501    0  0.37879554786E+02 -0.63550201736E+01  0.90035562683E+02  0.97998670909E+02  0.47000000000E+01 0. -1.
         -5    1    3    3    0  501 -0.70092699858E+02 -0.31433039823E+01  0.23403192847E+02  0.74112525047E+02  0.47000000000E+01 0. -1.
          5    1    4    4  502    0 -0.41157298571E+02  0.32204527059E+02  0.13428937450E+03  0.14417621473E+03  0.47000000000E+01 0. -1.
         -5    1    4    4    0  502  0.73370443643E+02 -0.22706202903E+02  0.20254478718E+03  0.21666858209E+03  0.47000000000E+01 0. -1.
<mgrwt>
<rscale>  0 0.28512522E+03</rscale>
<asrwt>0</asrwt>
<pdfrwt beam="1">  1       21 0.75632989E-01 0.28512522E+03</pdfrwt>
<pdfrwt beam="2">  1       21 0.63602369E-02 0.28512522E+03</pdfrwt>
<totfact> 0.27171881E+05</totfact>
</mgrwt>
</event>
<event>
 8    1  0.9331162E-006  0.2576958E+03  0.7546771E-02  0.1108536E+00
         21   -1    0    0  504  503  0.00000000000E+00  0.00000000000E+00  0.80721410426E+01  0.80721410426E+01  0.00000000000E+00 0.  1.
         21   -1    0    0  503  504 -0.00000000000E+00 -0.00000000000E+00 -0.20566755985E+04  0.20566755985E+04  0.00000000000E+00 0.  1.
         25    2    1    2    0    0 -0.89725490298E+00 -0.19151078786E+02 -0.12220770236E+04  0.12286033194E+04  0.12500518339E+03 0.  0.
         25    2    1    2    0    0  0.89725490298E+00  0.19151078786E+02 -0.82652643389E+03  0.83614442021E+03  0.12499590647E+03 0.  0.
          5    1    3    3  501    0  0.15639902922E+02 -0.61868815404E+02 -0.98619844874E+03  0.98827214226E+03  0.47000000000E+01 0. -1.
         -5    1    3    3    0  501 -0.16537157825E+02  0.42717736619E+02 -0.23587857485E+03  0.24033117710E+03  0.47000000000E+01 0. -1.
          5    1    4    4  502    0 -0.34986231052E+02  0.54949865030E+02 -0.62027570447E+03  0.62370470864E+03  0.47000000000E+01 0.  1.
         -5    1    4    4    0  502  0.35883485955E+02 -0.35798786244E+02 -0.20625072943E+03  0.21243971157E+03  0.47000000000E+01 0.  1.
<mgrwt>
<rscale>  0 0.25769575E+03</rscale>
<asrwt>0</asrwt>
<pdfrwt beam="1">  1       21 0.12418693E-02 0.25769575E+03</pdfrwt>
<pdfrwt beam="2">  1       21 0.31641126E+00 0.25769575E+03</pdfrwt>
<totfact> 0.69260626E+04</totfact>
</mgrwt>
</event>
<event>
 8    1  0.9331162E-006  0.4110947E+03  0.7546771E-02  0.1040004E+00
         21   -1    0    0  504  503  0.00000000000E+00  0.00000000000E+00  0.12635488247E+03  0.12635488247E+03  0.00000000000E+00 0.  1.
         21   -1    0    0  503  504 -0.00000000000E+00 -0.00000000000E+00 -0.33437348572E+03  0.33437348572E+03  0.00000000000E+00 0.  1.
         25    2    1    2    0    0 -0.22443364539E+02  0.13285937017E+03 -0.20715019397E+03  0.27693341333E+03  0.12500238279E+03 0.  0.
         25    2    1    2    0    0  0.22443364539E+02 -0.13285937017E+03 -0.86840927826E+00  0.18379495487E+03  0.12499805777E+03 0.  0.
          5    1    3    3  501    0  0.45068003737E+02  0.22313181668E+02 -0.84742206013E+02  0.98652595085E+02  0.47000000000E+01 0. -1.
         -5    1    3    3    0  501 -0.67511368276E+02  0.11054618850E+03 -0.12240798796E+03  0.17828081824E+03  0.47000000000E+01 0. -1.
          5    1    4    4  502    0  0.20747176786E+02 -0.27549576543E+02 -0.55148449640E+02  0.65214001640E+02  0.47000000000E+01 0.  1.
         -5    1    4    4    0  502  0.16961877529E+01 -0.10530979363E+03  0.54280040361E+02  0.11858095323E+03  0.47000000000E+01 0.  1.
<mgrwt>
<rscale>  0 0.41109475E+03</rscale>
<asrwt>0</asrwt>
<pdfrwt beam="1">  1       21 0.19439213E-01 0.41109475E+03</pdfrwt>
<pdfrwt beam="2">  1       21 0.51442074E-01 0.41109475E+03</pdfrwt>
<totfact> 0.81858006E+04</totfact>
</mgrwt>
</event>
<event>
 8    1  0.9331162E-006  0.2528790E+03  0.7546771E-02  0.1111499E+00
         21   -1    0    0  504  503  0.00000000000E+00  0.00000000000E+00  0.18837208745E+03  0.18837208745E+03  0.00000000000E+00 0. -1.
         21   -1    0    0  503  504 -0.00000000000E+00 -0.00000000000E+00 -0.84869013090E+02  0.84869013090E+02  0.00000000000E+00 0. -1.
         25    2    1    2    0    0 -0.17483673148E+02 -0.66814776477E+01  0.48046486808E+02  0.13521613199E+03  0.12499846593E+03 0.  0.
         25    2    1    2    0    0  0.17483673148E+02  0.66814776477E+01  0.55456587554E+02  0.13802496855E+03  0.12500055148E+03 0.  0.
          5    1    3    3  501    0 -0.55155023781E+02  0.35059644354E+02  0.43419044612E+02  0.78603808722E+02  0.47000000000E+01 0. -1.
         -5    1    3    3    0  501  0.37671350633E+02 -0.41741122002E+02  0.46274421960E+01  0.56612323268E+02  0.47000000000E+01 0. -1.
          5    1    4    4  502    0 -0.32291059765E+02  0.49237133147E+02  0.37469797574E+02  0.69950579351E+02  0.47000000000E+01 0.  1.
         -5    1    4    4    0  502  0.49774732913E+02 -0.42555655499E+02  0.17986789981E+02  0.68074389203E+02  0.47000000000E+01 0.  1.
<mgrwt>
<rscale>  0 0.25287905E+03</rscale>
<asrwt>0</asrwt>
<pdfrwt beam="1">  1       21 0.28980321E-01 0.25287905E+03</pdfrwt>
<pdfrwt beam="2">  1       21 0.13056771E-01 0.25287905E+03</pdfrwt>
<totfact> 0.56855052E+05</totfact>
</mgrwt>
</event>
<event>
 8    1  0.9331162E-006  0.2720484E+03  0.7546771E-02  0.1100113E+00
         21   -1    0    0  504  503  0.00000000000E+00  0.00000000000E+00  0.81399181834E+01  0.81399181834E+01  0.00000000000E+00 0. -1.
         21   -1    0    0  503  504 -0.00000000000E+00 -0.00000000000E+00 -0.22730670661E+04  0.22730670661E+04  0.00000000000E+00 0. -1.
         25    2    1    2    0    0  0.22577120658E+02  0.17246886137E+02 -0.75099990095E+03  0.76186200229E+03  0.12500271135E+03 0.  0.
         25    2    1    2    0    0 -0.22577120658E+02 -0.17246886137E+02 -0.15139272470E+04  0.15193449820E+04  0.12500513490E+03 0.  0.
          5    1    3    3  501    0  0.68972413893E+02 -0.28097228118E+01 -0.29304502991E+03  0.30110225502E+03  0.47000000000E+01 0.  1.
         -5    1    3    3    0  501 -0.46395293234E+02  0.20056608949E+02 -0.45795487104E+03  0.46075974727E+03  0.47000000000E+01 0.  1.
          5    1    4    4  502    0  0.17971705141E+02 -0.22279465824E+02 -0.84764860584E+02  0.89590894476E+02  0.47000000000E+01 0.  1.
         -5    1    4    4    0  502 -0.40548825799E+02  0.50325796861E+01 -0.14291623864E+04  0.14297540875E+04  0.47000000000E+01 0.  1.
<mgrwt>
<rscale>  0 0.27204838E+03</rscale>
<asrwt>0</asrwt>
<pdfrwt beam="1">  1       21 0.12522940E-02 0.27204838E+03</pdfrwt>
<pdfrwt beam="2">  1       21 0.34970294E+00 0.27204838E+03</pdfrwt>
<totfact> 0.42933286E+04</totfact>
</mgrwt>
</event>
<event>
 8    1  0.9331162E-006  0.2667741E+03  0.7546771E-02  0.1103140E+00
         21   -1    0    0  504  503  0.00000000000E+00  0.00000000000E+00  0.31724223334E+03  0.31724223334E+03  0.00000000000E+00 0.  1.
         21   -1    0    0  503  504 -0.00000000000E+00 -0.00000000000E+00 -0.56083645482E+02  0.56083645482E+02  0.00000000000E+00 0.  1.
         25    2    1    2    0    0  0.43739619281E+01 -0.38491290415E+02  0.94462463886E+02  0.16139956960E+03  0.12500381195E+03 0.  0.
         25    2    1    2    0    0 -0.43739619281E+01  0.38491290415E+02  0.16669612397E+03  0.21192630923E+03  0.12499780723E+03 0.  0.
          5    1    3    3  501    0  0.57464317261E+02 -0.30962776778E+02  0.84134612669E+02  0.10659063914E+03  0.47000000000E+01 0.  1.
         -5    1    3    3    0  501 -0.53090355333E+02 -0.75285136370E+01  0.10327851218E+02  0.54808930456E+02  0.47000000000E+01 0.  1.
          5    1    4    4  502    0 -0.36509874162E+02  0.41527431806E+01 -0.16397482548E+01  0.37080924498E+02  0.47000000000E+01 0.  1.
         -5    1    4    4    0  502  0.32135912234E+02  0.34338547235E+02  0.16833587223E+03  0.17484538473E+03  0.47000000000E+01 0.  1.
<mgrwt>
<rscale>  0 0.26677407E+03</rscale>
<asrwt>0</asrwt>
<pdfrwt beam="1">  1       21 0.48806496E-01 0.26677407E+03</pdfrwt>
<pdfrwt beam="2">  1       21 0.86282534E-02 0.26677407E+03</pdfrwt>
<totfact> 0.41470949E+05</totfact>
</mgrwt>
</event>
<event>
 8    1  0.9331162E-006  0.3426190E+03  0.7546771E-02  0.1065686E+00
         21   -1    0    0  504  503  0.00000000000E+00  0.00000000000E+00  0.57799701575E+03  0.57799701575E+03  0.00000000000E+00 0.  1.
         21   -1    0    0  503  504 -0.00000000000E+00 -0.00000000000E+00 -0.50773531313E+02  0.50773531313E+02  0.00000000000E+00 0.  1.
         25    2    1    2    0    0  0.26078679320E+02  0.10133952688E+03  0.16699793876E+03  0.23337590919E+03  0.12500482478E+03 0.  0.
         25    2    1    2    0    0 -0.26078679320E+02 -0.10133952688E+03  0.36022554568E+03  0.39539463787E+03  0.12499871469E+03 0.  0.
          5    1    3    3  501    0 -0.48819153241E+02  0.39324697867E+02  0.87202161213E+02  0.10749906281E+03  0.47000000000E+01 0. -1.
         -5    1    3    3    0  501  0.74897832561E+02  0.62014829014E+02  0.79795777542E+02  0.12587684638E+03  0.47000000000E+01 0. -1.
          5    1    4    4  502    0 -0.75494041621E+02 -0.70831994582E+02  0.20761077878E+03  0.23203630587E+03  0.47000000000E+01 0. -1.
         -5    1    4    4    0  502  0.49415362301E+02 -0.30507532298E+02  0.15261476690E+03  0.16335833200E+03  0.47000000000E+01 0. -1.
<mgrwt>
<rscale>  0 0.34261903E+03</rscale>
<asrwt>0</asrwt>
<pdfrwt beam="1">  1       21 0.88922613E-01 0.34261903E+03</pdfrwt>
<pdfrwt beam="2">  1       21 0.78113129E-02 0.34261903E+03</pdfrwt>
<totfact> 0.12902077E+05</totfact>
</mgrwt>
</event>
<event>
 8    1  0.9331162E-006  0.2850564E+03  0.7546771E-02  0.1092959E+00
         21   -1    0    0  504  503  0.00000000000E+00  0.00000000000E+00  0.14769932929E+02  0.14769932929E+02  0.00000000000E+00 0.  1.
         21   -1    0    0  503  504 -0.00000000000E+00 -0.00000000000E+00 -0.13753815356E+04  0.13753815356E+04  0.00000000000E+00 0.  1.
         25    2    1    2    0    0  0.57807430477E+02  0.57589833295E+01 -0.50349421693E+03  0.52202297391E+03  0.12500677545E+03 0.  0.
         25    2    1    2    0    0 -0.57807430477E+02 -0.57589833295E+01 -0.85711738570E+03  0.86812849457E+03  0.12498802066E+03 0.  0.
          5    1    3    3  501    0  0.55173048818E+02  0.38389444543E+00 -0.50939304702E+03  0.51239396858E+03  0.47000000000E+01 0.  1.
         -5    1    3    3    0  501  0.26343816593E+01  0.53750888841E+01  0.58988300907E+01  0.96290053317E+01  0.47000000000E+01 0.  1.
          5    1    4    4  502    0 -0.82672522101E+02 -0.17294756947E+02 -0.34365174133E+03  0.35391024829E+03  0.47000000000E+01 0.  1.
         -5    1    4    4    0  502  0.24865091624E+02  0.11535773618E+02 -0.51346564437E+03  0.51421824628E+03  0.47000000000E+01 0.  1.
<mgrwt>
<rscale>  0 0.28505644E+03</rscale>
<asrwt>0</asrwt>
<pdfrwt beam="1">  1       21 0.22722979E-02 0.28505644E+03</pdfrwt>
<pdfrwt beam="2">  1       21 0.21159711E+00 0.28505644E+03</pdfrwt>
<totfact> 0.10814202E+05</totfact>
</mgrwt>
</event>
<event>
 8    1  0.9331162E-006  0.3923064E+03  0.7546771E-02  0.1046477E+00
         21   -1    0    0  504  503  0.00000000000E+00  0.00000000000E+00  0.15474597007E+03  0.15474597007E+03  0.00000000000E+00 0.  1.
         21   -1    0    0  503  504 -0.00000000000E+00 -0.00000000000E+00 -0.24864024519E+03  0.24864024519E+03  0.00000000000E+00 0.  1.
         25    2    1    2    0    0  0.64885993639E+02  0.33651925984E+02  0.89117060880E+02  0.17001964089E+03  0.12498873332E+03 0.  0.
         25    2    1    2    0    0 -0.64885993639E+02 -0.33651925984E+02 -0.18301133601E+03  0.23336657436E+03  0.12499665847E+03 0.  0.
          5    1    3    3  501    0  0.80669747993E+02 -0.19435700762E+02  0.76638675723E+02  0.11305278113E+03  0.47000000000E+01 0. -1.
         -5    1    3    3    0  501 -0.15783754354E+02  0.53087626745E+02  0.12478385158E+02  0.56966859762E+02  0.47000000000E+01 0. -1.
          5    1    4    4  502    0 -0.61185227238E+02 -0.47853113074E+02 -0.36334860369E+02  0.85882853592E+02  0.47000000000E+01 0. -1.
         -5    1    4    4    0  502 -0.37007664010E+01  0.14201187090E+02 -0.14667647564E+03  0.14748372077E+03  0.47000000000E+01 0. -1.
<mgrwt>
<rscale>  0 0.39230639E+03</rscale>
<asrwt>0</asrwt>
<pdfrwt beam="1">  1       21 0.23807072E-01 0.39230639E+03</pdfrwt>
<pdfrwt beam="2">  1       21 0.38252345E-01 0.39230639E+03</pdfrwt>
<totfact> 0.10346534E+05</totfact>
</mgrwt>
</event>
<event>
 8    1  0.9331162E-006  0.2682685E+03  0.7546771E-02  0.1102275E+00
         21   -1    0    0  504  503  0.00000000000E+00  0.00000000000E+00  0.34558908594E+02  0.34558908594E+02  0.00000000000E+00 0.  1.
         21   -1    0    0  503  504 -0.00000000000E+00 -0.00000000000E+00 -0.52061830757E+03  0.52061830757E+03  0.00000000000E+00 0.  1.
         25    2    1    2    0    0  0.42180965894E+02  0.21080125919E+01 -0.19245394648E+03  0.23328952534E+03  0.12490717960E+03 0.  0.
         25    2    1    2    0    0 -0.42180965894E+02 -0.21080125919E+01 -0.29360545249E+03  0.32188769082E+03  0.12499538459E+03 0.  0.
          5    1    3    3  501    0 -0.36558234914E+02  0.59168643167E+01 -0.17277573243E+02  0.41135366299E+02  0.47000000000E+01 0. -1.
         -5    1    3    3    0  501  0.78739200808E+02 -0.38088517248E+01 -0.17517637324E+03  0.19215415904E+03  0.47000000000E+01 0. -1.
          5    1    4    4  502    0 -0.75993485553E+02  0.24055668534E+02 -0.24130653854E+03  0.25417439009E+03  0.47000000000E+01 0. -1.
         -5    1    4    4    0  502  0.33812519659E+02 -0.26163681125E+02 -0.52298913953E+02  0.67713300735E+02  0.47000000000E+01 0. -1.
<mgrwt>
<rscale>  0 0.26826853E+03</rscale>
<asrwt>0</asrwt>
<pdfrwt beam="1">  1       21 0.53167554E-02 0.26826853E+03</pdfrwt>
<pdfrwt beam="2">  1       21 0.80095121E-01 0.26826853E+03</pdfrwt>
<totfact> 0.32605743E+05</totfact>
</mgrwt>
</event>
<event>
 8    1  0.9331162E-006  0.2513696E+03  0.7546771E-02  0.1112442E+00
         21   -1    0    0  504  503  0.00000000000E+00  0.00000000000E+00  0.47497688688E+02  0.47497688688E+02  0.00000000000E+00 0.  1.
         21   -1    0    0  503  504 -0.00000000000E+00 -0.00000000000E+00 -0.33257771831E+03  0.33257771831E+03  0.00000000000E+00 0.  1.
         25    2    1    2    0    0  0.19734206114E+01 -0.37882001185E+01 -0.12371265588E+03  0.17591606576E+03  0.12499358431E+03 0.  0.
         25    2    1    2    0    0 -0.19734206114E+01  0.37882001185E+01 -0.16136737374E+03  0.20415934124E+03  0.12499344966E+03 0.  0.
          5    1    3    3  501    0 -0.21375688887E+02 -0.54896985639E+02 -0.96851649377E+02  0.11345894013E+03  0.47000000000E+01 0. -1.
         -5    1    3    3    0  501  0.23349109499E+02  0.51108785520E+02 -0.26861006507E+02  0.62457125633E+02  0.47000000000E+01 0. -1.
          5    1    4    4  502    0  0.45835398991E+02 -0.68313009811E+01 -0.14501778986E+03  0.15231480509E+03  0.47000000000E+01 0. -1.
         -5    1    4    4    0  502 -0.47808819603E+02  0.10619501100E+02 -0.16349583878E+02  0.51844536148E+02  0.47000000000E+01 0. -1.
<mgrwt>
<rscale>  0 0.25136963E+03</rscale>
<asrwt>0</asrwt>
<pdfrwt beam="1">  1       21 0.73073368E-02 0.25136963E+03</pdfrwt>
<pdfrwt beam="2">  1       21 0.51165802E-01 0.25136963E+03</pdfrwt>
<totfact> 0.50389894E+05</totfact>
</mgrwt>
</event>
<event>
 8    1  0.9331162E-006  0.3233257E+03  0.7546771E-02  0.1074129E+00
         21   -1    0    0  504  503  0.00000000000E+00  0.00000000000E+00  0.14464011966E+03  0.14464011966E+03  0.00000000000E+00 0. -1.
         21   -1    0    0  503  504 -0.00000000000E+00 -0.00000000000E+00 -0.18068901570E+03  0.18068901570E+03  0.00000000000E+00 0. -1.
         25    2    1    2    0    0  0.64897367581E+02  0.73670527472E+02  0.11667503505E+02  0.15937758231E+03  0.12500427260E+03 0.  0.
         25    2    1    2    0    0 -0.64897367581E+02 -0.73670527472E+02 -0.47716399554E+02  0.16595155305E+03  0.12499619289E+03 0.  0.
          5    1    3    3  501    0  0.83204375256E+02  0.66496984773E+02 -0.31952286831E+02  0.11130074429E+03  0.47000000000E+01 0. -1.
         -5    1    3    3    0  501 -0.18307007675E+02  0.71735426997E+01  0.43619790336E+02  0.48076838018E+02  0.47000000000E+01 0. -1.
          5    1    4    4  502    0  0.11146460147E+02  0.25070386499E+02 -0.28363857958E+02  0.39741241693E+02  0.47000000000E+01 0. -1.
         -5    1    4    4    0  502 -0.76043827728E+02 -0.98740913971E+02 -0.19352541596E+02  0.12621031136E+03  0.47000000000E+01 0. -1.
<mgrwt>
<rscale>  0 0.32332572E+03</rscale>
<asrwt>0</asrwt>
<pdfrwt beam="1">  1       21 0.22252326E-01 0.32332572E+03</pdfrwt>
<pdfrwt beam="2">  1       21 0.27798310E-01 0.32332572E+03</pdfrwt>
<totfact> 0.22600211E+05</totfact>
</mgrwt>
</event>
<event>
 8    1  0.9331162E-006  0.3011736E+03  0.7546771E-02  0.1084655E+00
         21   -1    0    0  504  503  0.00000000000E+00  0.00000000000E+00  0.43757430479E+03  0.43757430479E+03  0.00000000000E+00 0. -1.
         21   -1    0    0  503  504 -0.00000000000E+00 -0.00000000000E+00 -0.51822936493E+02  0.51822936493E+02  0.00000000000E+00 0. -1.
         25    2    1    2    0    0 -0.30827681726E+02  0.51391004313E+02  0.97364576002E+02  0.16942385584E+03  0.12503279963E+03 0.  0.
         25    2    1    2    0    0  0.30827681726E+02 -0.51391004313E+02  0.28838679229E+03  0.31997338544E+03  0.12499857654E+03 0.  0.
          5    1    3    3  501    0 -0.61935893359E+02 -0.55471442027E+01  0.81218492245E+02  0.10239804284E+03  0.47000000000E+01 0. -1.
         -5    1    3    3    0  501  0.31108211634E+02  0.56938148516E+02  0.16146083757E+02  0.67025812998E+02  0.47000000000E+01 0. -1.
          5    1    4    4  502    0  0.40310014571E+01 -0.85412882840E+01 -0.11625064862E+02  0.15698239116E+02  0.47000000000E+01 0.  1.
         -5    1    4    4    0  502  0.26796680269E+02 -0.42849716029E+02  0.30001185715E+03  0.30427514632E+03  0.47000000000E+01 0.  1.
<mgrwt>
<rscale>  0 0.30117361E+03</rscale>
<asrwt>0</asrwt>
<pdfrwt beam="1">  1       21 0.67319121E-01 0.30117361E+03</pdfrwt>
<pdfrwt beam="2">  1       21 0.79727597E-02 0.30117361E+03</pdfrwt>
<totfact> 0.23684376E+05</totfact>
</mgrwt>
</event>
<event>
 8    1  0.9331162E-006  0.3310597E+03  0.7546771E-02  0.1070669E+00
         21   -1    0    0  504  503  0.00000000000E+00  0.00000000000E+00  0.30408458643E+03  0.30408458643E+03  0.00000000000E+00 0.  1.
         21   -1    0    0  503  504 -0.00000000000E+00 -0.00000000000E+00 -0.90106921552E+02  0.90106921552E+02  0.00000000000E+00 0.  1.
         25    2    1    2    0    0  0.51748638293E+02  0.82415899138E+02  0.16416058884E+03  0.22812818386E+03  0.12499386923E+03 0.  0.
         25    2    1    2    0    0 -0.51748638293E+02 -0.82415899138E+02  0.49817076038E+02  0.16606332413E+03  0.12499993824E+03 0.  0.
          5    1    3    3  501    0  0.22375667552E+02  0.87928466768E+02  0.17402022085E+03  0.19630897338E+03  0.47000000000E+01 0.  1.
         -5    1    3    3    0  501  0.29372970741E+02 -0.55125676298E+01 -0.98596320044E+01  0.31819210475E+02  0.47000000000E+01 0.  1.
          5    1    4    4  502    0 -0.89041360229E+02 -0.75098919113E+02  0.52125964937E+02  0.12770050001E+03  0.47000000000E+01 0. -1.
         -5    1    4    4    0  502  0.37292721936E+02 -0.73169800248E+01 -0.23088888991E+01  0.38362824114E+02  0.47000000000E+01 0. -1.
<mgrwt>
<rscale>  0 0.33105967E+03</rscale>
<asrwt>0</asrwt>
<pdfrwt beam="1">  1       21 0.46782244E-01 0.33105967E+03</pdfrwt>
<pdfrwt beam="2">  1       21 0.13862603E-01 0.33105967E+03</pdfrwt>
<totfact> 0.19094294E+05</totfact>
</mgrwt>
</event>
<event>
 8    1  0.9331162E-006  0.2627004E+03  0.7546771E-02  0.1105532E+00
         21   -1    0    0  504  503  0.00000000000E+00  0.00000000000E+00  0.10356716930E+04  0.10356716930E+04  0.00000000000E+00 0. -1.
         21   -1    0    0  503  504 -0.00000000000E+00 -0.00000000000E+00 -0.16658636351E+02  0.16658636351E+02  0.00000000000E+00 0. -1.
         25    2    1    2    0    0  0.23483633002E+02  0.20338620389E+02  0.61260660685E+03  0.62600292776E+03  0.12501068080E+03 0.  0.
         25    2    1    2    0    0 -0.23483633002E+02 -0.20338620389E+02  0.40640644978E+03  0.42632740157E+03  0.12499484152E+03 0.  0.
          5    1    3    3  501    0 -0.34478359606E+02 -0.34331809625E+02  0.21999369910E+03  0.22535915352E+03  0.47000000000E+01 0. -1.
         -5    1    3    3    0  501  0.57961992608E+02  0.54670430014E+02  0.39261290775E+03  0.40064377424E+03  0.47000000000E+01 0. -1.
          5    1    4    4  502    0 -0.99160113334E+01  0.11375692975E+02  0.38528241476E+03  0.38560648697E+03  0.47000000000E+01 0.  1.
         -5    1    4    4    0  502 -0.13567621668E+02 -0.31714313365E+02  0.21124035016E+02  0.40720914593E+02  0.47000000000E+01 0.  1.
<mgrwt>
<rscale>  0 0.26270042E+03</rscale>
<asrwt>0</asrwt>
<pdfrwt beam="1">  1       21 0.15933406E+00 0.26270042E+03</pdfrwt>
<pdfrwt beam="2">  1       21 0.25628679E-02 0.26270042E+03</pdfrwt>
<totfact> 0.20327701E+05</totfact>
</mgrwt>
</event>
<event>
 8    1  0.9331162E-006  0.3391038E+03  0.7546771E-02  0.1067178E+00
         21   -1    0    0  504  503  0.00000000000E+00  0.00000000000E+00  0.23881813475E+02  0.23881813475E+02  0.00000000000E+00 0.  1.
         21   -1    0    0  503  504 -0.00000000000E+00 -0.00000000000E+00 -0.12037545697E+04  0.12037545697E+04  0.00000000000E+00 0.  1.
         25    2    1    2    0    0  0.10680958179E+03 -0.21150375250E+02 -0.71902571179E+03  0.73788714631E+03  0.12499536527E+03 0.  0.
         25    2    1    2    0    0 -0.10680958179E+03  0.21150375250E+02 -0.46084704441E+03  0.48974923684E+03  0.12497476349E+03 0.  0.
          5    1    3    3  501    0  0.51819995699E+02 -0.62639104445E+02 -0.53824243483E+03  0.54436750271E+03  0.47000000000E+01 0.  1.
         -5    1    3    3    0  501  0.54989586090E+02  0.41488729195E+02 -0.18078327696E+03  0.19351964359E+03  0.47000000000E+01 0.  1.
          5    1    4    4  502    0 -0.11006040947E+03 -0.60218042886E+01 -0.20859470908E+03  0.23597330043E+03  0.47000000000E+01 0.  1.
         -5    1    4    4    0  502  0.32508276835E+01  0.27172179539E+02 -0.25225233534E+03  0.25377593642E+03  0.47000000000E+01 0.  1.
<mgrwt>
<rscale>  0 0.33910377E+03</rscale>
<asrwt>0</asrwt>
<pdfrwt beam="1">  1       21 0.36741255E-02 0.33910377E+03</pdfrwt>
<pdfrwt beam="2">  1       21 0.18519299E+00 0.33910377E+03</pdfrwt>
<totfact> 0.70939575E+04</totfact>
</mgrwt>
</event>
<event>
 8    1  0.9331162E-006  0.3354580E+03  0.7546771E-02  0.1068747E+00
         21   -1    0    0  504  503  0.00000000000E+00  0.00000000000E+00  0.45513726887E+02  0.45513726887E+02  0.00000000000E+00 0. -1.
         21   -1    0    0  503  504 -0.00000000000E+00 -0.00000000000E+00 -0.61812164012E+03  0.61812164012E+03  0.00000000000E+00 0. -1.
         25    2    1    2    0    0  0.37468061015E+02 -0.75625206129E+02 -0.14113442027E+03  0.20656033706E+03  0.12500088345E+03 0.  0.
         25    2    1    2    0    0 -0.37468061015E+02  0.75625206129E+02 -0.43147349296E+03  0.45707502994E+03  0.12500072189E+03 0.  0.
          5    1    3    3  501    0  0.31344913293E+01 -0.68194613668E+02 -0.15426832290E+03  0.16876355003E+03  0.47000000000E+01 0. -1.
         -5    1    3    3    0  501  0.34333569685E+02 -0.74305924608E+01  0.13133902627E+02  0.37796787031E+02  0.47000000000E+01 0. -1.
          5    1    4    4  502    0  0.12051172902E+02  0.64915112620E+02 -0.89393978637E+02  0.11123208184E+03  0.47000000000E+01 0.  1.
         -5    1    4    4    0  502 -0.49519233917E+02  0.10710093509E+02 -0.34207951432E+03  0.34584294810E+03  0.47000000000E+01 0.  1.
<mgrwt>
<rscale>  0 0.33545801E+03</rscale>
<asrwt>0</asrwt>
<pdfrwt beam="1">  1       21 0.70021114E-02 0.33545801E+03</pdfrwt>
<pdfrwt beam="2">  1       21 0.95095642E-01 0.33545801E+03</pdfrwt>
<totfact> 0.13361866E+05</totfact>
</mgrwt>
</event>
<event>
 8    1  0.9331162E-006  0.2660805E+03  0.7546771E-02  0.1103544E+00
         21   -1    0    0  504  503  0.00000000000E+00  0.00000000000E+00  0.86000328713E+02  0.86000328713E+02  0.00000000000E+00 0. -1.
         21   -1    0    0  503  504 -0.00000000000E+00 -0.00000000000E+00 -0.20580981069E+03  0.20580981069E+03  0.00000000000E+00 0. -1.
         25    2    1    2    0    0  0.31995289385E+02 -0.30584937007E+02 -0.48217464377E+02  0.14109632253E+03  0.12499644574E+03 0.  0.
         25    2    1    2    0    0 -0.31995289385E+02  0.30584937007E+02 -0.71592017597E+02  0.15071381687E+03  0.12502040112E+03 0.  0.
          5    1    3    3  501    0  0.70983081367E+01 -0.71388547186E+02 -0.57643924060E+02  0.92150000698E+02  0.47000000000E+01 0. -1.
         -5    1    3    3    0  501  0.24896981248E+02  0.40803610179E+02  0.94264596822E+01  0.48946321834E+02  0.47000000000E+01 0. -1.
          5    1    4    4  502    0 -0.72251816068E+02 -0.19536725928E+01 -0.66776838077E+02  0.98515876209E+02  0.47000000000E+01 0. -1.
         -5    1    4    4    0  502  0.40256526683E+02  0.32538609600E+02 -0.48151795205E+01  0.52197940659E+02  0.47000000000E+01 0. -1.
<mgrwt>
<rscale>  0 0.26608052E+03</rscale>
<asrwt>0</asrwt>
<pdfrwt beam="1">  1       21 0.13230820E-01 0.26608052E+03</pdfrwt>
<pdfrwt beam="2">  1       21 0.31663047E-01 0.26608052E+03</pdfrwt>
<totfact> 0.46536391E+05</totfact>
</mgrwt>
</event>
<event>
 8    1  0.9331162E-006  0.3736691E+03  0.7546771E-02  0.1053299E+00
         21   -1    0    0  504  503  0.00000000000E+00  0.00000000000E+00  0.49066822920E+02  0.49066822920E+02  0.00000000000E+00 0. -1.
         21   -1    0    0  503  504 -0.00000000000E+00 -0.00000000000E+00 -0.71142048125E+03  0.71142048125E+03  0.00000000000E+00 0. -1.
         25    2    1    2    0    0 -0.31319518253E+02 -0.35562070585E+02 -0.65538043594E+02  0.14888805636E+03  0.12500738011E+03 0.  0.
         25    2    1    2    0    0  0.31319518253E+02  0.35562070585E+02 -0.59681561474E+03  0.61159924781E+03  0.12497675318E+03 0.  0.
          5    1    3    3  501    0 -0.51379995774E+02 -0.40263052985E+02  0.13713859771E+02  0.66866862878E+02  0.47000000000E+01 0.  1.
         -5    1    3    3    0  501  0.20060477521E+02  0.47009824006E+01 -0.79251903364E+02  0.82021193485E+02  0.47000000000E+01 0.  1.
          5    1    4    4  502    0  0.79305291395E+02  0.30264453607E+02 -0.39327775513E+03  0.40236146569E+03  0.47000000000E+01 0.  1.
         -5    1    4    4    0  502 -0.47985773142E+02  0.52976169778E+01 -0.20353785961E+03  0.20923778211E+03  0.47000000000E+01 0.  1.
<mgrwt>
<rscale>  0 0.37366907E+03</rscale>
<asrwt>0</asrwt>
<pdfrwt beam="1">  1       21 0.75487419E-02 0.37366907E+03</pdfrwt>
<pdfrwt beam="2">  1       21 0.10944931E+00 0.37366907E+03</pdfrwt>
<totfact> 0.82485837E+04</totfact>
</mgrwt>
</event>
<event>
 8    1  0.9331162E-006  0.3042053E+03  0.7546771E-02  0.1083157E+00
         21   -1    0    0  504  503  0.00000000000E+00  0.00000000000E+00  0.30487087591E+03  0.30487087591E+03  0.00000000000E+00 0.  1.
         21   -1    0    0  503  504 -0.00000000000E+00 -0.00000000000E+00 -0.75885317766E+02  0.75885317766E+02  0.00000000000E+00 0.  1.
         25    2    1    2    0    0 -0.17056860268E+02  0.11208932821E+02  0.21992061550E+03  0.25378556341E+03  0.12500183365E+03 0.  0.
         25    2    1    2    0    0  0.17056860268E+02 -0.11208932821E+02  0.90649426452E+01  0.12697063027E+03  0.12499116412E+03 0.  0.
          5    1    3    3  501    0 -0.24542413860E+01 -0.46849268127E+02  0.16771037292E+03  0.17421175739E+03  0.47000000000E+01 0. -1.
         -5    1    3    3    0  501 -0.14602618882E+02  0.58058200948E+02  0.52210242575E+02  0.79573806025E+02  0.47000000000E+01 0. -1.
          5    1    4    4  502    0  0.63456450680E+02 -0.11831067024E+02 -0.24823453643E+02  0.69318028900E+02  0.47000000000E+01 0.  1.
         -5    1    4    4    0  502 -0.46399590412E+02  0.62213420300E+00  0.33888396288E+02  0.57652601367E+02  0.47000000000E+01 0.  1.
<mgrwt>
<rscale>  0 0.30420535E+03</rscale>
<asrwt>0</asrwt>
<pdfrwt beam="1">  1       21 0.46903211E-01 0.30420535E+03</pdfrwt>
<pdfrwt beam="2">  1       21 0.11674664E-01 0.30420535E+03</pdfrwt>
<totfact> 0.26094357E+05</totfact>
</mgrwt>
</event>
<event>
 8    1  0.9331162E-006  0.3608981E+03  0.7546771E-02  0.1058229E+00
         21   -1    0    0  504  503  0.00000000000E+00  0.00000000000E+00  0.76476929139E+03  0.76476929139E+03  0.00000000000E+00 0. -1.
         21   -1    0    0  503  504 -0.00000000000E+00 -0.00000000000E+00 -0.42577358012E+02  0.42577358012E+02  0.00000000000E+00 0. -1.
         25    2    1    2    0    0  0.15632743881E+02  0.99552050964E+02  0.17684739000E+03  0.23886384186E+03  0.12500376821E+03 0.  0.
         25    2    1    2    0    0 -0.15632743881E+02 -0.99552050964E+02  0.54534454338E+03  0.56848280754E+03  0.12496814772E+03 0.  0.
          5    1    3    3  501    0 -0.47447248622E+02  0.26889492343E+02  0.10593287085E+03  0.11923988144E+03  0.47000000000E+01 0. -1.
         -5    1    3    3    0  501  0.63079992503E+02  0.72662558622E+02  0.70914519148E+02  0.11962396042E+03  0.47000000000E+01 0. -1.
          5    1    4    4  502    0  0.23644733248E+02 -0.63381323252E+02  0.47615566121E+03  0.48096004954E+03  0.47000000000E+01 0.  1.
         -5    1    4    4    0  502 -0.39277477130E+02 -0.36170727712E+02  0.69188882166E+02  0.87522758002E+02  0.47000000000E+01 0.  1.
<mgrwt>
<rscale>  0 0.36089808E+03</rscale>
<asrwt>0</asrwt>
<pdfrwt beam="1">  1       21 0.11765680E+00 0.36089808E+03</pdfrwt>
<pdfrwt beam="2">  1       21 0.65503633E-02 0.36089808E+03</pdfrwt>
<totfact> 0.88679197E+04</totfact>
</mgrwt>
</event>
<event>
 8    1  0.9331162E-006  0.2956543E+03  0.7546771E-02  0.1087433E+00
         21   -1    0    0  504  503  0.00000000000E+00  0.00000000000E+00  0.57918116051E+02  0.57918116051E+02  0.00000000000E+00 0.  1.
         21   -1    0    0  503  504 -0.00000000000E+00 -0.00000000000E+00 -0.37730619453E+03  0.37730619453E+03  0.00000000000E+00 0.  1.
         25    2    1    2    0    0  0.33589755867E+02 -0.67952736114E+02 -0.19197557303E+03  0.24130390394E+03  0.12500842921E+03 0.  0.
         25    2    1    2    0    0 -0.33589755867E+02  0.67952736114E+02 -0.12741250544E+03  0.19392040663E+03  0.12500132608E+03 0.  0.
          5    1    3    3  501    0 -0.38290351615E+02 -0.44526515560E+02 -0.39148761598E+02  0.70735261004E+02  0.47000000000E+01 0.  1.
         -5    1    3    3    0  501  0.71880107482E+02 -0.23426220555E+02 -0.15282681143E+03  0.17056864294E+03  0.47000000000E+01 0.  1.
          5    1    4    4  502    0 -0.15082143641E+02  0.10410060560E+03 -0.93018880870E+02  0.14049558478E+03  0.47000000000E+01 0. -1.
         -5    1    4    4    0  502 -0.18507612226E+02 -0.36147869489E+02 -0.34393624572E+02  0.53424821854E+02  0.47000000000E+01 0. -1.
<mgrwt>
<rscale>  0 0.29565428E+03</rscale>
<asrwt>0</asrwt>
<pdfrwt beam="1">  1       21 0.89104794E-02 0.29565428E+03</pdfrwt>
<pdfrwt beam="2">  1       21 0.58047107E-01 0.29565428E+03</pdfrwt>
<totfact> 0.26947779E+05</totfact>
</mgrwt>
</event>
<event>
 8    1  0.9331162E-006  0.3770429E+03  0.7546771E-02  0.1052032E+00
         21   -1    0    0  504  503  0.00000000000E+00  0.00000000000E+00  0.19587471144E+03  0.19587471144E+03  0.00000000000E+00 0.  1.
         21   -1    0    0  503  504 -0.00000000000E+00 -0.00000000000E+00 -0.18144425914E+03  0.18144425914E+03  0.00000000000E+00 0.  1.
         25    2    1    2    0    0 -0.94828639962E+02  0.10426818788E+03 -0.50649474227E-01  0.18838758249E+03  0.12500221082E+03 0.  0.
         25    2    1    2    0    0  0.94828639962E+02 -0.10426818788E+03  0.14481101779E+02  0.18893138810E+03  0.12498416355E+03 0.  0.
          5    1    3    3  501    0 -0.78833653458E+02  0.85433246864E+02  0.54381176955E+02  0.12842502480E+03  0.47000000000E+01 0. -1.
         -5    1    3    3    0  501 -0.15994986504E+02  0.18834941018E+02 -0.54431826429E+02  0.59962557691E+02  0.47000000000E+01 0. -1.
          5    1    4    4  502    0  0.11853481995E+03 -0.88445264820E+02 -0.13664980901E+02  0.14859976485E+03  0.47000000000E+01 0. -1.
         -5    1    4    4    0  502 -0.23706179987E+02 -0.15822923061E+02  0.28146082679E+02  0.40331623250E+02  0.47000000000E+01 0. -1.
<mgrwt>
<rscale>  0 0.37704293E+03</rscale>
<asrwt>0</asrwt>
<pdfrwt beam="1">  1       21 0.30134571E-01 0.37704293E+03</pdfrwt>
<pdfrwt beam="2">  1       21 0.27914501E-01 0.37704293E+03</pdfrwt>
<totfact> 0.12298573E+05</totfact>
</mgrwt>
</event>
<event>
 8    1  0.9331162E-006  0.2575672E+03  0.7546771E-02  0.1108614E+00
         21   -1    0    0  504  503  0.00000000000E+00  0.00000000000E+00  0.12886489537E+03  0.12886489537E+03  0.00000000000E+00 0. -1.
         21   -1    0    0  503  504 -0.00000000000E+00 -0.00000000000E+00 -0.12870236001E+03  0.12870236001E+03  0.00000000000E+00 0. -1.
         25    2    1    2    0    0 -0.25836965846E+02  0.77530395932E+01  0.15053320482E+02  0.12875605384E+03  0.12499544198E+03 0.  0.
         25    2    1    2    0    0  0.25836965846E+02 -0.77530395932E+01 -0.14890785126E+02  0.12881120154E+03  0.12507170637E+03 0.  0.
          5    1    3    3  501    0  0.44393502627E+01  0.22598035491E+02 -0.50046397609E+02  0.55291147143E+02  0.47000000000E+01 0.  1.
         -5    1    3    3    0  501 -0.30276316108E+02 -0.14844995898E+02  0.65099718091E+02  0.73464906696E+02  0.47000000000E+01 0.  1.
          5    1    4    4  502    0  0.31160349512E+02 -0.23582434479E+02 -0.64886375355E+02  0.75890910552E+02  0.47000000000E+01 0. -1.
         -5    1    4    4    0  502 -0.53233836664E+01  0.15829394885E+02  0.49995590229E+02  0.52920290990E+02  0.47000000000E+01 0. -1.
<mgrwt>
<rscale>  0 0.25756720E+03</rscale>
<asrwt>0</asrwt>
<pdfrwt beam="1">  1       21 0.19825369E-01 0.25756720E+03</pdfrwt>
<pdfrwt beam="2">  1       21 0.19800363E-01 0.25756720E+03</pdfrwt>
<totfact> 0.54531930E+05</totfact>
</mgrwt>
</event>
<event>
 8    1  0.9331162E-006  0.3771385E+03  0.7546771E-02  0.1051996E+00
         21   -1    0    0  504  503  0.00000000000E+00  0.00000000000E+00  0.71085469050E+03  0.71085469050E+03  0.00000000000E+00 0.  1.
         21   -1    0    0  503  504 -0.00000000000E+00 -0.00000000000E+00 -0.50021983609E+02  0.50021983609E+02  0.00000000000E+00 0.  1.
         25    2    1    2    0    0 -0.16838294564E+02 -0.11606600592E+03  0.48899644048E+03  0.51816978380E+03  0.12501024018E+03 0.  0.
         25    2    1    2    0    0  0.16838294564E+02  0.11606600592E+03  0.17183626642E+03  0.24270689031E+03  0.12499634496E+03 0.  0.
          5    1    3    3  501    0  0.38354669256E+01 -0.80059251747E+01  0.29443512319E+03  0.29460641101E+03  0.47000000000E+01 0.  1.
         -5    1    3    3    0  501 -0.20673761490E+02 -0.10806008075E+03  0.19456131729E+03  0.22356337278E+03  0.47000000000E+01 0.  1.
          5    1    4    4  502    0 -0.24123875721E+02 -0.15981533443E+02  0.51951695969E+02  0.59652657150E+02  0.47000000000E+01 0. -1.
         -5    1    4    4    0  502  0.40962170285E+02  0.13204753937E+03  0.11988457045E+03  0.18305423316E+03  0.47000000000E+01 0. -1.
<mgrwt>
<rscale>  0 0.37713850E+03</rscale>
<asrwt>0</asrwt>
<pdfrwt beam="1">  1       21 0.10936225E+00 0.37713850E+03</pdfrwt>
<pdfrwt beam="2">  1       21 0.76956903E-02 0.37713850E+03</pdfrwt>
<totfact> 0.79819227E+04</totfact>
</mgrwt>
</event>
<event>
 8    1  0.9331162E-006  0.7472238E+03  0.7546771E-02  0.9639716E-01
         21   -1    0    0  504  503  0.00000000000E+00  0.00000000000E+00  0.84991260978E+02  0.84991260978E+02  0.00000000000E+00 0. -1.
         21   -1    0    0  503  504 -0.00000000000E+00 -0.00000000000E+00 -0.16423554067E+04  0.16423554067E+04  0.00000000000E+00 0. -1.
         25    2    1    2    0    0 -0.14901081741E+03  0.15953186308E+03 -0.14010974589E+03  0.28794128034E+03  0.12499920396E+03 0.  0.
         25    2    1    2    0    0  0.14901081741E+03 -0.15953186308E+03 -0.14172543998E+04  0.14394053873E+04  0.12499278457E+03 0.  0.
          5    1    3    3  501    0  0.12544116154E+02  0.21871773964E+02 -0.52194233052E+02  0.58155458130E+02  0.47000000000E+01 0.  1.
         -5    1    3    3    0  501 -0.16155493356E+03  0.13766008912E+03 -0.87915512835E+02  0.22978582221E+03  0.47000000000E+01 0.  1.
          5    1    4    4  502    0  0.46483364562E+00 -0.31734005226E+02 -0.52008333895E+03  0.52107200329E+03  0.47000000000E+01 0.  1.
         -5    1    4    4    0  502  0.14854598376E+03 -0.12779785785E+03 -0.89717106087E+03  0.91833338403E+03  0.47000000000E+01 0.  1.
<mgrwt>
<rscale>  0 0.74722381E+03</rscale>
<asrwt>0</asrwt>
<pdfrwt beam="1">  1       21 0.13075579E-01 0.74722381E+03</pdfrwt>
<pdfrwt beam="2">  1       21 0.25267006E+00 0.74722381E+03</pdfrwt>
<totfact> 0.24352209E+03</totfact>
</mgrwt>
</event>
<event>
 8    1  0.9331162E-006  0.3014071E+03  0.7546771E-02  0.1084539E+00
         21   -1    0    0  504  503  0.00000000000E+00  0.00000000000E+00  0.34551190094E+03  0.34551190094E+03  0.00000000000E+00 0. -1.
         21   -1    0    0  503  504 -0.00000000000E+00 -0.00000000000E+00 -0.65733096490E+02  0.65733096490E+02  0.00000000000E+00 0. -1.
         25    2    1    2    0    0  0.61523762949E+02 -0.21003273772E+01  0.61547671899E+02  0.15232573199E+03  0.12500171170E+03 0.  0.
         25    2    1    2    0    0 -0.61523762949E+02  0.21003273772E+01  0.21823113255E+03  0.25891926544E+03  0.12499909607E+03 0.  0.
          5    1    3    3  501    0  0.60530994206E+02  0.46617991432E+02  0.68696406802E+02  0.10285195522E+03  0.47000000000E+01 0.  1.
         -5    1    3    3    0  501  0.99276874290E+00 -0.48718318809E+02 -0.71487349023E+01  0.49473776771E+02  0.47000000000E+01 0.  1.
          5    1    4    4  502    0 -0.22004360984E+02 -0.47027443525E+02  0.29547017250E+02  0.59924023356E+02  0.47000000000E+01 0. -1.
         -5    1    4    4    0  502 -0.39519401965E+02  0.49127770902E+02  0.18868411530E+03  0.19899524209E+03  0.47000000000E+01 0. -1.
<mgrwt>
<rscale>  0 0.30140715E+03</rscale>
<asrwt>0</asrwt>
<pdfrwt beam="1">  1       21 0.53155676E-01 0.30140715E+03</pdfrwt>
<pdfrwt beam="2">  1       21 0.10112784E-01 0.30140715E+03</pdfrwt>
<totfact> 0.25952357E+05</totfact>
</mgrwt>
</event>
<event>
 8    1  0.9331162E-006  0.3518639E+03  0.7546771E-02  0.1061853E+00
         21   -1    0    0  504  503  0.00000000000E+00  0.00000000000E+00  0.12264441938E+03  0.12264441938E+03  0.00000000000E+00 0.  1.
         21   -1    0    0  503  504 -0.00000000000E+00 -0.00000000000E+00 -0.25237225945E+03  0.25237225945E+03  0.00000000000E+00 0.  1.
         25    2    1    2    0    0  0.51039946430E+02  0.49613143170E+02 -0.17281597642E+03  0.22484590059E+03  0.12499510869E+03 0.  0.
         25    2    1    2    0    0 -0.51039946430E+02 -0.49613143170E+02  0.43088136358E+02  0.15017077825E+03  0.12501253952E+03 0.  0.
          5    1    3    3  501    0  0.20673117024E+02  0.58911983143E+02 -0.15789215997E+02  0.64570805068E+02  0.47000000000E+01 0. -1.
         -5    1    3    3    0  501  0.30366829406E+02 -0.92988399732E+01 -0.15702676043E+03  0.16027509552E+03  0.47000000000E+01 0. -1.
          5    1    4    4  502    0 -0.60364955124E+02 -0.82139412731E+02  0.98671496914E+01  0.10251956679E+03  0.47000000000E+01 0.  1.
         -5    1    4    4    0  502  0.93250086947E+01  0.32526269561E+02  0.33220986667E+02  0.47651211462E+02  0.47000000000E+01 0.  1.
<mgrwt>
<rscale>  0 0.35186389E+03</rscale>
<asrwt>0</asrwt>
<pdfrwt beam="1">  1       21 0.18868372E-01 0.35186389E+03</pdfrwt>
<pdfrwt beam="2">  1       21 0.38826501E-01 0.35186389E+03</pdfrwt>
<totfact> 0.15767456E+05</totfact>
</mgrwt>
</event>
<event>
 8    1  0.9331162E-006  0.6554740E+03  0.7546771E-02  0.9796561E-01
         21   -1    0    0  504  503  0.00000000000E+00  0.00000000000E+00  0.14991524956E+03  0.14991524956E+03  0.00000000000E+00 0. -1.
         21   -1    0    0  503  504 -0.00000000000E+00 -0.00000000000E+00 -0.71648176256E+03  0.71648176256E+03  0.00000000000E+00 0. -1.
         25    2    1    2    0    0  0.10479898887E+03  0.63170293333E+02 -0.64962303861E+03  0.67276486198E+03  0.12501661167E+03 0.  0.
         25    2    1    2    0    0 -0.10479898887E+03 -0.63170293333E+02  0.83056525606E+02  0.19363215014E+03  0.12498683568E+03 0.  0.
          5    1    3    3  501    0  0.34705887857E+01  0.72679808070E+02 -0.28430117239E+03  0.29350237837E+03  0.47000000000E+01 0. -1.
         -5    1    3    3    0  501  0.10132840008E+03 -0.95095147367E+01 -0.36532186622E+03  0.37926248361E+03  0.47000000000E+01 0. -1.
          5    1    4    4  502    0 -0.28865104395E+01 -0.94028778973E+01 -0.30132252508E+02  0.32043543756E+02  0.47000000000E+01 0. -1.
         -5    1    4    4    0  502 -0.10191247843E+03 -0.53767415436E+02  0.11318877811E+03  0.16158860638E+03  0.47000000000E+01 0. -1.
<mgrwt>
<rscale>  0 0.65547400E+03</rscale>
<asrwt>0</asrwt>
<pdfrwt beam="1">  1       21 0.23063885E-01 0.65547400E+03</pdfrwt>
<pdfrwt beam="2">  1       21 0.11022796E+00 0.65547400E+03</pdfrwt>
<totfact> 0.96933552E+03</totfact>
</mgrwt>
</event>
<event>
 8    1  0.9331162E-006  0.4468634E+03  0.7546771E-02  0.1028662E+00
         21   -1    0    0  504  503  0.00000000000E+00  0.00000000000E+00  0.45521779701E+02  0.45521779701E+02  0.00000000000E+00 0. -1.
         21   -1    0    0  503  504 -0.00000000000E+00 -0.00000000000E+00 -0.10966559170E+04  0.10966559170E+04  0.00000000000E+00 0. -1.
         25    2    1    2    0    0 -0.93653295229E+02  0.14307693951E+03 -0.34384206527E+03  0.40384893460E+03  0.12499858321E+03 0.  0.
         25    2    1    2    0    0  0.93653295229E+02 -0.14307693951E+03 -0.70729207200E+03  0.73832876207E+03  0.12500134183E+03 0.  0.
          5    1    3    3  501    0 -0.81643305929E+02  0.55523396777E+02 -0.27345723317E+03  0.29077383886E+03  0.47000000000E+01 0. -1.
         -5    1    3    3    0  501 -0.12009989300E+02  0.87553542730E+02 -0.70384832106E+02  0.11307509575E+03  0.47000000000E+01 0. -1.
          5    1    4    4  502    0  0.49495733778E+02 -0.75450329933E+02 -0.14938917979E+03  0.17459036911E+03  0.47000000000E+01 0.  1.
         -5    1    4    4    0  502  0.44157561451E+02 -0.67626609574E+02 -0.55790289221E+03  0.56373839295E+03  0.47000000000E+01 0.  1.
<mgrwt>
<rscale>  0 0.44686342E+03</rscale>
<asrwt>0</asrwt>
<pdfrwt beam="1">  1       21 0.70033507E-02 0.44686342E+03</pdfrwt>
<pdfrwt beam="2">  1       21 0.16871630E+00 0.44686342E+03</pdfrwt>
<totfact> 0.29527941E+04</totfact>
</mgrwt>
</event>
<event>
 8    1  0.9331162E-006  0.4872163E+03  0.7546771E-02  0.1017171E+00
         21   -1    0    0  504  503  0.00000000000E+00  0.00000000000E+00  0.14866520900E+04  0.14866520900E+04  0.00000000000E+00 0.  1.
         21   -1    0    0  503  504 -0.00000000000E+00 -0.00000000000E+00 -0.39918499227E+02  0.39918499227E+02  0.00000000000E+00 0.  1.
         25    2    1    2    0    0 -0.32096411746E+02 -0.94958774641E+01  0.13700239150E+04  0.13761215679E+04  0.12499876265E+03 0.  0.
         25    2    1    2    0    0  0.32096411746E+02  0.94958774641E+01  0.76709675762E+02  0.15044902130E+03  0.12502072756E+03 0.  0.
          5    1    3    3  501    0 -0.72990945172E+02 -0.13285730986E+02  0.54298068852E+03  0.54804589847E+03  0.47000000000E+01 0. -1.
         -5    1    3    3    0  501  0.40894533426E+02  0.37898535220E+01  0.82704322646E+03  0.82807566943E+03  0.47000000000E+01 0. -1.
          5    1    4    4  502    0  0.13152297947E+02  0.31628903973E+02 -0.26206998993E+02  0.43385104633E+02  0.47000000000E+01 0.  1.
         -5    1    4    4    0  502  0.18944113798E+02 -0.22133026509E+02  0.10291667476E+03  0.10706391667E+03  0.47000000000E+01 0.  1.
<mgrwt>
<rscale>  0 0.48721626E+03</rscale>
<asrwt>0</asrwt>
<pdfrwt beam="1">  1       21 0.22871566E+00 0.48721626E+03</pdfrwt>
<pdfrwt beam="2">  1       21 0.61413087E-02 0.48721626E+03</pdfrwt>
<totfact> 0.14467033E+04</totfact>
</mgrwt>
</event>
<event>
 8    1  0.9331162E-006  0.2706301E+03  0.7546771E-02  0.1100920E+00
         21   -1    0    0  504  503  0.00000000000E+00  0.00000000000E+00  0.21447831322E+03  0.21447831322E+03  0.00000000000E+00 0. -1.
         21   -1    0    0  503  504 -0.00000000000E+00 -0.00000000000E+00 -0.85370672646E+02  0.85370672646E+02  0.00000000000E+00 0. -1.
         25    2    1    2    0    0 -0.18519357466E+02  0.36567856535E+02  0.99670973310E+02  0.16504659730E+03  0.12500360646E+03 0.  0.
         25    2    1    2    0    0  0.18519357466E+02 -0.36567856535E+02  0.29436667266E+02  0.13480238857E+03  0.12499996741E+03 0.  0.
          5    1    3    3  501    0 -0.17972208077E+02  0.63243756775E+02  0.44714171363E+01  0.66067061426E+02  0.47000000000E+01 0.  1.
         -5    1    3    3    0  501 -0.54714938875E+00 -0.26675900240E+02  0.95199556174E+02  0.98979535874E+02  0.47000000000E+01 0.  1.
          5    1    4    4  502    0 -0.34632968244E+02 -0.29142773364E+02  0.58082460690E+02  0.73786218012E+02  0.47000000000E+01 0. -1.
         -5    1    4    4    0  502  0.53152325710E+02 -0.74250831707E+01 -0.28645793424E+02  0.61016170556E+02  0.47000000000E+01 0. -1.
<mgrwt>
<rscale>  0 0.27063006E+03</rscale>
<asrwt>0</asrwt>
<pdfrwt beam="1">  1       21 0.32996663E-01 0.27063006E+03</pdfrwt>
<pdfrwt beam="2">  1       21 0.13133950E-01 0.27063006E+03</pdfrwt>
<totfact> 0.43424380E+05</totfact>
</mgrwt>
</event>
<event>
 8    1  0.9331162E-006  0.2831700E+03  0.7546771E-02  0.1093970E+00
         21   -1    0    0  504  503  0.00000000000E+00  0.00000000000E+00  0.10305488051E+03  0.10305488051E+03  0.00000000000E+00 0.  1.
         21   -1    0    0  503  504 -0.00000000000E+00 -0.00000000000E+00 -0.19452077232E+03  0.19452077232E+03  0.00000000000E+00 0.  1.
         25    2    1    2    0    0  0.88757348027E+01  0.21411712005E+02 -0.11118200507E+03  0.16892361508E+03  0.12504602913E+03 0.  0.
         25    2    1    2    0    0 -0.88757348027E+01 -0.21411712005E+02  0.19716113262E+02  0.12865203775E+03  0.12500152645E+03 0.  0.
          5    1    3    3  501    0 -0.39124568506E+02 -0.22133787352E+02 -0.89772754462E+02  0.10050807852E+03  0.47000000000E+01 0.  1.
         -5    1    3    3    0  501  0.48000303309E+02  0.43545499357E+02 -0.21409250607E+02  0.68415536565E+02  0.47000000000E+01 0.  1.
          5    1    4    4  502    0  0.57752107866E+02 -0.75667680786E+01  0.14694177819E+02  0.60254218142E+02  0.47000000000E+01 0.  1.
         -5    1    4    4    0  502 -0.66627842669E+02 -0.13844943926E+02  0.50219354432E+01  0.68397819604E+02  0.47000000000E+01 0.  1.
<mgrwt>
<rscale>  0 0.28317002E+03</rscale>
<asrwt>0</asrwt>
<pdfrwt beam="1">  1       21 0.15854597E-01 0.28317002E+03</pdfrwt>
<pdfrwt beam="2">  1       21 0.29926273E-01 0.28317002E+03</pdfrwt>
<totfact> 0.37231905E+05</totfact>
</mgrwt>
</event>
<event>
 8    1  0.9331162E-006  0.3672916E+03  0.7546771E-02  0.1055733E+00
         21   -1    0    0  504  503  0.00000000000E+00  0.00000000000E+00  0.21759940556E+03  0.21759940556E+03  0.00000000000E+00 0.  1.
         21   -1    0    0  503  504 -0.00000000000E+00 -0.00000000000E+00 -0.15499025499E+03  0.15499025499E+03  0.00000000000E+00 0.  1.
         25    2    1    2    0    0  0.17567384603E+02  0.77759956216E+02  0.14125162747E+03  0.20476855624E+03  0.12499166200E+03 0.  0.
         25    2    1    2    0    0 -0.17567384603E+02 -0.77759956216E+02 -0.78642476898E+02  0.16782110431E+03  0.12499624029E+03 0.  0.
          5    1    3    3  501    0  0.44967156060E+02 -0.11836628392E+02  0.18475388331E+02  0.50255157644E+02  0.47000000000E+01 0.  1.
         -5    1    3    3    0  501 -0.27399771458E+02  0.89596584608E+02  0.12277623914E+03  0.15451339860E+03  0.47000000000E+01 0.  1.
          5    1    4    4  502    0  0.54068461406E+02 -0.30703397613E+02 -0.35474574192E+02  0.71740034554E+02  0.47000000000E+01 0.  1.
         -5    1    4    4    0  502 -0.71635846008E+02 -0.47056558604E+02 -0.43167902706E+02  0.96081069753E+02  0.47000000000E+01 0.  1.
<mgrwt>
<rscale>  0 0.36729164E+03</rscale>
<asrwt>0</asrwt>
<pdfrwt beam="1">  1       21 0.33476832E-01 0.36729164E+03</pdfrwt>
<pdfrwt beam="2">  1       21 0.23844655E-01 0.36729164E+03</pdfrwt>
<totfact> 0.13577970E+05</totfact>
</mgrwt>
</event>
<event>
 8    1  0.9331162E-006  0.2761231E+03  0.7546771E-02  0.1097825E+00
         21   -1    0    0  504  503  0.00000000000E+00  0.00000000000E+00  0.19047554998E+03  0.19047554998E+03  0.00000000000E+00 0. -1.
         21   -1    0    0  503  504 -0.00000000000E+00 -0.00000000000E+00 -0.10007051018E+03  0.10007051018E+03  0.00000000000E+00 0. -1.
         25    2    1    2    0    0 -0.51825042198E+02  0.58147770867E+01  0.17044384228E+02  0.13651224953E+03  0.12500174642E+03 0.  0.
         25    2    1    2    0    0  0.51825042198E+02 -0.58147770867E+01  0.73360655577E+02  0.15403381062E+03  0.12499992959E+03 0.  0.
          5    1    3    3  501    0 -0.70732352137E+02 -0.40699708330E+02  0.24955126992E+02  0.85465667143E+02  0.47000000000E+01 0.  1.
         -5    1    3    3    0  501  0.18907309939E+02  0.46514485417E+02 -0.79107427642E+01  0.51046582391E+02  0.47000000000E+01 0.  1.
          5    1    4    4  502    0  0.44708701356E+02 -0.62991033850E+02  0.37381675918E+02  0.85943109188E+02  0.47000000000E+01 0. -1.
         -5    1    4    4    0  502  0.71163408421E+01  0.57176256763E+02  0.35978979659E+02  0.68090701434E+02  0.47000000000E+01 0. -1.
<mgrwt>
<rscale>  0 0.27612306E+03</rscale>
<asrwt>0</asrwt>
<pdfrwt beam="1">  1       21 0.29303931E-01 0.27612306E+03</pdfrwt>
<pdfrwt beam="2">  1       21 0.15395463E-01 0.27612306E+03</pdfrwt>
<totfact> 0.41011922E+05</totfact>
</mgrwt>
</event>
<event>
 8    1  0.9331162E-006  0.4238323E+03  0.7546771E-02  0.1035826E+00
         21   -1    0    0  504  503  0.00000000000E+00  0.00000000000E+00  0.33212267379E+03  0.33212267379E+03  0.00000000000E+00 0. -1.
         21   -1    0    0  503  504 -0.00000000000E+00 -0.00000000000E+00 -0.13521646991E+03  0.13521646991E+03  0.00000000000E+00 0. -1.
         25    2    1    2    0    0  0.76830495236E+02 -0.14303016376E+03  0.15806955725E+03  0.25878708475E+03  0.12499687020E+03 0.  0.
         25    2    1    2    0    0 -0.76830495236E+02  0.14303016376E+03  0.38836646619E+02  0.20855205895E+03  0.12500049371E+03 0.  0.
          5    1    3    3  501    0 -0.15194324455E+02 -0.94821339699E+02  0.10379133469E+03  0.14148033473E+03  0.47000000000E+01 0. -1.
         -5    1    3    3    0  501  0.92024819691E+02 -0.48208824061E+02  0.54278222562E+02  0.11730675002E+03  0.47000000000E+01 0. -1.
          5    1    4    4  502    0 -0.42729585874E+02  0.15749432978E+03  0.47883819812E+02  0.17013298217E+03  0.47000000000E+01 0. -1.
         -5    1    4    4    0  502 -0.34100909362E+02 -0.14464166020E+02 -0.90471731933E+01  0.38419076782E+02  0.47000000000E+01 0. -1.
<mgrwt>
<rscale>  0 0.42383230E+03</rscale>
<asrwt>0</asrwt>
<pdfrwt beam="1">  1       21 0.51095796E-01 0.42383230E+03</pdfrwt>
<pdfrwt beam="2">  1       21 0.20802534E-01 0.42383230E+03</pdfrwt>
<totfact> 0.72805405E+04</totfact>
</mgrwt>
</event>
<event>
 8    1  0.9331162E-006  0.3082615E+03  0.7546771E-02  0.1081182E+00
         21   -1    0    0  504  503  0.00000000000E+00  0.00000000000E+00  0.23127808990E+03  0.23127808990E+03  0.00000000000E+00 0.  1.
         21   -1    0    0  503  504 -0.00000000000E+00 -0.00000000000E+00 -0.10271740764E+03  0.10271740764E+03  0.00000000000E+00 0.  1.
         25    2    1    2    0    0  0.51163261460E+02 -0.51730685045E+02  0.12202240262E+03  0.18921229707E+03  0.12497233103E+03 0.  0.
         25    2    1    2    0    0 -0.51163261460E+02  0.51730685045E+02  0.65382796415E+01  0.14478320047E+03  0.12500273172E+03 0.  0.
          5    1    3    3  501    0  0.64345097745E+02 -0.69187930437E+02  0.13384862821E+03  0.16390487057E+03  0.47000000000E+01 0.  1.
         -5    1    3    3    0  501 -0.13181836285E+02  0.17457245392E+02 -0.11826225591E+02  0.25307426504E+02  0.47000000000E+01 0.  1.
          5    1    4    4  502    0 -0.29253947240E+01 -0.36251782320E+02 -0.18768598478E+02  0.41195872906E+02  0.47000000000E+01 0. -1.
         -5    1    4    4    0  502 -0.48237866736E+02  0.87982467365E+02  0.25306878119E+02  0.10358732756E+03  0.47000000000E+01 0. -1.
<mgrwt>
<rscale>  0 0.30826149E+03</rscale>
<asrwt>0</asrwt>
<pdfrwt beam="1">  1       21 0.35581244E-01 0.30826149E+03</pdfrwt>
<pdfrwt beam="2">  1       21 0.15802678E-01 0.30826149E+03</pdfrwt>
<totfact> 0.26423007E+05</totfact>
</mgrwt>
</event>
<event>
 8    1  0.9331162E-006  0.3038436E+03  0.7546771E-02  0.1083335E+00
         21   -1    0    0  504  503  0.00000000000E+00  0.00000000000E+00  0.42750478978E+03  0.42750478978E+03  0.00000000000E+00 0. -1.
         21   -1    0    0  503  504 -0.00000000000E+00 -0.00000000000E+00 -0.53988255927E+02  0.53988255927E+02  0.00000000000E+00 0. -1.
         25    2    1    2    0    0 -0.31152299785E+02  0.66292673299E+02  0.11430470433E+03  0.18453940189E+03  0.12499616436E+03 0.  0.
         25    2    1    2    0    0  0.31152299785E+02 -0.66292673299E+02  0.25921182952E+03  0.29695364381E+03  0.12500203876E+03 0.  0.
          5    1    3    3  501    0 -0.17400321417E+02 -0.52778068805E+01 -0.22593090630E+02  0.29379655803E+02  0.47000000000E+01 0.  1.
         -5    1    3    3    0  501 -0.13751978368E+02  0.71570480179E+02  0.13689779496E+03  0.15515974609E+03  0.47000000000E+01 0.  1.
          5    1    4    4  502    0  0.18300213793E+02  0.29864817754E+02  0.24676178926E+02  0.43102308183E+02  0.47000000000E+01 0. -1.
         -5    1    4    4    0  502  0.12852085992E+02 -0.96157491053E+02  0.23453565059E+03  0.25385133563E+03  0.47000000000E+01 0. -1.
<mgrwt>
<rscale>  0 0.30384363E+03</rscale>
<asrwt>0</asrwt>
<pdfrwt beam="1">  1       21 0.65769965E-01 0.30384363E+03</pdfrwt>
<pdfrwt beam="2">  1       21 0.83058858E-02 0.30384363E+03</pdfrwt>
<totfact> 0.23188464E+05</totfact>
</mgrwt>
</event>
<event>
 8    1  0.9331162E-006  0.2799321E+03  0.7546771E-02  0.1095726E+00
         21   -1    0    0  504  503  0.00000000000E+00  0.00000000000E+00  0.15233375401E+04  0.15233375401E+04  0.00000000000E+00 0.  1.
         21   -1    0    0  503  504 -0.00000000000E+00 -0.00000000000E+00 -0.12860249115E+02  0.12860249115E+02  0.00000000000E+00 0.  1.
         25    2    1    2    0    0  0.49099585544E+01  0.93118355184E+01  0.10959609113E+04  0.11031166540E+04  0.12500086062E+03 0.  0.
         25    2    1    2    0    0 -0.49099585544E+01 -0.93118355184E+01  0.41451637971E+03  0.43308113529E+03  0.12499849088E+03 0.  0.
          5    1    3    3  501    0  0.47714870264E+02 -0.23905804544E+02  0.82579846242E+03  0.82753452307E+03  0.47000000000E+01 0.  1.
         -5    1    3    3    0  501 -0.42804911709E+02  0.33217640062E+02  0.27016244890E+03  0.27558213091E+03  0.47000000000E+01 0.  1.
          5    1    4    4  502    0  0.24809648290E+02 -0.22834816771E+02  0.25167379704E+02  0.42337152790E+02  0.47000000000E+01 0.  1.
         -5    1    4    4    0  502 -0.29719606845E+02  0.13522981252E+02  0.38934900000E+03  0.39074398250E+03  0.47000000000E+01 0.  1.
<mgrwt>
<rscale>  0 0.27993214E+03</rscale>
<asrwt>0</asrwt>
<pdfrwt beam="1">  1       21 0.23435948E+00 0.27993214E+03</pdfrwt>
<pdfrwt beam="2">  1       21 0.19785011E-02 0.27993214E+03</pdfrwt>
<totfact> 0.98182270E+04</totfact>
</mgrwt>
</event>
<event>
 8    1  0.9331162E-006  0.3511714E+03  0.7546771E-02  0.1062135E+00
         21   -1    0    0  504  503  0.00000000000E+00  0.00000000000E+00  0.58827747273E+03  0.58827747273E+03  0.00000000000E+00 0. -1.
         21   -1    0    0  503  504 -0.00000000000E+00 -0.00000000000E+00 -0.52407829889E+02  0.52407829889E+02  0.00000000000E+00 0. -1.
         25    2    1    2    0    0 -0.77954421002E+02 -0.88728966932E+02  0.20327413126E+03  0.26626002892E+03  0.12499723691E+03 0.  0.
         25    2    1    2    0    0  0.77954421002E+02  0.88728966932E+02  0.33259551158E+03  0.37442527370E+03  0.12499915973E+03 0.  0.
          5    1    3    3  501    0 -0.65822198466E+02 -0.45497234983E+02  0.27437401726E+02  0.84719898580E+02  0.47000000000E+01 0.  1.
         -5    1    3    3    0  501 -0.12132222537E+02 -0.43231731949E+02  0.17583672953E+03  0.18154013034E+03  0.47000000000E+01 0.  1.
          5    1    4    4  502    0  0.54182602587E+02 -0.20678717144E+02  0.13987010178E+03  0.15148960076E+03  0.47000000000E+01 0. -1.
         -5    1    4    4    0  502  0.23771818415E+02  0.10940768408E+03  0.19272540980E+03  0.22293567293E+03  0.47000000000E+01 0. -1.
<mgrwt>
<rscale>  0 0.35117144E+03</rscale>
<asrwt>0</asrwt>
<pdfrwt beam="1">  1       21 0.90504222E-01 0.35117144E+03</pdfrwt>
<pdfrwt beam="2">  1       21 0.80627435E-02 0.35117144E+03</pdfrwt>
<totfact> 0.11682302E+05</totfact>
</mgrwt>
</event>
<event>
 8    1  0.9331162E-006  0.2637738E+03  0.7546771E-02  0.1104897E+00
         21   -1    0    0  504  503  0.00000000000E+00  0.00000000000E+00  0.17813538171E+02  0.17813538171E+02  0.00000000000E+00 0. -1.
         21   -1    0    0  503  504 -0.00000000000E+00 -0.00000000000E+00 -0.97645710658E+03  0.97645710658E+03  0.00000000000E+00 0. -1.
         25    2    1    2    0    0  0.13077209036E+02  0.42502944915E+01 -0.62917135811E+03  0.64161589541E+03  0.12500112395E+03 0.  0.
         25    2    1    2    0    0 -0.13077209036E+02 -0.42502944915E+01 -0.32947221031E+03  0.35265474934E+03  0.12499742584E+03 0.  0.
          5    1    3    3  501    0 -0.24287521772E+02  0.56111137397E+02 -0.28407405048E+03  0.29061744547E+03  0.47000000000E+01 0.  1.
         -5    1    3    3    0  501  0.37364730808E+02 -0.51860842906E+02 -0.34509730762E+03  0.35099844994E+03  0.47000000000E+01 0.  1.
          5    1    4    4  502    0 -0.40721574542E+02 -0.42362824915E+02 -0.27149086204E+03  0.27781690686E+03  0.47000000000E+01 0.  1.
         -5    1    4    4    0  502  0.27644365506E+02  0.38112530424E+02 -0.57981348266E+02  0.74837842474E+02  0.47000000000E+01 0.  1.
<mgrwt>
<rscale>  0 0.26377381E+03</rscale>
<asrwt>0</asrwt>
<pdfrwt beam="1">  1       21 0.27405437E-02 0.26377381E+03</pdfrwt>
<pdfrwt beam="2">  1       21 0.15022421E+00 0.26377381E+03</pdfrwt>
<totfact> 0.21310907E+05</totfact>
</mgrwt>
</event>
<event>
 8    1  0.9331162E-006  0.3582301E+03  0.7546771E-02  0.1059287E+00
         21   -1    0    0  504  503  0.00000000000E+00  0.00000000000E+00  0.62386312842E+03  0.62386312842E+03  0.00000000000E+00 0. -1.
         21   -1    0    0  503  504 -0.00000000000E+00 -0.00000000000E+00 -0.51425074638E+02  0.51425074638E+02  0.00000000000E+00 0. -1.
         25    2    1    2    0    0 -0.62487156060E+02  0.66223593428E+02  0.11583155561E+03  0.19321130541E+03  0.12499380091E+03 0.  0.
         25    2    1    2    0    0  0.62487156060E+02 -0.66223593428E+02  0.45660649817E+03  0.48207689764E+03  0.12497372553E+03 0.  0.
          5    1    3    3  501    0 -0.38543651211E+02 -0.25819122731E+02  0.47026522145E+01  0.46866246758E+02  0.47000000000E+01 0. -1.
         -5    1    3    3    0  501 -0.23943504849E+02  0.92042716160E+02  0.11112890340E+03  0.14634505865E+03  0.47000000000E+01 0. -1.
          5    1    4    4  502    0  0.44346644993E+02 -0.10317807720E+03  0.31097798189E+03  0.33066861925E+03  0.47000000000E+01 0.  1.
         -5    1    4    4    0  502  0.18140511067E+02  0.36954483768E+02  0.14562851628E+03  0.15140827839E+03  0.47000000000E+01 0.  1.
<mgrwt>
<rscale>  0 0.35823014E+03</rscale>
<asrwt>0</asrwt>
<pdfrwt beam="1">  1       21 0.95978937E-01 0.35823014E+03</pdfrwt>
<pdfrwt beam="2">  1       21 0.79115504E-02 0.35823014E+03</pdfrwt>
<totfact> 0.10490368E+05</totfact>
</mgrwt>
</event>
<event>
 8    1  0.9331162E-006  0.3564584E+03  0.7546771E-02  0.1059995E+00
         21   -1    0    0  504  503  0.00000000000E+00  0.00000000000E+00  0.48387765470E+02  0.48387765470E+02  0.00000000000E+00 0.  1.
         21   -1    0    0  503  504 -0.00000000000E+00 -0.00000000000E+00 -0.65648103833E+03  0.65648103833E+03  0.00000000000E+00 0.  1.
         25    2    1    2    0    0 -0.85508975891E+02 -0.28280667607E+02 -0.12686976668E+03  0.19958384568E+03  0.12500477048E+03 0.  0.
         25    2    1    2    0    0  0.85508975891E+02  0.28280667607E+02 -0.48122350618E+03  0.50528495812E+03  0.12500097952E+03 0.  0.
          5    1    3    3  501    0 -0.32533462024E+02 -0.14015015657E+02 -0.13872920527E+03  0.14325756248E+03  0.47000000000E+01 0.  1.
         -5    1    3    3    0  501 -0.52975513867E+02 -0.14265651950E+02  0.11859438590E+02  0.56326283196E+02  0.47000000000E+01 0.  1.
          5    1    4    4  502    0 -0.41883651131E-01  0.20372150886E+02 -0.51957215362E+01  0.21543254356E+02  0.47000000000E+01 0.  1.
         -5    1    4    4    0  502  0.85550859542E+02  0.79085167212E+01 -0.47602778464E+03  0.48374170376E+03  0.47000000000E+01 0.  1.
<mgrwt>
<rscale>  0 0.35645842E+03</rscale>
<asrwt>0</asrwt>
<pdfrwt beam="1">  1       21 0.74442718E-02 0.35645842E+03</pdfrwt>
<pdfrwt beam="2">  1       21 0.10099708E+00 0.35645842E+03</pdfrwt>
<totfact> 0.10334825E+05</totfact>
</mgrwt>
</event>
<event>
 8    1  0.9331162E-006  0.3062717E+03  0.7546771E-02  0.1082147E+00
         21   -1    0    0  504  503  0.00000000000E+00  0.00000000000E+00  0.76334585973E+02  0.76334585973E+02  0.00000000000E+00 0. -1.
         21   -1    0    0  503  504 -0.00000000000E+00 -0.00000000000E+00 -0.30720793682E+03  0.30720793682E+03  0.00000000000E+00 0. -1.
         25    2    1    2    0    0  0.26588254429E+01  0.88370260184E+02 -0.11919106923E+03  0.19403065305E+03  0.12500004441E+03 0.  0.
         25    2    1    2    0    0 -0.26588254429E+01 -0.88370260184E+02 -0.11168228162E+03  0.18951186974E+03  0.12500177802E+03 0.  0.
          5    1    3    3  501    0 -0.57787847323E+02  0.19750543322E+02 -0.53648976077E+02  0.81423718251E+02  0.47000000000E+01 0. -1.
         -5    1    3    3    0  501  0.60446672766E+02  0.68619716861E+02 -0.65542093152E+02  0.11260693480E+03  0.47000000000E+01 0. -1.
          5    1    4    4  502    0  0.39056592397E+02  0.14522665401E+02 -0.28525054874E+02  0.50715815833E+02  0.47000000000E+01 0.  1.
         -5    1    4    4    0  502 -0.41715417840E+02 -0.10289292558E+03 -0.83157226745E+02  0.13879605391E+03  0.47000000000E+01 0.  1.
<mgrwt>
<rscale>  0 0.30627171E+03</rscale>
<asrwt>0</asrwt>
<pdfrwt beam="1">  1       21 0.11743782E-01 0.30627171E+03</pdfrwt>
<pdfrwt beam="2">  1       21 0.47262761E-01 0.30627171E+03</pdfrwt>
<totfact> 0.25398386E+05</totfact>
</mgrwt>
</event>
<event>
 8    1  0.9331162E-006  0.3450091E+03  0.7546771E-02  0.1064682E+00
         21   -1    0    0  504  503  0.00000000000E+00  0.00000000000E+00  0.10390632120E+04  0.10390632120E+04  0.00000000000E+00 0.  1.
         21   -1    0    0  503  504 -0.00000000000E+00 -0.00000000000E+00 -0.28639082139E+02  0.28639082139E+02  0.00000000000E+00 0.  1.
         25    2    1    2    0    0  0.10557465205E+03 -0.19804689712E+02  0.66286129834E+03  0.68304271859E+03  0.12499608673E+03 0.  0.
         25    2    1    2    0    0 -0.10557465205E+03  0.19804689712E+02  0.34756283155E+03  0.38465957558E+03  0.12499933727E+03 0.  0.
          5    1    3    3  501    0  0.22321478779E+02 -0.42759612819E+02  0.45957440924E+03  0.46212266828E+03  0.47000000000E+01 0. -1.
         -5    1    3    3    0  501  0.83253173266E+02  0.22954923106E+02  0.20328688909E+03  0.22092005031E+03  0.47000000000E+01 0. -1.
          5    1    4    4  502    0 -0.40250732561E+02  0.48990021465E+02  0.57026459604E+02  0.85406386001E+02  0.47000000000E+01 0. -1.
         -5    1    4    4    0  502 -0.65323919485E+02 -0.29185331753E+02  0.29053637195E+03  0.29925318958E+03  0.47000000000E+01 0. -1.
<mgrwt>
<rscale>  0 0.34500908E+03</rscale>
<asrwt>0</asrwt>
<pdfrwt beam="1">  1       21 0.15985585E+00 0.34500908E+03</pdfrwt>
<pdfrwt beam="2">  1       21 0.44060134E-02 0.34500908E+03</pdfrwt>
<totfact> 0.78961481E+04</totfact>
</mgrwt>
</event>
<event>
 8    1  0.9331162E-006  0.4062379E+03  0.7546771E-02  0.1041641E+00
         21   -1    0    0  504  503  0.00000000000E+00  0.00000000000E+00  0.79362949624E+02  0.79362949624E+02  0.00000000000E+00 0.  1.
         21   -1    0    0  503  504 -0.00000000000E+00 -0.00000000000E+00 -0.51985607663E+03  0.51985607663E+03  0.00000000000E+00 0.  1.
         25    2    1    2    0    0 -0.30982965544E+02 -0.65290433506E+02 -0.95075157118E+01  0.14469182142E+03  0.12499018150E+03 0.  0.
         25    2    1    2    0    0  0.30982965544E+02  0.65290433506E+02 -0.43098561129E+03  0.45452720483E+03  0.12499439158E+03 0.  0.
          5    1    3    3  501    0  0.42440877282E+02 -0.55672043199E+02 -0.35097240549E+01  0.70249644991E+02  0.47000000000E+01 0.  1.
         -5    1    3    3    0  501 -0.73423842826E+02 -0.96183903067E+01 -0.59977916570E+01  0.74442176433E+02  0.47000000000E+01 0.  1.
          5    1    4    4  502    0  0.40232195213E+02  0.35570614044E+02 -0.54251136074E+02  0.76479892000E+02  0.47000000000E+01 0. -1.
         -5    1    4    4    0  502 -0.92492296690E+01  0.29719819462E+02 -0.37673447522E+03  0.37804731283E+03  0.47000000000E+01 0. -1.
<mgrwt>
<rscale>  0 0.40623792E+03</rscale>
<asrwt>0</asrwt>
<pdfrwt beam="1">  1       21 0.12209684E-01 0.40623792E+03</pdfrwt>
<pdfrwt beam="2">  1       21 0.79977861E-01 0.40623792E+03</pdfrwt>
<totfact> 0.73132592E+04</totfact>
</mgrwt>
</event>
<event>
 8    1  0.9331162E-006  0.4760200E+03  0.7546771E-02  0.1020235E+00
         21   -1    0    0  504  503  0.00000000000E+00  0.00000000000E+00  0.22722764716E+03  0.22722764716E+03  0.00000000000E+00 0. -1.
         21   -1    0    0  503  504 -0.00000000000E+00 -0.00000000000E+00 -0.24930401266E+03  0.24930401266E+03  0.00000000000E+00 0. -1.
         25    2    1    2    0    0  0.16573740707E+03  0.99543804633E+02 -0.71465579720E+02  0.24105833152E+03  0.12499573179E+03 0.  0.
         25    2    1    2    0    0 -0.16573740707E+03 -0.99543804633E+02  0.49389214229E+02  0.23547332830E+03  0.12502214489E+03 0.  0.
          5    1    3    3  501    0  0.15192726748E+02 -0.18569619910E+02  0.17419974634E+02  0.30019914155E+02  0.47000000000E+01 0.  1.
         -5    1    3    3    0  501  0.15054468033E+03  0.11811342454E+03 -0.88885554354E+02  0.21103841737E+03  0.47000000000E+01 0.  1.
          5    1    4    4  502    0 -0.15044665093E+03 -0.77969008023E+02 -0.10497009896E+02  0.16984003711E+03  0.47000000000E+01 0.  1.
         -5    1    4    4    0  502 -0.15290756142E+02 -0.21574796610E+02  0.59886224125E+02  0.65633291188E+02  0.47000000000E+01 0.  1.
<mgrwt>
<rscale>  0 0.47602002E+03</rscale>
<asrwt>0</asrwt>
<pdfrwt beam="1">  1       21 0.34958100E-01 0.47602002E+03</pdfrwt>
<pdfrwt beam="2">  1       21 0.38354463E-01 0.47602002E+03</pdfrwt>
<totfact> 0.47322704E+04</totfact>
</mgrwt>
</event>
<event>
 8    1  0.9331162E-006  0.2535658E+03  0.7546771E-02  0.1111072E+00
         21   -1    0    0  504  503  0.00000000000E+00  0.00000000000E+00  0.75080488365E+02  0.75080488365E+02  0.00000000000E+00 0. -1.
         21   -1    0    0  503  504 -0.00000000000E+00 -0.00000000000E+00 -0.21408902823E+03  0.21408902823E+03  0.00000000000E+00 0. -1.
         25    2    1    2    0    0 -0.48232767649E+01 -0.19995190777E+02 -0.75269665445E+02  0.14735884451E+03  0.12500413939E+03 0.  0.
         25    2    1    2    0    0  0.48232767649E+01  0.19995190777E+02 -0.63738874418E+02  0.14181067209E+03  0.12499820380E+03 0.  0.
          5    1    3    3  501    0 -0.90142496533E+01  0.34462155476E+02  0.17219730952E+02  0.39843518807E+02  0.47000000000E+01 0. -1.
         -5    1    3    3    0  501  0.41909728884E+01 -0.54457346253E+02 -0.92489396396E+02  0.10751532570E+03  0.47000000000E+01 0. -1.
          5    1    4    4  502    0 -0.29100882321E+02  0.51747911818E+02 -0.72986382810E+02  0.94200901296E+02  0.47000000000E+01 0.  1.
         -5    1    4    4    0  502  0.33924159086E+02 -0.31752721041E+02  0.92475083915E+01  0.47609770789E+02  0.47000000000E+01 0.  1.
<mgrwt>
<rscale>  0 0.25356584E+03</rscale>
<asrwt>0</asrwt>
<pdfrwt beam="1">  1       21 0.11550844E-01 0.25356584E+03</pdfrwt>
<pdfrwt beam="2">  1       21 0.32936773E-01 0.25356584E+03</pdfrwt>
<totfact> 0.55118108E+05</totfact>
</mgrwt>
</event>
<event>
 8    1  0.9331162E-006  0.3374260E+03  0.7546771E-02  0.1067898E+00
         21   -1    0    0  504  503  0.00000000000E+00  0.00000000000E+00  0.11023908760E+04  0.11023908760E+04  0.00000000000E+00 0. -1.
         21   -1    0    0  503  504 -0.00000000000E+00 -0.00000000000E+00 -0.25820316483E+02  0.25820316483E+02  0.00000000000E+00 0. -1.
         25    2    1    2    0    0 -0.18569014886E+02  0.42662014172E+02  0.19283366829E+03  0.23446616125E+03  0.12499880552E+03 0.  0.
         25    2    1    2    0    0  0.18569014886E+02 -0.42662014172E+02  0.88373689124E+03  0.89374503124E+03  0.12499772862E+03 0.  0.
          5    1    3    3  501    0 -0.47410564930E+02  0.71816375829E+02  0.94924083102E+02  0.12821086170E+03  0.47000000000E+01 0.  1.
         -5    1    3    3    0  501  0.28841550044E+02 -0.29154361658E+02  0.97909585185E+02  0.10625529956E+03  0.47000000000E+01 0.  1.
          5    1    4    4  502    0 -0.18729319213E+02 -0.64671578682E+02  0.75134631927E+03  0.75437164711E+03  0.47000000000E+01 0. -1.
         -5    1    4    4    0  502  0.37298334100E+02  0.22009564510E+02  0.13239057197E+03  0.13937338412E+03  0.47000000000E+01 0. -1.
<mgrwt>
<rscale>  0 0.33742603E+03</rscale>
<asrwt>0</asrwt>
<pdfrwt beam="1">  1       21 0.16959856E+00 0.33742603E+03</pdfrwt>
<pdfrwt beam="2">  1       21 0.39723572E-02 0.33742603E+03</pdfrwt>
<totfact> 0.80056973E+04</totfact>
</mgrwt>
</event>
<event>
 8    1  0.9331162E-006  0.2715728E+03  0.7546771E-02  0.1100383E+00
         21   -1    0    0  504  503  0.00000000000E+00  0.00000000000E+00  0.39218320897E+02  0.39218320897E+02  0.00000000000E+00 0.  1.
         21   -1    0    0  503  504 -0.00000000000E+00 -0.00000000000E+00 -0.47013587952E+03  0.47013587952E+03  0.00000000000E+00 0.  1.
         25    2    1    2    0    0  0.32048989232E+02 -0.27713280288E+02 -0.15560752978E+03  0.20404374712E+03  0.12499993519E+03 0.  0.
         25    2    1    2    0    0 -0.32048989232E+02  0.27713280288E+02 -0.27531002884E+03  0.30531045330E+03  0.12499478909E+03 0.  0.
          5    1    3    3  501    0 -0.44154462370E+02 -0.96379754384E+01 -0.25483096041E+02  0.52095924039E+02  0.47000000000E+01 0. -1.
         -5    1    3    3    0  501  0.76203451602E+02 -0.18075304850E+02 -0.13012443374E+03  0.15194782308E+03  0.47000000000E+01 0. -1.
          5    1    4    4  502    0  0.16089510385E+02 -0.12016018015E+02  0.22813585611E+01  0.20749738077E+02  0.47000000000E+01 0.  1.
         -5    1    4    4    0  502 -0.48138499617E+02  0.39729298303E+02 -0.27759138740E+03  0.28456071522E+03  0.47000000000E+01 0.  1.
<mgrwt>
<rscale>  0 0.27157275E+03</rscale>
<asrwt>0</asrwt>
<pdfrwt beam="1">  1       21 0.60335879E-02 0.27157275E+03</pdfrwt>
<pdfrwt beam="2">  1       21 0.72328596E-01 0.27157275E+03</pdfrwt>
<totfact> 0.33008729E+05</totfact>
</mgrwt>
</event>
<event>
 8    1  0.9331162E-006  0.4159095E+03  0.7546771E-02  0.1038406E+00
         21   -1    0    0  504  503  0.00000000000E+00  0.00000000000E+00  0.12542307153E+03  0.12542307153E+03  0.00000000000E+00 0. -1.
         21   -1    0    0  503  504 -0.00000000000E+00 -0.00000000000E+00 -0.34479444879E+03  0.34479444879E+03  0.00000000000E+00 0. -1.
         25    2    1    2    0    0  0.13341722435E+03  0.19158215659E+02 -0.21960032386E+03  0.28638869947E+03  0.12500796761E+03 0.  0.
         25    2    1    2    0    0 -0.13341722435E+03 -0.19158215659E+02  0.22894659896E+00  0.18382882084E+03  0.12500315985E+03 0.  0.
          5    1    3    3  501    0  0.12548643139E+03  0.24759274172E+02 -0.23499534169E+03  0.26759067012E+03  0.47000000000E+01 0.  1.
         -5    1    3    3    0  501  0.79307929651E+01 -0.56010585124E+01  0.15395017830E+02  0.18798029351E+02  0.47000000000E+01 0.  1.
          5    1    4    4  502    0 -0.52914366003E+02 -0.23747825067E+02  0.59821280214E+02  0.83453968697E+02  0.47000000000E+01 0. -1.
         -5    1    4    4    0  502 -0.80502858352E+02  0.45896094076E+01 -0.59592333615E+02  0.10037485214E+03  0.47000000000E+01 0. -1.
<mgrwt>
<rscale>  0 0.41590950E+03</rscale>
<asrwt>0</asrwt>
<pdfrwt beam="1">  1       21 0.19295857E-01 0.41590950E+03</pdfrwt>
<pdfrwt beam="2">  1       21 0.53045299E-01 0.41590950E+03</pdfrwt>
<totfact> 0.77663822E+04</totfact>
</mgrwt>
</event>
<event>
 8    1  0.9331162E-006  0.3128929E+03  0.7546771E-02  0.1078967E+00
         21   -1    0    0  504  503  0.00000000000E+00  0.00000000000E+00  0.87116284977E+02  0.87116284977E+02  0.00000000000E+00 0.  1.
         21   -1    0    0  503  504 -0.00000000000E+00 -0.00000000000E+00 -0.28095198207E+03  0.28095198207E+03  0.00000000000E+00 0.  1.
         25    2    1    2    0    0 -0.30326534004E+02 -0.36722177257E+02 -0.19234966927E+03  0.23429317974E+03  0.12500672717E+03 0.  0.
         25    2    1    2    0    0  0.30326534004E+02  0.36722177257E+02 -0.14860278292E+01  0.13377508731E+03  0.12500139495E+03 0.  0.
          5    1    3    3  501    0  0.44838894094E+01  0.76968660592E+01  0.15711808725E+02  0.18662742156E+02  0.47000000000E+01 0. -1.
         -5    1    3    3    0  501 -0.34810423413E+02 -0.44419043316E+02 -0.20806147799E+03  0.21563043758E+03  0.47000000000E+01 0. -1.
          5    1    4    4  502    0  0.71369289440E+02  0.21973713120E+02  0.29118107727E+02  0.80289312744E+02  0.47000000000E+01 0.  1.
         -5    1    4    4    0  502 -0.41042755435E+02  0.14748464138E+02 -0.30604135556E+02  0.53485774569E+02  0.47000000000E+01 0.  1.
<mgrwt>
<rscale>  0 0.31289291E+03</rscale>
<asrwt>0</asrwt>
<pdfrwt beam="1">  1       21 0.13402505E-01 0.31289291E+03</pdfrwt>
<pdfrwt beam="2">  1       21 0.43223382E-01 0.31289291E+03</pdfrwt>
<totfact> 0.24030545E+05</totfact>
</mgrwt>
</event>
<event>
 8    1  0.9331162E-006  0.3397972E+03  0.7546771E-02  0.1066882E+00
         21   -1    0    0  504  503  0.00000000000E+00  0.00000000000E+00  0.33881207296E+02  0.33881207296E+02  0.00000000000E+00 0. -1.
         21   -1    0    0  503  504 -0.00000000000E+00 -0.00000000000E+00 -0.85196304747E+03  0.85196304747E+03  0.00000000000E+00 0. -1.
         25    2    1    2    0    0 -0.74313683042E+01 -0.27875020834E+02 -0.69944492032E+03  0.71111511096E+03  0.12501704866E+03 0.  0.
         25    2    1    2    0    0  0.74313683042E+01  0.27875020834E+02 -0.11863691985E+03  0.17472914380E+03  0.12499325150E+03 0.  0.
          5    1    3    3  501    0 -0.27064380637E+02 -0.26943503201E+01 -0.29521442319E+02  0.40414672825E+02  0.47000000000E+01 0.  1.
         -5    1    3    3    0  501  0.19633012333E+02 -0.25180670514E+02 -0.66992347800E+03  0.67070043813E+03  0.47000000000E+01 0.  1.
          5    1    4    4  502    0 -0.52792739339E+02  0.40116776992E+02 -0.57031365041E+02  0.87584791611E+02  0.47000000000E+01 0. -1.
         -5    1    4    4    0  502  0.60224107643E+02 -0.12241756157E+02 -0.61605554814E+02  0.87144352193E+02  0.47000000000E+01 0. -1.
<mgrwt>
<rscale>  0 0.33979721E+03</rscale>
<asrwt>0</asrwt>
<pdfrwt beam="1">  1       21 0.52124941E-02 0.33979721E+03</pdfrwt>
<pdfrwt beam="2">  1       21 0.13107122E+00 0.33979721E+03</pdfrwt>
<totfact> 0.10061063E+05</totfact>
</mgrwt>
</event>
<event>
 8    1  0.9331162E-006  0.2510721E+03  0.7546771E-02  0.1112629E+00
         21   -1    0    0  504  503  0.00000000000E+00  0.00000000000E+00  0.27774458165E+03  0.27774458165E+03  0.00000000000E+00 0. -1.
         21   -1    0    0  503  504 -0.00000000000E+00 -0.00000000000E+00 -0.56740272510E+02  0.56740272510E+02  0.00000000000E+00 0. -1.
         25    2    1    2    0    0  0.34113850084E+01  0.54082934085E+01  0.12336320754E+03  0.17573813844E+03  0.12499810055E+03 0.  0.
         25    2    1    2    0    0 -0.34113850084E+01 -0.54082934085E+01  0.97641101598E+02  0.15874671572E+03  0.12500339134E+03 0.  0.
          5    1    3    3  501    0  0.11575323624E+01 -0.36481661606E+01 -0.25651305988E+02  0.26357702791E+02  0.47000000000E+01 0.  1.
         -5    1    3    3    0  501  0.22538526460E+01  0.90564595691E+01  0.14901451353E+03  0.14938043565E+03  0.47000000000E+01 0.  1.
          5    1    4    4  502    0 -0.41412136679E+01  0.20349789111E+01  0.12746865902E+03  0.12763870816E+03  0.47000000000E+01 0. -1.
         -5    1    4    4    0  502  0.72982865958E+00 -0.74432723196E+01 -0.29827557419E+02  0.31108007559E+02  0.47000000000E+01 0. -1.
<mgrwt>
<rscale>  0 0.25107213E+03</rscale>
<asrwt>0</asrwt>
<pdfrwt beam="1">  1       21 0.42729935E-01 0.25107213E+03</pdfrwt>
<pdfrwt beam="2">  1       21 0.87292729E-02 0.25107213E+03</pdfrwt>
<totfact> 0.53678926E+05</totfact>
</mgrwt>
</event>
<event>
 8    1  0.9331162E-006  0.3711052E+03  0.7546771E-02  0.1054271E+00
         21   -1    0    0  504  503  0.00000000000E+00  0.00000000000E+00  0.61277789207E+02  0.61277789207E+02  0.00000000000E+00 0. -1.
         21   -1    0    0  503  504 -0.00000000000E+00 -0.00000000000E+00 -0.56186358618E+03  0.56186358618E+03  0.00000000000E+00 0. -1.
         25    2    1    2    0    0 -0.15879283147E+02  0.25989601018E+02 -0.47480840856E+03  0.49193072223E+03  0.12500079856E+03 0.  0.
         25    2    1    2    0    0  0.15879283147E+02 -0.25989601018E+02 -0.25777388420E+02  0.13121065316E+03  0.12499660298E+03 0.  0.
          5    1    3    3  501    0 -0.56182182314E+02  0.32802464992E+02 -0.13822608248E+03  0.15284298870E+03  0.47000000000E+01 0. -1.
         -5    1    3    3    0  501  0.40302899167E+02 -0.68128639737E+01 -0.33658232608E+03  0.33908773352E+03  0.47000000000E+01 0. -1.
          5    1    4    4  502    0 -0.38355972747E+02 -0.53843332296E+02 -0.22433381426E+02  0.69968790759E+02  0.47000000000E+01 0. -1.
         -5    1    4    4    0  502  0.54235255894E+02  0.27853731277E+02 -0.33440069941E+01  0.61241862404E+02  0.47000000000E+01 0. -1.
<mgrwt>
<rscale>  0 0.37110515E+03</rscale>
<asrwt>0</asrwt>
<pdfrwt beam="1">  1       21 0.94273526E-02 0.37110515E+03</pdfrwt>
<pdfrwt beam="2">  1       21 0.86440548E-01 0.37110515E+03</pdfrwt>
<totfact> 0.98128343E+04</totfact>
</mgrwt>
</event>
<event>
 8    1  0.9331162E-006  0.3528703E+03  0.7546771E-02  0.1061443E+00
         21   -1    0    0  504  503  0.00000000000E+00  0.00000000000E+00  0.22625851665E+03  0.22625851665E+03  0.00000000000E+00 0. -1.
         21   -1    0    0  503  504 -0.00000000000E+00 -0.00000000000E+00 -0.13758319068E+03  0.13758319068E+03  0.00000000000E+00 0. -1.
         25    2    1    2    0    0  0.72352944515E+02 -0.98740297872E+02  0.67863113606E+02  0.18765070125E+03  0.12499115363E+03 0.  0.
         25    2    1    2    0    0 -0.72352944515E+02  0.98740297872E+02  0.20812212361E+02  0.17619100608E+03  0.12500210973E+03 0.  0.
          5    1    3    3  501    0  0.10567418289E+03 -0.80027446913E+02  0.35388030935E+02  0.13728010752E+03  0.47000000000E+01 0. -1.
         -5    1    3    3    0  501 -0.33321238370E+02 -0.18712850959E+02  0.32475082671E+02  0.50370593723E+02  0.47000000000E+01 0. -1.
          5    1    4    4  502    0 -0.19385535147E+02  0.11700854192E+03  0.15763284326E+02  0.11973875307E+03  0.47000000000E+01 0.  1.
         -5    1    4    4    0  502 -0.52967409368E+02 -0.18268244047E+02  0.50489280343E+01  0.56452253010E+02  0.47000000000E+01 0.  1.
<mgrwt>
<rscale>  0 0.35287034E+03</rscale>
<asrwt>0</asrwt>
<pdfrwt beam="1">  1       21 0.34809003E-01 0.35287034E+03</pdfrwt>
<pdfrwt beam="2">  1       21 0.21166645E-01 0.35287034E+03</pdfrwt>
<totfact> 0.15820794E+05</totfact>
</mgrwt>
</event>
<event>
 8    1  0.9331162E-006  0.3455342E+03  0.7546771E-02  0.1064463E+00
         21   -1    0    0  504  503  0.00000000000E+00  0.00000000000E+00  0.26652179250E+03  0.26652179250E+03  0.00000000000E+00 0.  1.
         21   -1    0    0  503  504 -0.00000000000E+00 -0.00000000000E+00 -0.11199263113E+03  0.11199263113E+03  0.00000000000E+00 0.  1.
         25    2    1    2    0    0 -0.76529329991E+02 -0.78638703632E+02  0.26078020641E+02  0.16835876267E+03  0.12499530291E+03 0.  0.
         25    2    1    2    0    0  0.76529329991E+02  0.78638703632E+02  0.12845114073E+03  0.21015566097E+03  0.12499968890E+03 0.  0.
          5    1    3    3  501    0 -0.86997304764E+02 -0.95212771081E+02 -0.74104840929E+01  0.12927106439E+03  0.47000000000E+01 0.  1.
         -5    1    3    3    0  501  0.10467974773E+02  0.16574067449E+02  0.33488504734E+02  0.39087698282E+02  0.47000000000E+01 0.  1.
          5    1    4    4  502    0  0.39455404631E+01  0.90270302064E+02  0.87548196986E+02  0.12590103860E+03  0.47000000000E+01 0. -1.
         -5    1    4    4    0  502  0.72583789528E+02 -0.11631598432E+02  0.40902943740E+02  0.84254622371E+02  0.47000000000E+01 0. -1.
<mgrwt>
<rscale>  0 0.34553423E+03</rscale>
<asrwt>0</asrwt>
<pdfrwt beam="1">  1       21 0.41003353E-01 0.34553423E+03</pdfrwt>
<pdfrwt beam="2">  1       21 0.17229636E-01 0.34553423E+03</pdfrwt>
<totfact> 0.16740329E+05</totfact>
</mgrwt>
</event>
<event>
 8    1  0.9331162E-006  0.2870537E+03  0.7546771E-02  0.1091898E+00
         21   -1    0    0  504  503  0.00000000000E+00  0.00000000000E+00  0.43492882702E+03  0.43492882702E+03  0.00000000000E+00 0. -1.
         21   -1    0    0  503  504 -0.00000000000E+00 -0.00000000000E+00 -0.47363984195E+02  0.47363984195E+02  0.00000000000E+00 0. -1.
         25    2    1    2    0    0 -0.67857021567E+02 -0.86976396374E+01  0.22261906003E+03  0.26432064463E+03  0.12500373184E+03 0.  0.
         25    2    1    2    0    0  0.67857021567E+02  0.86976396374E+01  0.16494578279E+03  0.21797216659E+03  0.12499811933E+03 0.  0.
          5    1    3    3  501    0 -0.52849323235E+02  0.37995075322E+02  0.43206958643E+02  0.78266263424E+02  0.47000000000E+01 0. -1.
         -5    1    3    3    0  501 -0.15007698332E+02 -0.46692714959E+02  0.17941210139E+03  0.18605438120E+03  0.47000000000E+01 0. -1.
          5    1    4    4  502    0  0.39572060052E+02 -0.41298899656E+02  0.18030093170E+02  0.60155808608E+02  0.47000000000E+01 0. -1.
         -5    1    4    4    0  502  0.28284961515E+02  0.49996539293E+02  0.14691568962E+03  0.15781635798E+03  0.47000000000E+01 0. -1.
<mgrwt>
<rscale>  0 0.28705374E+03</rscale>
<asrwt>0</asrwt>
<pdfrwt beam="1">  1       21 0.66912125E-01 0.28705374E+03</pdfrwt>
<pdfrwt beam="2">  1       21 0.72867671E-02 0.28705374E+03</pdfrwt>
<totfact> 0.28188792E+05</totfact>
</mgrwt>
</event>
<event>
 8    1  0.9331162E-006  0.3002389E+03  0.7546771E-02  0.1085121E+00
         21   -1    0    0  504  503  0.00000000000E+00  0.00000000000E+00  0.61849198627E+02  0.61849198627E+02  0.00000000000E+00 0. -1.
         21   -1    0    0  503  504 -0.00000000000E+00 -0.00000000000E+00 -0.36436770162E+03  0.36436770162E+03  0.00000000000E+00 0. -1.
         25    2    1    2    0    0  0.50957044941E+01 -0.81801409609E+02 -0.13152371964E+03  0.19909675442E+03  0.12499436777E+03 0.  0.
         25    2    1    2    0    0 -0.50957044941E+01  0.81801409609E+02 -0.17099478335E+03  0.22712014582E+03  0.12500763132E+03 0.  0.
          5    1    3    3  501    0  0.50022707804E+02  0.60094210422E+01 -0.48363473673E+02  0.69996428644E+02  0.47000000000E+01 0.  1.
         -5    1    3    3    0  501 -0.44927003310E+02 -0.87810830652E+02 -0.83160245966E+02  0.12910032577E+03  0.47000000000E+01 0.  1.
          5    1    4    4  502    0 -0.59813975367E+02  0.37065725810E+02 -0.48406794069E+02  0.85538806345E+02  0.47000000000E+01 0.  1.
         -5    1    4    4    0  502  0.54718270872E+02  0.44735683800E+02 -0.12258798928E+03  0.14158133948E+03  0.47000000000E+01 0.  1.
<mgrwt>
<rscale>  0 0.30023891E+03</rscale>
<asrwt>0</asrwt>
<pdfrwt beam="1">  1       21 0.95152615E-02 0.30023891E+03</pdfrwt>
<pdfrwt beam="2">  1       21 0.56056569E-01 0.30023891E+03</pdfrwt>
<totfact> 0.25829390E+05</totfact>
</mgrwt>
</event>
<event>
 8    1  0.9331162E-006  0.3977437E+03  0.7546771E-02  0.1044564E+00
         21   -1    0    0  504  503  0.00000000000E+00  0.00000000000E+00  0.96552066870E+03  0.96552066870E+03  0.00000000000E+00 0. -1.
         21   -1    0    0  503  504 -0.00000000000E+00 -0.00000000000E+00 -0.40962368756E+02  0.40962368756E+02  0.00000000000E+00 0. -1.
         25    2    1    2    0    0  0.33996867367E+02 -0.12756124386E+03  0.25829539083E+03  0.31586087981E+03  0.12499571411E+03 0.  0.
         25    2    1    2    0    0 -0.33996867367E+02  0.12756124386E+03  0.66626290912E+03  0.69062215765E+03  0.12500017057E+03 0.  0.
          5    1    3    3  501    0 -0.38344058775E+02 -0.88361485002E+01  0.83840161953E+02  0.92734066664E+02  0.47000000000E+01 0.  1.
         -5    1    3    3    0  501  0.72340926142E+02 -0.11872509536E+03  0.17445522888E+03  0.22312681315E+03  0.47000000000E+01 0.  1.
          5    1    4    4  502    0  0.22456987853E+02  0.36214180968E+01  0.21617392226E+02  0.31730625886E+02  0.47000000000E+01 0. -1.
         -5    1    4    4    0  502 -0.56453855220E+02  0.12393982576E+03  0.64464551689E+03  0.65889153176E+03  0.47000000000E+01 0. -1.
<mgrwt>
<rscale>  0 0.39774370E+03</rscale>
<asrwt>0</asrwt>
<pdfrwt beam="1">  1       21 0.14854162E+00 0.39774370E+03</pdfrwt>
<pdfrwt beam="2">  1       21 0.63019036E-02 0.39774370E+03</pdfrwt>
<totfact> 0.51236005E+04</totfact>
</mgrwt>
</event>
<event>
 8    1  0.9331162E-006  0.2707172E+03  0.7546771E-02  0.1100870E+00
         21   -1    0    0  504  503  0.00000000000E+00  0.00000000000E+00  0.31507037628E+03  0.31507037628E+03  0.00000000000E+00 0. -1.
         21   -1    0    0  503  504 -0.00000000000E+00 -0.00000000000E+00 -0.58151932151E+02  0.58151932151E+02  0.00000000000E+00 0. -1.
         25    2    1    2    0    0 -0.15073086789E+02  0.21649482515E+02  0.66799731186E+02  0.14416371981E+03  0.12500030393E+03 0.  0.
         25    2    1    2    0    0  0.15073086789E+02 -0.21649482515E+02  0.19011871295E+03  0.22905858863E+03  0.12500725568E+03 0.  0.
          5    1    3    3  501    0  0.29628278494E+02  0.25520514840E+02  0.86416936882E+02  0.94968987276E+02  0.47000000000E+01 0.  1.
         -5    1    3    3    0  501 -0.44701365283E+02 -0.38710323242E+01 -0.19617205696E+02  0.49194732530E+02  0.47000000000E+01 0.  1.
          5    1    4    4  502    0  0.63209548483E+02  0.94921055861E+01  0.13475753523E+03  0.14922208412E+03  0.47000000000E+01 0. -1.
         -5    1    4    4    0  502 -0.48136461695E+02 -0.31141588101E+02  0.55361177717E+02  0.79836504509E+02  0.47000000000E+01 0. -1.
<mgrwt>
<rscale>  0 0.27071720E+03</rscale>
<asrwt>0</asrwt>
<pdfrwt beam="1">  1       21 0.48472365E-01 0.27071720E+03</pdfrwt>
<pdfrwt beam="2">  1       21 0.89464513E-02 0.27071720E+03</pdfrwt>
<totfact> 0.39438262E+05</totfact>
</mgrwt>
</event>
<event>
 8    1  0.9331162E-006  0.4042964E+03  0.7546771E-02  0.1042302E+00
         21   -1    0    0  504  503  0.00000000000E+00  0.00000000000E+00  0.63748207657E+03  0.63748207657E+03  0.00000000000E+00 0. -1.
         21   -1    0    0  503  504 -0.00000000000E+00 -0.00000000000E+00 -0.64102032991E+02  0.64102032991E+02  0.00000000000E+00 0. -1.
         25    2    1    2    0    0 -0.13312879196E+03  0.71402136142E+02  0.20138791962E+03  0.28107669162E+03  0.12500188843E+03 0.  0.
         25    2    1    2    0    0  0.13312879196E+03 -0.71402136142E+02  0.37199212396E+03  0.42050741794E+03  0.12500723164E+03 0.  0.
          5    1    3    3  501    0 -0.12144828313E+03 -0.18498368005E+01  0.11876789095E+03  0.16994413580E+03  0.47000000000E+01 0.  1.
         -5    1    3    3    0  501 -0.11680508827E+02  0.73251972942E+02  0.82620028670E+02  0.11113255582E+03  0.47000000000E+01 0.  1.
          5    1    4    4  502    0  0.72143396341E+02  0.29957314099E+01  0.60035828707E+02  0.94021459097E+02  0.47000000000E+01 0.  1.
         -5    1    4    4    0  502  0.60985395615E+02 -0.74397867552E+02  0.31195629525E+03  0.32648595884E+03  0.47000000000E+01 0.  1.
<mgrwt>
<rscale>  0 0.40429641E+03</rscale>
<asrwt>0</asrwt>
<pdfrwt beam="1">  1       21 0.98074161E-01 0.40429641E+03</pdfrwt>
<pdfrwt beam="2">  1       21 0.98618517E-02 0.40429641E+03</pdfrwt>
<totfact> 0.66574256E+04</totfact>
</mgrwt>
</event>
<event>
 8    1  0.9331162E-006  0.2957234E+03  0.7546771E-02  0.1087398E+00
         21   -1    0    0  504  503  0.00000000000E+00  0.00000000000E+00  0.20263243140E+03  0.20263243140E+03  0.00000000000E+00 0. -1.
         21   -1    0    0  503  504 -0.00000000000E+00 -0.00000000000E+00 -0.10789527982E+03  0.10789527982E+03  0.00000000000E+00 0. -1.
         25    2    1    2    0    0 -0.53717235869E+02  0.49722339419E+02  0.78521592190E+02  0.16476826895E+03  0.12500035819E+03 0.  0.
         25    2    1    2    0    0  0.53717235869E+02 -0.49722339419E+02  0.16215559384E+02  0.14575944226E+03  0.12500007270E+03 0.  0.
          5    1    3    3  501    0 -0.44952679345E+02  0.83620213911E+02  0.21127068882E+02  0.97373130762E+02  0.47000000000E+01 0.  1.
         -5    1    3    3    0  501 -0.87645565239E+01 -0.33897874492E+02  0.57394523308E+02  0.67395138192E+02  0.47000000000E+01 0.  1.
          5    1    4    4  502    0 -0.21287586150E+02 -0.47167309627E+02 -0.27489948788E+02  0.58785233741E+02  0.47000000000E+01 0.  1.
         -5    1    4    4    0  502  0.75004822019E+02 -0.25550297913E+01  0.43705508173E+02  0.86974208522E+02  0.47000000000E+01 0.  1.
<mgrwt>
<rscale>  0 0.29572340E+03</rscale>
<asrwt>0</asrwt>
<pdfrwt beam="1">  1       21 0.31174220E-01 0.29572340E+03</pdfrwt>
<pdfrwt beam="2">  1       21 0.16599274E-01 0.29572340E+03</pdfrwt>
<totfact> 0.31478869E+05</totfact>
</mgrwt>
</event>
<event>
 8    1  0.9331162E-006  0.2587406E+03  0.7546771E-02  0.1107902E+00
         21   -1    0    0  504  503  0.00000000000E+00  0.00000000000E+00  0.12555474981E+03  0.12555474981E+03  0.00000000000E+00 0.  1.
         21   -1    0    0  503  504 -0.00000000000E+00 -0.00000000000E+00 -0.13330184004E+03  0.13330184004E+03  0.00000000000E+00 0.  1.
         25    2    1    2    0    0 -0.22169378615E+02 -0.24882506342E+02 -0.45036244193E+01  0.12944057430E+03  0.12499583661E+03 0.  0.
         25    2    1    2    0    0  0.22169378615E+02  0.24882506342E+02 -0.32434658118E+01  0.12941601555E+03  0.12500945780E+03 0.  0.
          5    1    3    3  501    0  0.21290026049E+01 -0.73378494248E+02  0.66646293007E+01  0.73860973145E+02  0.47000000000E+01 0. -1.
         -5    1    3    3    0  501 -0.24298381220E+02  0.48495987906E+02 -0.11168253720E+02  0.55579601150E+02  0.47000000000E+01 0. -1.
          5    1    4    4  502    0 -0.23231415335E+02  0.64485305985E+02  0.22286014123E+01  0.68739435630E+02  0.47000000000E+01 0.  1.
         -5    1    4    4    0  502  0.45400793950E+02 -0.39602799642E+02 -0.54720672241E+01  0.60676579918E+02  0.47000000000E+01 0.  1.
<mgrwt>
<rscale>  0 0.25874064E+03</rscale>
<asrwt>0</asrwt>
<pdfrwt beam="1">  1       21 0.19316115E-01 0.25874064E+03</pdfrwt>
<pdfrwt beam="2">  1       21 0.20507975E-01 0.25874064E+03</pdfrwt>
<totfact> 0.53589183E+05</totfact>
</mgrwt>
</event>
<event>
 8    1  0.9331162E-006  0.3355680E+03  0.7546771E-02  0.1068699E+00
         21   -1    0    0  504  503  0.00000000000E+00  0.00000000000E+00  0.53037076344E+02  0.53037076344E+02  0.00000000000E+00 0.  1.
         21   -1    0    0  503  504 -0.00000000000E+00 -0.00000000000E+00 -0.53078860281E+03  0.53078860281E+03  0.00000000000E+00 0.  1.
         25    2    1    2    0    0 -0.37460785917E+01 -0.37626613565E+02 -0.55606814300E+02  0.14194151076E+03  0.12500191809E+03 0.  0.
         25    2    1    2    0    0  0.37460785917E+01  0.37626613565E+02 -0.42214471217E+03  0.44188416839E+03  0.12500266043E+03 0.  0.
          5    1    3    3  501    0  0.55617971183E+02 -0.12361222323E+02 -0.51793199413E+02  0.77141325120E+02  0.47000000000E+01 0. -1.
         -5    1    3    3    0  501 -0.59364049774E+02 -0.25265391242E+02 -0.38136148863E+01  0.64800185638E+02  0.47000000000E+01 0. -1.
          5    1    4    4  502    0  0.52218269450E+02  0.52108118509E+02 -0.31120959235E+03  0.31986794783E+03  0.47000000000E+01 0. -1.
         -5    1    4    4    0  502 -0.48472190858E+02 -0.14481504943E+02 -0.11093511982E+03  0.12201622056E+03  0.47000000000E+01 0. -1.
<mgrwt>
<rscale>  0 0.33556803E+03</rscale>
<asrwt>0</asrwt>
<pdfrwt beam="1">  1       21 0.81595501E-02 0.33556803E+03</pdfrwt>
<pdfrwt beam="2">  1       21 0.81659786E-01 0.33556803E+03</pdfrwt>
<totfact> 0.14588671E+05</totfact>
</mgrwt>
</event>
<event>
 8    1  0.9331162E-006  0.3093566E+03  0.7546771E-02  0.1080655E+00
         21   -1    0    0  504  503  0.00000000000E+00  0.00000000000E+00  0.48081871472E+03  0.48081871472E+03  0.00000000000E+00 0.  1.
         21   -1    0    0  503  504 -0.00000000000E+00 -0.00000000000E+00 -0.49759659966E+02  0.49759659966E+02  0.00000000000E+00 0.  1.
         25    2    1    2    0    0 -0.60484970309E+00  0.60496094564E+02  0.98702791233E+02  0.17037235228E+03  0.12499741647E+03 0.  0.
         25    2    1    2    0    0  0.60484970309E+00 -0.60496094564E+02  0.33235626352E+03  0.36020602240E+03  0.12501019707E+03 0.  0.
          5    1    3    3  501    0 -0.44185855281E+02  0.16366818000E+02 -0.68599004221E+01  0.47847787537E+02  0.47000000000E+01 0.  1.
         -5    1    3    3    0  501  0.43581005578E+02  0.44129276564E+02  0.10556269165E+03  0.12252456475E+03  0.47000000000E+01 0.  1.
          5    1    4    4  502    0 -0.36564945721E+02  0.29648194154E+01  0.23609338616E+03  0.23897272313E+03  0.47000000000E+01 0. -1.
         -5    1    4    4    0  502  0.37169795424E+02 -0.63460913980E+02  0.96262877359E+02  0.12123329927E+03  0.47000000000E+01 0. -1.
<mgrwt>
<rscale>  0 0.30935660E+03</rscale>
<asrwt>0</asrwt>
<pdfrwt beam="1">  1       21 0.73972107E-01 0.30935660E+03</pdfrwt>
<pdfrwt beam="2">  1       21 0.76553326E-02 0.30935660E+03</pdfrwt>
<totfact> 0.20568381E+05</totfact>
</mgrwt>
</event>
<event>
 8    1  0.9331162E-006  0.2865711E+03  0.7546771E-02  0.1092153E+00
         21   -1    0    0  504  503  0.00000000000E+00  0.00000000000E+00  0.24627689510E+03  0.24627689510E+03  0.00000000000E+00 0.  1.
         21   -1    0    0  503  504 -0.00000000000E+00 -0.00000000000E+00 -0.83364469914E+02  0.83364469914E+02  0.00000000000E+00 0.  1.
         25    2    1    2    0    0  0.11438427487E+02 -0.39283333949E+02  0.16070382330E+02  0.13250631562E+03  0.12500259414E+03 0.  0.
         25    2    1    2    0    0 -0.11438427487E+02  0.39283333949E+02  0.14684204285E+03  0.19713504939E+03  0.12500249677E+03 0.  0.
          5    1    3    3  501    0 -0.48938342100E+02 -0.48990874695E+02  0.15761934538E+02  0.71172998470E+02  0.47000000000E+01 0.  1.
         -5    1    3    3    0  501  0.60376769587E+02  0.97075407454E+01  0.30844779265E+00  0.61333317154E+02  0.47000000000E+01 0.  1.
          5    1    4    4  502    0 -0.44843599823E+00  0.39666264836E+02 -0.89072670672E+01  0.40927290009E+02  0.47000000000E+01 0.  1.
         -5    1    4    4    0  502 -0.10989991489E+02 -0.38293088694E+00  0.15574930992E+03  0.15620775938E+03  0.47000000000E+01 0.  1.
<mgrwt>
<rscale>  0 0.28657106E+03</rscale>
<asrwt>0</asrwt>
<pdfrwt beam="1">  1       21 0.37888753E-01 0.28657106E+03</pdfrwt>
<pdfrwt beam="2">  1       21 0.12825303E-01 0.28657106E+03</pdfrwt>
<totfact> 0.34261835E+05</totfact>
</mgrwt>
</event>
<event>
 8    1  0.9331162E-006  0.4279350E+03  0.7546771E-02  0.1034514E+00
         21   -1    0    0  504  503  0.00000000000E+00  0.00000000000E+00  0.50894307278E+03  0.50894307278E+03  0.00000000000E+00 0. -1.
         21   -1    0    0  503  504 -0.00000000000E+00 -0.00000000000E+00 -0.89955244150E+02  0.89955244150E+02  0.00000000000E+00 0. -1.
         25    2    1    2    0    0  0.15149275222E+03  0.69401992720E+02  0.14105938618E+03  0.25157346714E+03  0.12499907347E+03 0.  0.
         25    2    1    2    0    0 -0.15149275222E+03 -0.69401992720E+02  0.27792844246E+03  0.34732484980E+03  0.12499456625E+03 0.  0.
          5    1    3    3  501    0  0.17686713422E+02 -0.34030884235E+02  0.33072039957E+02  0.50860306138E+02  0.47000000000E+01 0. -1.
         -5    1    3    3    0  501  0.13380603880E+03  0.10343287696E+03  0.10798734622E+03  0.20071316100E+03  0.47000000000E+01 0. -1.
          5    1    4    4  502    0 -0.13773861613E+02  0.31745331604E+02  0.29199961425E+02  0.45521567302E+02  0.47000000000E+01 0.  1.
         -5    1    4    4    0  502 -0.13771889061E+03 -0.10114732432E+03  0.24872848103E+03  0.30180328250E+03  0.47000000000E+01 0.  1.
<mgrwt>
<rscale>  0 0.42793503E+03</rscale>
<asrwt>0</asrwt>
<pdfrwt beam="1">  1       21 0.78298933E-01 0.42793503E+03</pdfrwt>
<pdfrwt beam="2">  1       21 0.13839269E-01 0.42793503E+03</pdfrwt>
<totfact> 0.60753294E+04</totfact>
</mgrwt>
</event>
<event>
 8    1  0.9331162E-006  0.3121722E+03  0.7546771E-02  0.1079309E+00
         21   -1    0    0  504  503  0.00000000000E+00  0.00000000000E+00  0.10868544297E+03  0.10868544297E+03  0.00000000000E+00 0.  1.
         21   -1    0    0  503  504 -0.00000000000E+00 -0.00000000000E+00 -0.22415952215E+03  0.22415952215E+03  0.00000000000E+00 0.  1.
         25    2    1    2    0    0  0.23811294337E+02  0.90363344626E+02 -0.57997424022E+02  0.16651177388E+03  0.12501982986E+03 0.  0.
         25    2    1    2    0    0 -0.23811294337E+02 -0.90363344626E+02 -0.57476655151E+02  0.16633319123E+03  0.12502260927E+03 0.  0.
          5    1    3    3  501    0 -0.38507832345E+02  0.80269686361E+02 -0.16093267510E+02  0.90593371499E+02  0.47000000000E+01 0.  1.
         -5    1    3    3    0  501  0.62319126682E+02  0.10093658265E+02 -0.41904156511E+02  0.75918402384E+02  0.47000000000E+01 0.  1.
          5    1    4    4  502    0  0.14417573045E+02  0.27584930148E+02 -0.17263782282E+02  0.35901573259E+02  0.47000000000E+01 0.  1.
         -5    1    4    4    0  502 -0.38228867382E+02 -0.11794827477E+03 -0.40212872869E+02  0.13043161798E+03  0.47000000000E+01 0.  1.
<mgrwt>
<rscale>  0 0.31217224E+03</rscale>
<asrwt>0</asrwt>
<pdfrwt beam="1">  1       21 0.16720837E-01 0.31217224E+03</pdfrwt>
<pdfrwt beam="2">  1       21 0.34486080E-01 0.31217224E+03</pdfrwt>
<totfact> 0.25319645E+05</totfact>
</mgrwt>
</event>
<event>
 8    1  0.9331162E-006  0.3207312E+03  0.7546771E-02  0.1075313E+00
         21   -1    0    0  504  503  0.00000000000E+00  0.00000000000E+00  0.32528885935E+02  0.32528885935E+02  0.00000000000E+00 0. -1.
         21   -1    0    0  503  504 -0.00000000000E+00 -0.00000000000E+00 -0.79059352064E+03  0.79059352064E+03  0.00000000000E+00 0. -1.
         25    2    1    2    0    0 -0.93312607689E+02  0.21083002797E+02 -0.30028120317E+03  0.33903621803E+03  0.12500008158E+03 0.  0.
         25    2    1    2    0    0  0.93312607689E+02 -0.21083002797E+02 -0.45778343154E+03  0.48408618855E+03  0.12498812742E+03 0.  0.
          5    1    3    3  501    0  0.27410959630E+02  0.14029797631E+02 -0.10286686701E+03  0.10747966439E+03  0.47000000000E+01 0.  1.
         -5    1    3    3    0  501 -0.12072356732E+03  0.70532051662E+01 -0.19741433616E+03  0.23155655363E+03  0.47000000000E+01 0.  1.
          5    1    4    4  502    0  0.12268121277E+03 -0.42862780717E+01 -0.37167088935E+03  0.39144653803E+03  0.47000000000E+01 0.  1.
         -5    1    4    4    0  502 -0.29368605085E+02 -0.16796724726E+02 -0.86112542190E+02  0.92639650520E+02  0.47000000000E+01 0.  1.
<mgrwt>
<rscale>  0 0.32073120E+03</rscale>
<asrwt>0</asrwt>
<pdfrwt beam="1">  1       21 0.50044438E-02 0.32073120E+03</pdfrwt>
<pdfrwt beam="2">  1       21 0.12162978E+00 0.32073120E+03</pdfrwt>
<totfact> 0.13128361E+05</totfact>
</mgrwt>
</event>
<event>
 8    1  0.9331162E-006  0.2542326E+03  0.7546771E-02  0.1110659E+00
         21   -1    0    0  504  503  0.00000000000E+00  0.00000000000E+00  0.13242551452E+04  0.13242551452E+04  0.00000000000E+00 0. -1.
         21   -1    0    0  503  504 -0.00000000000E+00 -0.00000000000E+00 -0.12201992009E+02  0.12201992009E+02  0.00000000000E+00 0. -1.
         25    2    1    2    0    0  0.10265822341E+02  0.16534116562E+02  0.72007389819E+03  0.73110429579E+03  0.12501323271E+03 0.  0.
         25    2    1    2    0    0 -0.10265822341E+02 -0.16534116562E+02  0.59197925498E+03  0.60535284140E+03  0.12503543554E+03 0.  0.
          5    1    3    3  501    0 -0.41294157145E+02 -0.19517122148E+02  0.50178604326E+03  0.50388237584E+03  0.47000000000E+01 0.  1.
         -5    1    3    3    0  501  0.51559979486E+02  0.36051238710E+02  0.21828785493E+03  0.22722191996E+03  0.47000000000E+01 0.  1.
          5    1    4    4  502    0  0.42180932651E+02 -0.21456978781E+02  0.47002636911E+03  0.47242619601E+03  0.47000000000E+01 0. -1.
         -5    1    4    4    0  502 -0.52446754992E+02  0.49228622195E+01  0.12195288587E+03  0.13292664539E+03  0.47000000000E+01 0. -1.
<mgrwt>
<rscale>  0 0.25423258E+03</rscale>
<asrwt>0</asrwt>
<pdfrwt beam="1">  1       21 0.20373145E+00 0.25423258E+03</pdfrwt>
<pdfrwt beam="2">  1       21 0.18772306E-02 0.25423258E+03</pdfrwt>
<totfact> 0.16834361E+05</totfact>
</mgrwt>
</event>
<event>
 8    1  0.9331162E-006  0.3952421E+03  0.7546771E-02  0.1045440E+00
         21   -1    0    0  504  503  0.00000000000E+00  0.00000000000E+00  0.83349148844E+02  0.83349148844E+02  0.00000000000E+00 0.  1.
         21   -1    0    0  503  504 -0.00000000000E+00 -0.00000000000E+00 -0.46855997324E+03  0.46855997324E+03  0.00000000000E+00 0.  1.
         25    2    1    2    0    0 -0.72103406500E+02  0.72533298372E+02 -0.35163358405E+03  0.38695029504E+03  0.12499749116E+03 0.  0.
         25    2    1    2    0    0  0.72103406500E+02 -0.72533298372E+02 -0.33577240350E+02  0.16495882705E+03  0.12499601174E+03 0.  0.
          5    1    3    3  501    0 -0.10254136278E+02 -0.34980413335E+02 -0.95423367864E+02  0.10225695948E+03  0.47000000000E+01 0.  1.
         -5    1    3    3    0  501 -0.61849270221E+02  0.10751371171E+03 -0.25621021618E+03  0.28469333555E+03  0.47000000000E+01 0.  1.
          5    1    4    4  502    0  0.92721745166E+01 -0.40091316441E+02 -0.72950191709E+02  0.83887468341E+02  0.47000000000E+01 0.  1.
         -5    1    4    4    0  502  0.62831231983E+02 -0.32441981931E+02  0.39372951360E+02  0.81071358709E+02  0.47000000000E+01 0.  1.
<mgrwt>
<rscale>  0 0.39524208E+03</rscale>
<asrwt>0</asrwt>
<pdfrwt beam="1">  1       21 0.12822946E-01 0.39524208E+03</pdfrwt>
<pdfrwt beam="2">  1       21 0.72086149E-01 0.39524208E+03</pdfrwt>
<totfact> 0.84970959E+04</totfact>
</mgrwt>
</event>
<event>
 8    1  0.9331162E-006  0.2588596E+03  0.7546771E-02  0.1107830E+00
         21   -1    0    0  504  503  0.00000000000E+00  0.00000000000E+00  0.99117858725E+02  0.99117858725E+02  0.00000000000E+00 0.  1.
         21   -1    0    0  503  504 -0.00000000000E+00 -0.00000000000E+00 -0.16901168736E+03  0.16901168736E+03  0.00000000000E+00 0.  1.
         25    2    1    2    0    0  0.17429736978E+02 -0.27645101187E+02 -0.43060015420E+02  0.13618704383E+03  0.12499879451E+03 0.  0.
         25    2    1    2    0    0 -0.17429736978E+02  0.27645101187E+02 -0.26833813219E+02  0.13194250226E+03  0.12498289091E+03 0.  0.
          5    1    3    3  501    0  0.22512504099E+02  0.17304968553E+02  0.35323685108E+02  0.45564542212E+02  0.47000000000E+01 0.  1.
         -5    1    3    3    0  501 -0.50827671208E+01 -0.44950069741E+02 -0.78383700528E+02  0.90622501619E+02  0.47000000000E+01 0.  1.
          5    1    4    4  502    0  0.18524627839E+02 -0.34976581945E+02 -0.42114149280E+02  0.57984607360E+02  0.47000000000E+01 0. -1.
         -5    1    4    4    0  502 -0.35954364817E+02  0.62621683132E+02  0.15280336061E+02  0.73957894898E+02  0.47000000000E+01 0. -1.
<mgrwt>
<rscale>  0 0.25885963E+03</rscale>
<asrwt>0</asrwt>
<pdfrwt beam="1">  1       21 0.15248901E-01 0.25885963E+03</pdfrwt>
<pdfrwt beam="2">  1       21 0.26001798E-01 0.25885963E+03</pdfrwt>
<totfact> 0.52828019E+05</totfact>
</mgrwt>
</event>
<event>
 8    1  0.9331162E-006  0.3637837E+03  0.7546771E-02  0.1057096E+00
         21   -1    0    0  504  503  0.00000000000E+00  0.00000000000E+00  0.30616413832E+03  0.30616413832E+03  0.00000000000E+00 0.  1.
         21   -1    0    0  503  504 -0.00000000000E+00 -0.00000000000E+00 -0.10806179997E+03  0.10806179997E+03  0.00000000000E+00 0.  1.
         25    2    1    2    0    0 -0.43320888009E+02  0.36751040136E+02  0.23489648873E+03  0.27207872861E+03  0.12499254319E+03 0.  0.
         25    2    1    2    0    0  0.43320888009E+02 -0.36751040136E+02 -0.36794150388E+02  0.14214720968E+03  0.12499872571E+03 0.  0.
          5    1    3    3  501    0 -0.83045772722E+02  0.45439926882E+02  0.18191651404E+03  0.20512702260E+03  0.47000000000E+01 0.  1.
         -5    1    3    3    0  501  0.39724884713E+02 -0.86888867461E+01  0.52979974694E+02  0.66951706005E+02  0.47000000000E+01 0.  1.
          5    1    4    4  502    0  0.74126966543E+02 -0.61379033708E+02 -0.34558117814E+02  0.10236477155E+03  0.47000000000E+01 0. -1.
         -5    1    4    4    0  502 -0.30806078534E+02  0.24627993573E+02 -0.22360325735E+01  0.39782438132E+02  0.47000000000E+01 0. -1.
<mgrwt>
<rscale>  0 0.36378372E+03</rscale>
<asrwt>0</asrwt>
<pdfrwt beam="1">  1       21 0.47102175E-01 0.36378372E+03</pdfrwt>
<pdfrwt beam="2">  1       21 0.16624892E-01 0.36378372E+03</pdfrwt>
<totfact> 0.13364746E+05</totfact>
</mgrwt>
</event>
<event>
 8    1  0.9331162E-006  0.3486835E+03  0.7546771E-02  0.1063157E+00
         21   -1    0    0  504  503  0.00000000000E+00  0.00000000000E+00  0.29482544114E+03  0.29482544114E+03  0.00000000000E+00 0.  1.
         21   -1    0    0  503  504 -0.00000000000E+00 -0.00000000000E+00 -0.10309505794E+03  0.10309505794E+03  0.00000000000E+00 0.  1.
         25    2    1    2    0    0  0.85352176673E+02 -0.73543421268E+02  0.14791133637E+03  0.22403025228E+03  0.12497264354E+03 0.  0.
         25    2    1    2    0    0 -0.85352176673E+02  0.73543421268E+02  0.43819046835E+02  0.17389024680E+03  0.12499632072E+03 0.  0.
          5    1    3    3  501    0  0.71176715156E+01 -0.87692399074E+02  0.68940371714E+02  0.11187261933E+03  0.47000000000E+01 0.  1.
         -5    1    3    3    0  501  0.78234505158E+02  0.14148977806E+02  0.78970964653E+02  0.11215763295E+03  0.47000000000E+01 0.  1.
          5    1    4    4  502    0  0.26517831807E+02  0.45408038432E+02  0.12097279870E+02  0.54161975021E+02  0.47000000000E+01 0. -1.
         -5    1    4    4    0  502 -0.11187000848E+03  0.28135382836E+02  0.31721766965E+02  0.11972827178E+03  0.47000000000E+01 0. -1.
<mgrwt>
<rscale>  0 0.34868350E+03</rscale>
<asrwt>0</asrwt>
<pdfrwt beam="1">  1       21 0.45357760E-01 0.34868350E+03</pdfrwt>
<pdfrwt beam="2">  1       21 0.15860778E-01 0.34868350E+03</pdfrwt>
<totfact> 0.15834246E+05</totfact>
</mgrwt>
</event>
<event>
 8    1  0.9331162E-006  0.4210046E+03  0.7546771E-02  0.1036740E+00
         21   -1    0    0  504  503  0.00000000000E+00  0.00000000000E+00  0.11699953569E+04  0.11699953569E+04  0.00000000000E+00 0.  1.
         21   -1    0    0  503  504 -0.00000000000E+00 -0.00000000000E+00 -0.37872987292E+02  0.37872987292E+02  0.00000000000E+00 0.  1.
         25    2    1    2    0    0 -0.70539379746E+02  0.14104591462E+03  0.74329894507E+03  0.77005874519E+03  0.12500958034E+03 0.  0.
         25    2    1    2    0    0  0.70539379746E+02 -0.14104591462E+03  0.38882342450E+03  0.43780959897E+03  0.12499534144E+03 0.  0.
          5    1    3    3  501    0 -0.30818247262E+01  0.12364375267E+03  0.56875403644E+03  0.58206573442E+03  0.47000000000E+01 0. -1.
         -5    1    3    3    0  501 -0.67457555019E+02  0.17402161941E+02  0.17454490863E+03  0.18799301077E+03  0.47000000000E+01 0. -1.
          5    1    4    4  502    0  0.37950100486E+02 -0.13905966932E+03  0.20261537355E+03  0.24870239516E+03  0.47000000000E+01 0. -1.
         -5    1    4    4    0  502  0.32589279259E+02 -0.19862452934E+01  0.18620805095E+03  0.18910720381E+03  0.47000000000E+01 0. -1.
<mgrwt>
<rscale>  0 0.42100460E+03</rscale>
<asrwt>0</asrwt>
<pdfrwt beam="1">  1       21 0.17999926E+00 0.42100460E+03</pdfrwt>
<pdfrwt beam="2">  1       21 0.58266143E-02 0.42100460E+03</pdfrwt>
<totfact> 0.34065024E+04</totfact>
</mgrwt>
</event>
<event>
 8    1  0.9331162E-006  0.2820833E+03  0.7546771E-02  0.1094556E+00
         21   -1    0    0  504  503  0.00000000000E+00  0.00000000000E+00  0.68576829127E+02  0.68576829127E+02  0.00000000000E+00 0. -1.
         21   -1    0    0  503  504 -0.00000000000E+00 -0.00000000000E+00 -0.29007980720E+03  0.29007980720E+03  0.00000000000E+00 0. -1.
         25    2    1    2    0    0 -0.34686563982E+02 -0.85630103860E+01 -0.41240902559E+02  0.13638756712E+03  0.12499709418E+03 0.  0.
         25    2    1    2    0    0  0.34686563982E+02  0.85630103860E+01 -0.18026207551E+03  0.22226906920E+03  0.12503055782E+03 0.  0.
          5    1    3    3  501    0 -0.78283077652E+02 -0.11206827648E+02 -0.48944497660E+01  0.79371776288E+02  0.47000000000E+01 0. -1.
         -5    1    3    3    0  501  0.43596513670E+02  0.26438172616E+01 -0.36346452793E+02  0.57015790835E+02  0.47000000000E+01 0. -1.
          5    1    4    4  502    0  0.44031864473E+02 -0.47865419441E+02 -0.58259093318E+02  0.87442068946E+02  0.47000000000E+01 0.  1.
         -5    1    4    4    0  502 -0.93453004910E+01  0.56428429827E+02 -0.12200298219E+03  0.13482700025E+03  0.47000000000E+01 0.  1.
<mgrwt>
<rscale>  0 0.28208334E+03</rscale>
<asrwt>0</asrwt>
<pdfrwt beam="1">  1       21 0.10550281E-01 0.28208334E+03</pdfrwt>
<pdfrwt beam="2">  1       21 0.44627663E-01 0.28208334E+03</pdfrwt>
<totfact> 0.34863722E+05</totfact>
</mgrwt>
</event>
<event>
 8    1  0.9331162E-006  0.2589284E+03  0.7546771E-02  0.1107789E+00
         21   -1    0    0  504  503  0.00000000000E+00  0.00000000000E+00  0.55668202626E+03  0.55668202626E+03  0.00000000000E+00 0.  1.
         21   -1    0    0  503  504 -0.00000000000E+00 -0.00000000000E+00 -0.30108705271E+02  0.30108705271E+02  0.00000000000E+00 0.  1.
         25    2    1    2    0    0 -0.10652511077E+01  0.33707111475E+02  0.26205601905E+03  0.29228931767E+03  0.12498953547E+03 0.  0.
         25    2    1    2    0    0  0.10652511077E+01 -0.33707111475E+02  0.26451730194E+03  0.29450141386E+03  0.12499750245E+03 0.  0.
          5    1    3    3  501    0  0.42788243589E+02 -0.21229720835E+02  0.16832529995E+03  0.17503437217E+03  0.47000000000E+01 0.  1.
         -5    1    3    3    0  501 -0.43853494697E+02  0.54936832310E+02  0.93730719099E+02  0.11725494550E+03  0.47000000000E+01 0.  1.
          5    1    4    4  502    0  0.20342397705E+02 -0.76397408368E+02  0.13278569122E+03  0.15461082414E+03  0.47000000000E+01 0. -1.
         -5    1    4    4    0  502 -0.19277146597E+02  0.42690296892E+02  0.13173161072E+03  0.13989058972E+03  0.47000000000E+01 0. -1.
<mgrwt>
<rscale>  0 0.25892837E+03</rscale>
<asrwt>0</asrwt>
<pdfrwt beam="1">  1       21 0.85643381E-01 0.25892837E+03</pdfrwt>
<pdfrwt beam="2">  1       21 0.46321089E-02 0.25892837E+03</pdfrwt>
<totfact> 0.35448638E+05</totfact>
</mgrwt>
</event>
<event>
 8    1  0.9331162E-006  0.2827539E+03  0.7546771E-02  0.1094194E+00
         21   -1    0    0  504  503  0.00000000000E+00  0.00000000000E+00  0.20609522299E+03  0.20609522299E+03  0.00000000000E+00 0. -1.
         21   -1    0    0  503  504 -0.00000000000E+00 -0.00000000000E+00 -0.96981571387E+02  0.96981571387E+02  0.00000000000E+00 0. -1.
         25    2    1    2    0    0 -0.35156123122E+02  0.35463949216E+02  0.82235983743E+01  0.13485894127E+03  0.12500264710E+03 0.  0.
         25    2    1    2    0    0  0.35156123122E+02 -0.35463949216E+02  0.10089005323E+03  0.16821785311E+03  0.12499919431E+03 0.  0.
          5    1    3    3  501    0 -0.49078537801E+02 -0.36034041288E+02  0.98036692286E+01  0.61849469962E+02  0.47000000000E+01 0.  1.
         -5    1    3    3    0  501  0.13922414679E+02  0.71497990505E+02 -0.15800708543E+01  0.73009471307E+02  0.47000000000E+01 0.  1.
          5    1    4    4  502    0 -0.23444289400E+01 -0.46892189707E+02 -0.11945090068E+02  0.48673904500E+02  0.47000000000E+01 0.  1.
         -5    1    4    4    0  502  0.37500552062E+02  0.11428240491E+02  0.11283514330E+03  0.11954394861E+03  0.47000000000E+01 0.  1.
<mgrwt>
<rscale>  0 0.28275388E+03</rscale>
<asrwt>0</asrwt>
<pdfrwt beam="1">  1       21 0.31706957E-01 0.28275388E+03</pdfrwt>
<pdfrwt beam="2">  1       21 0.14920242E-01 0.28275388E+03</pdfrwt>
<totfact> 0.37152141E+05</totfact>
</mgrwt>
</event>
<event>
 8    1  0.9331162E-006  0.2977030E+03  0.7546771E-02  0.1086395E+00
         21   -1    0    0  504  503  0.00000000000E+00  0.00000000000E+00  0.20142204391E+02  0.20142204391E+02  0.00000000000E+00 0.  1.
         21   -1    0    0  503  504 -0.00000000000E+00 -0.00000000000E+00 -0.11000171263E+04  0.11000171263E+04  0.00000000000E+00 0.  1.
         25    2    1    2    0    0  0.29009529464E+02  0.75334737612E+02 -0.55460715981E+03  0.57422199821E+03  0.12499970409E+03 0.  0.
         25    2    1    2    0    0 -0.29009529464E+02 -0.75334737612E+02 -0.52526776210E+03  0.54593733249E+03  0.12499789441E+03 0.  0.
          5    1    3    3  501    0  0.50607386630E+02  0.66862414867E+02 -0.17744108442E+03  0.19631382667E+03  0.47000000000E+01 0.  1.
         -5    1    3    3    0  501 -0.21597857166E+02  0.84723227450E+01 -0.37716607539E+03  0.37790817153E+03  0.47000000000E+01 0.  1.
          5    1    4    4  502    0  0.48687435817E+02 -0.34709288605E+02 -0.24519349398E+03  0.25242254379E+03  0.47000000000E+01 0.  1.
         -5    1    4    4    0  502 -0.77696965282E+02 -0.40625449007E+02 -0.28007426812E+03  0.29351478870E+03  0.47000000000E+01 0.  1.
<mgrwt>
<rscale>  0 0.29770300E+03</rscale>
<asrwt>0</asrwt>
<pdfrwt beam="1">  1       21 0.30988004E-02 0.29770300E+03</pdfrwt>
<pdfrwt beam="2">  1       21 0.16923342E+00 0.29770300E+03</pdfrwt>
<totfact> 0.12400916E+05</totfact>
</mgrwt>
</event>
<event>
 8    1  0.9331162E-006  0.2778500E+03  0.7546771E-02  0.1096869E+00
         21   -1    0    0  504  503  0.00000000000E+00  0.00000000000E+00  0.66733298228E+02  0.66733298228E+02  0.00000000000E+00 0.  1.
         21   -1    0    0  503  504 -0.00000000000E+00 -0.00000000000E+00 -0.28921327765E+03  0.28921327765E+03  0.00000000000E+00 0.  1.
         25    2    1    2    0    0 -0.37021563826E+02 -0.47948506541E+02 -0.11388422646E+03  0.17962641140E+03  0.12500550055E+03 0.  0.
         25    2    1    2    0    0  0.37021563826E+02  0.47948506541E+02 -0.10859575296E+03  0.17632016448E+03  0.12500442942E+03 0.  0.
          5    1    3    3  501    0 -0.10001989059E+02 -0.59907518457E+02  0.98336543042E+00  0.60926246892E+02  0.47000000000E+01 0.  1.
         -5    1    3    3    0  501 -0.27019574767E+02  0.11959011916E+02 -0.11486759189E+03  0.11870016451E+03  0.47000000000E+01 0.  1.
          5    1    4    4  502    0 -0.42836506756E+01  0.54090746581E+02 -0.12084269442E+03  0.13254887900E+03  0.47000000000E+01 0.  1.
         -5    1    4    4    0  502  0.41305214502E+02 -0.61422400396E+01  0.12246941459E+02  0.43771285483E+02  0.47000000000E+01 0.  1.
<mgrwt>
<rscale>  0 0.27785000E+03</rscale>
<asrwt>0</asrwt>
<pdfrwt beam="1">  1       21 0.10266661E-01 0.27785000E+03</pdfrwt>
<pdfrwt beam="2">  1       21 0.44494351E-01 0.27785000E+03</pdfrwt>
<totfact> 0.36860251E+05</totfact>
</mgrwt>
</event>
<event>
 8    1  0.9331162E-006  0.2777291E+03  0.7546771E-02  0.1096936E+00
         21   -1    0    0  504  503  0.00000000000E+00  0.00000000000E+00  0.21655103062E+02  0.21655103062E+02  0.00000000000E+00 0. -1.
         21   -1    0    0  503  504 -0.00000000000E+00 -0.00000000000E+00 -0.89047650991E+03  0.89047650991E+03  0.00000000000E+00 0. -1.
         25    2    1    2    0    0  0.39226994155E+02 -0.45979139042E+02 -0.42677388855E+03  0.44879146841E+03  0.12499996751E+03 0.  0.
         25    2    1    2    0    0 -0.39226994155E+02  0.45979139042E+02 -0.44204751830E+03  0.46334014455E+03  0.12500097130E+03 0.  0.
          5    1    3    3  501    0  0.73281451998E+02 -0.36857664532E+02 -0.16205173284E+03  0.18169070631E+03  0.47000000000E+01 0.  1.
         -5    1    3    3    0  501 -0.34054457843E+02 -0.91214745103E+01 -0.26472215570E+03  0.26710076210E+03  0.47000000000E+01 0.  1.
          5    1    4    4  502    0  0.25552302028E+02  0.47525561547E+02 -0.32489726115E+03  0.32938111579E+03  0.47000000000E+01 0.  1.
         -5    1    4    4    0  502 -0.64779296183E+02 -0.15464225046E+01 -0.11715025715E+03  0.13395902876E+03  0.47000000000E+01 0.  1.
<mgrwt>
<rscale>  0 0.27772908E+03</rscale>
<asrwt>0</asrwt>
<pdfrwt beam="1">  1       21 0.33315536E-02 0.27772908E+03</pdfrwt>
<pdfrwt beam="2">  1       21 0.13699642E+00 0.27772908E+03</pdfrwt>
<totfact> 0.19531943E+05</totfact>
</mgrwt>
</event>
<event>
 8    1  0.9331162E-006  0.3413816E+03  0.7546771E-02  0.1066209E+00
         21   -1    0    0  504  503  0.00000000000E+00  0.00000000000E+00  0.23343000562E+03  0.23343000562E+03  0.00000000000E+00 0.  1.
         21   -1    0    0  503  504 -0.00000000000E+00 -0.00000000000E+00 -0.12481404786E+03  0.12481404786E+03  0.00000000000E+00 0.  1.
         25    2    1    2    0    0  0.22569028702E+02 -0.36887236748E+02  0.16752561364E+03  0.21344523661E+03  0.12499603400E+03 0.  0.
         25    2    1    2    0    0 -0.22569028702E+02  0.36887236748E+02 -0.58909655883E+02  0.14479881687E+03  0.12500528196E+03 0.  0.
          5    1    3    3  501    0  0.58237780157E+02 -0.62034231750E+02  0.87302975930E+02  0.12199911702E+03  0.47000000000E+01 0.  1.
         -5    1    3    3    0  501 -0.35668751455E+02  0.25146995002E+02  0.80222637712E+02  0.91446119598E+02  0.47000000000E+01 0.  1.
          5    1    4    4  502    0  0.24680548374E+02  0.59198343954E+02 -0.65655259463E+02  0.91903626099E+02  0.47000000000E+01 0.  1.
         -5    1    4    4    0  502 -0.47249577076E+02 -0.22311107206E+02  0.67456035803E+01  0.52895190767E+02  0.47000000000E+01 0.  1.
<mgrwt>
<rscale>  0 0.34138157E+03</rscale>
<asrwt>0</asrwt>
<pdfrwt beam="1">  1       21 0.35912308E-01 0.34138157E+03</pdfrwt>
<pdfrwt beam="2">  1       21 0.19202161E-01 0.34138157E+03</pdfrwt>
<totfact> 0.17909933E+05</totfact>
</mgrwt>
</event>
<event>
 8    1  0.9331162E-006  0.5950558E+03  0.7546771E-02  0.9915717E-01
         21   -1    0    0  504  503  0.00000000000E+00  0.00000000000E+00  0.20901395183E+03  0.20901395183E+03  0.00000000000E+00 0. -1.
         21   -1    0    0  503  504 -0.00000000000E+00 -0.00000000000E+00 -0.42352605446E+03  0.42352605446E+03  0.00000000000E+00 0. -1.
         25    2    1    2    0    0  0.26969460664E+03  0.12567683700E+02 -0.10473825774E+03  0.31541396926E+03  0.12499096706E+03 0.  0.
         25    2    1    2    0    0 -0.26969460664E+03 -0.12567683700E+02 -0.10977384489E+03  0.31712603702E+03  0.12500199524E+03 0.  0.
          5    1    3    3  501    0  0.10595560480E+03  0.65959298745E+02 -0.36696698494E+02  0.13017663753E+03  0.47000000000E+01 0.  1.
         -5    1    3    3    0  501  0.16373900184E+03 -0.53391615045E+02 -0.68041559247E+02  0.18523733172E+03  0.47000000000E+01 0.  1.
          5    1    4    4  502    0 -0.13393830002E+03 -0.17636482053E+02  0.10553498944E+02  0.13558753649E+03  0.47000000000E+01 0.  1.
         -5    1    4    4    0  502 -0.13575630662E+03  0.50687983526E+01 -0.12032734383E+03  0.18153850054E+03  0.47000000000E+01 0.  1.
<mgrwt>
<rscale>  0 0.59505581E+03</rscale>
<asrwt>0</asrwt>
<pdfrwt beam="1">  1       21 0.32155993E-01 0.59505581E+03</pdfrwt>
<pdfrwt beam="2">  1       21 0.65157854E-01 0.59505581E+03</pdfrwt>
<totfact> 0.17611053E+04</totfact>
</mgrwt>
</event>
<event>
 8    1  0.9331162E-006  0.3751104E+03  0.7546771E-02  0.1052756E+00
         21   -1    0    0  504  503  0.00000000000E+00  0.00000000000E+00  0.82886705647E+02  0.82886705647E+02  0.00000000000E+00 0.  1.
         21   -1    0    0  503  504 -0.00000000000E+00 -0.00000000000E+00 -0.42439792032E+03  0.42439792032E+03  0.00000000000E+00 0.  1.
         25    2    1    2    0    0 -0.96831698623E+00 -0.86958584003E+02 -0.31882589078E+03  0.35332254914E+03  0.12499656847E+03 0.  0.
         25    2    1    2    0    0  0.96831698623E+00  0.86958584003E+02 -0.22685323890E+02  0.15396207682E+03  0.12500785660E+03 0.  0.
          5    1    3    3  501    0 -0.67694503497E+01 -0.65676696112E+02 -0.32357381591E+03  0.33027467086E+03  0.47000000000E+01 0. -1.
         -5    1    3    3    0  501  0.58011333635E+01 -0.21281887891E+02  0.47479251228E+01  0.23047878285E+02  0.47000000000E+01 0. -1.
          5    1    4    4  502    0 -0.50738960132E+02  0.84235887906E+02 -0.33967473554E+01  0.98507638177E+02  0.47000000000E+01 0.  1.
         -5    1    4    4    0  502  0.51707277118E+02  0.27226960969E+01 -0.19288576535E+02  0.55454438648E+02  0.47000000000E+01 0.  1.
<mgrwt>
<rscale>  0 0.37511036E+03</rscale>
<asrwt>0</asrwt>
<pdfrwt beam="1">  1       21 0.12751801E-01 0.37511036E+03</pdfrwt>
<pdfrwt beam="2">  1       21 0.65291989E-01 0.37511036E+03</pdfrwt>
<totfact> 0.10758259E+05</totfact>
</mgrwt>
</event>
<event>
 8    1  0.9331162E-006  0.3898159E+03  0.7546771E-02  0.1047364E+00
         21   -1    0    0  504  503  0.00000000000E+00  0.00000000000E+00  0.16826980702E+03  0.16826980702E+03  0.00000000000E+00 0. -1.
         21   -1    0    0  503  504 -0.00000000000E+00 -0.00000000000E+00 -0.22576302899E+03  0.22576302899E+03  0.00000000000E+00 0. -1.
         25    2    1    2    0    0  0.87071757057E+02 -0.12158189633E+03 -0.29352815545E+02  0.19710658492E+03  0.12500307854E+03 0.  0.
         25    2    1    2    0    0 -0.87071757057E+02  0.12158189633E+03 -0.28140406433E+02  0.19692625110E+03  0.12499767000E+03 0.  0.
          5    1    3    3  501    0  0.35058308049E+02 -0.11729989176E+03  0.21151445950E+02  0.12432949463E+03  0.47000000000E+01 0. -1.
         -5    1    3    3    0  501  0.52013449009E+02 -0.42820045674E+01 -0.50504261495E+02  0.72777090283E+02  0.47000000000E+01 0. -1.
          5    1    4    4  502    0 -0.93964367577E+02  0.46751335666E+02  0.20837338605E+02  0.10710403559E+03  0.47000000000E+01 0. -1.
         -5    1    4    4    0  502  0.68926105192E+01  0.74830560661E+02 -0.48977745038E+02  0.89822215502E+02  0.47000000000E+01 0. -1.
<mgrwt>
<rscale>  0 0.38981586E+03</rscale>
<asrwt>0</asrwt>
<pdfrwt beam="1">  1       21 0.25887663E-01 0.38981586E+03</pdfrwt>
<pdfrwt beam="2">  1       21 0.34732774E-01 0.38981586E+03</pdfrwt>
<totfact> 0.10702535E+05</totfact>
</mgrwt>
</event>
<event>
 8    1  0.9331162E-006  0.7039645E+03  0.7546771E-02  0.9710476E-01
         21   -1    0    0  504  503  0.00000000000E+00  0.00000000000E+00  0.38169003203E+03  0.38169003203E+03  0.00000000000E+00 0. -1.
         21   -1    0    0  503  504 -0.00000000000E+00 -0.00000000000E+00 -0.32458665550E+03  0.32458665550E+03  0.00000000000E+00 0. -1.
         25    2    1    2    0    0  0.10163372832E+03 -0.11546413970E+03 -0.26327519491E+03  0.32954275443E+03  0.12499286562E+03 0.  0.
         25    2    1    2    0    0 -0.10163372832E+03  0.11546413970E+03  0.32037857145E+03  0.37673393309E+03  0.12499858005E+03 0.  0.
          5    1    3    3  501    0  0.20761806356E+02  0.11569035275E-01 -0.14180023605E+03  0.14338915468E+03  0.47000000000E+01 0.  1.
         -5    1    3    3    0  501  0.80871921966E+02 -0.11547570874E+03 -0.12147495886E+03  0.18615359976E+03  0.47000000000E+01 0.  1.
          5    1    4    4  502    0 -0.58814556340E+02 -0.74084043215E+01  0.15656687303E+03  0.16747928894E+03  0.47000000000E+01 0. -1.
         -5    1    4    4    0  502 -0.42819171982E+02  0.12287254402E+03  0.16381169841E+03  0.20925464416E+03  0.47000000000E+01 0. -1.
<mgrwt>
<rscale>  0 0.70396446E+03</rscale>
<asrwt>0</asrwt>
<pdfrwt beam="1">  1       21 0.58721543E-01 0.70396446E+03</pdfrwt>
<pdfrwt beam="2">  1       21 0.49936409E-01 0.70396446E+03</pdfrwt>
<totfact> 0.87066827E+03</totfact>
</mgrwt>
</event>
<event>
 8    1  0.9331162E-006  0.2805343E+03  0.7546771E-02  0.1095397E+00
         21   -1    0    0  504  503  0.00000000000E+00  0.00000000000E+00  0.11748282883E+03  0.11748282883E+03  0.00000000000E+00 0.  1.
         21   -1    0    0  503  504 -0.00000000000E+00 -0.00000000000E+00 -0.16747019827E+03  0.16747019827E+03  0.00000000000E+00 0.  1.
         25    2    1    2    0    0 -0.60017242674E+02 -0.99180011235E+01 -0.60114763938E+01  0.13914866959E+03  0.12500311290E+03 0.  0.
         25    2    1    2    0    0  0.60017242674E+02  0.99180011235E+01 -0.43975893044E+02  0.14580435752E+03  0.12499838134E+03 0.  0.
          5    1    3    3  501    0 -0.36108206684E+02 -0.58975306771E+02 -0.34483781035E+02  0.77415182962E+02  0.47000000000E+01 0. -1.
         -5    1    3    3    0  501 -0.23909035990E+02  0.49057305647E+02  0.28472304641E+02  0.61733486625E+02  0.47000000000E+01 0. -1.
          5    1    4    4  502    0  0.98591591260E+01  0.63723259581E+02 -0.13516312112E+02  0.66050265127E+02  0.47000000000E+01 0.  1.
         -5    1    4    4    0  502  0.50158083548E+02 -0.53805258457E+02 -0.30459580931E+02  0.79754092393E+02  0.47000000000E+01 0.  1.
<mgrwt>
<rscale>  0 0.28053429E+03</rscale>
<asrwt>0</asrwt>
<pdfrwt beam="1">  1       21 0.18074281E-01 0.28053429E+03</pdfrwt>
<pdfrwt beam="2">  1       21 0.25764646E-01 0.28053429E+03</pdfrwt>
<totfact> 0.39110798E+05</totfact>
</mgrwt>
</event>
<event>
 8    1  0.9331162E-006  0.4559947E+03  0.7546771E-02  0.1025949E+00
         21   -1    0    0  504  503  0.00000000000E+00  0.00000000000E+00  0.91376716590E+03  0.91376716590E+03  0.00000000000E+00 0.  1.
         21   -1    0    0  503  504 -0.00000000000E+00 -0.00000000000E+00 -0.56888450853E+02  0.56888450853E+02  0.00000000000E+00 0.  1.
         25    2    1    2    0    0  0.67123342122E+02 -0.83261147550E+02  0.76446270079E+03  0.78196410885E+03  0.12500673933E+03 0.  0.
         25    2    1    2    0    0 -0.67123342122E+02  0.83261147550E+02  0.92416014251E+02  0.18869150790E+03  0.12500321482E+03 0.  0.
          5    1    3    3  501    0  0.72419245272E+02 -0.11065403922E+03  0.55274722225E+03  0.56836647085E+03  0.47000000000E+01 0. -1.
         -5    1    3    3    0  501 -0.52959031503E+01  0.27392891672E+02  0.21171547854E+03  0.21359763800E+03  0.47000000000E+01 0. -1.
          5    1    4    4  502    0 -0.17308972372E+02  0.52090152003E+02 -0.22522071929E+02  0.59517377162E+02  0.47000000000E+01 0.  1.
         -5    1    4    4    0  502 -0.49814369749E+02  0.31170995548E+02  0.11493808618E+03  0.12917413074E+03  0.47000000000E+01 0.  1.
<mgrwt>
<rscale>  0 0.45599473E+03</rscale>
<asrwt>0</asrwt>
<pdfrwt beam="1">  1       21 0.14057955E+00 0.45599473E+03</pdfrwt>
<pdfrwt beam="2">  1       21 0.87520700E-02 0.45599473E+03</pdfrwt>
<totfact> 0.32766475E+04</totfact>
</mgrwt>
</event>
<event>
 8    1  0.9331162E-006  0.2992559E+03  0.7546771E-02  0.1085613E+00
         21   -1    0    0  504  503  0.00000000000E+00  0.00000000000E+00  0.18408421995E+03  0.18408421995E+03  0.00000000000E+00 0.  1.
         21   -1    0    0  503  504 -0.00000000000E+00 -0.00000000000E+00 -0.12162109493E+03  0.12162109493E+03  0.00000000000E+00 0.  1.
         25    2    1    2    0    0 -0.56601261184E+01 -0.56060380256E+02  0.92455712763E+02  0.16537010786E+03  0.12499764193E+03 0.  0.
         25    2    1    2    0    0  0.56601261184E+01  0.56060380256E+02 -0.29992587746E+02  0.14033520702E+03  0.12497844514E+03 0.  0.
          5    1    3    3  501    0  0.16611133741E+02  0.34360845378E+02  0.49574836597E+02  0.62740352907E+02  0.47000000000E+01 0.  1.
         -5    1    3    3    0  501 -0.22271259859E+02 -0.90421225635E+02  0.42880876166E+02  0.10262975495E+03  0.47000000000E+01 0.  1.
          5    1    4    4  502    0  0.13488168956E+02  0.18488598749E+02 -0.76422396430E+02  0.79913901554E+02  0.47000000000E+01 0.  1.
         -5    1    4    4    0  502 -0.78280428371E+01  0.37571781507E+02  0.46429808684E+02  0.60421305470E+02  0.47000000000E+01 0.  1.
<mgrwt>
<rscale>  0 0.29925591E+03</rscale>
<asrwt>0</asrwt>
<pdfrwt beam="1">  1       21 0.28320649E-01 0.29925591E+03</pdfrwt>
<pdfrwt beam="2">  1       21 0.18710938E-01 0.29925591E+03</pdfrwt>
<totfact> 0.30394245E+05</totfact>
</mgrwt>
</event>
<event>
 8    1  0.9331162E-006  0.3969070E+03  0.7546771E-02  0.1044856E+00
         21   -1    0    0  504  503  0.00000000000E+00  0.00000000000E+00  0.47649281463E+02  0.47649281463E+02  0.00000000000E+00 0.  1.
         21   -1    0    0  503  504 -0.00000000000E+00 -0.00000000000E+00 -0.82653467784E+03  0.82653467784E+03  0.00000000000E+00 0.  1.
         25    2    1    2    0    0  0.26722226076E+02  0.14812340720E+03 -0.31626225972E+03  0.37188925054E+03  0.12500070648E+03 0.  0.
         25    2    1    2    0    0 -0.26722226076E+02 -0.14812340720E+03 -0.46262313666E+03  0.50229470876E+03  0.12500074700E+03 0.  0.
          5    1    3    3  501    0 -0.43623708493E+02  0.25769263495E+02 -0.11775129547E+03  0.12827525275E+03  0.47000000000E+01 0. -1.
         -5    1    3    3    0  501  0.70345934570E+02  0.12235414370E+03 -0.19851096425E+03  0.24361399779E+03  0.47000000000E+01 0. -1.
          5    1    4    4  502    0 -0.15976766149E+02 -0.18603108562E+02 -0.26213055477E+03  0.26331701512E+03  0.47000000000E+01 0.  1.
         -5    1    4    4    0  502 -0.10745459927E+02 -0.12952029864E+03 -0.20049258188E+03  0.23897769364E+03  0.47000000000E+01 0.  1.
<mgrwt>
<rscale>  0 0.39690696E+03</rscale>
<asrwt>0</asrwt>
<pdfrwt beam="1">  1       21 0.73306593E-02 0.39690696E+03</pdfrwt>
<pdfrwt beam="2">  1       21 0.12715917E+00 0.39690696E+03</pdfrwt>
<totfact> 0.59196278E+04</totfact>
</mgrwt>
</event>
<event>
 8    1  0.9331162E-006  0.5067759E+03  0.7546771E-02  0.1012025E+00
         21   -1    0    0  504  503  0.00000000000E+00  0.00000000000E+00  0.60012826692E+03  0.60012826692E+03  0.00000000000E+00 0.  1.
         21   -1    0    0  503  504 -0.00000000000E+00 -0.00000000000E+00 -0.10698623037E+03  0.10698623037E+03  0.00000000000E+00 0.  1.
         25    2    1    2    0    0 -0.15773058596E+03  0.13567718842E+03  0.14507333921E+03  0.28276296544E+03  0.12498553384E+03 0.  0.
         25    2    1    2    0    0  0.15773058596E+03 -0.13567718842E+03  0.34806869733E+03  0.42435153186E+03  0.12504066268E+03 0.  0.
          5    1    3    3  501    0 -0.17479514504E+03  0.10117683961E+03  0.10782244082E+03  0.22899315350E+03  0.47000000000E+01 0. -1.
         -5    1    3    3    0  501  0.17064559088E+02  0.34500348810E+02  0.37250898398E+02  0.53769811942E+02  0.47000000000E+01 0. -1.
          5    1    4    4  502    0  0.12016382978E+03 -0.40282114012E+02  0.12154741107E+03  0.17566404821E+03  0.47000000000E+01 0. -1.
         -5    1    4    4    0  502  0.37566756177E+02 -0.95395074410E+02  0.22652128627E+03  0.24868748365E+03  0.47000000000E+01 0. -1.
<mgrwt>
<rscale>  0 0.50677593E+03</rscale>
<asrwt>0</asrwt>
<pdfrwt beam="1">  1       21 0.92327423E-01 0.50677593E+03</pdfrwt>
<pdfrwt beam="2">  1       21 0.16459420E-01 0.50677593E+03</pdfrwt>
<totfact> 0.29405406E+04</totfact>
</mgrwt>
</event>
<event>
 8    1  0.9331162E-006  0.2545718E+03  0.7546771E-02  0.1110449E+00
         21   -1    0    0  504  503  0.00000000000E+00  0.00000000000E+00  0.20106057526E+02  0.20106057526E+02  0.00000000000E+00 0.  1.
         21   -1    0    0  503  504 -0.00000000000E+00 -0.00000000000E+00 -0.80581194938E+03  0.80581194938E+03  0.00000000000E+00 0.  1.
         25    2    1    2    0    0  0.21628794801E+02 -0.10066474825E+02 -0.40109675570E+03  0.42079971485E+03  0.12499861561E+03 0.  0.
         25    2    1    2    0    0 -0.21628794801E+02  0.10066474825E+02 -0.38460913616E+03  0.40511829206E+03  0.12501001666E+03 0.  0.
          5    1    3    3  501    0 -0.17023156834E+01 -0.57074490911E+02 -0.10105062742E+03  0.11616244958E+03  0.47000000000E+01 0.  1.
         -5    1    3    3    0  501  0.23331110484E+02  0.47008016086E+02 -0.30004612828E+03  0.30463726527E+03  0.47000000000E+01 0.  1.
          5    1    4    4  502    0  0.13575636869E+01 -0.56464050382E+02 -0.17665871372E+03  0.18552741873E+03  0.47000000000E+01 0. -1.
         -5    1    4    4    0  502 -0.22986358488E+02  0.66530525208E+02 -0.20795042243E+03  0.21959087333E+03  0.47000000000E+01 0. -1.
<mgrwt>
<rscale>  0 0.25457181E+03</rscale>
<asrwt>0</asrwt>
<pdfrwt beam="1">  1       21 0.30932388E-02 0.25457181E+03</pdfrwt>
<pdfrwt beam="2">  1       21 0.12397110E+00 0.25457181E+03</pdfrwt>
<totfact> 0.28729370E+05</totfact>
</mgrwt>
</event>
<event>
 8    1  0.9331162E-006  0.3771167E+03  0.7546771E-02  0.1052005E+00
         21   -1    0    0  504  503  0.00000000000E+00  0.00000000000E+00  0.67473273285E+03  0.67473273285E+03  0.00000000000E+00 0.  1.
         21   -1    0    0  503  504 -0.00000000000E+00 -0.00000000000E+00 -0.52693817980E+02  0.52693817980E+02  0.00000000000E+00 0.  1.
         25    2    1    2    0    0 -0.10499717448E+03  0.79490616821E+02  0.40925067734E+03  0.44771755162E+03  0.12498689658E+03 0.  0.
         25    2    1    2    0    0  0.10499717448E+03 -0.79490616821E+02  0.21278823753E+03  0.27970899921E+03  0.12496049534E+03 0.  0.
          5    1    3    3  501    0 -0.69821857311E+02  0.39551954631E+02  0.77387554559E+02  0.11158123711E+03  0.47000000000E+01 0.  1.
         -5    1    3    3    0  501 -0.35175317169E+02  0.39938662190E+02  0.33186312278E+03  0.33613631452E+03  0.47000000000E+01 0.  1.
          5    1    4    4  502    0  0.12922255996E+03 -0.41028737645E+02  0.15357349287E+03  0.20491152976E+03  0.47000000000E+01 0.  1.
         -5    1    4    4    0  502 -0.24225385476E+02 -0.38461879176E+02  0.59214744661E+02  0.74797469453E+02  0.47000000000E+01 0.  1.
<mgrwt>
<rscale>  0 0.37711666E+03</rscale>
<asrwt>0</asrwt>
<pdfrwt beam="1">  1       21 0.10380503E+00 0.37711666E+03</pdfrwt>
<pdfrwt beam="2">  1       21 0.81067417E-02 0.37711666E+03</pdfrwt>
<totfact> 0.82764365E+04</totfact>
</mgrwt>
</event>
<event>
 8    1  0.9331162E-006  0.2585570E+03  0.7546771E-02  0.1108013E+00
         21   -1    0    0  504  503  0.00000000000E+00  0.00000000000E+00  0.28987947635E+03  0.28987947635E+03  0.00000000000E+00 0.  1.
         21   -1    0    0  503  504 -0.00000000000E+00 -0.00000000000E+00 -0.57654740159E+02  0.57654740159E+02  0.00000000000E+00 0.  1.
         25    2    1    2    0    0  0.32014327752E+02  0.75594036018E+01  0.11938502491E+03  0.17595431078E+03  0.12500029418E+03 0.  0.
         25    2    1    2    0    0 -0.32014327752E+02 -0.75594036018E+01  0.11283971128E+03  0.17157990573E+03  0.12499920737E+03 0.  0.
          5    1    3    3  501    0  0.73427248093E+02 -0.20482958722E+02  0.88862726163E+02  0.11717417148E+03  0.47000000000E+01 0. -1.
         -5    1    3    3    0  501 -0.41412920342E+02  0.28042362323E+02  0.30522298746E+02  0.58780139305E+02  0.47000000000E+01 0. -1.
          5    1    4    4  502    0  0.31342117659E+02  0.39124432720E+02  0.46672154545E+02  0.68654421451E+02  0.47000000000E+01 0. -1.
         -5    1    4    4    0  502 -0.63356445410E+02 -0.46683836321E+02  0.66167556736E+02  0.10292548427E+03  0.47000000000E+01 0. -1.
<mgrwt>
<rscale>  0 0.25855696E+03</rscale>
<asrwt>0</asrwt>
<pdfrwt beam="1">  1       21 0.44596842E-01 0.25855696E+03</pdfrwt>
<pdfrwt beam="2">  1       21 0.88699602E-02 0.25855696E+03</pdfrwt>
<totfact> 0.47724801E+05</totfact>
</mgrwt>
</event>
<event>
 8    1  0.9331162E-006  0.4765725E+03  0.7546771E-02  0.1020081E+00
         21   -1    0    0  504  503  0.00000000000E+00  0.00000000000E+00  0.56127343856E+02  0.56127343856E+02  0.00000000000E+00 0. -1.
         21   -1    0    0  503  504 -0.00000000000E+00 -0.00000000000E+00 -0.10116341074E+04  0.10116341074E+04  0.00000000000E+00 0. -1.
         25    2    1    2    0    0 -0.13671065178E+03 -0.10917113375E+03 -0.70786506823E+03  0.73980178339E+03  0.12500234052E+03 0.  0.
         25    2    1    2    0    0  0.13671065178E+03  0.10917113375E+03 -0.24764169532E+03  0.32795966787E+03  0.12499198268E+03 0.  0.
          5    1    3    3  501    0 -0.13662396319E+03 -0.13196615269E+03 -0.65579502812E+03  0.68276671102E+03  0.47000000000E+01 0.  1.
         -5    1    3    3    0  501 -0.86688588908E-01  0.22795018934E+02 -0.52070040105E+02  0.57035072365E+02  0.47000000000E+01 0.  1.
          5    1    4    4  502    0  0.22203779156E+02  0.75593360407E+01  0.11805633575E+02  0.26676100808E+02  0.47000000000E+01 0. -1.
         -5    1    4    4    0  502  0.11450687262E+03  0.10161179771E+03 -0.25944732889E+03  0.30128356706E+03  0.47000000000E+01 0. -1.
<mgrwt>
<rscale>  0 0.47657249E+03</rscale>
<asrwt>0</asrwt>
<pdfrwt beam="1">  1       21 0.86349764E-02 0.47657249E+03</pdfrwt>
<pdfrwt beam="2">  1       21 0.15563601E+00 0.47657249E+03</pdfrwt>
<totfact> 0.25340069E+04</totfact>
</mgrwt>
</event>
<event>
 8    1  0.9331162E-006  0.2844341E+03  0.7546771E-02  0.1093291E+00
         21   -1    0    0  504  503  0.00000000000E+00  0.00000000000E+00  0.43555258997E+02  0.43555258997E+02  0.00000000000E+00 0. -1.
         21   -1    0    0  503  504 -0.00000000000E+00 -0.00000000000E+00 -0.46436847968E+03  0.46436847968E+03  0.00000000000E+00 0. -1.
         25    2    1    2    0    0 -0.44487263651E+02 -0.40797397613E+02 -0.15514744356E+03  0.20817945685E+03  0.12499765091E+03 0.  0.
         25    2    1    2    0    0  0.44487263651E+02  0.40797397613E+02 -0.26566577712E+03  0.29974428182E+03  0.12499914029E+03 0.  0.
          5    1    3    3  501    0 -0.80519351562E+01 -0.17789362641E+02 -0.16290927020E+03  0.16414266782E+03  0.47000000000E+01 0.  1.
         -5    1    3    3    0  501 -0.36435328495E+02 -0.23008034972E+02  0.77618266324E+01  0.44036789035E+02  0.47000000000E+01 0.  1.
          5    1    4    4  502    0 -0.40016535024E+02  0.16416318931E+02 -0.13760401369E+03  0.14431830510E+03  0.47000000000E+01 0. -1.
         -5    1    4    4    0  502  0.84503798675E+02  0.24381078682E+02 -0.12806176343E+03  0.15542597672E+03  0.47000000000E+01 0. -1.
<mgrwt>
<rscale>  0 0.28443410E+03</rscale>
<asrwt>0</asrwt>
<pdfrwt beam="1">  1       21 0.67008088E-02 0.28443410E+03</pdfrwt>
<pdfrwt beam="2">  1       21 0.71441307E-01 0.28443410E+03</pdfrwt>
<totfact> 0.28218063E+05</totfact>
</mgrwt>
</event>
<event>
 8    1  0.9331162E-006  0.2705822E+03  0.7546771E-02  0.1100947E+00
         21   -1    0    0  504  503  0.00000000000E+00  0.00000000000E+00  0.41197294094E+03  0.41197294094E+03  0.00000000000E+00 0.  1.
         21   -1    0    0  503  504 -0.00000000000E+00 -0.00000000000E+00 -0.44429341382E+02  0.44429341382E+02  0.00000000000E+00 0.  1.
         25    2    1    2    0    0 -0.41040774647E+02 -0.96556845819E+01  0.23463531867E+03  0.26917666945E+03  0.12499907671E+03 0.  0.
         25    2    1    2    0    0  0.41040774647E+02  0.96556845819E+01  0.13290828089E+03  0.18722561288E+03  0.12494495412E+03 0.  0.
          5    1    3    3  501    0  0.77642564305E+01  0.51669244396E+02  0.78575361450E+02  0.94478420400E+02  0.47000000000E+01 0. -1.
         -5    1    3    3    0  501 -0.48805031078E+02 -0.61324928978E+02  0.15605995722E+03  0.17469824905E+03  0.47000000000E+01 0. -1.
          5    1    4    4  502    0 -0.69022932582E+01 -0.36341922712E+02  0.11102003405E+03  0.11711496471E+03  0.47000000000E+01 0. -1.
         -5    1    4    4    0  502  0.47943067905E+02  0.45997607294E+02  0.21888246843E+02  0.70110648170E+02  0.47000000000E+01 0. -1.
<mgrwt>
<rscale>  0 0.27058223E+03</rscale>
<asrwt>0</asrwt>
<pdfrwt beam="1">  1       21 0.63380450E-01 0.27058223E+03</pdfrwt>
<pdfrwt beam="2">  1       21 0.68352836E-02 0.27058223E+03</pdfrwt>
<totfact> 0.35623652E+05</totfact>
</mgrwt>
</event>
<event>
 8    1  0.9331162E-006  0.2800511E+03  0.7546771E-02  0.1095661E+00
         21   -1    0    0  504  503  0.00000000000E+00  0.00000000000E+00  0.10762217642E+03  0.10762217642E+03  0.00000000000E+00 0. -1.
         21   -1    0    0  503  504 -0.00000000000E+00 -0.00000000000E+00 -0.18218502657E+03  0.18218502657E+03  0.00000000000E+00 0. -1.
         25    2    1    2    0    0  0.27160465055E+02 -0.51460706933E+02 -0.12004401107E+02  0.13839707899E+03  0.12499500233E+03 0.  0.
         25    2    1    2    0    0 -0.27160465055E+02  0.51460706933E+02 -0.62558449038E+02  0.15141012400E+03  0.12500228352E+03 0.  0.
          5    1    3    3  501    0  0.42102468108E+02 -0.13473824756E+02 -0.60345676621E+02  0.74952334595E+02  0.47000000000E+01 0.  1.
         -5    1    3    3    0  501 -0.14942003053E+02 -0.37986882177E+02  0.48341275514E+02  0.63444744393E+02  0.47000000000E+01 0.  1.
          5    1    4    4  502    0  0.37488618636E+02  0.46166694430E+02  0.21124156646E+01  0.59693487934E+02  0.47000000000E+01 0. -1.
         -5    1    4    4    0  502 -0.64649083691E+02  0.52940125034E+01 -0.64670864702E+02  0.91716636069E+02  0.47000000000E+01 0. -1.
<mgrwt>
<rscale>  0 0.28005106E+03</rscale>
<asrwt>0</asrwt>
<pdfrwt beam="1">  1       21 0.16557258E-01 0.28005106E+03</pdfrwt>
<pdfrwt beam="2">  1       21 0.28028465E-01 0.28005106E+03</pdfrwt>
<totfact> 0.39091999E+05</totfact>
</mgrwt>
</event>
<event>
 8    1  0.9331162E-006  0.3858966E+03  0.7546771E-02  0.1048776E+00
         21   -1    0    0  504  503  0.00000000000E+00  0.00000000000E+00  0.74668658597E+02  0.74668658597E+02  0.00000000000E+00 0.  1.
         21   -1    0    0  503  504 -0.00000000000E+00 -0.00000000000E+00 -0.49859012153E+03  0.49859012153E+03  0.00000000000E+00 0.  1.
         25    2    1    2    0    0  0.42485954135E+02  0.12757874298E+03 -0.12379567623E+03  0.22143145803E+03  0.12500051677E+03 0.  0.
         25    2    1    2    0    0 -0.42485954135E+02 -0.12757874298E+03 -0.30012578670E+03  0.35182732209E+03  0.12500233906E+03 0.  0.
          5    1    3    3  501    0 -0.27476705154E+01  0.10233891867E+03 -0.18708426671E+02  0.10417724893E+03  0.47000000000E+01 0.  1.
         -5    1    3    3    0  501  0.45233624650E+02  0.25239824317E+02 -0.10508724956E+03  0.11725420910E+03  0.47000000000E+01 0.  1.
          5    1    4    4  502    0 -0.77016821074E+02 -0.94520125031E+02 -0.26676234464E+03  0.29334260393E+03  0.47000000000E+01 0. -1.
         -5    1    4    4    0  502  0.34530866939E+02 -0.33058617951E+02 -0.33363442055E+02  0.58484718159E+02  0.47000000000E+01 0. -1.
<mgrwt>
<rscale>  0 0.38589665E+03</rscale>
<asrwt>0</asrwt>
<pdfrwt beam="1">  1       21 0.11487486E-01 0.38589665E+03</pdfrwt>
<pdfrwt beam="2">  1       21 0.76706171E-01 0.38589665E+03</pdfrwt>
<totfact> 0.90325113E+04</totfact>
</mgrwt>
</event>
<event>
 8    1  0.9331162E-006  0.2539861E+03  0.7546771E-02  0.1110811E+00
         21   -1    0    0  504  503  0.00000000000E+00  0.00000000000E+00  0.55938036998E+02  0.55938036998E+02  0.00000000000E+00 0. -1.
         21   -1    0    0  503  504 -0.00000000000E+00 -0.00000000000E+00 -0.28830537847E+03  0.28830537847E+03  0.00000000000E+00 0. -1.
         25    2    1    2    0    0 -0.10918546687E+02  0.50697646120E+01 -0.14175897236E+03  0.18938945487E+03  0.12501136827E+03 0.  0.
         25    2    1    2    0    0  0.10918546687E+02 -0.50697646120E+01 -0.90608369110E+02  0.15485396060E+03  0.12499982154E+03 0.  0.
          5    1    3    3  501    0 -0.17842939190E+02  0.54546303592E+02 -0.12301233924E+03  0.13582266129E+03  0.47000000000E+01 0. -1.
         -5    1    3    3    0  501  0.69243925028E+01 -0.49476538980E+02 -0.18746633118E+02  0.53566793578E+02  0.47000000000E+01 0. -1.
          5    1    4    4  502    0  0.46962024826E+02 -0.16597576257E+02 -0.10320693636E+03  0.11469382297E+03  0.47000000000E+01 0. -1.
         -5    1    4    4    0  502 -0.36043478139E+02  0.11527811645E+02  0.12598567252E+02  0.40160137630E+02  0.47000000000E+01 0. -1.
<mgrwt>
<rscale>  0 0.25398612E+03</rscale>
<asrwt>0</asrwt>
<pdfrwt beam="1">  1       21 0.86058519E-02 0.25398612E+03</pdfrwt>
<pdfrwt beam="2">  1       21 0.44354673E-01 0.25398612E+03</pdfrwt>
<totfact> 0.50946153E+05</totfact>
</mgrwt>
</event>
<event>
 8    1  0.9331162E-006  0.3610581E+03  0.7546771E-02  0.1058166E+00
         21   -1    0    0  504  503  0.00000000000E+00  0.00000000000E+00  0.11326778592E+04  0.11326778592E+04  0.00000000000E+00 0.  1.
         21   -1    0    0  503  504 -0.00000000000E+00 -0.00000000000E+00 -0.28773177999E+02  0.28773177999E+02  0.00000000000E+00 0.  1.
         25    2    1    2    0    0 -0.11543206313E+03 -0.58572729111E+02  0.59867545082E+03  0.62513472099E+03  0.12500319266E+03 0.  0.
         25    2    1    2    0    0  0.11543206313E+03  0.58572729111E+02  0.50522923035E+03  0.53631631618E+03  0.12499315984E+03 0.  0.
          5    1    3    3  501    0 -0.44737237220E+02 -0.82903463924E+02  0.22407821467E+03  0.24312042492E+03  0.47000000000E+01 0.  1.
         -5    1    3    3    0  501 -0.70694825912E+02  0.24330734813E+02  0.37459723615E+03  0.38201429607E+03  0.47000000000E+01 0.  1.
          5    1    4    4  502    0 -0.13526264499E+02  0.23107203884E+02  0.21507287873E+03  0.21678407660E+03  0.47000000000E+01 0. -1.
         -5    1    4    4    0  502  0.12895832763E+03  0.35465525227E+02  0.29015635162E+03  0.31953223958E+03  0.47000000000E+01 0. -1.
<mgrwt>
<rscale>  0 0.36105812E+03</rscale>
<asrwt>0</asrwt>
<pdfrwt beam="1">  1       21 0.17425810E+00 0.36105812E+03</pdfrwt>
<pdfrwt beam="2">  1       21 0.44266436E-02 0.36105812E+03</pdfrwt>
<totfact> 0.61196710E+04</totfact>
</mgrwt>
</event>
<event>
 8    1  0.9331162E-006  0.3307192E+03  0.7546771E-02  0.1070819E+00
         21   -1    0    0  504  503  0.00000000000E+00  0.00000000000E+00  0.15608271614E+03  0.15608271614E+03  0.00000000000E+00 0. -1.
         21   -1    0    0  503  504 -0.00000000000E+00 -0.00000000000E+00 -0.17518786425E+03  0.17518786425E+03  0.00000000000E+00 0. -1.
         25    2    1    2    0    0 -0.49985752610E+02 -0.64615511010E+02  0.61617469414E+02  0.16152059422E+03  0.12497379762E+03 0.  0.
         25    2    1    2    0    0  0.49985752610E+02  0.64615511010E+02 -0.80722617522E+02  0.16974998618E+03  0.12500070840E+03 0.  0.
          5    1    3    3  501    0 -0.50561761790E+02 -0.30504450738E+02  0.96033001399E+02  0.11283368570E+03  0.47000000000E+01 0.  1.
         -5    1    3    3    0  501  0.57600918065E+00 -0.34111060271E+02 -0.34415531985E+02  0.48686908520E+02  0.47000000000E+01 0.  1.
          5    1    4    4  502    0  0.68481435699E+02  0.48758529692E+02  0.11449586704E+01  0.84205119699E+02  0.47000000000E+01 0.  1.
         -5    1    4    4    0  502 -0.18495683090E+02  0.15856981318E+02 -0.81867576192E+02  0.85544866480E+02  0.47000000000E+01 0.  1.
<mgrwt>
<rscale>  0 0.33071920E+03</rscale>
<asrwt>0</asrwt>
<pdfrwt beam="1">  1       21 0.24012726E-01 0.33071920E+03</pdfrwt>
<pdfrwt beam="2">  1       21 0.26951979E-01 0.33071920E+03</pdfrwt>
<totfact> 0.20715416E+05</totfact>
</mgrwt>
</event>
<event>
 8    1  0.9331162E-006  0.3422689E+03  0.7546771E-02  0.1065834E+00
         21   -1    0    0  504  503  0.00000000000E+00  0.00000000000E+00  0.54886481331E+02  0.54886481331E+02  0.00000000000E+00 0.  1.
         21   -1    0    0  503  504 -0.00000000000E+00 -0.00000000000E+00 -0.53359234867E+03  0.53359234867E+03  0.00000000000E+00 0.  1.
         25    2    1    2    0    0  0.32477781763E+02  0.62366870846E+02 -0.39988163111E+03  0.42482389482E+03  0.12500235926E+03 0.  0.
         25    2    1    2    0    0 -0.32477781763E+02 -0.62366870846E+02 -0.78824236224E+02  0.16365493518E+03  0.12500097882E+03 0.  0.
          5    1    3    3  501    0 -0.83644036389E+01  0.67463182715E+02 -0.36305712303E+03  0.36939654688E+03  0.47000000000E+01 0. -1.
         -5    1    3    3    0  501  0.40842185402E+02 -0.50963118696E+01 -0.36824508086E+02  0.55427347933E+02  0.47000000000E+01 0. -1.
          5    1    4    4  502    0 -0.19062708349E+02  0.19875919448E+02  0.19957829737E+02  0.34334297595E+02  0.47000000000E+01 0. -1.
         -5    1    4    4    0  502 -0.13415073414E+02 -0.82242790294E+02 -0.98782065961E+02  0.12932063759E+03  0.47000000000E+01 0. -1.
<mgrwt>
<rscale>  0 0.34226894E+03</rscale>
<asrwt>0</asrwt>
<pdfrwt beam="1">  1       21 0.84440739E-02 0.34226894E+03</pdfrwt>
<pdfrwt beam="2">  1       21 0.82091132E-01 0.34226894E+03</pdfrwt>
<totfact> 0.13544761E+05</totfact>
</mgrwt>
</event>
<event>
 8    1  0.9331162E-006  0.2953211E+03  0.7546771E-02  0.1087603E+00
         21   -1    0    0  504  503  0.00000000000E+00  0.00000000000E+00  0.99447686362E+01  0.99447686362E+01  0.00000000000E+00 0. -1.
         21   -1    0    0  503  504 -0.00000000000E+00 -0.00000000000E+00 -0.21924730533E+04  0.21924730533E+04  0.00000000000E+00 0. -1.
         25    2    1    2    0    0  0.16262964475E+02 -0.93553570667E+01 -0.52196026425E+03  0.53704672542E+03  0.12499864445E+03 0.  0.
         25    2    1    2    0    0 -0.16262964475E+02  0.93553570667E+01 -0.16605680204E+04  0.16653710965E+04  0.12499092750E+03 0.  0.
          5    1    3    3  501    0  0.65744240083E+02 -0.27612321780E+02 -0.25170074822E+03  0.26164881440E+03  0.47000000000E+01 0. -1.
         -5    1    3    3    0  501 -0.49481275608E+02  0.18256964713E+02 -0.27025951603E+03  0.27539791103E+03  0.47000000000E+01 0. -1.
          5    1    4    4  502    0 -0.48818599478E+02  0.19324319829E+02 -0.15104118036E+04  0.15113313970E+04  0.47000000000E+01 0. -1.
         -5    1    4    4    0  502  0.32555635003E+02 -0.99689627620E+01 -0.15015621677E+03  0.15403969951E+03  0.47000000000E+01 0. -1.
<mgrwt>
<rscale>  0 0.29532109E+03</rscale>
<asrwt>0</asrwt>
<pdfrwt beam="1">  1       21 0.15299626E-02 0.29532109E+03</pdfrwt>
<pdfrwt beam="2">  1       21 0.33730393E+00 0.29532109E+03</pdfrwt>
<totfact> 0.36244211E+04</totfact>
</mgrwt>
</event>
<event>
 8    1  0.9331162E-006  0.5716551E+03  0.7546771E-02  0.9966023E-01
         21   -1    0    0  504  503  0.00000000000E+00  0.00000000000E+00  0.30684646029E+03  0.30684646029E+03  0.00000000000E+00 0. -1.
         21   -1    0    0  503  504 -0.00000000000E+00 -0.00000000000E+00 -0.26624841618E+03  0.26624841618E+03  0.00000000000E+00 0. -1.
         25    2    1    2    0    0  0.35262659394E+02  0.65754218633E+02 -0.22630444213E+03  0.26908119978E+03  0.12499567646E+03 0.  0.
         25    2    1    2    0    0 -0.35262659394E+02 -0.65754218633E+02  0.26690248624E+03  0.30401367669E+03  0.12498122273E+03 0.  0.
          5    1    3    3  501    0 -0.29041709323E+02 -0.21146579898E+02 -0.72199706293E+02  0.80780482238E+02  0.47000000000E+01 0.  1.
         -5    1    3    3    0  501  0.64304368717E+02  0.86900798531E+02 -0.15410473584E+03  0.18830071755E+03  0.47000000000E+01 0.  1.
          5    1    4    4  502    0 -0.82086316035E+01 -0.96809607058E+02  0.22473346770E+03  0.24488099795E+03  0.47000000000E+01 0. -1.
         -5    1    4    4    0  502 -0.27054027790E+02  0.31055388426E+02  0.42169018541E+02  0.59132678737E+02  0.47000000000E+01 0. -1.
<mgrwt>
<rscale>  0 0.57165509E+03</rscale>
<asrwt>0</asrwt>
<pdfrwt beam="1">  1       21 0.47207148E-01 0.57165509E+03</pdfrwt>
<pdfrwt beam="2">  1       21 0.40961295E-01 0.57165509E+03</pdfrwt>
<totfact> 0.21749170E+04</totfact>
</mgrwt>
</event>
<event>
 8    1  0.9331162E-006  0.2653581E+03  0.7546771E-02  0.1103966E+00
         21   -1    0    0  504  503  0.00000000000E+00  0.00000000000E+00  0.65849736746E+03  0.65849736746E+03  0.00000000000E+00 0. -1.
         21   -1    0    0  503  504 -0.00000000000E+00 -0.00000000000E+00 -0.26733184738E+02  0.26733184738E+02  0.00000000000E+00 0. -1.
         25    2    1    2    0    0  0.32335455067E+02 -0.31020717776E+01  0.39446276354E+03  0.41506285409E+03  0.12498438512E+03 0.  0.
         25    2    1    2    0    0 -0.32335455067E+02  0.31020717776E+01  0.23730141918E+03  0.27016769810E+03  0.12499366804E+03 0.  0.
          5    1    3    3  501    0 -0.20809822928E+02 -0.51969525859E+02  0.19261453700E+03  0.20063980216E+03  0.47000000000E+01 0. -1.
         -5    1    3    3    0  501  0.53145277995E+02  0.48867454082E+02  0.20184822654E+03  0.21442305193E+03  0.47000000000E+01 0. -1.
          5    1    4    4  502    0 -0.75483405622E+02  0.21789436556E+02  0.11791682759E+03  0.14177091486E+03  0.47000000000E+01 0.  1.
         -5    1    4    4    0  502  0.43147950555E+02 -0.18687364778E+02  0.11938459159E+03  0.12839678324E+03  0.47000000000E+01 0.  1.
<mgrwt>
<rscale>  0 0.26535811E+03</rscale>
<asrwt>0</asrwt>
<pdfrwt beam="1">  1       21 0.10130728E+00 0.26535811E+03</pdfrwt>
<pdfrwt beam="2">  1       21 0.41127981E-02 0.26535811E+03</pdfrwt>
<totfact> 0.29161179E+05</totfact>
</mgrwt>
</event>
<event>
 8    1  0.9331162E-006  0.2631533E+03  0.7546771E-02  0.1105263E+00
         21   -1    0    0  504  503  0.00000000000E+00  0.00000000000E+00  0.87622664487E+02  0.87622664487E+02  0.00000000000E+00 0.  1.
         21   -1    0    0  503  504 -0.00000000000E+00 -0.00000000000E+00 -0.19757924891E+03  0.19757924891E+03  0.00000000000E+00 0.  1.
         25    2    1    2    0    0 -0.29423364912E+02 -0.30298001242E+01 -0.85855084701E+02  0.15451079038E+03  0.12501029831E+03 0.  0.
         25    2    1    2    0    0  0.29423364912E+02  0.30298001242E+01 -0.24101499721E+02  0.13069112301E+03  0.12499749299E+03 0.  0.
          5    1    3    3  501    0  0.26709083490E+02  0.42345241199E+02 -0.58593227108E+02  0.77212375018E+02  0.47000000000E+01 0. -1.
         -5    1    3    3    0  501 -0.56132448402E+02 -0.45375041323E+02 -0.27261857593E+02  0.77298415366E+02  0.47000000000E+01 0. -1.
          5    1    4    4  502    0  0.58782947042E+02 -0.33519445628E+02  0.14992149843E+02  0.69468285246E+02  0.47000000000E+01 0.  1.
         -5    1    4    4    0  502 -0.29359582130E+02  0.36549245753E+02 -0.39093649564E+02  0.61222837766E+02  0.47000000000E+01 0.  1.
<mgrwt>
<rscale>  0 0.26315334E+03</rscale>
<asrwt>0</asrwt>
<pdfrwt beam="1">  1       21 0.13480410E-01 0.26315334E+03</pdfrwt>
<pdfrwt beam="2">  1       21 0.30396807E-01 0.26315334E+03</pdfrwt>
<totfact> 0.48775981E+05</totfact>
</mgrwt>
</event>
<event>
 8    1  0.9331162E-006  0.2697378E+03  0.7546771E-02  0.1101430E+00
         21   -1    0    0  504  503  0.00000000000E+00  0.00000000000E+00  0.71428348927E+03  0.71428348927E+03  0.00000000000E+00 0. -1.
         21   -1    0    0  503  504 -0.00000000000E+00 -0.00000000000E+00 -0.25465553331E+02  0.25465553331E+02  0.00000000000E+00 0. -1.
         25    2    1    2    0    0  0.41692886516E+02 -0.26654679340E+02  0.31489971496E+03  0.34239670219E+03  0.12499960988E+03 0.  0.
         25    2    1    2    0    0 -0.41692886516E+02  0.26654679340E+02  0.37391822097E+03  0.39735234041E+03  0.12500111094E+03 0.  0.
          5    1    3    3  501    0 -0.20047765929E+02 -0.37444876834E+02  0.24372398623E+03  0.24744191881E+03  0.47000000000E+01 0.  1.
         -5    1    3    3    0  501  0.61740652445E+02  0.10790197494E+02  0.71175728734E+02  0.94954783382E+02  0.47000000000E+01 0.  1.
          5    1    4    4  502    0 -0.81429638157E+02 -0.23721951417E+01  0.27370918984E+03  0.28561376697E+03  0.47000000000E+01 0. -1.
         -5    1    4    4    0  502  0.39736751642E+02  0.29026874481E+02  0.10020903113E+03  0.11173857344E+03  0.47000000000E+01 0. -1.
<mgrwt>
<rscale>  0 0.26973783E+03</rscale>
<asrwt>0</asrwt>
<pdfrwt beam="1">  1       21 0.10988975E+00 0.26973783E+03</pdfrwt>
<pdfrwt beam="2">  1       21 0.39177780E-02 0.26973783E+03</pdfrwt>
<totfact> 0.25955789E+05</totfact>
</mgrwt>
</event>
<event>
 8    1  0.9331162E-006  0.4912892E+03  0.7546771E-02  0.1016078E+00
         21   -1    0    0  504  503  0.00000000000E+00  0.00000000000E+00  0.24550715314E+03  0.24550715314E+03  0.00000000000E+00 0. -1.
         21   -1    0    0  503  504 -0.00000000000E+00 -0.00000000000E+00 -0.24578208465E+03  0.24578208465E+03  0.00000000000E+00 0. -1.
         25    2    1    2    0    0 -0.43291668864E+02  0.98185233872E+02  0.18204573587E+03  0.24552173048E+03  0.12500304574E+03 0.  0.
         25    2    1    2    0    0  0.43291668864E+02 -0.98185233872E+02 -0.18232066738E+03  0.24576750732E+03  0.12508530351E+03 0.  0.
          5    1    3    3  501    0  0.21048240494E+02 -0.11480047295E+02  0.76190395672E+02  0.80011788547E+02  0.47000000000E+01 0. -1.
         -5    1    3    3    0  501 -0.64339909359E+02  0.10966528117E+03  0.10585534020E+03  0.16550994193E+03  0.47000000000E+01 0. -1.
          5    1    4    4  502    0 -0.27337683588E+02 -0.50228852998E+02 -0.17330735477E+02  0.59939394471E+02  0.47000000000E+01 0.  1.
         -5    1    4    4    0  502  0.70629352452E+02 -0.47956380874E+02 -0.16498993190E+03  0.18582811285E+03  0.47000000000E+01 0.  1.
<mgrwt>
<rscale>  0 0.49128916E+03</rscale>
<asrwt>0</asrwt>
<pdfrwt beam="1">  1       21 0.37770331E-01 0.49128916E+03</pdfrwt>
<pdfrwt beam="2">  1       21 0.37812628E-01 0.49128916E+03</pdfrwt>
<totfact> 0.41488624E+04</totfact>
</mgrwt>
</event>
<event>
 8    1  0.9331162E-006  0.2597996E+03  0.7546771E-02  0.1107264E+00
         21   -1    0    0  504  503  0.00000000000E+00  0.00000000000E+00  0.66672748988E+02  0.66672748988E+02  0.00000000000E+00 0.  1.
         21   -1    0    0  503  504 -0.00000000000E+00 -0.00000000000E+00 -0.25308625962E+03  0.25308625962E+03  0.00000000000E+00 0.  1.
         25    2    1    2    0    0 -0.32456171239E+02  0.85209321621E+01 -0.79717945193E+02  0.15202243131E+03  0.12501943649E+03 0.  0.
         25    2    1    2    0    0  0.32456171239E+02 -0.85209321621E+01 -0.10669556544E+03  0.16773657729E+03  0.12500242534E+03 0.  0.
          5    1    3    3  501    0 -0.35948899723E+02 -0.29069491276E+02 -0.99005431850E+02  0.10936875354E+03  0.47000000000E+01 0. -1.
         -5    1    3    3    0  501  0.34927284839E+01  0.37590423438E+02  0.19287486657E+02  0.42653677778E+02  0.47000000000E+01 0. -1.
          5    1    4    4  502    0 -0.17744010554E+02  0.48124370370E+02 -0.58216670650E+02  0.77730789753E+02  0.47000000000E+01 0.  1.
         -5    1    4    4    0  502  0.50200181793E+02 -0.56645302532E+02 -0.48478894790E+02  0.90005787542E+02  0.47000000000E+01 0.  1.
<mgrwt>
<rscale>  0 0.25979959E+03</rscale>
<asrwt>0</asrwt>
<pdfrwt beam="1">  1       21 0.10257346E-01 0.25979959E+03</pdfrwt>
<pdfrwt beam="2">  1       21 0.38936348E-01 0.25979959E+03</pdfrwt>
<totfact> 0.48684948E+05</totfact>
</mgrwt>
</event>
<event>
 8    1  0.9331162E-006  0.3227552E+03  0.7546771E-02  0.1074388E+00
         21   -1    0    0  504  503  0.00000000000E+00  0.00000000000E+00  0.52886225827E+03  0.52886225827E+03  0.00000000000E+00 0. -1.
         21   -1    0    0  503  504 -0.00000000000E+00 -0.00000000000E+00 -0.49242941128E+02  0.49242941128E+02  0.00000000000E+00 0. -1.
         25    2    1    2    0    0 -0.11974223197E+02  0.35270316054E+02  0.41008499681E+03  0.43033165634E+03  0.12501300982E+03 0.  0.
         25    2    1    2    0    0  0.11974223197E+02 -0.35270316054E+02  0.69534320334E+02  0.14777354306E+03  0.12495847754E+03 0.  0.
          5    1    3    3  501    0 -0.27547111876E+02  0.47075699756E+02  0.40618506782E+03  0.40985773653E+03  0.47000000000E+01 0.  1.
         -5    1    3    3    0  501  0.15572888679E+02 -0.11805383701E+02  0.38999289948E+01  0.20473919808E+02  0.47000000000E+01 0.  1.
          5    1    4    4  502    0 -0.27446059624E+02  0.27230656582E+01 -0.25591330460E+02  0.37917113157E+02  0.47000000000E+01 0.  1.
         -5    1    4    4    0  502  0.39420282821E+02 -0.37993381713E+02  0.95125650794E+02  0.10985642990E+03  0.47000000000E+01 0.  1.
<mgrwt>
<rscale>  0 0.32275522E+03</rscale>
<asrwt>0</asrwt>
<pdfrwt beam="1">  1       21 0.81363420E-01 0.32275522E+03</pdfrwt>
<pdfrwt beam="2">  1       21 0.75758375E-02 0.32275522E+03</pdfrwt>
<totfact> 0.16813674E+05</totfact>
</mgrwt>
</event>
<event>
 8    1  0.9331162E-006  0.3189695E+03  0.7546771E-02  0.1076125E+00
         21   -1    0    0  504  503  0.00000000000E+00  0.00000000000E+00  0.12971785774E+03  0.12971785774E+03  0.00000000000E+00 0.  1.
         21   -1    0    0  503  504 -0.00000000000E+00 -0.00000000000E+00 -0.19608242500E+03  0.19608242500E+03  0.00000000000E+00 0.  1.
         25    2    1    2    0    0  0.44267071425E+02 -0.83594947347E+02 -0.32077740307E+01  0.15679180937E+03  0.12500277132E+03 0.  0.
         25    2    1    2    0    0 -0.44267071425E+02  0.83594947347E+02 -0.63156793237E+02  0.16900847337E+03  0.12500957845E+03 0.  0.
          5    1    3    3  501    0  0.16930416684E+01 -0.20900889228E+02  0.56338979032E+02  0.60298292836E+02  0.47000000000E+01 0. -1.
         -5    1    3    3    0  501  0.42574029757E+02 -0.62694058119E+02 -0.59546753062E+02  0.96493516535E+02  0.47000000000E+01 0. -1.
          5    1    4    4  502    0  0.29577458976E+02  0.92299660096E+01 -0.55608743443E+02  0.63831345743E+02  0.47000000000E+01 0.  1.
         -5    1    4    4    0  502 -0.73844530401E+02  0.74364981337E+02 -0.75480497945E+01  0.10517712762E+03  0.47000000000E+01 0.  1.
<mgrwt>
<rscale>  0 0.31896954E+03</rscale>
<asrwt>0</asrwt>
<pdfrwt beam="1">  1       21 0.19956594E-01 0.31896954E+03</pdfrwt>
<pdfrwt beam="2">  1       21 0.30166527E-01 0.31896954E+03</pdfrwt>
<totfact> 0.23689229E+05</totfact>
</mgrwt>
</event>
<event>
 8    1  0.9331162E-006  0.2746327E+03  0.7546771E-02  0.1098657E+00
         21   -1    0    0  504  503  0.00000000000E+00  0.00000000000E+00  0.67353727925E+03  0.67353727925E+03  0.00000000000E+00 0. -1.
         21   -1    0    0  503  504 -0.00000000000E+00 -0.00000000000E+00 -0.27995147444E+02  0.27995147444E+02  0.00000000000E+00 0. -1.
         25    2    1    2    0    0  0.33730608343E+02  0.45391561141E+02  0.30693394104E+03  0.33620129766E+03  0.12499888250E+03 0.  0.
         25    2    1    2    0    0 -0.33730608343E+02 -0.45391561141E+02  0.33860819077E+03  0.36533112903E+03  0.12495270795E+03 0.  0.
          5    1    3    3  501    0  0.43744565945E+02 -0.34259984314E+02  0.10598463887E+03  0.11975878778E+03  0.47000000000E+01 0. -1.
         -5    1    3    3    0  501 -0.10013957602E+02  0.79651545455E+02  0.20094930218E+03  0.21644250988E+03  0.47000000000E+01 0. -1.
          5    1    4    4  502    0 -0.22474860705E+02 -0.88903628005E+02  0.23467986900E+03  0.25200338361E+03  0.47000000000E+01 0.  1.
         -5    1    4    4    0  502 -0.11255747638E+02  0.43512066864E+02  0.10392832177E+03  0.11332774543E+03  0.47000000000E+01 0.  1.
<mgrwt>
<rscale>  0 0.27463267E+03</rscale>
<asrwt>0</asrwt>
<pdfrwt beam="1">  1       21 0.10362111E+00 0.27463267E+03</pdfrwt>
<pdfrwt beam="2">  1       21 0.43069463E-02 0.27463267E+03</pdfrwt>
<totfact> 0.25479927E+05</totfact>
</mgrwt>
</event>
<event>
 8    1  0.9331162E-006  0.3065992E+03  0.7546771E-02  0.1081987E+00
         21   -1    0    0  504  503  0.00000000000E+00  0.00000000000E+00  0.79583080138E+03  0.79583080138E+03  0.00000000000E+00 0.  1.
         21   -1    0    0  503  504 -0.00000000000E+00 -0.00000000000E+00 -0.29529859812E+02  0.29529859812E+02  0.00000000000E+00 0.  1.
         25    2    1    2    0    0 -0.25499396180E+02 -0.76686631546E+02  0.48187252160E+03  0.50433831069E+03  0.12499978359E+03 0.  0.
         25    2    1    2    0    0  0.25499396180E+02  0.76686631546E+02  0.28442841998E+03  0.32102235051E+03  0.12499905908E+03 0.  0.
          5    1    3    3  501    0  0.59468272898E+00 -0.83978085555E+02  0.46395480027E+03  0.47151757040E+03  0.47000000000E+01 0. -1.
         -5    1    3    3    0  501 -0.26094078909E+02  0.72914540088E+01  0.17917721323E+02  0.32820740288E+02  0.47000000000E+01 0. -1.
          5    1    4    4  502    0  0.44564483156E+02  0.35679603671E+02  0.34236173489E+02  0.66732547173E+02  0.47000000000E+01 0. -1.
         -5    1    4    4    0  502 -0.19065086976E+02  0.41007027876E+02  0.25019224649E+03  0.25428980333E+03  0.47000000000E+01 0. -1.
<mgrwt>
<rscale>  0 0.30659923E+03</rscale>
<asrwt>0</asrwt>
<pdfrwt beam="1">  1       21 0.12243549E+00 0.30659923E+03</pdfrwt>
<pdfrwt beam="2">  1       21 0.45430560E-02 0.30659923E+03</pdfrwt>
<totfact> 0.15290938E+05</totfact>
</mgrwt>
</event>
<event>
 8    1  0.9331162E-006  0.3884894E+03  0.7546771E-02  0.1047840E+00
         21   -1    0    0  504  503  0.00000000000E+00  0.00000000000E+00  0.90390761468E+02  0.90390761468E+02  0.00000000000E+00 0. -1.
         21   -1    0    0  503  504 -0.00000000000E+00 -0.00000000000E+00 -0.41742107871E+03  0.41742107871E+03  0.00000000000E+00 0. -1.
         25    2    1    2    0    0  0.83520387670E+02 -0.35547680714E+02 -0.95864787796E+01  0.15477431112E+03  0.12499557610E+03 0.  0.
         25    2    1    2    0    0 -0.83520387670E+02  0.35547680714E+02 -0.31744383846E+03  0.35303752906E+03  0.12500245433E+03 0.  0.
          5    1    3    3  501    0  0.52014796175E+01  0.39794521622E+02  0.15265444940E+02  0.43194712067E+02  0.47000000000E+01 0. -1.
         -5    1    3    3    0  501  0.78318908052E+02 -0.75342202336E+02 -0.24851923720E+02  0.11157959905E+03  0.47000000000E+01 0. -1.
          5    1    4    4  502    0 -0.80395065160E+02 -0.28798133871E+02 -0.13835016481E+03  0.16265164346E+03  0.47000000000E+01 0. -1.
         -5    1    4    4    0  502 -0.31253225102E+01  0.64345814585E+02 -0.17909367365E+03  0.19038588560E+03  0.47000000000E+01 0. -1.
<mgrwt>
<rscale>  0 0.38848943E+03</rscale>
<asrwt>0</asrwt>
<pdfrwt beam="1">  1       21 0.13906271E-01 0.38848943E+03</pdfrwt>
<pdfrwt beam="2">  1       21 0.64218629E-01 0.38848943E+03</pdfrwt>
<totfact> 0.94941269E+04</totfact>
</mgrwt>
</event>
<event>
 8    1  0.9331162E-006  0.2547447E+03  0.7546771E-02  0.1110342E+00
         21   -1    0    0  504  503  0.00000000000E+00  0.00000000000E+00  0.75326312060E+02  0.75326312060E+02  0.00000000000E+00 0. -1.
         21   -1    0    0  503  504 -0.00000000000E+00 -0.00000000000E+00 -0.21537918164E+03  0.21537918164E+03  0.00000000000E+00 0. -1.
         25    2    1    2    0    0 -0.20417423146E+02  0.57288851450E+01 -0.56061263104E+02  0.13862250760E+03  0.12499457228E+03 0.  0.
         25    2    1    2    0    0  0.20417423146E+02 -0.57288851450E+01 -0.83991606472E+02  0.15208298609E+03  0.12499981363E+03 0.  0.
          5    1    3    3  501    0 -0.33624902752E+02 -0.73986280301E+01  0.32755233453E+02  0.47753210367E+02  0.47000000000E+01 0.  1.
         -5    1    3    3    0  501  0.13207479605E+02  0.13127513175E+02 -0.88816496557E+02  0.90869297237E+02  0.47000000000E+01 0.  1.
          5    1    4    4  502    0 -0.43691698607E+02  0.13065249093E+02 -0.69981429784E+02  0.83660957296E+02  0.47000000000E+01 0.  1.
         -5    1    4    4    0  502  0.64109121754E+02 -0.18794134238E+02 -0.14010176688E+02  0.68422028796E+02  0.47000000000E+01 0.  1.
<mgrwt>
<rscale>  0 0.25474473E+03</rscale>
<asrwt>0</asrwt>
<pdfrwt beam="1">  1       21 0.11588663E-01 0.25474473E+03</pdfrwt>
<pdfrwt beam="2">  1       21 0.33135259E-01 0.25474473E+03</pdfrwt>
<totfact> 0.54135285E+05</totfact>
</mgrwt>
</event>
<event>
 8    1  0.9331162E-006  0.3335600E+03  0.7546771E-02  0.1069572E+00
         21   -1    0    0  504  503  0.00000000000E+00  0.00000000000E+00  0.27245096880E+02  0.27245096880E+02  0.00000000000E+00 0. -1.
         21   -1    0    0  503  504 -0.00000000000E+00 -0.00000000000E+00 -0.10209387275E+04  0.10209387275E+04  0.00000000000E+00 0. -1.
         25    2    1    2    0    0  0.24697957699E+02  0.63154304356E+02 -0.22305591204E+03  0.26453468810E+03  0.12500482406E+03 0.  0.
         25    2    1    2    0    0 -0.24697957699E+02 -0.63154304356E+02 -0.77063771862E+03  0.78364913632E+03  0.12500008091E+03 0.  0.
          5    1    3    3  501    0  0.55177876644E+02  0.29728354544E+02 -0.20695531544E+03  0.21628907907E+03  0.47000000000E+01 0.  1.
         -5    1    3    3    0  501 -0.30479918945E+02  0.33425949812E+02 -0.16100596599E+02  0.48245609029E+02  0.47000000000E+01 0.  1.
          5    1    4    4  502    0 -0.72591684165E+02 -0.15735815564E+02 -0.38200162987E+03  0.38918440837E+03  0.47000000000E+01 0. -1.
         -5    1    4    4    0  502  0.47893726466E+02 -0.47418488792E+02 -0.38863608875E+03  0.39446472795E+03  0.47000000000E+01 0. -1.
<mgrwt>
<rscale>  0 0.33356004E+03</rscale>
<asrwt>0</asrwt>
<pdfrwt beam="1">  1       21 0.41915536E-02 0.33356004E+03</pdfrwt>
<pdfrwt beam="2">  1       21 0.15706749E+00 0.33356004E+03</pdfrwt>
<totfact> 0.90548244E+04</totfact>
</mgrwt>
</event>
<event>
 8    1  0.9331162E-006  0.3082173E+03  0.7546771E-02  0.1081204E+00
         21   -1    0    0  504  503  0.00000000000E+00  0.00000000000E+00  0.36664568359E+03  0.36664568359E+03  0.00000000000E+00 0. -1.
         21   -1    0    0  503  504 -0.00000000000E+00 -0.00000000000E+00 -0.64775005678E+02  0.64775005678E+02  0.00000000000E+00 0. -1.
         25    2    1    2    0    0  0.87749486076E+02  0.10313580176E+02  0.12588541913E+03  0.19818330573E+03  0.12499256648E+03 0.  0.
         25    2    1    2    0    0 -0.87749486076E+02 -0.10313580176E+02  0.17598525878E+03  0.23323738354E+03  0.12499009373E+03 0.  0.
          5    1    3    3  501    0  0.68505206956E+02  0.25937500029E+02  0.37803631656E+01  0.73498968928E+02  0.47000000000E+01 0.  1.
         -5    1    3    3    0  501  0.19244279120E+02 -0.15623919853E+02  0.12210505597E+03  0.12468433680E+03  0.47000000000E+01 0.  1.
          5    1    4    4  502    0 -0.11291258932E+02  0.49126817681E+02  0.32838203940E+02  0.60343801519E+02  0.47000000000E+01 0. -1.
         -5    1    4    4    0  502 -0.76458227144E+02 -0.59440397857E+02  0.14314705484E+03  0.17289358202E+03  0.47000000000E+01 0. -1.
<mgrwt>
<rscale>  0 0.30821730E+03</rscale>
<asrwt>0</asrwt>
<pdfrwt beam="1">  1       21 0.56407027E-01 0.30821730E+03</pdfrwt>
<pdfrwt beam="2">  1       21 0.99653857E-02 0.30821730E+03</pdfrwt>
<totfact> 0.23432226E+05</totfact>
</mgrwt>
</event>
<event>
 8    1  0.9331162E-006  0.6142702E+03  0.7546771E-02  0.9876234E-01
         21   -1    0    0  504  503  0.00000000000E+00  0.00000000000E+00  0.25979048434E+04  0.25979048434E+04  0.00000000000E+00 0.  1.
         21   -1    0    0  503  504 -0.00000000000E+00 -0.00000000000E+00 -0.36310788819E+02  0.36310788819E+02  0.00000000000E+00 0.  1.
         25    2    1    2    0    0  0.27384309419E+03  0.57902311885E+02  0.11981697995E+04  0.12367611067E+04  0.12499779413E+03 0.  0.
         25    2    1    2    0    0 -0.27384309419E+03 -0.57902311885E+02  0.13634242550E+04  0.13974545255E+04  0.12494292188E+03 0.  0.
          5    1    3    3  501    0  0.15778696608E+03  0.95281658018E+02  0.73914698291E+03  0.76179765907E+03  0.47000000000E+01 0. -1.
         -5    1    3    3    0  501  0.11605612811E+03 -0.37379346133E+02  0.45902281661E+03  0.47496344760E+03  0.47000000000E+01 0. -1.
          5    1    4    4  502    0 -0.22997009568E+03 -0.86057593564E+02  0.97198596893E+03  0.10025322778E+04  0.47000000000E+01 0. -1.
         -5    1    4    4    0  502 -0.43872998509E+02  0.28155281679E+02  0.39143828610E+03  0.39492224768E+03  0.47000000000E+01 0. -1.
<mgrwt>
<rscale>  0 0.61427021E+03</rscale>
<asrwt>0</asrwt>
<pdfrwt beam="1">  1       21 0.39967752E+00 0.61427021E+03</pdfrwt>
<pdfrwt beam="2">  1       21 0.55862772E-02 0.61427021E+03</pdfrwt>
<totfact> 0.14245140E+03</totfact>
</mgrwt>
</event>
<event>
 8    1  0.9331162E-006  0.3740017E+03  0.7546771E-02  0.1053173E+00
         21   -1    0    0  504  503  0.00000000000E+00  0.00000000000E+00  0.14212343897E+04  0.14212343897E+04  0.00000000000E+00 0.  1.
         21   -1    0    0  503  504 -0.00000000000E+00 -0.00000000000E+00 -0.24604891337E+02  0.24604891337E+02  0.00000000000E+00 0.  1.
         25    2    1    2    0    0 -0.67455157822E+02  0.12148716970E+03  0.72312808105E+03  0.74688659648E+03  0.12496413759E+03 0.  0.
         25    2    1    2    0    0  0.67455157822E+02 -0.12148716970E+03  0.67350141730E+03  0.69895268454E+03  0.12498546077E+03 0.  0.
          5    1    3    3  501    0 -0.40791496477E+02  0.13717341158E+03  0.45652124051E+03  0.47844981353E+03  0.47000000000E+01 0.  1.
         -5    1    3    3    0  501 -0.26663661345E+02 -0.15686241875E+02  0.26660684054E+03  0.26843678295E+03  0.47000000000E+01 0.  1.
          5    1    4    4  502    0 -0.20220792377E+02  0.14290885204E+02  0.90163504043E+02  0.93619748481E+02  0.47000000000E+01 0.  1.
         -5    1    4    4    0  502  0.87675950199E+02 -0.13577805491E+03  0.58333791326E+03  0.60533293606E+03  0.47000000000E+01 0.  1.
<mgrwt>
<rscale>  0 0.37400170E+03</rscale>
<asrwt>0</asrwt>
<pdfrwt beam="1">  1       21 0.21865138E+00 0.37400170E+03</pdfrwt>
<pdfrwt beam="2">  1       21 0.37853690E-02 0.37400170E+03</pdfrwt>
<totfact> 0.40106375E+04</totfact>
</mgrwt>
</event>
<event>
 8    1  0.9331162E-006  0.2685770E+03  0.7546771E-02  0.1102097E+00
         21   -1    0    0  504  503  0.00000000000E+00  0.00000000000E+00  0.74337775601E+02  0.74337775601E+02  0.00000000000E+00 0.  1.
         21   -1    0    0  503  504 -0.00000000000E+00 -0.00000000000E+00 -0.24258722979E+03  0.24258722979E+03  0.00000000000E+00 0.  1.
         25    2    1    2    0    0  0.15940050478E+02 -0.36992924859E+02 -0.11734626734E+03  0.17612535846E+03  0.12500973456E+03 0.  0.
         25    2    1    2    0    0 -0.15940050478E+02  0.36992924859E+02 -0.50903186853E+02  0.14079964694E+03  0.12494336496E+03 0.  0.
          5    1    3    3  501    0  0.37832082342E+01 -0.43450483173E+01  0.26770152909E+02  0.27783505830E+02  0.47000000000E+01 0.  1.
         -5    1    3    3    0  501  0.12156842244E+02 -0.32647876542E+02 -0.14411642025E+03  0.14834185263E+03  0.47000000000E+01 0.  1.
          5    1    4    4  502    0  0.51474097895E+02  0.22607706971E+02 -0.43644326549E+02  0.71327473028E+02  0.47000000000E+01 0. -1.
         -5    1    4    4    0  502 -0.67414148373E+02  0.14385217889E+02 -0.72588603035E+01  0.69472173908E+02  0.47000000000E+01 0. -1.
<mgrwt>
<rscale>  0 0.26857695E+03</rscale>
<asrwt>0</asrwt>
<pdfrwt beam="1">  1       21 0.11436581E-01 0.26857695E+03</pdfrwt>
<pdfrwt beam="2">  1       21 0.37321112E-01 0.26857695E+03</pdfrwt>
<totfact> 0.43587191E+05</totfact>
</mgrwt>
</event>
<event>
 8    1  0.9331162E-006  0.2792598E+03  0.7546771E-02  0.1096094E+00
         21   -1    0    0  504  503  0.00000000000E+00  0.00000000000E+00  0.61776526803E+03  0.61776526803E+03  0.00000000000E+00 0.  1.
         21   -1    0    0  503  504 -0.00000000000E+00 -0.00000000000E+00 -0.31559744196E+02  0.31559744196E+02  0.00000000000E+00 0.  1.
         25    2    1    2    0    0  0.57400942542E+01  0.28935511209E+01  0.43696504886E+03  0.45453862930E+03  0.12500236112E+03 0.  0.
         25    2    1    2    0    0 -0.57400942542E+01 -0.28935511209E+01  0.14924047497E+03  0.19478638292E+03  0.12501077666E+03 0.  0.
          5    1    3    3  501    0 -0.26402570228E+02 -0.33811717786E+02  0.36454447000E+03  0.36709002790E+03  0.47000000000E+01 0.  1.
         -5    1    3    3    0  501  0.32142664483E+02  0.36705268907E+02  0.72420578856E+02  0.87448601404E+02  0.47000000000E+01 0.  1.
          5    1    4    4  502    0  0.36341191059E+02 -0.44425511452E+02  0.38838090810E+02  0.69460748147E+02  0.47000000000E+01 0. -1.
         -5    1    4    4    0  502 -0.42081285313E+02  0.41531960331E+02  0.11040238416E+03  0.12532563477E+03  0.47000000000E+01 0. -1.
<mgrwt>
<rscale>  0 0.27925983E+03</rscale>
<asrwt>0</asrwt>
<pdfrwt beam="1">  1       21 0.95040801E-01 0.27925983E+03</pdfrwt>
<pdfrwt beam="2">  1       21 0.48553457E-02 0.27925983E+03</pdfrwt>
<totfact> 0.25526333E+05</totfact>
</mgrwt>
</event>
<event>
 8    1  0.9331162E-006  0.2946934E+03  0.7546771E-02  0.1087924E+00
         21   -1    0    0  504  503  0.00000000000E+00  0.00000000000E+00  0.14773146645E+02  0.14773146645E+02  0.00000000000E+00 0. -1.
         21   -1    0    0  503  504 -0.00000000000E+00 -0.00000000000E+00 -0.14696291122E+04  0.14696291122E+04  0.00000000000E+00 0. -1.
         25    2    1    2    0    0 -0.35546695281E+02 -0.72615846849E+01 -0.37952085522E+03  0.40121880660E+03  0.12499661223E+03 0.  0.
         25    2    1    2    0    0  0.35546695281E+02  0.72615846849E+01 -0.10753351103E+04  0.10831834522E+04  0.12499797410E+03 0.  0.
          5    1    3    3  501    0  0.17234964897E+02 -0.44532055872E+02 -0.26787171854E+03  0.27213506869E+03  0.47000000000E+01 0. -1.
         -5    1    3    3    0  501 -0.52781660178E+02  0.37270471187E+02 -0.11164913668E+03  0.12908373792E+03  0.47000000000E+01 0. -1.
          5    1    4    4  502    0  0.25511636937E+02 -0.51808489475E+02 -0.75772788390E+03  0.75993986554E+03  0.47000000000E+01 0. -1.
         -5    1    4    4    0  502  0.10035058344E+02  0.59070074160E+02 -0.31760722643E+03  0.32324358669E+03  0.47000000000E+01 0. -1.
<mgrwt>
<rscale>  0 0.29469338E+03</rscale>
<asrwt>0</asrwt>
<pdfrwt beam="1">  1       21 0.22727919E-02 0.29469338E+03</pdfrwt>
<pdfrwt beam="2">  1       21 0.22609678E+00 0.29469338E+03</pdfrwt>
<totfact> 0.87292246E+04</totfact>
</mgrwt>
</event>
<event>
 8    1  0.9331162E-006  0.3912433E+03  0.7546771E-02  0.1046855E+00
         21   -1    0    0  504  503  0.00000000000E+00  0.00000000000E+00  0.54283549762E+02  0.54283549762E+02  0.00000000000E+00 0.  1.
         21   -1    0    0  503  504 -0.00000000000E+00 -0.00000000000E+00 -0.70496173632E+03  0.70496173632E+03  0.00000000000E+00 0.  1.
         25    2    1    2    0    0  0.94679800719E+02  0.98739817274E+02 -0.44697295996E+03  0.48386239896E+03  0.12499671201E+03 0.  0.
         25    2    1    2    0    0 -0.94679800719E+02 -0.98739817274E+02 -0.20370522660E+03  0.27538288712E+03  0.12500439591E+03 0.  0.
          5    1    3    3  501    0  0.65071102114E+02  0.12630026132E+03 -0.37687914383E+03  0.40279769537E+03  0.47000000000E+01 0. -1.
         -5    1    3    3    0  501  0.29608698605E+02 -0.27560444046E+02 -0.70093816130E+02  0.81064703594E+02  0.47000000000E+01 0. -1.
          5    1    4    4  502    0 -0.18647079917E+02  0.95283567255E+01  0.10250530452E+02  0.23783745413E+02  0.47000000000E+01 0.  1.
         -5    1    4    4    0  502 -0.76032720802E+02 -0.10826817400E+03 -0.21395575705E+03  0.25159914171E+03  0.47000000000E+01 0.  1.
<mgrwt>
<rscale>  0 0.39124328E+03</rscale>
<asrwt>0</asrwt>
<pdfrwt beam="1">  1       21 0.83513155E-02 0.39124328E+03</pdfrwt>
<pdfrwt beam="2">  1       21 0.10845565E+00 0.39124328E+03</pdfrwt>
<totfact> 0.70265197E+04</totfact>
</mgrwt>
</event>
<event>
 8    1  0.9331162E-006  0.3569546E+03  0.7546771E-02  0.1059796E+00
         21   -1    0    0  504  503  0.00000000000E+00  0.00000000000E+00  0.37300313112E+03  0.37300313112E+03  0.00000000000E+00 0.  1.
         21   -1    0    0  503  504 -0.00000000000E+00 -0.00000000000E+00 -0.85399140876E+02  0.85399140876E+02  0.00000000000E+00 0.  1.
         25    2    1    2    0    0  0.46931240756E+01 -0.70219879137E+02  0.74355073442E+01  0.14364679634E+03  0.12500503386E+03 0.  0.
         25    2    1    2    0    0 -0.46931240756E+01  0.70219879137E+02  0.28016848290E+03  0.31475547566E+03  0.12499509513E+03 0.  0.
          5    1    3    3  501    0 -0.37890784266E+02 -0.56777260015E+02  0.47642457002E+02  0.83374231608E+02  0.47000000000E+01 0.  1.
         -5    1    3    3    0  501  0.42583908341E+02 -0.13442619122E+02 -0.40206949657E+02  0.60272564731E+02  0.47000000000E+01 0.  1.
          5    1    4    4  502    0  0.42501607912E+01 -0.32958296770E+02  0.11454954410E+03  0.11936499171E+03  0.47000000000E+01 0.  1.
         -5    1    4    4    0  502 -0.89432848668E+01  0.10317817591E+03  0.16561893881E+03  0.19539048395E+03  0.47000000000E+01 0.  1.
<mgrwt>
<rscale>  0 0.35695460E+03</rscale>
<asrwt>0</asrwt>
<pdfrwt beam="1">  1       21 0.57385096E-01 0.35695460E+03</pdfrwt>
<pdfrwt beam="2">  1       21 0.13138330E-01 0.35695460E+03</pdfrwt>
<totfact> 0.13567780E+05</totfact>
</mgrwt>
</event>
<event>
 8    1  0.9331162E-006  0.3587972E+03  0.7546771E-02  0.1059061E+00
         21   -1    0    0  504  503  0.00000000000E+00  0.00000000000E+00  0.20957572639E+03  0.20957572639E+03  0.00000000000E+00 0. -1.
         21   -1    0    0  503  504 -0.00000000000E+00 -0.00000000000E+00 -0.15356672516E+03  0.15356672516E+03  0.00000000000E+00 0. -1.
         25    2    1    2    0    0 -0.10071594970E+03 -0.58290547710E+02 -0.27593901400E+02  0.17299603839E+03  0.12499886171E+03 0.  0.
         25    2    1    2    0    0  0.10071594970E+03  0.58290547710E+02  0.83602902632E+02  0.19014641315E+03  0.12499889051E+03 0.  0.
          5    1    3    3  501    0 -0.10895583300E+03 -0.89414892775E+01  0.10515913797E+02  0.10992724057E+03  0.47000000000E+01 0.  1.
         -5    1    3    3    0  501  0.82398832963E+01 -0.49349058433E+02 -0.38109815197E+02  0.63068797826E+02  0.47000000000E+01 0.  1.
          5    1    4    4  502    0 -0.28926488348E+02  0.38667061778E+01  0.20426087842E+02  0.35930602686E+02  0.47000000000E+01 0.  1.
         -5    1    4    4    0  502  0.12964243805E+03  0.54423841532E+02  0.63176814790E+02  0.15421581047E+03  0.47000000000E+01 0.  1.
<mgrwt>
<rscale>  0 0.35879720E+03</rscale>
<asrwt>0</asrwt>
<pdfrwt beam="1">  1       21 0.32242419E-01 0.35879720E+03</pdfrwt>
<pdfrwt beam="2">  1       21 0.23625650E-01 0.35879720E+03</pdfrwt>
<totfact> 0.14925648E+05</totfact>
</mgrwt>
</event>
<event>
 8    1  0.9331162E-006  0.2915106E+03  0.7546771E-02  0.1089563E+00
         21   -1    0    0  504  503  0.00000000000E+00  0.00000000000E+00  0.49651217565E+02  0.49651217565E+02  0.00000000000E+00 0. -1.
         21   -1    0    0  503  504 -0.00000000000E+00 -0.00000000000E+00 -0.42787673371E+03  0.42787673371E+03  0.00000000000E+00 0. -1.
         25    2    1    2    0    0 -0.21794972176E+02  0.67309532725E+02 -0.22974380151E+03  0.27094092118E+03  0.12498469679E+03 0.  0.
         25    2    1    2    0    0  0.21794972176E+02 -0.67309532725E+02 -0.14848171464E+03  0.20658703009E+03  0.12500314961E+03 0.  0.
          5    1    3    3  501    0  0.43170171136E+02  0.88413837136E+00 -0.11680463297E+03  0.12461884954E+03  0.47000000000E+01 0.  1.
         -5    1    3    3    0  501 -0.64965143312E+02  0.66425394353E+02 -0.11293916854E+03  0.14632207164E+03  0.47000000000E+01 0.  1.
          5    1    4    4  502    0  0.44508942968E+02 -0.95306764689E+02 -0.12439709391E+03  0.16297592575E+03  0.47000000000E+01 0.  1.
         -5    1    4    4    0  502 -0.22713970792E+02  0.27997231964E+02 -0.24084620727E+02  0.43611104347E+02  0.47000000000E+01 0.  1.
<mgrwt>
<rscale>  0 0.29151055E+03</rscale>
<asrwt>0</asrwt>
<pdfrwt beam="1">  1       21 0.76386491E-02 0.29151055E+03</pdfrwt>
<pdfrwt beam="2">  1       21 0.65827188E-01 0.29151055E+03</pdfrwt>
<totfact> 0.26884567E+05</totfact>
</mgrwt>
</event>
<event>
 8    1  0.9331162E-006  0.3731908E+03  0.7546771E-02  0.1053480E+00
         21   -1    0    0  504  503  0.00000000000E+00  0.00000000000E+00  0.17664174536E+03  0.17664174536E+03  0.00000000000E+00 0. -1.
         21   -1    0    0  503  504 -0.00000000000E+00 -0.00000000000E+00 -0.19710994370E+03  0.19710994370E+03  0.00000000000E+00 0. -1.
         25    2    1    2    0    0  0.35267739723E+02  0.94229845935E+02 -0.10560507122E+03  0.19210051309E+03  0.12500839465E+03 0.  0.
         25    2    1    2    0    0 -0.35267739723E+02 -0.94229845935E+02  0.85136872875E+02  0.18165117597E+03  0.12500314107E+03 0.  0.
          5    1    3    3  501    0  0.50545658276E+02  0.29424198934E+02  0.91117799354E+01  0.59378123809E+02  0.47000000000E+01 0.  1.
         -5    1    3    3    0  501 -0.15277918553E+02  0.64805647001E+02 -0.11471685115E+03  0.13272238928E+03  0.47000000000E+01 0.  1.
          5    1    4    4  502    0 -0.37310733502E+02 -0.61927088627E+01 -0.21115167640E+02  0.43570411772E+02  0.47000000000E+01 0.  1.
         -5    1    4    4    0  502  0.20429937789E+01 -0.88037137072E+02  0.10625204052E+03  0.13808076420E+03  0.47000000000E+01 0.  1.
<mgrwt>
<rscale>  0 0.37319081E+03</rscale>
<asrwt>0</asrwt>
<pdfrwt beam="1">  1       21 0.27175653E-01 0.37319081E+03</pdfrwt>
<pdfrwt beam="2">  1       21 0.30324607E-01 0.37319081E+03</pdfrwt>
<totfact> 0.12812334E+05</totfact>
</mgrwt>
</event>
<event>
 8    1  0.9331162E-006  0.2781956E+03  0.7546771E-02  0.1096679E+00
         21   -1    0    0  504  503  0.00000000000E+00  0.00000000000E+00  0.39095101903E+02  0.39095101903E+02  0.00000000000E+00 0. -1.
         21   -1    0    0  503  504 -0.00000000000E+00 -0.00000000000E+00 -0.49490099700E+03  0.49490099700E+03  0.00000000000E+00 0. -1.
         25    2    1    2    0    0 -0.50136878894E+01  0.44627607981E+02 -0.30724830297E+03  0.33472797709E+03  0.12499815401E+03 0.  0.
         25    2    1    2    0    0  0.50136878894E+01 -0.44627607981E+02 -0.14855759213E+03  0.19926812182E+03  0.12498666222E+03 0.  0.
          5    1    3    3  501    0  0.41010739933E+02 -0.95203397872E+00 -0.23058907009E+03  0.23425668913E+03  0.47000000000E+01 0. -1.
         -5    1    3    3    0  501 -0.46024427822E+02  0.45579641960E+02 -0.76659232882E+02  0.10047128796E+03  0.47000000000E+01 0. -1.
          5    1    4    4  502    0 -0.57779414712E+01  0.39897877948E+02 -0.20741357767E+02  0.45579811259E+02  0.47000000000E+01 0.  1.
         -5    1    4    4    0  502  0.10791629361E+02 -0.84525485929E+02 -0.12781623437E+03  0.15368831056E+03  0.47000000000E+01 0.  1.
<mgrwt>
<rscale>  0 0.27819565E+03</rscale>
<asrwt>0</asrwt>
<pdfrwt beam="1">  1       21 0.60146312E-02 0.27819565E+03</pdfrwt>
<pdfrwt beam="2">  1       21 0.76138613E-01 0.27819565E+03</pdfrwt>
<totfact> 0.29526189E+05</totfact>
</mgrwt>
</event>
<event>
 8    1  0.9331162E-006  0.4103579E+03  0.7546771E-02  0.1040251E+00
         21   -1    0    0  504  503  0.00000000000E+00  0.00000000000E+00  0.12531619159E+04  0.12531619159E+04  0.00000000000E+00 0.  1.
         21   -1    0    0  503  504 -0.00000000000E+00 -0.00000000000E+00 -0.33593746019E+02  0.33593746019E+02  0.00000000000E+00 0.  1.
         25    2    1    2    0    0 -0.13911108050E+03  0.76014351031E+02  0.72473295629E+03  0.75232540658E+03  0.12500234067E+03 0.  0.
         25    2    1    2    0    0  0.13911108050E+03 -0.76014351031E+02  0.49483521361E+03  0.53443025536E+03  0.12499493963E+03 0.  0.
          5    1    3    3  501    0 -0.11452301062E+03 -0.72919930901E+01  0.40469091384E+03  0.42067269803E+03  0.47000000000E+01 0.  1.
         -5    1    3    3    0  501 -0.24588069873E+02  0.83306344121E+02  0.32004204245E+03  0.33165270855E+03  0.47000000000E+01 0.  1.
          5    1    4    4  502    0 -0.65076904336E+00 -0.18576103648E+01 -0.67527605282E+01  0.84595503052E+01  0.47000000000E+01 0. -1.
         -5    1    4    4    0  502  0.13976184954E+03 -0.74156740667E+02  0.50158797414E+03  0.52597070505E+03  0.47000000000E+01 0. -1.
<mgrwt>
<rscale>  0 0.41035791E+03</rscale>
<asrwt>0</asrwt>
<pdfrwt beam="1">  1       21 0.19279410E+00 0.41035791E+03</pdfrwt>
<pdfrwt beam="2">  1       21 0.51682696E-02 0.41035791E+03</pdfrwt>
<totfact> 0.34333555E+04</totfact>
</mgrwt>
</event>
<event>
 8    1  0.9331162E-006  0.3303981E+03  0.7546771E-02  0.1070961E+00
         21   -1    0    0  504  503  0.00000000000E+00  0.00000000000E+00  0.37710230817E+02  0.37710230817E+02  0.00000000000E+00 0. -1.
         21   -1    0    0  503  504 -0.00000000000E+00 -0.00000000000E+00 -0.72369538356E+03  0.72369538356E+03  0.00000000000E+00 0. -1.
         25    2    1    2    0    0  0.47861082146E+02 -0.31837839254E+02 -0.13226278743E+03  0.19084663851E+03  0.12499865320E+03 0.  0.
         25    2    1    2    0    0 -0.47861082146E+02  0.31837839254E+02 -0.55372236532E+03  0.57055897586E+03  0.12499902357E+03 0.  0.
          5    1    3    3  501    0  0.36547191145E+02  0.44798463907E+02 -0.40928051912E+02  0.70991513453E+02  0.47000000000E+01 0. -1.
         -5    1    3    3    0  501  0.11313891001E+02 -0.76636303161E+02 -0.91334735514E+02  0.11985512506E+03  0.47000000000E+01 0. -1.
          5    1    4    4  502    0 -0.60185241687E+02 -0.27344154077E+02 -0.39741983310E+03  0.40290765669E+03  0.47000000000E+01 0.  1.
         -5    1    4    4    0  502  0.12324159541E+02  0.59181993331E+02 -0.15630253222E+03  0.16765131917E+03  0.47000000000E+01 0.  1.
<mgrwt>
<rscale>  0 0.33039806E+03</rscale>
<asrwt>0</asrwt>
<pdfrwt beam="1">  1       21 0.58015742E-02 0.33039806E+03</pdfrwt>
<pdfrwt beam="2">  1       21 0.11133775E+00 0.33039806E+03</pdfrwt>
<totfact> 0.12655066E+05</totfact>
</mgrwt>
</event>
<event>
 8    1  0.9331162E-006  0.2626402E+03  0.7546771E-02  0.1105567E+00
         21   -1    0    0  504  503  0.00000000000E+00  0.00000000000E+00  0.18141284522E+03  0.18141284522E+03  0.00000000000E+00 0. -1.
         21   -1    0    0  503  504 -0.00000000000E+00 -0.00000000000E+00 -0.95059222999E+02  0.95059222999E+02  0.00000000000E+00 0. -1.
         25    2    1    2    0    0  0.30097215687E+02 -0.19994134952E+02  0.24573970089E+02  0.13243166151E+03  0.12501462770E+03 0.  0.
         25    2    1    2    0    0 -0.30097215687E+02  0.19994134952E+02  0.61779652131E+02  0.14404040671E+03  0.12500122209E+03 0.  0.
          5    1    3    3  501    0  0.58105866586E+02  0.17409992987E+02  0.50248548419E+02  0.78907580154E+02  0.47000000000E+01 0.  1.
         -5    1    3    3    0  501 -0.28008650900E+02 -0.37404127940E+02 -0.25674578331E+02  0.53524081352E+02  0.47000000000E+01 0.  1.
          5    1    4    4  502    0  0.28019716678E-01 -0.29494097759E+02 -0.25435915217E+02  0.39229814818E+02  0.47000000000E+01 0.  1.
         -5    1    4    4    0  502 -0.30125235403E+02  0.49488232712E+02  0.87215567348E+02  0.10481059189E+03  0.47000000000E+01 0.  1.
<mgrwt>
<rscale>  0 0.26264017E+03</rscale>
<asrwt>0</asrwt>
<pdfrwt beam="1">  1       21 0.27909668E-01 0.26264017E+03</pdfrwt>
<pdfrwt beam="2">  1       21 0.14624496E-01 0.26264017E+03</pdfrwt>
<totfact> 0.49687964E+05</totfact>
</mgrwt>
</event>
<event>
 8    1  0.9331162E-006  0.3514519E+03  0.7546771E-02  0.1062021E+00
         21   -1    0    0  504  503  0.00000000000E+00  0.00000000000E+00  0.40883270665E+03  0.40883270665E+03  0.00000000000E+00 0.  1.
         21   -1    0    0  503  504 -0.00000000000E+00 -0.00000000000E+00 -0.75531149918E+02  0.75531149918E+02  0.00000000000E+00 0.  1.
         25    2    1    2    0    0 -0.83301701819E+02  0.50537782885E+02  0.27125259591E+03  0.31416210909E+03  0.12500647574E+03 0.  0.
         25    2    1    2    0    0  0.83301701819E+02 -0.50537782885E+02  0.62048960823E+02  0.17020174748E+03  0.12500128111E+03 0.  0.
          5    1    3    3  501    0 -0.44600626895E+02  0.69329650817E+02  0.25482877133E+03  0.26787237465E+03  0.47000000000E+01 0.  1.
         -5    1    3    3    0  501 -0.38701074924E+02 -0.18791867932E+02  0.16423824570E+02  0.46289734436E+02  0.47000000000E+01 0.  1.
          5    1    4    4  502    0  0.59406054756E+01 -0.52432256037E+02  0.74772624777E+02  0.91637697934E+02  0.47000000000E+01 0.  1.
         -5    1    4    4    0  502  0.77361096344E+02  0.18944731520E+01 -0.12723663954E+02  0.78564049542E+02  0.47000000000E+01 0.  1.
<mgrwt>
<rscale>  0 0.35145187E+03</rscale>
<asrwt>0</asrwt>
<pdfrwt beam="1">  1       21 0.62897338E-01 0.35145187E+03</pdfrwt>
<pdfrwt beam="2">  1       21 0.11620177E-01 0.35145187E+03</pdfrwt>
<totfact> 0.13902569E+05</totfact>
</mgrwt>
</event>
<event>
 8    1  0.9331162E-006  0.3170838E+03  0.7546771E-02  0.1076999E+00
         21   -1    0    0  504  503  0.00000000000E+00  0.00000000000E+00  0.42037365929E+03  0.42037365929E+03  0.00000000000E+00 0. -1.
         21   -1    0    0  503  504 -0.00000000000E+00 -0.00000000000E+00 -0.59793332269E+02  0.59793332269E+02  0.00000000000E+00 0. -1.
         25    2    1    2    0    0  0.15456458581E+02 -0.74391042371E+02  0.87703741609E+02  0.17055351467E+03  0.12499450299E+03 0.  0.
         25    2    1    2    0    0 -0.15456458581E+02  0.74391042371E+02  0.27287658542E+03  0.30961347689E+03  0.12500377957E+03 0.  0.
          5    1    3    3  501    0 -0.32390145076E+02  0.91334760738E+01 -0.78121163439E+01  0.34866331109E+02  0.47000000000E+01 0. -1.
         -5    1    3    3    0  501  0.47846603657E+02 -0.83524518445E+02  0.95515857953E+02  0.13568718356E+03  0.47000000000E+01 0. -1.
          5    1    4    4  502    0 -0.53754245922E+02  0.21019012035E+01  0.16833748095E+03  0.17678669191E+03  0.47000000000E+01 0.  1.
         -5    1    4    4    0  502  0.38297787342E+02  0.72289141167E+02  0.10453910446E+03  0.13282678498E+03  0.47000000000E+01 0.  1.
<mgrwt>
<rscale>  0 0.31708385E+03</rscale>
<asrwt>0</asrwt>
<pdfrwt beam="1">  1       21 0.64672869E-01 0.31708385E+03</pdfrwt>
<pdfrwt beam="2">  1       21 0.91989744E-02 0.31708385E+03</pdfrwt>
<totfact> 0.20028732E+05</totfact>
</mgrwt>
</event>
<event>
 8    1  0.9331162E-006  0.4728955E+03  0.7546771E-02  0.1021106E+00
         21   -1    0    0  504  503  0.00000000000E+00  0.00000000000E+00  0.13307220681E+03  0.13307220681E+03  0.00000000000E+00 0.  1.
         21   -1    0    0  503  504 -0.00000000000E+00 -0.00000000000E+00 -0.42012941040E+03  0.42012941040E+03  0.00000000000E+00 0.  1.
         25    2    1    2    0    0  0.17862464219E+03 -0.88343011985E+02 -0.11581751355E+03  0.26223878172E+03  0.12507690288E+03 0.  0.
         25    2    1    2    0    0 -0.17862464219E+03  0.88343011985E+02 -0.17123969003E+03  0.29096283549E+03  0.12500035852E+03 0.  0.
          5    1    3    3  501    0  0.37361258519E+02 -0.79859895666E+02 -0.72267077212E+02  0.11409683178E+03  0.47000000000E+01 0.  1.
         -5    1    3    3    0  501  0.14126338367E+03 -0.84831163188E+01 -0.43550436337E+02  0.14814194994E+03  0.47000000000E+01 0.  1.
          5    1    4    4  502    0 -0.10840607074E+03  0.30285487029E+02 -0.16463810016E+03  0.19949155601E+03  0.47000000000E+01 0.  1.
         -5    1    4    4    0  502 -0.70218571444E+02  0.58057524956E+02 -0.66015898793E+01  0.91471279474E+02  0.47000000000E+01 0.  1.
<mgrwt>
<rscale>  0 0.47289554E+03</rscale>
<asrwt>0</asrwt>
<pdfrwt beam="1">  1       21 0.20472647E-01 0.47289554E+03</pdfrwt>
<pdfrwt beam="2">  1       21 0.64635293E-01 0.47289554E+03</pdfrwt>
<totfact> 0.44543953E+04</totfact>
</mgrwt>
</event>
<event>
 8    1  0.9331162E-006  0.2582238E+03  0.7546771E-02  0.1108215E+00
         21   -1    0    0  504  503  0.00000000000E+00  0.00000000000E+00  0.22084403760E+02  0.22084403760E+02  0.00000000000E+00 0.  1.
         21   -1    0    0  503  504 -0.00000000000E+00 -0.00000000000E+00 -0.75482624017E+03  0.75482624017E+03  0.00000000000E+00 0.  1.
         25    2    1    2    0    0  0.24546749122E+02 -0.16529660148E+02 -0.32656145430E+03  0.35089957310E+03  0.12494940739E+03 0.  0.
         25    2    1    2    0    0 -0.24546749122E+02  0.16529660148E+02 -0.40618038210E+03  0.42601107083E+03  0.12500862813E+03 0.  0.
          5    1    3    3  501    0 -0.50919465731E+02 -0.18257398226E+01 -0.14024550032E+03  0.14928836417E+03  0.47000000000E+01 0. -1.
         -5    1    3    3    0  501  0.75466214853E+02 -0.14703920325E+02 -0.18631595398E+03  0.20161120893E+03  0.47000000000E+01 0. -1.
          5    1    4    4  502    0 -0.23365059084E+02  0.15888924431E+02 -0.10818313846E+02  0.30618782145E+02  0.47000000000E+01 0.  1.
         -5    1    4    4    0  502 -0.11816900382E+01  0.64073571705E+00 -0.39536206826E+03  0.39539228868E+03  0.47000000000E+01 0.  1.
<mgrwt>
<rscale>  0 0.25822384E+03</rscale>
<asrwt>0</asrwt>
<pdfrwt beam="1">  1       21 0.33976009E-02 0.25822384E+03</pdfrwt>
<pdfrwt beam="2">  1       21 0.11612710E+00 0.25822384E+03</pdfrwt>
<totfact> 0.28885754E+05</totfact>
</mgrwt>
</event>
<event>
 8    1  0.9331162E-006  0.3182299E+03  0.7546771E-02  0.1076467E+00
         21   -1    0    0  504  503  0.00000000000E+00  0.00000000000E+00  0.47190796668E+03  0.47190796668E+03  0.00000000000E+00 0.  1.
         21   -1    0    0  503  504 -0.00000000000E+00 -0.00000000000E+00 -0.53649389817E+02  0.53649389817E+02  0.00000000000E+00 0.  1.
         25    2    1    2    0    0 -0.28458943870E+02  0.70830149941E+02  0.10642042735E+03  0.18105013578E+03  0.12500809047E+03 0.  0.
         25    2    1    2    0    0  0.28458943870E+02 -0.70830149941E+02  0.31183814951E+03  0.34450722072E+03  0.12496148209E+03 0.  0.
          5    1    3    3  501    0 -0.22872532455E+02  0.10819864063E+02  0.11689695519E+03  0.11969632548E+03  0.47000000000E+01 0.  1.
         -5    1    3    3    0  501 -0.55864114154E+01  0.60010285878E+02 -0.10476527841E+02  0.61353810308E+02  0.47000000000E+01 0.  1.
          5    1    4    4  502    0  0.13099467026E+02 -0.17837434792E+02  0.27943550744E+03  0.28034989377E+03  0.47000000000E+01 0. -1.
         -5    1    4    4    0  502  0.15359476844E+02 -0.52992715149E+02  0.32402642069E+02  0.64157326946E+02  0.47000000000E+01 0. -1.
<mgrwt>
<rscale>  0 0.31822994E+03</rscale>
<asrwt>0</asrwt>
<pdfrwt beam="1">  1       21 0.72601223E-01 0.31822994E+03</pdfrwt>
<pdfrwt beam="2">  1       21 0.82537526E-02 0.31822994E+03</pdfrwt>
<totfact> 0.18755679E+05</totfact>
</mgrwt>
</event>
<event>
 8    1  0.9331162E-006  0.3680598E+03  0.7546771E-02  0.1055437E+00
         21   -1    0    0  504  503  0.00000000000E+00  0.00000000000E+00  0.33413578524E+03  0.33413578524E+03  0.00000000000E+00 0.  1.
         21   -1    0    0  503  504 -0.00000000000E+00 -0.00000000000E+00 -0.10135703183E+03  0.10135703183E+03  0.00000000000E+00 0.  1.
         25    2    1    2    0    0  0.60933588400E+02  0.11902403298E+03  0.13890099867E+03  0.22978113266E+03  0.12500503539E+03 0.  0.
         25    2    1    2    0    0 -0.60933588400E+02 -0.11902403298E+03  0.93877754738E+02  0.20571168441E+03  0.12499856658E+03 0.  0.
          5    1    3    3  501    0  0.24012731789E+01  0.11630871390E+03  0.12194608211E+03  0.16860136412E+03  0.47000000000E+01 0.  1.
         -5    1    3    3    0  501  0.58532315221E+02  0.27153190767E+01  0.16954916561E+02  0.61179768538E+02  0.47000000000E+01 0.  1.
          5    1    4    4  502    0 -0.49546655674E+02  0.11742043308E+02  0.19198951774E+02  0.54620842347E+02  0.47000000000E+01 0. -1.
         -5    1    4    4    0  502 -0.11386932726E+02 -0.13076607628E+03  0.74678802964E+02  0.15109084207E+03  0.47000000000E+01 0. -1.
<mgrwt>
<rscale>  0 0.36805984E+03</rscale>
<asrwt>0</asrwt>
<pdfrwt beam="1">  1       21 0.51405505E-01 0.36805984E+03</pdfrwt>
<pdfrwt beam="2">  1       21 0.15593390E-01 0.36805984E+03</pdfrwt>
<totfact> 0.12503844E+05</totfact>
</mgrwt>
</event>
<event>
 8    1  0.9331162E-006  0.3645013E+03  0.7546771E-02  0.1056816E+00
         21   -1    0    0  504  503  0.00000000000E+00  0.00000000000E+00  0.66696822342E+02  0.66696822342E+02  0.00000000000E+00 0. -1.
         21   -1    0    0  503  504 -0.00000000000E+00 -0.00000000000E+00 -0.49800422069E+03  0.49800422069E+03  0.00000000000E+00 0. -1.
         25    2    1    2    0    0 -0.12134609370E+03  0.47873012692E+02 -0.17852496937E+03  0.25399101687E+03  0.12499428851E+03 0.  0.
         25    2    1    2    0    0  0.12134609370E+03 -0.47873012692E+02 -0.25278242897E+03  0.31071002616E+03  0.12500025662E+03 0.  0.
          5    1    3    3  501    0 -0.11502987448E+03  0.84745919728E+02 -0.14027923423E+03  0.20028503811E+03  0.47000000000E+01 0. -1.
         -5    1    3    3    0  501 -0.63162192252E+01 -0.36872907036E+02 -0.38245735140E+02  0.53705978764E+02  0.47000000000E+01 0. -1.
          5    1    4    4  502    0  0.12458405099E+03 -0.79866335826E+02 -0.21137816832E+03  0.25807486782E+03  0.47000000000E+01 0.  1.
         -5    1    4    4    0  502 -0.32379572879E+01  0.31993323134E+02 -0.41404260654E+02  0.52635158335E+02  0.47000000000E+01 0.  1.
<mgrwt>
<rscale>  0 0.36450130E+03</rscale>
<asrwt>0</asrwt>
<pdfrwt beam="1">  1       21 0.10261050E-01 0.36450130E+03</pdfrwt>
<pdfrwt beam="2">  1       21 0.76616034E-01 0.36450130E+03</pdfrwt>
<totfact> 0.11155275E+05</totfact>
</mgrwt>
</event>
<event>
 8    1  0.9331162E-006  0.2630091E+03  0.7546771E-02  0.1105349E+00
         21   -1    0    0  504  503  0.00000000000E+00  0.00000000000E+00  0.13815997877E+03  0.13815997877E+03  0.00000000000E+00 0.  1.
         21   -1    0    0  503  504 -0.00000000000E+00 -0.00000000000E+00 -0.12516967857E+03  0.12516967857E+03  0.00000000000E+00 0.  1.
         25    2    1    2    0    0 -0.25388273321E+02 -0.21384058926E+02  0.30375235062E+02  0.13283454998E+03  0.12498208017E+03 0.  0.
         25    2    1    2    0    0  0.25388273321E+02  0.21384058926E+02 -0.17384934864E+02  0.13049510737E+03  0.12499957875E+03 0.  0.
          5    1    3    3  501    0  0.68492523281E+00  0.51121497600E+02  0.19301998848E+02  0.54850102999E+02  0.47000000000E+01 0.  1.
         -5    1    3    3    0  501 -0.26073198554E+02 -0.72505556526E+02  0.11073236214E+02  0.77984446977E+02  0.47000000000E+01 0.  1.
          5    1    4    4  502    0 -0.19608172713E+02 -0.38678035148E+02  0.18252098131E+02  0.47283188622E+02  0.47000000000E+01 0.  1.
         -5    1    4    4    0  502  0.44996446034E+02  0.60062094074E+02 -0.35637032996E+02  0.83211918744E+02  0.47000000000E+01 0.  1.
<mgrwt>
<rscale>  0 0.26300905E+03</rscale>
<asrwt>0</asrwt>
<pdfrwt beam="1">  1       21 0.21255381E-01 0.26300905E+03</pdfrwt>
<pdfrwt beam="2">  1       21 0.19256874E-01 0.26300905E+03</pdfrwt>
<totfact> 0.50338681E+05</totfact>
</mgrwt>
</event>
<event>
 8    1  0.9331162E-006  0.6001879E+03  0.7546771E-02  0.9905016E-01
         21   -1    0    0  504  503  0.00000000000E+00  0.00000000000E+00  0.15803820165E+03  0.15803820165E+03  0.00000000000E+00 0.  1.
         21   -1    0    0  503  504 -0.00000000000E+00 -0.00000000000E+00 -0.56983928478E+03  0.56983928478E+03  0.00000000000E+00 0.  1.
         25    2    1    2    0    0 -0.10449316064E+03 -0.25105172821E+03 -0.17923336553E+03  0.34885429895E+03  0.12501572590E+03 0.  0.
         25    2    1    2    0    0  0.10449316064E+03  0.25105172821E+03 -0.23256771760E+03  0.37902318748E+03  0.12500017011E+03 0.  0.
          5    1    3    3  501    0 -0.90419675283E+02 -0.66469168966E+02 -0.49447830637E+02  0.12272345357E+03  0.47000000000E+01 0.  1.
         -5    1    3    3    0  501 -0.14073485358E+02 -0.18458255924E+03 -0.12978553489E+03  0.22613084538E+03  0.47000000000E+01 0.  1.
          5    1    4    4  502    0  0.10472593737E+03  0.25789094792E+03 -0.24024480268E+03  0.36771581172E+03  0.47000000000E+01 0. -1.
         -5    1    4    4    0  502 -0.23277673362E+00 -0.68392197148E+01  0.76770850787E+01  0.11307375762E+02  0.47000000000E+01 0. -1.
<mgrwt>
<rscale>  0 0.60018789E+03</rscale>
<asrwt>0</asrwt>
<pdfrwt beam="1">  1       21 0.24313570E-01 0.60018789E+03</pdfrwt>
<pdfrwt beam="2">  1       21 0.87667581E-01 0.60018789E+03</pdfrwt>
<totfact> 0.15468516E+04</totfact>
</mgrwt>
</event>
<event>
 8    1  0.9331162E-006  0.2908765E+03  0.7546771E-02  0.1089892E+00
         21   -1    0    0  504  503  0.00000000000E+00  0.00000000000E+00  0.19193077072E+03  0.19193077072E+03  0.00000000000E+00 0. -1.
         21   -1    0    0  503  504 -0.00000000000E+00 -0.00000000000E+00 -0.11020788381E+03  0.11020788381E+03  0.00000000000E+00 0. -1.
         25    2    1    2    0    0 -0.53539320184E+02  0.35540993488E+02  0.79696480491E+02  0.16157369487E+03  0.12499963539E+03 0.  0.
         25    2    1    2    0    0  0.53539320184E+02 -0.35540993488E+02  0.20264064120E+01  0.14056495966E+03  0.12499912215E+03 0.  0.
          5    1    3    3  501    0 -0.43912667893E+02  0.78621283345E+02  0.30229042779E+02  0.95107905158E+02  0.47000000000E+01 0.  1.
         -5    1    3    3    0  501 -0.96266522914E+01 -0.43080289856E+02  0.49467437711E+02  0.66465789713E+02  0.47000000000E+01 0.  1.
          5    1    4    4  502    0 -0.25059764461E+02 -0.19707446195E+02 -0.38825508942E+02  0.50456767385E+02  0.47000000000E+01 0. -1.
         -5    1    4    4    0  502  0.78599084645E+02 -0.15833547293E+02  0.40851915354E+02  0.90108192275E+02  0.47000000000E+01 0. -1.
<mgrwt>
<rscale>  0 0.29087650E+03</rscale>
<asrwt>0</asrwt>
<pdfrwt beam="1">  1       21 0.29527811E-01 0.29087650E+03</pdfrwt>
<pdfrwt beam="2">  1       21 0.16955059E-01 0.29087650E+03</pdfrwt>
<totfact> 0.33711453E+05</totfact>
</mgrwt>
</event>
<event>
 8    1  0.9331162E-006  0.2899356E+03  0.7546771E-02  0.1090383E+00
         21   -1    0    0  504  503  0.00000000000E+00  0.00000000000E+00  0.13494398845E+03  0.13494398845E+03  0.00000000000E+00 0.  1.
         21   -1    0    0  503  504 -0.00000000000E+00 -0.00000000000E+00 -0.15573613960E+03  0.15573613960E+03  0.00000000000E+00 0.  1.
         25    2    1    2    0    0  0.12401772214E+02 -0.42289860562E+02  0.48480227795E+02  0.14112553453E+03  0.12499539091E+03 0.  0.
         25    2    1    2    0    0 -0.12401772214E+02  0.42289860562E+02 -0.69272378943E+02  0.14955459353E+03  0.12500271077E+03 0.  0.
          5    1    3    3  501    0  0.28195794609E+02 -0.78627759645E+02  0.76091166545E+01  0.84007833425E+02  0.47000000000E+01 0. -1.
         -5    1    3    3    0  501 -0.15794022395E+02  0.36337899084E+02  0.40871111140E+02  0.57117701101E+02  0.47000000000E+01 0. -1.
          5    1    4    4  502    0 -0.51279561302E+02 -0.18052762638E+02 -0.81794442759E+01  0.55176887868E+02  0.47000000000E+01 0. -1.
         -5    1    4    4    0  502  0.38877789088E+02  0.60342623200E+02 -0.61092934667E+02  0.94377705658E+02  0.47000000000E+01 0. -1.
<mgrwt>
<rscale>  0 0.28993555E+03</rscale>
<asrwt>0</asrwt>
<pdfrwt beam="1">  1       21 0.20760614E-01 0.28993555E+03</pdfrwt>
<pdfrwt beam="2">  1       21 0.23959406E-01 0.28993555E+03</pdfrwt>
<totfact> 0.34609615E+05</totfact>
</mgrwt>
</event>
<event>
 8    1  0.9331162E-006  0.3596533E+03  0.7546771E-02  0.1058721E+00
         21   -1    0    0  504  503  0.00000000000E+00  0.00000000000E+00  0.26276386771E+02  0.26276386771E+02  0.00000000000E+00 0. -1.
         21   -1    0    0  503  504 -0.00000000000E+00 -0.00000000000E+00 -0.12306726076E+04  0.12306726076E+04  0.00000000000E+00 0. -1.
         25    2    1    2    0    0  0.50038744933E+02  0.96576165665E+02 -0.35800511473E+03  0.39449136374E+03  0.12499976847E+03 0.  0.
         25    2    1    2    0    0 -0.50038744933E+02 -0.96576165665E+02 -0.84639110606E+03  0.86245763060E+03  0.12499771356E+03 0.  0.
          5    1    3    3  501    0  0.89878773686E+02  0.71453084980E+02 -0.21394758519E+03  0.24285674073E+03  0.47000000000E+01 0. -1.
         -5    1    3    3    0  501 -0.39840028752E+02  0.25123080685E+02 -0.14405752955E+03  0.15163462300E+03  0.47000000000E+01 0. -1.
          5    1    4    4  502    0 -0.66453770147E+02 -0.85586008189E+01 -0.50674269624E+03  0.51117472884E+03  0.47000000000E+01 0.  1.
         -5    1    4    4    0  502  0.16415025214E+02 -0.88017564846E+02 -0.33964840983E+03  0.35128290177E+03  0.47000000000E+01 0.  1.
<mgrwt>
<rscale>  0 0.35965333E+03</rscale>
<asrwt>0</asrwt>
<pdfrwt beam="1">  1       21 0.40425218E-02 0.35965333E+03</pdfrwt>
<pdfrwt beam="2">  1       21 0.18933421E+00 0.35965333E+03</pdfrwt>
<totfact> 0.56141175E+04</totfact>
</mgrwt>
</event>
<event>
 8    1  0.9331162E-006  0.2922349E+03  0.7546771E-02  0.1089188E+00
         21   -1    0    0  504  503  0.00000000000E+00  0.00000000000E+00  0.82180148172E+02  0.82180148172E+02  0.00000000000E+00 0.  1.
         21   -1    0    0  503  504 -0.00000000000E+00 -0.00000000000E+00 -0.25979879017E+03  0.25979879017E+03  0.00000000000E+00 0.  1.
         25    2    1    2    0    0  0.69815904621E+02  0.29012799924E+02 -0.92483534728E+02  0.17289491806E+03  0.12499378144E+03 0.  0.
         25    2    1    2    0    0 -0.69815904621E+02 -0.29012799924E+02 -0.85135107275E+02  0.16908402029E+03  0.12500166530E+03 0.  0.
          5    1    3    3  501    0 -0.54544899589E+01 -0.29573335536E+02  0.10734630417E+02  0.32274694819E+02  0.47000000000E+01 0. -1.
         -5    1    3    3    0  501  0.75270394580E+02  0.58586135460E+02 -0.10321816515E+03  0.14062022324E+03  0.47000000000E+01 0. -1.
          5    1    4    4  502    0 -0.16183774625E+02 -0.32301795513E+02 -0.10535787907E+03  0.11147956422E+03  0.47000000000E+01 0.  1.
         -5    1    4    4    0  502 -0.53632129996E+02  0.32889955889E+01  0.20222771800E+02  0.57604456071E+02  0.47000000000E+01 0.  1.
<mgrwt>
<rscale>  0 0.29223486E+03</rscale>
<asrwt>0</asrwt>
<pdfrwt beam="1">  1       21 0.12643100E-01 0.29223486E+03</pdfrwt>
<pdfrwt beam="2">  1       21 0.39969045E-01 0.29223486E+03</pdfrwt>
<totfact> 0.31509074E+05</totfact>
</mgrwt>
</event>
<event>
 8    1  0.9331162E-006  0.2637635E+03  0.7546771E-02  0.1104903E+00
         21   -1    0    0  504  503  0.00000000000E+00  0.00000000000E+00  0.16780734982E+03  0.16780734982E+03  0.00000000000E+00 0. -1.
         21   -1    0    0  503  504 -0.00000000000E+00 -0.00000000000E+00 -0.10364738472E+03  0.10364738472E+03  0.00000000000E+00 0. -1.
         25    2    1    2    0    0  0.37013802130E+02  0.12565848370E+02  0.48051797986E+02  0.13950296304E+03  0.12499671721E+03 0.  0.
         25    2    1    2    0    0 -0.37013802130E+02 -0.12565848370E+02  0.16108167114E+02  0.13195177151E+03  0.12499549937E+03 0.  0.
          5    1    3    3  501    0  0.10928809221E+02  0.65987522568E+02  0.42998049922E+02  0.79653714933E+02  0.47000000000E+01 0.  1.
         -5    1    3    3    0  501  0.26084992909E+02 -0.53421674198E+02  0.50537480641E+01  0.59849248104E+02  0.47000000000E+01 0.  1.
          5    1    4    4  502    0 -0.47626414062E+02  0.36430316989E+02 -0.26753009568E+02  0.65827477798E+02  0.47000000000E+01 0.  1.
         -5    1    4    4    0  502  0.10612611933E+02 -0.48996165359E+02  0.42861176682E+02  0.66124293709E+02  0.47000000000E+01 0.  1.
<mgrwt>
<rscale>  0 0.26376348E+03</rscale>
<asrwt>0</asrwt>
<pdfrwt beam="1">  1       21 0.25816515E-01 0.26376348E+03</pdfrwt>
<pdfrwt beam="2">  1       21 0.15945752E-01 0.26376348E+03</pdfrwt>
<totfact> 0.49294417E+05</totfact>
</mgrwt>
</event>
<event>
 8    1  0.9331162E-006  0.2805419E+03  0.7546771E-02  0.1095393E+00
         21   -1    0    0  504  503  0.00000000000E+00  0.00000000000E+00  0.16545502821E+03  0.16545502821E+03  0.00000000000E+00 0. -1.
         21   -1    0    0  503  504 -0.00000000000E+00 -0.00000000000E+00 -0.11892019596E+03  0.11892019596E+03  0.00000000000E+00 0. -1.
         25    2    1    2    0    0 -0.53649441352E+02  0.57501257261E+01 -0.10948133825E+02  0.13658960348E+03  0.12500212655E+03 0.  0.
         25    2    1    2    0    0  0.53649441352E+02 -0.57501257261E+01  0.57482966077E+02  0.14778562069E+03  0.12499988716E+03 0.  0.
          5    1    3    3  501    0  0.28656246698E+02  0.70394044782E+01 -0.39328627456E+02  0.49391949018E+02  0.47000000000E+01 0. -1.
         -5    1    3    3    0  501 -0.82305688050E+02 -0.12892787521E+01  0.28380493631E+02  0.87197654463E+02  0.47000000000E+01 0. -1.
          5    1    4    4  502    0  0.75983279179E+02  0.30890057546E+02  0.86537196544E+01  0.82611326305E+02  0.47000000000E+01 0. -1.
         -5    1    4    4    0  502 -0.22333837827E+02 -0.36640183272E+02  0.48829246423E+02  0.65174294385E+02  0.47000000000E+01 0. -1.
<mgrwt>
<rscale>  0 0.28054194E+03</rscale>
<asrwt>0</asrwt>
<pdfrwt beam="1">  1       21 0.25454620E-01 0.28054194E+03</pdfrwt>
<pdfrwt beam="2">  1       21 0.18295415E-01 0.28054194E+03</pdfrwt>
<totfact> 0.39137171E+05</totfact>
</mgrwt>
</event>
<event>
 8    1  0.9331162E-006  0.3040118E+03  0.7546771E-02  0.1083252E+00
         21   -1    0    0  504  503  0.00000000000E+00  0.00000000000E+00  0.24031426866E+03  0.24031426866E+03  0.00000000000E+00 0.  1.
         21   -1    0    0  503  504 -0.00000000000E+00 -0.00000000000E+00 -0.96148260180E+02  0.96148260180E+02  0.00000000000E+00 0.  1.
         25    2    1    2    0    0 -0.86439342411E+02 -0.11766542278E+01  0.74740575271E+02  0.16936122323E+03  0.12499570356E+03 0.  0.
         25    2    1    2    0    0  0.86439342411E+02  0.11766542278E+01  0.69425433208E+02  0.16710130561E+03  0.12501924304E+03 0.  0.
          5    1    3    3  501    0 -0.78307858032E+02  0.10153407439E+02 -0.13200735405E+02  0.80197018196E+02  0.47000000000E+01 0.  1.
         -5    1    3    3    0  501 -0.81314843791E+01 -0.11330061667E+02  0.87941310676E+02  0.89164205032E+02  0.47000000000E+01 0.  1.
          5    1    4    4  502    0  0.94723934332E+01 -0.29627134324E+01 -0.35308616582E+02  0.36976915950E+02  0.47000000000E+01 0.  1.
         -5    1    4    4    0  502  0.76966948978E+02  0.41393676603E+01  0.10473404979E+03  0.13012438966E+03  0.47000000000E+01 0.  1.
<mgrwt>
<rscale>  0 0.30401183E+03</rscale>
<asrwt>0</asrwt>
<pdfrwt beam="1">  1       21 0.36971426E-01 0.30401183E+03</pdfrwt>
<pdfrwt beam="2">  1       21 0.14792040E-01 0.30401183E+03</pdfrwt>
<totfact> 0.27650012E+05</totfact>
</mgrwt>
</event>
<event>
 8    1  0.9331162E-006  0.2627481E+03  0.7546771E-02  0.1105503E+00
         21   -1    0    0  504  503  0.00000000000E+00  0.00000000000E+00  0.39226288395E+03  0.39226288395E+03  0.00000000000E+00 0. -1.
         21   -1    0    0  503  504 -0.00000000000E+00 -0.00000000000E+00 -0.43998929890E+02  0.43998929890E+02  0.00000000000E+00 0. -1.
         25    2    1    2    0    0 -0.37782889075E+00 -0.12999572075E+02  0.23768902456E+03  0.26886808903E+03  0.12499938111E+03 0.  0.
         25    2    1    2    0    0  0.37782889075E+00  0.12999572075E+02  0.11057492950E+03  0.16739372480E+03  0.12499884976E+03 0.  0.
          5    1    3    3  501    0  0.56851281791E+02 -0.12822074681E+02  0.17175823184E+03  0.18143719036E+03  0.47000000000E+01 0. -1.
         -5    1    3    3    0  501 -0.57229110682E+02 -0.17749739381E+00  0.65930792716E+02  0.87430898674E+02  0.47000000000E+01 0. -1.
          5    1    4    4  502    0 -0.20572478845E+02  0.63543472936E+02  0.40085789688E+02  0.78038198170E+02  0.47000000000E+01 0.  1.
         -5    1    4    4    0  502  0.20950307736E+02 -0.50543900861E+02  0.70489139813E+02  0.89355526634E+02  0.47000000000E+01 0.  1.
<mgrwt>
<rscale>  0 0.26274815E+03</rscale>
<asrwt>0</asrwt>
<pdfrwt beam="1">  1       21 0.60348134E-01 0.26274815E+03</pdfrwt>
<pdfrwt beam="2">  1       21 0.67690664E-02 0.26274815E+03</pdfrwt>
<totfact> 0.40374319E+05</totfact>
</mgrwt>
</event>
<event>
 8    1  0.9331162E-006  0.2857484E+03  0.7546771E-02  0.1092590E+00
         21   -1    0    0  504  503  0.00000000000E+00  0.00000000000E+00  0.24873443623E+03  0.24873443623E+03  0.00000000000E+00 0.  1.
         21   -1    0    0  503  504 -0.00000000000E+00 -0.00000000000E+00 -0.82067578859E+02  0.82067578859E+02  0.00000000000E+00 0.  1.
         25    2    1    2    0    0 -0.17919818708E+02 -0.29416001898E+02  0.13859999321E+02  0.13039951926E+03  0.12500205587E+03 0.  0.
         25    2    1    2    0    0  0.17919818708E+02  0.29416001898E+02  0.15280685805E+03  0.20040249582E+03  0.12499921358E+03 0.  0.
          5    1    3    3  501    0  0.10739308131E+00 -0.70191916474E+01  0.68211620049E+02  0.68732784713E+02  0.47000000000E+01 0. -1.
         -5    1    3    3    0  501 -0.18027211789E+02 -0.22396810250E+02 -0.54351620727E+02  0.61666734549E+02  0.47000000000E+01 0. -1.
          5    1    4    4  502    0 -0.53530593436E+02  0.15194474357E+02  0.55261863548E+02  0.78564368816E+02  0.47000000000E+01 0. -1.
         -5    1    4    4    0  502  0.71450412144E+02  0.14221527540E+02  0.97544994500E+02  0.12183812701E+03  0.47000000000E+01 0. -1.
<mgrwt>
<rscale>  0 0.28574837E+03</rscale>
<asrwt>0</asrwt>
<pdfrwt beam="1">  1       21 0.38266836E-01 0.28574837E+03</pdfrwt>
<pdfrwt beam="2">  1       21 0.12625781E-01 0.28574837E+03</pdfrwt>
<totfact> 0.34553476E+05</totfact>
</mgrwt>
</event>
<event>
 8    1  0.9331162E-006  0.3478910E+03  0.7546771E-02  0.1063484E+00
         21   -1    0    0  504  503  0.00000000000E+00  0.00000000000E+00  0.10240102823E+03  0.10240102823E+03  0.00000000000E+00 0.  1.
         21   -1    0    0  503  504 -0.00000000000E+00 -0.00000000000E+00 -0.29547599066E+03  0.29547599066E+03  0.00000000000E+00 0.  1.
         25    2    1    2    0    0 -0.17632943934E+02 -0.82926508427E+02 -0.19521871862E+03  0.24682061606E+03  0.12498936714E+03 0.  0.
         25    2    1    2    0    0  0.17632943934E+02  0.82926508427E+02  0.21437561924E+01  0.15105640284E+03  0.12500285851E+03 0.  0.
          5    1    3    3  501    0 -0.16961516656E+02  0.30111465663E+02 -0.27058016136E+02  0.44143172166E+02  0.47000000000E+01 0. -1.
         -5    1    3    3    0  501 -0.67142727783E+00 -0.11303797409E+03 -0.16816070249E+03  0.20267744389E+03  0.47000000000E+01 0. -1.
          5    1    4    4  502    0 -0.49959521658E+02  0.53984613528E+02 -0.15450405687E+02  0.75306688534E+02  0.47000000000E+01 0. -1.
         -5    1    4    4    0  502  0.67592465592E+02  0.28941894899E+02  0.17594161880E+02  0.75749714306E+02  0.47000000000E+01 0. -1.
<mgrwt>
<rscale>  0 0.34789105E+03</rscale>
<asrwt>0</asrwt>
<pdfrwt beam="1">  1       21 0.15754004E-01 0.34789105E+03</pdfrwt>
<pdfrwt beam="2">  1       21 0.45457846E-01 0.34789105E+03</pdfrwt>
<totfact> 0.15962814E+05</totfact>
</mgrwt>
</event>
<event>
 8    1  0.9331162E-006  0.2876444E+03  0.7546771E-02  0.1091585E+00
         21   -1    0    0  504  503  0.00000000000E+00  0.00000000000E+00  0.24587830417E+03  0.24587830417E+03  0.00000000000E+00 0. -1.
         21   -1    0    0  503  504 -0.00000000000E+00 -0.00000000000E+00 -0.84126250050E+02  0.84126250050E+02  0.00000000000E+00 0. -1.
         25    2    1    2    0    0 -0.29055300839E+02 -0.97349657926E+01  0.71928986439E+01  0.12888983410E+03  0.12498748529E+03 0.  0.
         25    2    1    2    0    0  0.29055300839E+02  0.97349657926E+01  0.15455915548E+03  0.20111472012E+03  0.12497847031E+03 0.  0.
          5    1    3    3  501    0  0.85429362404E+01  0.26152776172E+02  0.52707931244E+02  0.59641977475E+02  0.47000000000E+01 0. -1.
         -5    1    3    3    0  501 -0.37598237079E+02 -0.35887741965E+02 -0.45515032600E+02  0.69247856626E+02  0.47000000000E+01 0. -1.
          5    1    4    4  502    0 -0.22977272069E+02 -0.36887352626E+01  0.14425794487E+03  0.14619851729E+03  0.47000000000E+01 0. -1.
         -5    1    4    4    0  502  0.52032572907E+02  0.13423701055E+02  0.10301210607E+02  0.54916202831E+02  0.47000000000E+01 0. -1.
<mgrwt>
<rscale>  0 0.28764436E+03</rscale>
<asrwt>0</asrwt>
<pdfrwt beam="1">  1       21 0.37827431E-01 0.28764436E+03</pdfrwt>
<pdfrwt beam="2">  1       21 0.12942500E-01 0.28764436E+03</pdfrwt>
<totfact> 0.33804463E+05</totfact>
</mgrwt>
</event>
<event>
 8    1  0.9331162E-006  0.2721810E+03  0.7546771E-02  0.1100038E+00
         21   -1    0    0  504  503  0.00000000000E+00  0.00000000000E+00  0.48555786258E+03  0.48555786258E+03  0.00000000000E+00 0.  1.
         21   -1    0    0  503  504 -0.00000000000E+00 -0.00000000000E+00 -0.38142993436E+02  0.38142993436E+02  0.00000000000E+00 0.  1.
         25    2    1    2    0    0 -0.18360213007E+02 -0.49565062752E+02  0.24348248018E+03  0.27875066749E+03  0.12499769439E+03 0.  0.
         25    2    1    2    0    0  0.18360213007E+02  0.49565062752E+02  0.20393238896E+03  0.24495018852E+03  0.12497352809E+03 0.  0.
          5    1    3    3  501    0  0.45535131926E+02 -0.47767078748E+02  0.16265192954E+03  0.17559294472E+03  0.47000000000E+01 0. -1.
         -5    1    3    3    0  501 -0.63895344932E+02 -0.17979840039E+01  0.80830550647E+02  0.10315772278E+03  0.47000000000E+01 0. -1.
          5    1    4    4  502    0  0.18598760245E+02 -0.37388692336E+02  0.34192129391E+02  0.54175824032E+02  0.47000000000E+01 0.  1.
         -5    1    4    4    0  502 -0.23854723846E+00  0.86953755088E+02  0.16974025957E+03  0.19077436449E+03  0.47000000000E+01 0.  1.
<mgrwt>
<rscale>  0 0.27218105E+03</rscale>
<asrwt>0</asrwt>
<pdfrwt beam="1">  1       21 0.74701205E-01 0.27218105E+03</pdfrwt>
<pdfrwt beam="2">  1       21 0.58681532E-02 0.27218105E+03</pdfrwt>
<totfact> 0.32204682E+05</totfact>
</mgrwt>
</event>
<event>
 8    1  0.9331162E-006  0.2698495E+03  0.7546771E-02  0.1101366E+00
         21   -1    0    0  504  503  0.00000000000E+00  0.00000000000E+00  0.24130830427E+02  0.24130830427E+02  0.00000000000E+00 0.  1.
         21   -1    0    0  503  504 -0.00000000000E+00 -0.00000000000E+00 -0.75441592915E+03  0.75441592915E+03  0.00000000000E+00 0.  1.
         25    2    1    2    0    0  0.20589841445E+01 -0.43387714748E+02 -0.28917312462E+03  0.31801323859E+03  0.12499836281E+03 0.  0.
         25    2    1    2    0    0 -0.20589841445E+01  0.43387714748E+02 -0.44111197410E+03  0.46053352099E+03  0.12499846820E+03 0.  0.
          5    1    3    3  501    0 -0.22147310604E+02  0.50575498575E+01  0.57929584693E+00  0.23205769998E+02  0.47000000000E+01 0.  1.
         -5    1    3    3    0  501  0.24206294748E+02 -0.48445264605E+02 -0.28975242047E+03  0.29480746859E+03  0.47000000000E+01 0.  1.
          5    1    4    4  502    0  0.48307887298E+02 -0.18673608414E+02 -0.18798948799E+03  0.19504997622E+03  0.47000000000E+01 0.  1.
         -5    1    4    4    0  502 -0.50366871442E+02  0.62061323162E+02 -0.25312248611E+03  0.26548354477E+03  0.47000000000E+01 0.  1.
<mgrwt>
<rscale>  0 0.26984946E+03</rscale>
<asrwt>0</asrwt>
<pdfrwt beam="1">  1       21 0.37124359E-02 0.26984946E+03</pdfrwt>
<pdfrwt beam="2">  1       21 0.11606397E+00 0.26984946E+03</pdfrwt>
<totfact> 0.24848665E+05</totfact>
</mgrwt>
</event>
<event>
 8    1  0.9331162E-006  0.3492131E+03  0.7546771E-02  0.1062938E+00
         21   -1    0    0  504  503  0.00000000000E+00  0.00000000000E+00  0.10380816482E+03  0.10380816482E+03  0.00000000000E+00 0. -1.
         21   -1    0    0  503  504 -0.00000000000E+00 -0.00000000000E+00 -0.29369031566E+03  0.29369031566E+03  0.00000000000E+00 0. -1.
         25    2    1    2    0    0  0.10348373550E+03  0.43611783100E+02 -0.40915755940E+02  0.17293971367E+03  0.12499269716E+03 0.  0.
         25    2    1    2    0    0 -0.10348373550E+03 -0.43611783100E+02 -0.14896639490E+03  0.22455876681E+03  0.12499912721E+03 0.  0.
          5    1    3    3  501    0  0.13254043772E+02  0.49305801602E+02  0.28680789370E+02  0.58748697235E+02  0.47000000000E+01 0.  1.
         -5    1    3    3    0  501  0.90229691731E+02 -0.56940185017E+01 -0.69596545310E+02  0.11419101644E+03  0.47000000000E+01 0.  1.
          5    1    4    4  502    0 -0.69361932665E+02 -0.85932439952E+02 -0.79154318063E+02  0.13595204304E+03  0.47000000000E+01 0.  1.
         -5    1    4    4    0  502 -0.34121802837E+02  0.42320656852E+02 -0.69812076835E+02  0.88606723770E+02  0.47000000000E+01 0.  1.
<mgrwt>
<rscale>  0 0.34921313E+03</rscale>
<asrwt>0</asrwt>
<pdfrwt beam="1">  1       21 0.15970487E-01 0.34921313E+03</pdfrwt>
<pdfrwt beam="2">  1       21 0.45183125E-01 0.34921313E+03</pdfrwt>
<totfact> 0.15757625E+05</totfact>
</mgrwt>
</event>
<event>
 8    1  0.9331162E-006  0.2859500E+03  0.7546771E-02  0.1092483E+00
         21   -1    0    0  504  503  0.00000000000E+00  0.00000000000E+00  0.12419443947E+03  0.12419443947E+03  0.00000000000E+00 0.  1.
         21   -1    0    0  503  504 -0.00000000000E+00 -0.00000000000E+00 -0.16459550538E+03  0.16459550538E+03  0.00000000000E+00 0.  1.
         25    2    1    2    0    0 -0.35650295536E+02 -0.49898156048E+02  0.12613524710E+02  0.13980474062E+03  0.12500197977E+03 0.  0.
         25    2    1    2    0    0  0.35650295536E+02  0.49898156048E+02 -0.53014590623E+02  0.14898520423E+03  0.12500109884E+03 0.  0.
          5    1    3    3  501    0  0.21473034553E+02 -0.73327781046E+02  0.14232371770E+02  0.77863374524E+02  0.47000000000E+01 0. -1.
         -5    1    3    3    0  501 -0.57123330089E+02  0.23429624998E+02 -0.16188470600E+01  0.61941366096E+02  0.47000000000E+01 0. -1.
          5    1    4    4  502    0  0.77170352254E+02  0.52150328942E+02 -0.52741199023E+02  0.10713843451E+03  0.47000000000E+01 0. -1.
         -5    1    4    4    0  502 -0.41520056718E+02 -0.22521728942E+01 -0.27339159983E+00  0.41846769715E+02  0.47000000000E+01 0. -1.
<mgrwt>
<rscale>  0 0.28594997E+03</rscale>
<asrwt>0</asrwt>
<pdfrwt beam="1">  1       21 0.19106837E-01 0.28594997E+03</pdfrwt>
<pdfrwt beam="2">  1       21 0.25322385E-01 0.28594997E+03</pdfrwt>
<totfact> 0.36410939E+05</totfact>
</mgrwt>
</event>
<event>
 8    1  0.9331162E-006  0.3658220E+03  0.7546771E-02  0.1056302E+00
         21   -1    0    0  504  503  0.00000000000E+00  0.00000000000E+00  0.28059827693E+03  0.28059827693E+03  0.00000000000E+00 0. -1.
         21   -1    0    0  503  504 -0.00000000000E+00 -0.00000000000E+00 -0.11923251254E+03  0.11923251254E+03  0.00000000000E+00 0. -1.
         25    2    1    2    0    0 -0.12379941402E+03 -0.47397175653E+02  0.98175810190E+02  0.20696934428E+03  0.12500013038E+03 0.  0.
         25    2    1    2    0    0  0.12379941402E+03  0.47397175653E+02  0.63189954204E+02  0.19286144518E+03  0.12501911676E+03 0.  0.
          5    1    3    3  501    0 -0.13574738002E+03 -0.21777751102E+02  0.41876071245E+02  0.14379609511E+03  0.47000000000E+01 0.  1.
         -5    1    3    3    0  501  0.11947966005E+02 -0.25619424552E+02  0.56299738945E+02  0.63173249174E+02  0.47000000000E+01 0.  1.
          5    1    4    4  502    0  0.13088244038E+03  0.70383660709E+02  0.73995955191E+02  0.16607698299E+03  0.47000000000E+01 0. -1.
         -5    1    4    4    0  502 -0.70830263616E+01 -0.22986485056E+02 -0.10806000988E+02  0.26784462194E+02  0.47000000000E+01 0. -1.
<mgrwt>
<rscale>  0 0.36582202E+03</rscale>
<asrwt>0</asrwt>
<pdfrwt beam="1">  1       21 0.43168965E-01 0.36582202E+03</pdfrwt>
<pdfrwt beam="2">  1       21 0.18343464E-01 0.36582202E+03</pdfrwt>
<totfact> 0.13330283E+05</totfact>
</mgrwt>
</event>
<event>
 8    1  0.9331162E-006  0.3403583E+03  0.7546771E-02  0.1066643E+00
         21   -1    0    0  504  503  0.00000000000E+00  0.00000000000E+00  0.23002173527E+03  0.23002173527E+03  0.00000000000E+00 0. -1.
         21   -1    0    0  503  504 -0.00000000000E+00 -0.00000000000E+00 -0.12590526836E+03  0.12590526836E+03  0.00000000000E+00 0. -1.
         25    2    1    2    0    0  0.33034630737E+02  0.17842002507E+02 -0.62140961171E+02  0.14455462230E+03  0.12499966357E+03 0.  0.
         25    2    1    2    0    0 -0.33034630737E+02 -0.17842002507E+02  0.16625742808E+03  0.21137238134E+03  0.12500850898E+03 0.  0.
          5    1    3    3  501    0  0.80897251450E+01 -0.53680676039E+02 -0.29198119147E+02  0.61819728199E+02  0.47000000000E+01 0. -1.
         -5    1    3    3    0  501  0.24944905592E+02  0.71522678546E+02 -0.32942842024E+02  0.82734894101E+02  0.47000000000E+01 0. -1.
          5    1    4    4  502    0 -0.52037178388E+02  0.16566562584E+02  0.16263107073E+03  0.17161956211E+03  0.47000000000E+01 0.  1.
         -5    1    4    4    0  502  0.19002547651E+02 -0.34408565091E+02  0.36263573492E+01  0.39752819227E+02  0.47000000000E+01 0.  1.
<mgrwt>
<rscale>  0 0.34035833E+03</rscale>
<asrwt>0</asrwt>
<pdfrwt beam="1">  1       21 0.35387959E-01 0.34035833E+03</pdfrwt>
<pdfrwt beam="2">  1       21 0.19370041E-01 0.34035833E+03</pdfrwt>
<totfact> 0.18152395E+05</totfact>
</mgrwt>
</event>
<event>
 8    1  0.9331162E-006  0.2720296E+03  0.7546771E-02  0.1100124E+00
         21   -1    0    0  504  503  0.00000000000E+00  0.00000000000E+00  0.96357390022E+03  0.96357390022E+03  0.00000000000E+00 0.  1.
         21   -1    0    0  503  504 -0.00000000000E+00 -0.00000000000E+00 -0.19199384021E+02  0.19199384021E+02  0.00000000000E+00 0.  1.
         25    2    1    2    0    0 -0.35842901807E+02  0.52303339911E+01  0.32936307753E+03  0.35414326878E+03  0.12500139191E+03 0.  0.
         25    2    1    2    0    0  0.35842901807E+02 -0.52303339911E+01  0.61501143867E+03  0.62863001546E+03  0.12499822655E+03 0.  0.
          5    1    3    3  501    0  0.31020193952E+02 -0.30808666679E+02  0.19335133352E+03  0.19828831168E+03  0.47000000000E+01 0.  1.
         -5    1    3    3    0  501 -0.66863095759E+02  0.36039000670E+02  0.13601174401E+03  0.15585495710E+03  0.47000000000E+01 0.  1.
          5    1    4    4  502    0  0.12521966767E+02 -0.29706330939E+02  0.57548246098E+03  0.57640386765E+03  0.47000000000E+01 0.  1.
         -5    1    4    4    0  502  0.23320935040E+02  0.24475996948E+02  0.39528977690E+02  0.52226147809E+02  0.47000000000E+01 0.  1.
<mgrwt>
<rscale>  0 0.27202960E+03</rscale>
<asrwt>0</asrwt>
<pdfrwt beam="1">  1       21 0.14824210E+00 0.27202960E+03</pdfrwt>
<pdfrwt beam="2">  1       21 0.29537521E-02 0.27202960E+03</pdfrwt>
<totfact> 0.19440776E+05</totfact>
</mgrwt>
</event>
<event>
 8    1  0.9331162E-006  0.2887291E+03  0.7546771E-02  0.1091015E+00
         21   -1    0    0  504  503  0.00000000000E+00  0.00000000000E+00  0.32920189815E+03  0.32920189815E+03  0.00000000000E+00 0. -1.
         21   -1    0    0  503  504 -0.00000000000E+00 -0.00000000000E+00 -0.63308037517E+02  0.63308037517E+02  0.00000000000E+00 0. -1.
         25    2    1    2    0    0  0.65805959812E+02  0.22877838943E+01  0.17330505620E+03  0.22359295086E+03  0.12499402734E+03 0.  0.
         25    2    1    2    0    0 -0.65805959812E+02 -0.22877838943E+01  0.92588804431E+02  0.16891698480E+03  0.12499841097E+03 0.  0.
          5    1    3    3  501    0  0.81986479760E+02  0.39759138639E+02  0.15207768678E+03  0.17734792016E+03  0.47000000000E+01 0. -1.
         -5    1    3    3    0  501 -0.16180519948E+02 -0.37471354745E+02  0.21227369415E+02  0.46245030700E+02  0.47000000000E+01 0. -1.
          5    1    4    4  502    0  0.30749508049E+02 -0.27318039807E+02  0.25729917975E+02  0.48743473647E+02  0.47000000000E+01 0. -1.
         -5    1    4    4    0  502 -0.96555467861E+02  0.25030255912E+02  0.66858886456E+02  0.12017351115E+03  0.47000000000E+01 0. -1.
<mgrwt>
<rscale>  0 0.28872912E+03</rscale>
<asrwt>0</asrwt>
<pdfrwt beam="1">  1       21 0.50646445E-01 0.28872912E+03</pdfrwt>
<pdfrwt beam="2">  1       21 0.97396983E-02 0.28872912E+03</pdfrwt>
<totfact> 0.30824977E+05</totfact>
</mgrwt>
</event>
<event>
 8    1  0.9331162E-006  0.5507040E+03  0.7546771E-02  0.1001331E+00
         21   -1    0    0  504  503  0.00000000000E+00  0.00000000000E+00  0.70476393491E+02  0.70476393491E+02  0.00000000000E+00 0. -1.
         21   -1    0    0  503  504 -0.00000000000E+00 -0.00000000000E+00 -0.10758032719E+04  0.10758032719E+04  0.00000000000E+00 0. -1.
         25    2    1    2    0    0 -0.13786218804E+03  0.14882247535E+03 -0.21545023988E+03  0.32124551780E+03  0.12500305908E+03 0.  0.
         25    2    1    2    0    0  0.13786218804E+03 -0.14882247535E+03 -0.78987663848E+03  0.82503414754E+03  0.12498851362E+03 0.  0.
          5    1    3    3  501    0 -0.39198692775E+02  0.13064040633E+03 -0.14095664491E+03  0.19619969171E+03  0.47000000000E+01 0. -1.
         -5    1    3    3    0  501 -0.98663495263E+02  0.18182069023E+02 -0.74493594972E+02  0.12504582609E+03  0.47000000000E+01 0. -1.
          5    1    4    4  502    0  0.71081770534E+02 -0.14245431784E+03 -0.65798960171E+03  0.67699206549E+03  0.47000000000E+01 0.  1.
         -5    1    4    4    0  502  0.66780417504E+02 -0.63681575178E+01 -0.13188703677E+03  0.14804208205E+03  0.47000000000E+01 0.  1.
<mgrwt>
<rscale>  0 0.55070404E+03</rscale>
<asrwt>0</asrwt>
<pdfrwt beam="1">  1       21 0.10842522E-01 0.55070404E+03</pdfrwt>
<pdfrwt beam="2">  1       21 0.16550819E+00 0.55070404E+03</pdfrwt>
<totfact> 0.13886705E+04</totfact>
</mgrwt>
</event>
<event>
 8    1  0.9331162E-006  0.2563880E+03  0.7546771E-02  0.1109333E+00
         21   -1    0    0  504  503  0.00000000000E+00  0.00000000000E+00  0.57690218917E+03  0.57690218917E+03  0.00000000000E+00 0.  1.
         21   -1    0    0  503  504 -0.00000000000E+00 -0.00000000000E+00 -0.28486120092E+02  0.28486120092E+02  0.00000000000E+00 0.  1.
         25    2    1    2    0    0  0.13301539723E+02 -0.44452065105E+01  0.21581922516E+03  0.24980024828E+03  0.12500214108E+03 0.  0.
         25    2    1    2    0    0 -0.13301539723E+02  0.44452065105E+01  0.33259684392E+03  0.35558806098E+03  0.12500207081E+03 0.  0.
          5    1    3    3  501    0  0.47527777762E+02  0.27980110512E+02  0.41568910733E+02  0.69223121735E+02  0.47000000000E+01 0. -1.
         -5    1    3    3    0  501 -0.34226238039E+02 -0.32425317022E+02  0.17425031443E+03  0.18057712655E+03  0.47000000000E+01 0. -1.
          5    1    4    4  502    0 -0.12444756132E+02  0.21491041166E+01  0.34334216176E+03  0.34360649098E+03  0.47000000000E+01 0.  1.
         -5    1    4    4    0  502 -0.85678359096E+00  0.22961023940E+01 -0.10745317836E+02  0.11981570003E+02  0.47000000000E+01 0.  1.
<mgrwt>
<rscale>  0 0.25638803E+03</rscale>
<asrwt>0</asrwt>
<pdfrwt beam="1">  1       21 0.88754174E-01 0.25638803E+03</pdfrwt>
<pdfrwt beam="2">  1       21 0.43824804E-02 0.25638803E+03</pdfrwt>
<totfact> 0.35872925E+05</totfact>
</mgrwt>
</event>
<event>
 8    1  0.9331162E-006  0.4035001E+03  0.7546771E-02  0.1042574E+00
         21   -1    0    0  504  503  0.00000000000E+00  0.00000000000E+00  0.48863827810E+03  0.48863827810E+03  0.00000000000E+00 0. -1.
         21   -1    0    0  503  504 -0.00000000000E+00 -0.00000000000E+00 -0.83299019478E+02  0.83299019478E+02  0.00000000000E+00 0. -1.
         25    2    1    2    0    0  0.51477655768E+02  0.86340373525E+02  0.29224482351E+02  0.16304592508E+03  0.12500117669E+03 0.  0.
         25    2    1    2    0    0 -0.51477655768E+02 -0.86340373525E+02  0.37611477627E+03  0.40889137250E+03  0.12500088172E+03 0.  0.
          5    1    3    3  501    0  0.19889532653E+02  0.76121572032E+02 -0.38318106013E+02  0.87638202207E+02  0.47000000000E+01 0. -1.
         -5    1    3    3    0  501  0.31588123115E+02  0.10218801493E+02  0.67542588364E+02  0.75407722873E+02  0.47000000000E+01 0. -1.
          5    1    4    4  502    0  0.12623317734E+02 -0.45549695177E+02  0.34011371558E+02  0.58420769223E+02  0.47000000000E+01 0. -1.
         -5    1    4    4    0  502 -0.64100973503E+02 -0.40790678348E+02  0.34210340472E+03  0.35047060328E+03  0.47000000000E+01 0. -1.
<mgrwt>
<rscale>  0 0.40350013E+03</rscale>
<asrwt>0</asrwt>
<pdfrwt beam="1">  1       21 0.75175118E-01 0.40350013E+03</pdfrwt>
<pdfrwt beam="2">  1       21 0.12815234E-01 0.40350013E+03</pdfrwt>
<totfact> 0.77203222E+04</totfact>
</mgrwt>
</event>
<event>
 8    1  0.9331162E-006  0.3062789E+03  0.7546771E-02  0.1082143E+00
         21   -1    0    0  504  503  0.00000000000E+00  0.00000000000E+00  0.16793794937E+03  0.16793794937E+03  0.00000000000E+00 0. -1.
         21   -1    0    0  503  504 -0.00000000000E+00 -0.00000000000E+00 -0.13964495576E+03  0.13964495576E+03  0.00000000000E+00 0. -1.
         25    2    1    2    0    0  0.46201404774E+02  0.57275674227E+02 -0.35181633825E+02  0.14925324611E+03  0.12499484571E+03 0.  0.
         25    2    1    2    0    0 -0.46201404774E+02 -0.57275674227E+02  0.63474627428E+02  0.15832965902E+03  0.12499671971E+03 0.  0.
          5    1    3    3  501    0  0.14883104463E+01  0.79784128301E+02  0.11360291144E+02  0.80739509607E+02  0.47000000000E+01 0. -1.
         -5    1    3    3    0  501  0.44713094328E+02 -0.22508454074E+02 -0.46541924969E+02  0.68513736498E+02  0.47000000000E+01 0. -1.
          5    1    4    4  502    0  0.37814869329E+02  0.70828064276E+01  0.12183701551E+02  0.40628353065E+02  0.47000000000E+01 0.  1.
         -5    1    4    4    0  502 -0.84016274103E+02 -0.64358480655E+02  0.51290925878E+02  0.11770130596E+03  0.47000000000E+01 0.  1.
<mgrwt>
<rscale>  0 0.30627888E+03</rscale>
<asrwt>0</asrwt>
<pdfrwt beam="1">  1       21 0.25836608E-01 0.30627888E+03</pdfrwt>
<pdfrwt beam="2">  1       21 0.21483839E-01 0.30627888E+03</pdfrwt>
<totfact> 0.27956656E+05</totfact>
</mgrwt>
</event>
<event>
 8    1  0.9331162E-006  0.5012992E+03  0.7546771E-02  0.1013440E+00
         21   -1    0    0  504  503  0.00000000000E+00  0.00000000000E+00  0.55111144413E+03  0.55111144413E+03  0.00000000000E+00 0.  1.
         21   -1    0    0  503  504 -0.00000000000E+00 -0.00000000000E+00 -0.11399732725E+03  0.11399732725E+03  0.00000000000E+00 0.  1.
         25    2    1    2    0    0  0.11706841038E+03  0.83850543477E+02  0.27194971587E+01  0.19070272212E+03  0.12499682480E+03 0.  0.
         25    2    1    2    0    0 -0.11706841038E+03 -0.83850543477E+02  0.43439461972E+03  0.47440604926E+03  0.12500595017E+03 0.  0.
          5    1    3    3  501    0  0.88760141616E+02  0.10517875420E+03 -0.31444238156E+02  0.14125071040E+03  0.47000000000E+01 0.  1.
         -5    1    3    3    0  501  0.28308268764E+02 -0.21328210721E+02  0.34163735315E+02  0.49452011725E+02  0.47000000000E+01 0.  1.
          5    1    4    4  502    0 -0.21222467303E+02 -0.13937543159E+02  0.18778434488E+01  0.25889467429E+02  0.47000000000E+01 0.  1.
         -5    1    4    4    0  502 -0.95845943077E+02 -0.69913000318E+02  0.43251677628E+03  0.44851658183E+03  0.47000000000E+01 0.  1.
<mgrwt>
<rscale>  0 0.50129924E+03</rscale>
<asrwt>0</asrwt>
<pdfrwt beam="1">  1       21 0.84786374E-01 0.50129924E+03</pdfrwt>
<pdfrwt beam="2">  1       21 0.17538051E-01 0.50129924E+03</pdfrwt>
<totfact> 0.31969347E+04</totfact>
</mgrwt>
</event>
<event>
 8    1  0.9331162E-006  0.2936554E+03  0.7546771E-02  0.1088456E+00
         21   -1    0    0  504  503  0.00000000000E+00  0.00000000000E+00  0.58724582444E+02  0.58724582444E+02  0.00000000000E+00 0.  1.
         21   -1    0    0  503  504 -0.00000000000E+00 -0.00000000000E+00 -0.36710979976E+03  0.36710979976E+03  0.00000000000E+00 0.  1.
         25    2    1    2    0    0  0.71895284748E+02 -0.27756232597E+02 -0.15498099459E+03  0.21347541624E+03  0.12495320820E+03 0.  0.
         25    2    1    2    0    0 -0.71895284748E+02  0.27756232597E+02 -0.15340422272E+03  0.21235896596E+03  0.12499653778E+03 0.  0.
          5    1    3    3  501    0  0.33012720703E+02 -0.60298469242E+02 -0.14644292793E+03  0.16184364758E+03  0.47000000000E+01 0.  1.
         -5    1    3    3    0  501  0.38882564045E+02  0.32542236645E+02 -0.85380666565E+01  0.51631768659E+02  0.47000000000E+01 0.  1.
          5    1    4    4  502    0  0.17470240926E+02  0.39201635377E+02 -0.96436904717E+02  0.10566051356E+03  0.47000000000E+01 0. -1.
         -5    1    4    4    0  502 -0.89365525674E+02 -0.11445402780E+02 -0.56967318005E+02  0.10669845240E+03  0.47000000000E+01 0. -1.
<mgrwt>
<rscale>  0 0.29365537E+03</rscale>
<asrwt>0</asrwt>
<pdfrwt beam="1">  1       21 0.90345510E-02 0.29365537E+03</pdfrwt>
<pdfrwt beam="2">  1       21 0.56478431E-01 0.29365537E+03</pdfrwt>
<totfact> 0.27905031E+05</totfact>
</mgrwt>
</event>
<event>
 8    1  0.9331162E-006  0.2800884E+03  0.7546771E-02  0.1095641E+00
         21   -1    0    0  504  503  0.00000000000E+00  0.00000000000E+00  0.39145474264E+03  0.39145474264E+03  0.00000000000E+00 0. -1.
         21   -1    0    0  503  504 -0.00000000000E+00 -0.00000000000E+00 -0.50101248798E+02  0.50101248798E+02  0.00000000000E+00 0. -1.
         25    2    1    2    0    0  0.59269520338E+02 -0.51929096815E+00  0.20485914632E+03  0.24720647871E+03  0.12502250828E+03 0.  0.
         25    2    1    2    0    0 -0.59269520338E+02  0.51929096815E+00  0.13649434752E+03  0.19434951273E+03  0.12501152143E+03 0.  0.
          5    1    3    3  501    0 -0.16118322120E+02 -0.60210650711E+01 -0.92537262617E+01  0.20094152938E+02  0.47000000000E+01 0.  1.
         -5    1    3    3    0  501  0.75387842458E+02  0.55017741029E+01  0.21411287259E+03  0.22711232577E+03  0.47000000000E+01 0.  1.
          5    1    4    4  502    0  0.14181173805E+00  0.62983414030E+01 -0.22830132176E+02  0.24145271797E+02  0.47000000000E+01 0.  1.
         -5    1    4    4    0  502 -0.59411332076E+02 -0.57790504348E+01  0.15932447969E+03  0.17020424093E+03  0.47000000000E+01 0.  1.
<mgrwt>
<rscale>  0 0.28008835E+03</rscale>
<asrwt>0</asrwt>
<pdfrwt beam="1">  1       21 0.60223805E-01 0.28008835E+03</pdfrwt>
<pdfrwt beam="2">  1       21 0.77078847E-02 0.28008835E+03</pdfrwt>
<totfact> 0.32223268E+05</totfact>
</mgrwt>
</event>
<event>
 8    1  0.9331162E-006  0.3967426E+03  0.7546771E-02  0.1044913E+00
         21   -1    0    0  504  503  0.00000000000E+00  0.00000000000E+00  0.51282071094E+03  0.51282071094E+03  0.00000000000E+00 0.  1.
         21   -1    0    0  503  504 -0.00000000000E+00 -0.00000000000E+00 -0.76734765927E+02  0.76734765927E+02  0.00000000000E+00 0.  1.
         25    2    1    2    0    0 -0.12339624619E+03 -0.25162946325E+02  0.86230902846E+02  0.19727760361E+03  0.12499150707E+03 0.  0.
         25    2    1    2    0    0  0.12339624619E+03  0.25162946325E+02  0.34985504217E+03  0.39227787326E+03  0.12499428739E+03 0.  0.
          5    1    3    3  501    0 -0.28073930576E+01 -0.50967750467E+02  0.41701924530E+02  0.66081264765E+02  0.47000000000E+01 0. -1.
         -5    1    3    3    0  501 -0.12058885313E+03  0.25804804142E+02  0.44528978316E+02  0.13119633884E+03  0.47000000000E+01 0. -1.
          5    1    4    4  502    0 -0.89039152887E+01  0.15374913590E+02  0.15747893193E+03  0.15854769527E+03  0.47000000000E+01 0. -1.
         -5    1    4    4    0  502  0.13230016147E+03  0.97880327350E+01  0.19237611024E+03  0.23373017799E+03  0.47000000000E+01 0. -1.
<mgrwt>
<rscale>  0 0.39674262E+03</rscale>
<asrwt>0</asrwt>
<pdfrwt beam="1">  1       21 0.78895492E-01 0.39674262E+03</pdfrwt>
<pdfrwt beam="2">  1       21 0.11805349E-01 0.39674262E+03</pdfrwt>
<totfact> 0.80400326E+04</totfact>
</mgrwt>
</event>
<event>
 8    1  0.9331162E-006  0.3773824E+03  0.7546771E-02  0.1051905E+00
         21   -1    0    0  504  503  0.00000000000E+00  0.00000000000E+00  0.54562361773E+03  0.54562361773E+03  0.00000000000E+00 0. -1.
         21   -1    0    0  503  504 -0.00000000000E+00 -0.00000000000E+00 -0.65254465331E+02  0.65254465331E+02  0.00000000000E+00 0. -1.
         25    2    1    2    0    0 -0.66773903688E+02 -0.10196630713E+03  0.35604950117E+03  0.39655100715E+03  0.12500228790E+03 0.  0.
         25    2    1    2    0    0  0.66773903688E+02  0.10196630713E+03  0.12431965122E+03  0.21432707591E+03  0.12499935114E+03 0.  0.
          5    1    3    3  501    0 -0.54043937043E+02 -0.56156004342E+01  0.23498727342E+03  0.24123306318E+03  0.47000000000E+01 0.  1.
         -5    1    3    3    0  501 -0.12729966645E+02 -0.96350706694E+02  0.12106222775E+03  0.15531794397E+03  0.47000000000E+01 0.  1.
          5    1    4    4  502    0  0.79651908009E+02  0.97543706985E+01  0.68906523850E+02  0.10587621653E+03  0.47000000000E+01 0. -1.
         -5    1    4    4    0  502 -0.12878004321E+02  0.92211936430E+02  0.55413127373E+02  0.10845085938E+03  0.47000000000E+01 0. -1.
<mgrwt>
<rscale>  0 0.37738244E+03</rscale>
<asrwt>0</asrwt>
<pdfrwt beam="1">  1       21 0.83942092E-01 0.37738244E+03</pdfrwt>
<pdfrwt beam="2">  1       21 0.10039149E-01 0.37738244E+03</pdfrwt>
<totfact> 0.93752150E+04</totfact>
</mgrwt>
</event>
<event>
 8    1  0.9331162E-006  0.2922685E+03  0.7546771E-02  0.1089171E+00
         21   -1    0    0  504  503  0.00000000000E+00  0.00000000000E+00  0.88198054836E+02  0.88198054836E+02  0.00000000000E+00 0. -1.
         21   -1    0    0  503  504 -0.00000000000E+00 -0.00000000000E+00 -0.24212806899E+03  0.24212806899E+03  0.00000000000E+00 0. -1.
         25    2    1    2    0    0 -0.63699822550E+02  0.40626855362E+02 -0.82314371675E+02  0.16765430060E+03  0.12499639977E+03 0.  0.
         25    2    1    2    0    0  0.63699822550E+02 -0.40626855362E+02 -0.71615642481E+02  0.16267182323E+03  0.12500045222E+03 0.  0.
          5    1    3    3  501    0 -0.87793476731E+02  0.21895009267E+02 -0.12688776727E+02  0.91488693521E+02  0.47000000000E+01 0. -1.
         -5    1    3    3    0  501  0.24093654181E+02  0.18731846095E+02 -0.69625594948E+02  0.76165607080E+02  0.47000000000E+01 0. -1.
          5    1    4    4  502    0 -0.13403748009E+02  0.35032235853E+02 -0.15569205263E+02  0.40882859026E+02  0.47000000000E+01 0.  1.
         -5    1    4    4    0  502  0.77103570559E+02 -0.75659091215E+02 -0.56046437218E+02  0.12178896420E+03  0.47000000000E+01 0.  1.
<mgrwt>
<rscale>  0 0.29226854E+03</rscale>
<asrwt>0</asrwt>
<pdfrwt beam="1">  1       21 0.13568932E-01 0.29226854E+03</pdfrwt>
<pdfrwt beam="2">  1       21 0.37250472E-01 0.29226854E+03</pdfrwt>
<totfact> 0.31968215E+05</totfact>
</mgrwt>
</event>
<event>
 8    1  0.9331162E-006  0.4727403E+03  0.7546771E-02  0.1021150E+00
         21   -1    0    0  504  503  0.00000000000E+00  0.00000000000E+00  0.85436404908E+02  0.85436404908E+02  0.00000000000E+00 0.  1.
         21   -1    0    0  503  504 -0.00000000000E+00 -0.00000000000E+00 -0.65394662623E+03  0.65394662623E+03  0.00000000000E+00 0.  1.
         25    2    1    2    0    0  0.18959775223E+03  0.17319256915E+01 -0.38677174312E+03  0.44851721898E+03  0.12500002891E+03 0.  0.
         25    2    1    2    0    0 -0.18959775223E+03 -0.17319256915E+01 -0.18173847820E+03  0.29086581216E+03  0.12499495592E+03 0.  0.
          5    1    3    3  501    0  0.76777647852E+02 -0.39314319059E+02 -0.75016236054E+02  0.11441131310E+03  0.47000000000E+01 0.  1.
         -5    1    3    3    0  501  0.11282010438E+03  0.41046244750E+02 -0.31175550707E+03  0.33410590589E+03  0.47000000000E+01 0.  1.
          5    1    4    4  502    0 -0.13678239556E+02  0.11461843572E+02 -0.90186731352E+02  0.92055443117E+02  0.47000000000E+01 0.  1.
         -5    1    4    4    0  502 -0.17591951267E+03 -0.13193769263E+02 -0.91551746849E+02  0.19881036904E+03  0.47000000000E+01 0.  1.
<mgrwt>
<rscale>  0 0.47274030E+03</rscale>
<asrwt>0</asrwt>
<pdfrwt beam="1">  1       21 0.13144062E-01 0.47274030E+03</pdfrwt>
<pdfrwt beam="2">  1       21 0.10060718E+00 0.47274030E+03</pdfrwt>
<totfact> 0.36567207E+04</totfact>
</mgrwt>
</event>
<event>
 8    1  0.9331162E-006  0.2615430E+03  0.7546771E-02  0.1106220E+00
         21   -1    0    0  504  503  0.00000000000E+00  0.00000000000E+00  0.25797880150E+03  0.25797880150E+03  0.00000000000E+00 0.  1.
         21   -1    0    0  503  504 -0.00000000000E+00 -0.00000000000E+00 -0.66289111389E+02  0.66289111389E+02  0.00000000000E+00 0.  1.
         25    2    1    2    0    0  0.27036668789E+02 -0.16287611984E+02  0.68678207898E+02  0.14607425045E+03  0.12499889056E+03 0.  0.
         25    2    1    2    0    0 -0.27036668789E+02  0.16287611984E+02  0.12301148221E+03  0.17819366244E+03  0.12499955525E+03 0.  0.
          5    1    3    3  501    0 -0.15422213015E+02 -0.11924385624E+02  0.94073009954E+02  0.96186573016E+02  0.47000000000E+01 0.  1.
         -5    1    3    3    0  501  0.42458881804E+02 -0.43632263607E+01 -0.25394802056E+02  0.49887677435E+02  0.47000000000E+01 0.  1.
          5    1    4    4  502    0 -0.44955525685E+02 -0.30912140356E+02  0.11430732098E+03  0.12674704470E+03  0.47000000000E+01 0.  1.
         -5    1    4    4    0  502  0.17918856896E+02  0.47199752340E+02  0.87041612287E+01  0.51446617732E+02  0.47000000000E+01 0.  1.
<mgrwt>
<rscale>  0 0.26154300E+03</rscale>
<asrwt>0</asrwt>
<pdfrwt beam="1">  1       21 0.39689046E-01 0.26154300E+03</pdfrwt>
<pdfrwt beam="2">  1       21 0.10198325E-01 0.26154300E+03</pdfrwt>
<totfact> 0.47298337E+05</totfact>
</mgrwt>
</event>
<event>
 8    1  0.9331162E-006  0.3195807E+03  0.7546771E-02  0.1075842E+00
         21   -1    0    0  504  503  0.00000000000E+00  0.00000000000E+00  0.87478626929E+02  0.87478626929E+02  0.00000000000E+00 0. -1.
         21   -1    0    0  503  504 -0.00000000000E+00 -0.00000000000E+00 -0.29187659069E+03  0.29187659069E+03  0.00000000000E+00 0. -1.
         25    2    1    2    0    0 -0.21736516840E+02 -0.86638004651E+02 -0.50056429969E+02  0.16158195588E+03  0.12499784907E+03 0.  0.
         25    2    1    2    0    0  0.21736516840E+02  0.86638004651E+02 -0.15434153380E+03  0.21777326174E+03  0.12500105783E+03 0.  0.
          5    1    3    3  501    0 -0.68253972400E+02 -0.26483863841E+02 -0.43079386789E+02  0.85075985792E+02  0.47000000000E+01 0.  1.
         -5    1    3    3    0  501  0.46517455559E+02 -0.60154140810E+02 -0.69770431799E+01  0.76505970093E+02  0.47000000000E+01 0.  1.
          5    1    4    4  502    0  0.57757760147E+02  0.99090580750E+02 -0.12259814085E+03  0.16795027892E+03  0.47000000000E+01 0. -1.
         -5    1    4    4    0  502 -0.36021243307E+02 -0.12452576099E+02 -0.31743392946E+02  0.49822982815E+02  0.47000000000E+01 0. -1.
<mgrwt>
<rscale>  0 0.31958075E+03</rscale>
<asrwt>0</asrwt>
<pdfrwt beam="1">  1       21 0.13458250E-01 0.31958075E+03</pdfrwt>
<pdfrwt beam="2">  1       21 0.44904090E-01 0.31958075E+03</pdfrwt>
<totfact> 0.22006537E+05</totfact>
</mgrwt>
</event>
<event>
 8    1  0.9331162E-006  0.3142090E+03  0.7546771E-02  0.1078346E+00
         21   -1    0    0  504  503  0.00000000000E+00  0.00000000000E+00  0.15517252159E+04  0.15517252159E+04  0.00000000000E+00 0. -1.
         21   -1    0    0  503  504 -0.00000000000E+00 -0.00000000000E+00 -0.15906050757E+02  0.15906050757E+02  0.00000000000E+00 0. -1.
         25    2    1    2    0    0 -0.42581311873E+02 -0.76039779309E+02  0.57716110723E+03  0.59693838629E+03  0.12500110868E+03 0.  0.
         25    2    1    2    0    0  0.42581311873E+02  0.76039779309E+02  0.95865805790E+03  0.97069288035E+03  0.12499671928E+03 0.  0.
          5    1    3    3  501    0 -0.71586821465E+02 -0.57950502572E+02  0.53287623870E+03  0.54079766043E+03  0.47000000000E+01 0. -1.
         -5    1    3    3    0  501  0.29005509592E+02 -0.18089276737E+02  0.44284868528E+02  0.56140725860E+02  0.47000000000E+01 0. -1.
          5    1    4    4  502    0  0.10250693814E+02  0.38509284642E+02  0.85258704061E+03  0.85353078066E+03  0.47000000000E+01 0.  1.
         -5    1    4    4    0  502  0.32330618058E+02  0.37530494667E+02  0.10607101729E+03  0.11716209969E+03  0.47000000000E+01 0.  1.
<mgrwt>
<rscale>  0 0.31420898E+03</rscale>
<asrwt>0</asrwt>
<pdfrwt beam="1">  1       21 0.23872684E+00 0.31420898E+03</pdfrwt>
<pdfrwt beam="2">  1       21 0.24470860E-02 0.31420898E+03</pdfrwt>
<totfact> 0.64028678E+04</totfact>
</mgrwt>
</event>
<event>
 8    1  0.9331162E-006  0.3173140E+03  0.7546771E-02  0.1076892E+00
         21   -1    0    0  504  503  0.00000000000E+00  0.00000000000E+00  0.60727354774E+02  0.60727354774E+02  0.00000000000E+00 0.  1.
         21   -1    0    0  503  504 -0.00000000000E+00 -0.00000000000E+00 -0.41450918889E+03  0.41450918889E+03  0.00000000000E+00 0.  1.
         25    2    1    2    0    0 -0.28063821973E+02  0.33690413750E+02 -0.46094408939E+02  0.14025646107E+03  0.12499823300E+03 0.  0.
         25    2    1    2    0    0  0.28063821973E+02 -0.33690413750E+02 -0.30768742518E+03  0.33498008259E+03  0.12496992454E+03 0.  0.
          5    1    3    3  501    0  0.44119378126E+02 -0.12713411447E+02 -0.21143378875E+02  0.50766946206E+02  0.47000000000E+01 0.  1.
         -5    1    3    3    0  501 -0.72183200099E+02  0.46403825197E+02 -0.24951030064E+02  0.89489514865E+02  0.47000000000E+01 0.  1.
          5    1    4    4  502    0  0.65318198528E+02 -0.57672050650E+02 -0.21857772171E+03  0.23535259275E+03  0.47000000000E+01 0.  1.
         -5    1    4    4    0  502 -0.37254376555E+02  0.23981636899E+02 -0.89109703463E+02  0.99627489842E+02  0.47000000000E+01 0.  1.
<mgrwt>
<rscale>  0 0.31731402E+03</rscale>
<asrwt>0</asrwt>
<pdfrwt beam="1">  1       21 0.93426700E-02 0.31731402E+03</pdfrwt>
<pdfrwt beam="2">  1       21 0.63770644E-01 0.31731402E+03</pdfrwt>
<totfact> 0.20094941E+05</totfact>
</mgrwt>
</event>
<event>
 8    1  0.9331162E-006  0.2987236E+03  0.7546771E-02  0.1085880E+00
         21   -1    0    0  504  503  0.00000000000E+00  0.00000000000E+00  0.11435057541E+03  0.11435057541E+03  0.00000000000E+00 0.  1.
         21   -1    0    0  503  504 -0.00000000000E+00 -0.00000000000E+00 -0.19509260416E+03  0.19509260416E+03  0.00000000000E+00 0.  1.
         25    2    1    2    0    0 -0.50867367099E+02  0.17037925700E+02 -0.10427803960E+03  0.17139559279E+03  0.12499903895E+03 0.  0.
         25    2    1    2    0    0  0.50867367099E+02 -0.17037925700E+02  0.23536010844E+02  0.13804758678E+03  0.12500164984E+03 0.  0.
          5    1    3    3  501    0 -0.74156627415E+02  0.16063644694E+02 -0.12059492653E+03  0.14255690925E+03  0.47000000000E+01 0. -1.
         -5    1    3    3    0  501  0.23289260317E+02  0.97428100605E+00  0.16316886930E+02  0.28838683546E+02  0.47000000000E+01 0. -1.
          5    1    4    4  502    0  0.85612682697E+02 -0.19903210680E+02 -0.11053036394E+02  0.88712619438E+02  0.47000000000E+01 0. -1.
         -5    1    4    4    0  502 -0.34745315598E+02  0.28652849799E+01  0.34589047238E+02  0.49334967345E+02  0.47000000000E+01 0. -1.
<mgrwt>
<rscale>  0 0.29872363E+03</rscale>
<asrwt>0</asrwt>
<pdfrwt beam="1">  1       21 0.17592396E-01 0.29872363E+03</pdfrwt>
<pdfrwt beam="2">  1       21 0.30014247E-01 0.29872363E+03</pdfrwt>
<totfact> 0.30433703E+05</totfact>
</mgrwt>
</event>
<event>
 8    1  0.9331162E-006  0.2536275E+03  0.7546771E-02  0.1111034E+00
         21   -1    0    0  504  503  0.00000000000E+00  0.00000000000E+00  0.72437400185E+01  0.72437400185E+01  0.00000000000E+00 0. -1.
         21   -1    0    0  503  504 -0.00000000000E+00 -0.00000000000E+00 -0.22200854584E+04  0.22200854584E+04  0.00000000000E+00 0. -1.
         25    2    1    2    0    0  0.87424510619E+01 -0.12727929487E+02 -0.97664184950E+03  0.98473079335E+03  0.12500800990E+03 0.  0.
         25    2    1    2    0    0 -0.87424510619E+01  0.12727929487E+02 -0.12361998689E+04  0.12425984050E+04  0.12498899877E+03 0.  0.
          5    1    3    3  501    0 -0.23330234149E+02 -0.25842704518E+02 -0.89774495119E+03  0.89843209682E+03  0.47000000000E+01 0.  1.
         -5    1    3    3    0  501  0.32072685211E+02  0.13114775031E+02 -0.78896898309E+02  0.86298696534E+02  0.47000000000E+01 0.  1.
          5    1    4    4  502    0 -0.91184803388E+01 -0.39936195104E+02 -0.98651891382E+03  0.98738022246E+03  0.47000000000E+01 0. -1.
         -5    1    4    4    0  502  0.37602927694E+00  0.52664124591E+02 -0.24968095503E+03  0.25521818258E+03  0.47000000000E+01 0. -1.
<mgrwt>
<rscale>  0 0.25362746E+03</rscale>
<asrwt>0</asrwt>
<pdfrwt beam="1">  1       21 0.11144210E-02 0.25362746E+03</pdfrwt>
<pdfrwt beam="2">  1       21 0.34155176E+00 0.25362746E+03</pdfrwt>
<totfact> 0.58738398E+04</totfact>
</mgrwt>
</event>
<event>
 8    1  0.9331162E-006  0.3383613E+03  0.7546771E-02  0.1067496E+00
         21   -1    0    0  504  503  0.00000000000E+00  0.00000000000E+00  0.39150060769E+03  0.39150060769E+03  0.00000000000E+00 0.  1.
         21   -1    0    0  503  504 -0.00000000000E+00 -0.00000000000E+00 -0.73108686932E+02  0.73108686932E+02  0.00000000000E+00 0.  1.
         25    2    1    2    0    0  0.15494554278E+01  0.82318884850E+02  0.50900766957E+02  0.15808748758E+03  0.12498786356E+03 0.  0.
         25    2    1    2    0    0 -0.15494554278E+01 -0.82318884850E+02  0.26749115380E+03  0.30652180704E+03  0.12500120486E+03 0.  0.
          5    1    3    3  501    0  0.43888182663E+02 -0.49301200195E+01 -0.71179591102E+01  0.44980373528E+02  0.47000000000E+01 0.  1.
         -5    1    3    3    0  501 -0.42338727235E+02  0.87249004869E+02  0.58018726067E+02  0.11310711405E+03  0.47000000000E+01 0.  1.
          5    1    4    4  502    0  0.52118684199E+01 -0.65365576500E+02  0.37350427624E+02  0.75610624963E+02  0.47000000000E+01 0.  1.
         -5    1    4    4    0  502 -0.67613238477E+01 -0.16953308349E+02  0.23014072618E+03  0.23091118208E+03  0.47000000000E+01 0.  1.
<mgrwt>
<rscale>  0 0.33836132E+03</rscale>
<asrwt>0</asrwt>
<pdfrwt beam="1">  1       21 0.60230861E-01 0.33836132E+03</pdfrwt>
<pdfrwt beam="2">  1       21 0.11247491E-01 0.33836132E+03</pdfrwt>
<totfact> 0.16257901E+05</totfact>
</mgrwt>
</event>
<event>
 8    1  0.9331162E-006  0.2935752E+03  0.7546771E-02  0.1088497E+00
         21   -1    0    0  504  503  0.00000000000E+00  0.00000000000E+00  0.60119698338E+02  0.60119698338E+02  0.00000000000E+00 0. -1.
         21   -1    0    0  503  504 -0.00000000000E+00 -0.00000000000E+00 -0.35839510788E+03  0.35839510788E+03  0.00000000000E+00 0. -1.
         25    2    1    2    0    0 -0.73284380222E+02 -0.16912876047E+02 -0.12594244260E+03  0.19272738195E+03  0.12500279655E+03 0.  0.
         25    2    1    2    0    0  0.73284380222E+02  0.16912876047E+02 -0.17233296694E+03  0.22578742426E+03  0.12499865479E+03 0.  0.
          5    1    3    3  501    0 -0.43083261448E+02  0.86190956411E+01 -0.14280039658E+03  0.14948076629E+03  0.47000000000E+01 0. -1.
         -5    1    3    3    0  501 -0.30201118774E+02 -0.25531971688E+02  0.16857953987E+02  0.43246615660E+02  0.47000000000E+01 0. -1.
          5    1    4    4  502    0  0.90657204608E+02  0.39580434925E+02 -0.74958063052E+02  0.12420201606E+03  0.47000000000E+01 0.  1.
         -5    1    4    4    0  502 -0.17372824386E+02 -0.22667558878E+02 -0.97374903892E+02  0.10158540821E+03  0.47000000000E+01 0.  1.
<mgrwt>
<rscale>  0 0.29357524E+03</rscale>
<asrwt>0</asrwt>
<pdfrwt beam="1">  1       21 0.92491841E-02 0.29357524E+03</pdfrwt>
<pdfrwt beam="2">  1       21 0.55137711E-01 0.29357524E+03</pdfrwt>
<totfact> 0.28181810E+05</totfact>
</mgrwt>
</event>
<event>
 8    1  0.9331162E-006  0.3105808E+03  0.7546771E-02  0.1080068E+00
         21   -1    0    0  504  503  0.00000000000E+00  0.00000000000E+00  0.35649441828E+03  0.35649441828E+03  0.00000000000E+00 0.  1.
         21   -1    0    0  503  504 -0.00000000000E+00 -0.00000000000E+00 -0.67645107764E+02  0.67645107764E+02  0.00000000000E+00 0.  1.
         25    2    1    2    0    0 -0.56380479426E+02 -0.58362508731E+02  0.84828235414E+02  0.17148319134E+03  0.12500285798E+03 0.  0.
         25    2    1    2    0    0  0.56380479426E+02  0.58362508731E+02  0.20402107510E+03  0.25265633471E+03  0.12500273395E+03 0.  0.
          5    1    3    3  501    0 -0.63602506676E+02  0.21307803121E+02  0.26086146674E+02  0.72124048538E+02  0.47000000000E+01 0. -1.
         -5    1    3    3    0  501  0.72220272499E+01 -0.79670311852E+02  0.58742088739E+02  0.99359142799E+02  0.47000000000E+01 0. -1.
          5    1    4    4  502    0 -0.37158821222E+02  0.40211898520E+01  0.77184558565E+02  0.85886518402E+02  0.47000000000E+01 0.  1.
         -5    1    4    4    0  502  0.93539300647E+02  0.54341318879E+02  0.12683651654E+03  0.16676981631E+03  0.47000000000E+01 0.  1.
<mgrwt>
<rscale>  0 0.31058077E+03</rscale>
<asrwt>0</asrwt>
<pdfrwt beam="1">  1       21 0.54845294E-01 0.31058077E+03</pdfrwt>
<pdfrwt beam="2">  1       21 0.10406940E-01 0.31058077E+03</pdfrwt>
<totfact> 0.23018943E+05</totfact>
</mgrwt>
</event>
<event>
 8    1  0.9331162E-006  0.4373784E+03  0.7546771E-02  0.1031554E+00
         21   -1    0    0  504  503  0.00000000000E+00  0.00000000000E+00  0.40320291991E+03  0.40320291991E+03  0.00000000000E+00 0. -1.
         21   -1    0    0  503  504 -0.00000000000E+00 -0.00000000000E+00 -0.11861266019E+03  0.11861266019E+03  0.00000000000E+00 0. -1.
         25    2    1    2    0    0 -0.17028234690E+03  0.56014500783E+02  0.15204508123E+03  0.26622343960E+03  0.12499404426E+03 0.  0.
         25    2    1    2    0    0  0.17028234690E+03 -0.56014500783E+02  0.13254517849E+03  0.25559214050E+03  0.12500166392E+03 0.  0.
          5    1    3    3  501    0 -0.17057333024E+03  0.83769567531E+02  0.12766896484E+03  0.22898483796E+03  0.47000000000E+01 0. -1.
         -5    1    3    3    0  501  0.29098333893E+00 -0.27755066749E+02  0.24376116394E+02  0.37238601638E+02  0.47000000000E+01 0. -1.
          5    1    4    4  502    0  0.10127294281E+03  0.10566003913E+01  0.74299890365E+01  0.10165933349E+03  0.47000000000E+01 0.  1.
         -5    1    4    4    0  502  0.69009404090E+02 -0.57071101174E+02  0.12511518945E+03  0.15393280701E+03  0.47000000000E+01 0.  1.
<mgrwt>
<rscale>  0 0.43737842E+03</rscale>
<asrwt>0</asrwt>
<pdfrwt beam="1">  1       21 0.62031218E-01 0.43737842E+03</pdfrwt>
<pdfrwt beam="2">  1       21 0.18248102E-01 0.43737842E+03</pdfrwt>
<totfact> 0.61152077E+04</totfact>
</mgrwt>
</event>
<event>
 8    1  0.9331162E-006  0.3378405E+03  0.7546771E-02  0.1067719E+00
         21   -1    0    0  504  503  0.00000000000E+00  0.00000000000E+00  0.33132189483E+03  0.33132189483E+03  0.00000000000E+00 0. -1.
         21   -1    0    0  503  504 -0.00000000000E+00 -0.00000000000E+00 -0.86121825970E+02  0.86121825970E+02  0.00000000000E+00 0. -1.
         25    2    1    2    0    0  0.27312888332E+02  0.34287590361E+02  0.25211830352E+03  0.28479916882E+03  0.12500117946E+03 0.  0.
         25    2    1    2    0    0 -0.27312888332E+02 -0.34287590361E+02 -0.69182346567E+01  0.13264455199E+03  0.12500032992E+03 0.  0.
          5    1    3    3  501    0  0.73080529104E+02  0.39502743208E+02  0.18912217285E+03  0.20661683552E+03  0.47000000000E+01 0. -1.
         -5    1    3    3    0  501 -0.45767640772E+02 -0.52151528463E+01  0.62996130669E+02  0.78182333301E+02  0.47000000000E+01 0. -1.
          5    1    4    4  502    0  0.75526029348E+00 -0.65132851010E+02  0.34346534737E+02  0.73787757435E+02  0.47000000000E+01 0. -1.
         -5    1    4    4    0  502 -0.28068148626E+02  0.30845260649E+02 -0.41264769394E+02  0.58856794551E+02  0.47000000000E+01 0. -1.
<mgrwt>
<rscale>  0 0.33784047E+03</rscale>
<asrwt>0</asrwt>
<pdfrwt beam="1">  1       21 0.50972598E-01 0.33784047E+03</pdfrwt>
<pdfrwt beam="2">  1       21 0.13249512E-01 0.33784047E+03</pdfrwt>
<totfact> 0.17288720E+05</totfact>
</mgrwt>
</event>
<event>
 8    1  0.9331162E-006  0.3079165E+03  0.7546771E-02  0.1081349E+00
         21   -1    0    0  504  503  0.00000000000E+00  0.00000000000E+00  0.25089633117E+03  0.25089633117E+03  0.00000000000E+00 0.  1.
         21   -1    0    0  503  504 -0.00000000000E+00 -0.00000000000E+00 -0.94473842245E+02  0.94473842245E+02  0.00000000000E+00 0.  1.
         25    2    1    2    0    0 -0.38239117151E+02  0.62844849309E+02  0.13612354681E+03  0.19891644328E+03  0.12500570485E+03 0.  0.
         25    2    1    2    0    0  0.38239117151E+02 -0.62844849309E+02  0.20298942114E+02  0.14645373013E+03  0.12499977142E+03 0.  0.
          5    1    3    3  501    0  0.15774605291E+02  0.29682664194E+02  0.13080731935E+03  0.13513897855E+03  0.47000000000E+01 0.  1.
         -5    1    3    3    0  501 -0.54013722442E+02  0.33162185116E+02  0.53162274567E+01  0.63777464735E+02  0.47000000000E+01 0.  1.
          5    1    4    4  502    0  0.59971222042E+02  0.48868868189E+01  0.40107806532E+02  0.72464855487E+02  0.47000000000E+01 0. -1.
         -5    1    4    4    0  502 -0.21732104891E+02 -0.67731736128E+02 -0.19808864418E+02  0.73988874647E+02  0.47000000000E+01 0. -1.
<mgrwt>
<rscale>  0 0.30791648E+03</rscale>
<asrwt>0</asrwt>
<pdfrwt beam="1">  1       21 0.38599435E-01 0.30791648E+03</pdfrwt>
<pdfrwt beam="2">  1       21 0.14534437E-01 0.30791648E+03</pdfrwt>
<totfact> 0.26149052E+05</totfact>
</mgrwt>
</event>
<event>
 8    1  0.9331162E-006  0.3620320E+03  0.7546771E-02  0.1057782E+00
         21   -1    0    0  504  503  0.00000000000E+00  0.00000000000E+00  0.18233320926E+03  0.18233320926E+03  0.00000000000E+00 0. -1.
         21   -1    0    0  503  504 -0.00000000000E+00 -0.00000000000E+00 -0.17970830044E+03  0.17970830044E+03  0.00000000000E+00 0. -1.
         25    2    1    2    0    0 -0.10381997053E+02  0.68313218332E+02  0.11252751736E+03  0.18182897497E+03  0.12499940925E+03 0.  0.
         25    2    1    2    0    0  0.10381997053E+02 -0.68313218332E+02 -0.10990260854E+03  0.18021253473E+03  0.12499397046E+03 0.  0.
          5    1    3    3  501    0  0.54624210853E+02  0.22858918642E+02  0.27518435473E+02  0.65465172907E+02  0.47000000000E+01 0. -1.
         -5    1    3    3    0  501 -0.65006207907E+02  0.45454299690E+02  0.85009081889E+02  0.11636380206E+03  0.47000000000E+01 0. -1.
          5    1    4    4  502    0  0.48319189186E+02 -0.20967152663E+02 -0.10692570214E+03  0.11928772490E+03  0.47000000000E+01 0. -1.
         -5    1    4    4    0  502 -0.37937192132E+02 -0.47346065670E+02 -0.29769063966E+01  0.60924809831E+02  0.47000000000E+01 0. -1.
<mgrwt>
<rscale>  0 0.36203199E+03</rscale>
<asrwt>0</asrwt>
<pdfrwt beam="1">  1       21 0.28051263E-01 0.36203199E+03</pdfrwt>
<pdfrwt beam="2">  1       21 0.27647431E-01 0.36203199E+03</pdfrwt>
<totfact> 0.14478646E+05</totfact>
</mgrwt>
</event>
<event>
 8    1  0.9331162E-006  0.3713820E+03  0.7546771E-02  0.1054166E+00
         21   -1    0    0  504  503  0.00000000000E+00  0.00000000000E+00  0.25623753210E+03  0.25623753210E+03  0.00000000000E+00 0. -1.
         21   -1    0    0  503  504 -0.00000000000E+00 -0.00000000000E+00 -0.13456713995E+03  0.13456713995E+03  0.00000000000E+00 0. -1.
         25    2    1    2    0    0  0.53201017908E+02 -0.10290250811E+03 -0.16758472752E+02  0.17124499880E+03  0.12499891489E+03 0.  0.
         25    2    1    2    0    0 -0.53201017908E+02  0.10290250811E+03  0.13842886490E+03  0.21955967325E+03  0.12499849999E+03 0.  0.
          5    1    3    3  501    0 -0.36423239260E+02 -0.52041084221E+01 -0.99669635916E+01  0.38407882862E+02  0.47000000000E+01 0. -1.
         -5    1    3    3    0  501  0.89624257168E+02 -0.97698399685E+02 -0.67915091608E+01  0.13283711594E+03  0.47000000000E+01 0. -1.
          5    1    4    4  502    0 -0.54385032558E+02  0.62271181148E+00  0.92341036988E+02  0.10727104292E+03  0.47000000000E+01 0.  1.
         -5    1    4    4    0  502  0.11840146497E+01  0.10227979630E+03  0.46087827913E+02  0.11228863034E+03  0.47000000000E+01 0.  1.
<mgrwt>
<rscale>  0 0.37138202E+03</rscale>
<asrwt>0</asrwt>
<pdfrwt beam="1">  1       21 0.39421159E-01 0.37138202E+03</pdfrwt>
<pdfrwt beam="2">  1       21 0.20702637E-01 0.37138202E+03</pdfrwt>
<totfact> 0.12771847E+05</totfact>
</mgrwt>
</event>
<event>
 8    1  0.9331162E-006  0.4033036E+03  0.7546771E-02  0.1042642E+00
         21   -1    0    0  504  503  0.00000000000E+00  0.00000000000E+00  0.44097550907E+03  0.44097550907E+03  0.00000000000E+00 0. -1.
         21   -1    0    0  503  504 -0.00000000000E+00 -0.00000000000E+00 -0.92212472202E+02  0.92212472202E+02  0.00000000000E+00 0. -1.
         25    2    1    2    0    0 -0.38363581796E+02  0.10893978812E+03  0.31384093409E+02  0.17305739734E+03  0.12499703841E+03 0.  0.
         25    2    1    2    0    0  0.38363581796E+02 -0.10893978812E+03  0.31737894346E+03  0.36013058393E+03  0.12500000754E+03 0.  0.
          5    1    3    3  501    0 -0.26046121762E+02  0.44288770815E+01 -0.38292706648E+02  0.46759349797E+02  0.47000000000E+01 0.  1.
         -5    1    3    3    0  501 -0.12317460034E+02  0.10451091104E+03  0.69676800056E+02  0.12629804755E+03  0.47000000000E+01 0.  1.
          5    1    4    4  502    0  0.42606587666E+02  0.13168683538E+01  0.17367773960E+03  0.17889411026E+03  0.47000000000E+01 0. -1.
         -5    1    4    4    0  502 -0.42430058697E+01 -0.11025665647E+03  0.14370120386E+03  0.18123647366E+03  0.47000000000E+01 0. -1.
<mgrwt>
<rscale>  0 0.40330357E+03</rscale>
<asrwt>0</asrwt>
<pdfrwt beam="1">  1       21 0.67842385E-01 0.40330357E+03</pdfrwt>
<pdfrwt beam="2">  1       21 0.14186534E-01 0.40330357E+03</pdfrwt>
<totfact> 0.80745589E+04</totfact>
</mgrwt>
</event>
<event>
 8    1  0.9331162E-006  0.2841818E+03  0.7546771E-02  0.1093427E+00
         21   -1    0    0  504  503  0.00000000000E+00  0.00000000000E+00  0.15993195343E+03  0.15993195343E+03  0.00000000000E+00 0.  1.
         21   -1    0    0  503  504 -0.00000000000E+00 -0.00000000000E+00 -0.12624009906E+03  0.12624009906E+03  0.00000000000E+00 0.  1.
         25    2    1    2    0    0 -0.21412368831E+02  0.29601518421E+02 -0.40384251757E+02  0.13634149987E+03  0.12499350930E+03 0.  0.
         25    2    1    2    0    0  0.21412368831E+02 -0.29601518421E+02  0.74076106128E+02  0.14983055262E+03  0.12500874196E+03 0.  0.
          5    1    3    3  501    0 -0.64396505883E+02  0.76613884194E+01  0.10715789578E+02  0.65897837512E+02  0.47000000000E+01 0. -1.
         -5    1    3    3    0  501  0.42984137052E+02  0.21940130001E+02 -0.51100041335E+02  0.70443662362E+02  0.47000000000E+01 0. -1.
          5    1    4    4  502    0  0.15952682207E+02 -0.35314549812E+02  0.10791869174E+03  0.11476122832E+03  0.47000000000E+01 0. -1.
         -5    1    4    4    0  502  0.54596866247E+01  0.57130313915E+01 -0.33842585613E+02  0.35069324298E+02  0.47000000000E+01 0. -1.
<mgrwt>
<rscale>  0 0.28418181E+03</rscale>
<asrwt>0</asrwt>
<pdfrwt beam="1">  1       21 0.24604916E-01 0.28418181E+03</pdfrwt>
<pdfrwt beam="2">  1       21 0.19421554E-01 0.28418181E+03</pdfrwt>
<totfact> 0.37333098E+05</totfact>
</mgrwt>
</event>
<event>
 8    1  0.9331162E-006  0.3294743E+03  0.7546771E-02  0.1071370E+00
         21   -1    0    0  504  503  0.00000000000E+00  0.00000000000E+00  0.27690019061E+03  0.27690019061E+03  0.00000000000E+00 0. -1.
         21   -1    0    0  503  504 -0.00000000000E+00 -0.00000000000E+00 -0.98007603847E+02  0.98007603847E+02  0.00000000000E+00 0. -1.
         25    2    1    2    0    0  0.49682339157E+02 -0.57155114285E+02  0.17597886562E+03  0.22875759269E+03  0.12500573249E+03 0.  0.
         25    2    1    2    0    0 -0.49682339157E+02  0.57155114285E+02  0.29137211428E+01  0.14615020176E+03  0.12496539438E+03 0.  0.
          5    1    3    3  501    0  0.65689399818E+02  0.16026095455E+02  0.59504200014E+02  0.90192975354E+02  0.47000000000E+01 0. -1.
         -5    1    3    3    0  501 -0.16007060662E+02 -0.73181209739E+02  0.11647466560E+03  0.13856461734E+03  0.47000000000E+01 0. -1.
          5    1    4    4  502    0 -0.24496762348E+02  0.22480709187E+02  0.63475465558E+02  0.71810155123E+02  0.47000000000E+01 0. -1.
         -5    1    4    4    0  502 -0.25185576809E+02  0.34674405098E+02 -0.60561744415E+02  0.74340046641E+02  0.47000000000E+01 0. -1.
<mgrwt>
<rscale>  0 0.32947427E+03</rscale>
<asrwt>0</asrwt>
<pdfrwt beam="1">  1       21 0.42600029E-01 0.32947427E+03</pdfrwt>
<pdfrwt beam="2">  1       21 0.15078093E-01 0.32947427E+03</pdfrwt>
<totfact> 0.19883057E+05</totfact>
</mgrwt>
</event>
<event>
 8    1  0.9331162E-006  0.7162961E+03  0.7546771E-02  0.9689763E-01
         21   -1    0    0  504  503  0.00000000000E+00  0.00000000000E+00  0.11123819143E+03  0.11123819143E+03  0.00000000000E+00 0.  1.
         21   -1    0    0  503  504 -0.00000000000E+00 -0.00000000000E+00 -0.11531113663E+04  0.11531113663E+04  0.00000000000E+00 0.  1.
         25    2    1    2    0    0 -0.12907558662E+02  0.27988659914E+03 -0.84708322788E+03  0.90093151555E+03  0.12499794919E+03 0.  0.
         25    2    1    2    0    0  0.12907558662E+02 -0.27988659914E+03 -0.19478994702E+03  0.36341804222E+03  0.12500574587E+03 0.  0.
          5    1    3    3  501    0 -0.30681409766E+02  0.53227761383E+01 -0.79273603237E+02  0.85299912199E+02  0.47000000000E+01 0. -1.
         -5    1    3    3    0  501  0.17773851104E+02  0.27456382300E+03 -0.76780962464E+03  0.81563160335E+03  0.47000000000E+01 0. -1.
          5    1    4    4  502    0  0.29207603725E+02 -0.10800779279E+03 -0.14589005373E+03  0.18391510323E+03  0.47000000000E+01 0. -1.
         -5    1    4    4    0  502 -0.16300045063E+02 -0.17187880635E+03 -0.48899893291E+02  0.17950293899E+03  0.47000000000E+01 0. -1.
<mgrwt>
<rscale>  0 0.71629609E+03</rscale>
<asrwt>0</asrwt>
<pdfrwt beam="1">  1       21 0.17113569E-01 0.71629609E+03</pdfrwt>
<pdfrwt beam="2">  1       21 0.17740174E+00 0.71629609E+03</pdfrwt>
<totfact> 0.46848580E+03</totfact>
</mgrwt>
</event>
<event>
 8    1  0.9331162E-006  0.2625607E+03  0.7546771E-02  0.1105614E+00
         21   -1    0    0  504  503  0.00000000000E+00  0.00000000000E+00  0.15799226133E+03  0.15799226133E+03  0.00000000000E+00 0. -1.
         21   -1    0    0  503  504 -0.00000000000E+00 -0.00000000000E+00 -0.10908465181E+03  0.10908465181E+03  0.00000000000E+00 0. -1.
         25    2    1    2    0    0  0.30485206673E+02 -0.16146649829E+02  0.45335739630E+02  0.13735225669E+03  0.12498100257E+03 0.  0.
         25    2    1    2    0    0 -0.30485206673E+02  0.16146649829E+02  0.35718698928E+01  0.12972465645E+03  0.12500266441E+03 0.  0.
          5    1    3    3  501    0  0.10291006804E+02  0.17395950643E+02 -0.39042302795E+02  0.44214424426E+02  0.47000000000E+01 0.  1.
         -5    1    3    3    0  501  0.20194199869E+02 -0.33542600472E+02  0.84378042425E+02  0.93137832261E+02  0.47000000000E+01 0.  1.
          5    1    4    4  502    0  0.45395679565E+02  0.11224575618E+02  0.21149274735E+02  0.51537759388E+02  0.47000000000E+01 0. -1.
         -5    1    4    4    0  502 -0.75880886238E+02  0.49220742115E+01 -0.17577404842E+02  0.78186897059E+02  0.47000000000E+01 0. -1.
<mgrwt>
<rscale>  0 0.26256070E+03</rscale>
<asrwt>0</asrwt>
<pdfrwt beam="1">  1       21 0.24306502E-01 0.26256070E+03</pdfrwt>
<pdfrwt beam="2">  1       21 0.16782254E-01 0.26256070E+03</pdfrwt>
<totfact> 0.50375836E+05</totfact>
</mgrwt>
</event>
<event>
 8    1  0.9331162E-006  0.3048983E+03  0.7546771E-02  0.1082817E+00
         21   -1    0    0  504  503  0.00000000000E+00  0.00000000000E+00  0.38987707769E+02  0.38987707769E+02  0.00000000000E+00 0.  1.
         21   -1    0    0  503  504 -0.00000000000E+00 -0.00000000000E+00 -0.59610449053E+03  0.59610449053E+03  0.00000000000E+00 0.  1.
         25    2    1    2    0    0  0.86255495808E+02  0.10801128868E+01 -0.30597696513E+03  0.34159776927E+03  0.12500382226E+03 0.  0.
         25    2    1    2    0    0 -0.86255495808E+02 -0.10801128868E+01 -0.25113981763E+03  0.29349442903E+03  0.12500637851E+03 0.  0.
          5    1    3    3  501    0  0.11232942958E+02  0.33637456130E+02 -0.14114581283E+02  0.38457364278E+02  0.47000000000E+01 0.  1.
         -5    1    3    3    0  501  0.75022552850E+02 -0.32557343244E+02 -0.29186238384E+03  0.30314040499E+03  0.47000000000E+01 0.  1.
          5    1    4    4  502    0 -0.11827014144E+03  0.67174668803E+01 -0.19892931554E+03  0.23157701376E+03  0.47000000000E+01 0. -1.
         -5    1    4    4    0  502  0.32014645635E+02 -0.77975797671E+01 -0.52210502086E+02  0.61917415268E+02  0.47000000000E+01 0. -1.
<mgrwt>
<rscale>  0 0.30489833E+03</rscale>
<asrwt>0</asrwt>
<pdfrwt beam="1">  1       21 0.59981089E-02 0.30489833E+03</pdfrwt>
<pdfrwt beam="2">  1       21 0.91708383E-01 0.30489833E+03</pdfrwt>
<totfact> 0.19196969E+05</totfact>
</mgrwt>
</event>
<event>
 8    1  0.9331162E-006  0.2578027E+03  0.7546771E-02  0.1108471E+00
         21   -1    0    0  504  503  0.00000000000E+00  0.00000000000E+00  0.27250008936E+02  0.27250008936E+02  0.00000000000E+00 0.  1.
         21   -1    0    0  503  504 -0.00000000000E+00 -0.00000000000E+00 -0.60974503351E+03  0.60974503351E+03  0.00000000000E+00 0.  1.
         25    2    1    2    0    0  0.13441381642E+02  0.22086253656E+02 -0.24694912490E+03  0.27799109056E+03  0.12500681102E+03 0.  0.
         25    2    1    2    0    0 -0.13441381642E+02 -0.22086253656E+02 -0.33554589968E+03  0.35900395189E+03  0.12499725332E+03 0.  0.
          5    1    3    3  501    0 -0.50725877858E+01  0.16250082142E+02 -0.25561131175E+03  0.25622066468E+03  0.47000000000E+01 0. -1.
         -5    1    3    3    0  501  0.18513969427E+02  0.58361715142E+01  0.86621868509E+01  0.21770425879E+02  0.47000000000E+01 0. -1.
          5    1    4    4  502    0  0.45880638909E+02 -0.38718049972E+02 -0.11305043238E+03  0.12808829252E+03  0.47000000000E+01 0.  1.
         -5    1    4    4    0  502 -0.59322020550E+02  0.16631796316E+02 -0.22249546730E+03  0.23091565936E+03  0.47000000000E+01 0.  1.
<mgrwt>
<rscale>  0 0.25780270E+03</rscale>
<asrwt>0</asrwt>
<pdfrwt beam="1">  1       21 0.41923091E-02 0.25780270E+03</pdfrwt>
<pdfrwt beam="2">  1       21 0.93806927E-01 0.25780270E+03</pdfrwt>
<totfact> 0.33959755E+05</totfact>
</mgrwt>
</event>
<event>
 8    1  0.9331162E-006  0.6190041E+03  0.7546771E-02  0.9866745E-01
         21   -1    0    0  504  503  0.00000000000E+00  0.00000000000E+00  0.22076417421E+03  0.22076417421E+03  0.00000000000E+00 0.  1.
         21   -1    0    0  503  504 -0.00000000000E+00 -0.00000000000E+00 -0.43390883251E+03  0.43390883251E+03  0.00000000000E+00 0.  1.
         25    2    1    2    0    0  0.19840386855E+03 -0.16318241226E+03 -0.23249258005E+03  0.36833201638E+03  0.12499231890E+03 0.  0.
         25    2    1    2    0    0 -0.19840386855E+03  0.16318241226E+03  0.19347921749E+02  0.28634099034E+03  0.12499690375E+03 0.  0.
          5    1    3    3  501    0  0.31514182199E+02 -0.16835494972E+02  0.12089516225E+02  0.38010840206E+02  0.47000000000E+01 0. -1.
         -5    1    3    3    0  501  0.16688968635E+03 -0.14634691729E+03 -0.24458209627E+03  0.33032117617E+03  0.47000000000E+01 0. -1.
          5    1    4    4  502    0 -0.43806461033E+02  0.55346573744E+02 -0.48704248285E+02  0.85886221563E+02  0.47000000000E+01 0. -1.
         -5    1    4    4    0  502 -0.15459740751E+03  0.10783583852E+03  0.68052170034E+02  0.20045476878E+03  0.47000000000E+01 0. -1.
<mgrwt>
<rscale>  0 0.61900412E+03</rscale>
<asrwt>0</asrwt>
<pdfrwt beam="1">  1       21 0.33963720E-01 0.61900412E+03</pdfrwt>
<pdfrwt beam="2">  1       21 0.66755204E-01 0.61900412E+03</pdfrwt>
<totfact> 0.14863399E+04</totfact>
</mgrwt>
</event>
<event>
 8    1  0.9331162E-006  0.3315930E+03  0.7546771E-02  0.1070434E+00
         21   -1    0    0  504  503  0.00000000000E+00  0.00000000000E+00  0.28367656697E+03  0.28367656697E+03  0.00000000000E+00 0.  1.
         21   -1    0    0  503  504 -0.00000000000E+00 -0.00000000000E+00 -0.96900789958E+02  0.96900789958E+02  0.00000000000E+00 0.  1.
         25    2    1    2    0    0  0.55607363591E+02  0.92737783959E+02  0.78360557613E+02  0.18291391479E+03  0.12499859109E+03 0.  0.
         25    2    1    2    0    0 -0.55607363591E+02 -0.92737783959E+02  0.10841521940E+03  0.19766344214E+03  0.12499800439E+03 0.  0.
          5    1    3    3  501    0  0.80271785186E+02  0.79750303033E+02  0.15909415875E+02  0.11436288666E+03  0.47000000000E+01 0. -1.
         -5    1    3    3    0  501 -0.24664421595E+02  0.12987480926E+02  0.62451141738E+02  0.68551028131E+02  0.47000000000E+01 0. -1.
          5    1    4    4  502    0  0.26169031048E+02 -0.47150498568E+02 -0.27664603096E+00  0.54130899071E+02  0.47000000000E+01 0. -1.
         -5    1    4    4    0  502 -0.81776394640E+02 -0.45587285391E+02  0.10869186543E+03  0.14353254307E+03  0.47000000000E+01 0. -1.
<mgrwt>
<rscale>  0 0.33159302E+03</rscale>
<asrwt>0</asrwt>
<pdfrwt beam="1">  1       21 0.43642549E-01 0.33159302E+03</pdfrwt>
<pdfrwt beam="2">  1       21 0.14907814E-01 0.33159302E+03</pdfrwt>
<totfact> 0.19305036E+05</totfact>
</mgrwt>
</event>
<event>
 8    1  0.9331162E-006  0.2623433E+03  0.7546771E-02  0.1105743E+00
         21   -1    0    0  504  503  0.00000000000E+00  0.00000000000E+00  0.13329885147E+03  0.13329885147E+03  0.00000000000E+00 0.  1.
         21   -1    0    0  503  504 -0.00000000000E+00 -0.00000000000E+00 -0.12907842870E+03  0.12907842870E+03  0.00000000000E+00 0.  1.
         25    2    1    2    0    0 -0.60352803992E+01  0.34972524436E+02  0.20060123746E+02  0.13148133234E+03  0.12500172045E+03 0.  0.
         25    2    1    2    0    0  0.60352803992E+01 -0.34972524436E+02 -0.15839700983E+02  0.13089594783E+03  0.12499340365E+03 0.  0.
          5    1    3    3  501    0 -0.26690632826E+02 -0.79923721872E+01  0.61794610507E+02  0.67948007929E+02  0.47000000000E+01 0. -1.
         -5    1    3    3    0  501  0.20655352426E+02  0.42964896623E+02 -0.41734486761E+02  0.63533324412E+02  0.47000000000E+01 0. -1.
          5    1    4    4  502    0  0.27848708152E+02 -0.74774018339E+02 -0.26181976111E+02  0.84108800000E+02  0.47000000000E+01 0.  1.
         -5    1    4    4    0  502 -0.21813427753E+02  0.39801493904E+02  0.10342275128E+02  0.46787147830E+02  0.47000000000E+01 0.  1.
<mgrwt>
<rscale>  0 0.26234333E+03</rscale>
<asrwt>0</asrwt>
<pdfrwt beam="1">  1       21 0.20507516E-01 0.26234333E+03</pdfrwt>
<pdfrwt beam="2">  1       21 0.19858220E-01 0.26234333E+03</pdfrwt>
<totfact> 0.50846837E+05</totfact>
</mgrwt>
</event>
<event>
 8    1  0.9331162E-006  0.2643212E+03  0.7546771E-02  0.1104574E+00
         21   -1    0    0  504  503  0.00000000000E+00  0.00000000000E+00  0.33460073580E+03  0.33460073580E+03  0.00000000000E+00 0. -1.
         21   -1    0    0  503  504 -0.00000000000E+00 -0.00000000000E+00 -0.52200795999E+02  0.52200795999E+02  0.00000000000E+00 0. -1.
         25    2    1    2    0    0 -0.41109797271E+02 -0.95286585100E+01  0.12979570131E+03  0.18507545167E+03  0.12500075186E+03 0.  0.
         25    2    1    2    0    0  0.41109797271E+02  0.95286585100E+01  0.15260423849E+03  0.20172608013E+03  0.12499818813E+03 0.  0.
          5    1    3    3  501    0 -0.51603427264E+02  0.42614847472E+02  0.33551867068E+02  0.75011710514E+02  0.47000000000E+01 0.  1.
         -5    1    3    3    0  501  0.10493629993E+02 -0.52143505982E+02  0.96243834243E+02  0.11006374115E+03  0.47000000000E+01 0.  1.
          5    1    4    4  502    0  0.72600472682E+02  0.29548092218E+02  0.51635386663E+02  0.93979899676E+02  0.47000000000E+01 0. -1.
         -5    1    4    4    0  502 -0.31490675411E+02 -0.20019433708E+02  0.10096885183E+03  0.10774618046E+03  0.47000000000E+01 0. -1.
<mgrwt>
<rscale>  0 0.26432120E+03</rscale>
<asrwt>0</asrwt>
<pdfrwt beam="1">  1       21 0.51477035E-01 0.26432120E+03</pdfrwt>
<pdfrwt beam="2">  1       21 0.80308919E-02 0.26432120E+03</pdfrwt>
<totfact> 0.42079230E+05</totfact>
</mgrwt>
</event>
<event>
 8    1  0.9331162E-006  0.2608639E+03  0.7546771E-02  0.1106625E+00
         21   -1    0    0  504  503  0.00000000000E+00  0.00000000000E+00  0.64105512474E+03  0.64105512474E+03  0.00000000000E+00 0.  1.
         21   -1    0    0  503  504 -0.00000000000E+00 -0.00000000000E+00 -0.26538278059E+02  0.26538278059E+02  0.00000000000E+00 0.  1.
         25    2    1    2    0    0  0.57207069227E+01  0.21608866918E+02  0.38360174486E+03  0.40407021879E+03  0.12499109342E+03 0.  0.
         25    2    1    2    0    0 -0.57207069227E+01 -0.21608866918E+02  0.23091510182E+03  0.26352318401E+03  0.12499205833E+03 0.  0.
          5    1    3    3  501    0 -0.43441244532E+02  0.39224738404E+02  0.10256297581E+03  0.11818196071E+03  0.47000000000E+01 0.  1.
         -5    1    3    3    0  501  0.49161951455E+02 -0.17615871486E+02  0.28103876905E+03  0.28588825808E+03  0.47000000000E+01 0.  1.
          5    1    4    4  502    0 -0.62039425112E+02  0.56953555680E+01  0.13689517274E+03  0.15047825645E+03  0.47000000000E+01 0. -1.
         -5    1    4    4    0  502  0.56318718189E+02 -0.27304222486E+02  0.94019929074E+02  0.11304492756E+03  0.47000000000E+01 0. -1.
<mgrwt>
<rscale>  0 0.26086394E+03</rscale>
<asrwt>0</asrwt>
<pdfrwt beam="1">  1       21 0.98623853E-01 0.26086394E+03</pdfrwt>
<pdfrwt beam="2">  1       21 0.40828125E-02 0.26086394E+03</pdfrwt>
<totfact> 0.31519065E+05</totfact>
</mgrwt>
</event>
<event>
 8    1  0.9331162E-006  0.2846415E+03  0.7546771E-02  0.1093181E+00
         21   -1    0    0  504  503  0.00000000000E+00  0.00000000000E+00  0.10128920098E+04  0.10128920098E+04  0.00000000000E+00 0.  1.
         21   -1    0    0  503  504 -0.00000000000E+00 -0.00000000000E+00 -0.19997384363E+02  0.19997384363E+02  0.00000000000E+00 0.  1.
         25    2    1    2    0    0 -0.39440600531E+02  0.11454404940E+02  0.29960441744E+03  0.32722383732E+03  0.12500347354E+03 0.  0.
         25    2    1    2    0    0  0.39440600531E+02 -0.11454404940E+02  0.69329020804E+03  0.70566555688E+03  0.12500320496E+03 0.  0.
          5    1    3    3  501    0 -0.27870562139E+02  0.64939278343E+02  0.11929083579E+03  0.13873093242E+03  0.47000000000E+01 0.  1.
         -5    1    3    3    0  501 -0.11570038392E+02 -0.53484873402E+02  0.18031358165E+03  0.18849290490E+03  0.47000000000E+01 0.  1.
          5    1    4    4  502    0  0.64459298344E+02 -0.51131916063E+02  0.49753604401E+03  0.50431505934E+03  0.47000000000E+01 0. -1.
         -5    1    4    4    0  502 -0.25018697813E+02  0.39677511123E+02  0.19575416403E+03  0.20135049755E+03  0.47000000000E+01 0. -1.
<mgrwt>
<rscale>  0 0.28464146E+03</rscale>
<asrwt>0</asrwt>
<pdfrwt beam="1">  1       21 0.15582950E+00 0.28464146E+03</pdfrwt>
<pdfrwt beam="2">  1       21 0.30765215E-02 0.28464146E+03</pdfrwt>
<totfact> 0.15824291E+05</totfact>
</mgrwt>
</event>
<event>
 8    1  0.9331162E-006  0.2838723E+03  0.7546771E-02  0.1093593E+00
         21   -1    0    0  504  503  0.00000000000E+00  0.00000000000E+00  0.14842247046E+04  0.14842247046E+04  0.00000000000E+00 0.  1.
         21   -1    0    0  503  504 -0.00000000000E+00 -0.00000000000E+00 -0.13573328494E+02  0.13573328494E+02  0.00000000000E+00 0.  1.
         25    2    1    2    0    0 -0.73307544466E+01 -0.55750814982E+02  0.54058861670E+03  0.55769506583E+03  0.12500336240E+03 0.  0.
         25    2    1    2    0    0  0.73307544466E+01  0.55750814982E+02  0.93006275942E+03  0.94010296728E+03  0.12495983073E+03 0.  0.
          5    1    3    3  501    0  0.10123199518E+02 -0.78680749131E+02  0.50699861996E+03  0.51318888345E+03  0.47000000000E+01 0.  1.
         -5    1    3    3    0  501 -0.17453953964E+02  0.22929934149E+02  0.33589996733E+02  0.44506182375E+02  0.47000000000E+01 0.  1.
          5    1    4    4  502    0 -0.29581723713E+02 -0.26185537443E+02  0.16325779810E+03  0.16803558965E+03  0.47000000000E+01 0.  1.
         -5    1    4    4    0  502  0.36912478159E+02  0.81936352424E+02  0.76680496132E+03  0.77206737763E+03  0.47000000000E+01 0.  1.
<mgrwt>
<rscale>  0 0.28387229E+03</rscale>
<asrwt>0</asrwt>
<pdfrwt beam="1">  1       21 0.22834213E+00 0.28387229E+03</pdfrwt>
<pdfrwt beam="2">  1       21 0.20882056E-02 0.28387229E+03</pdfrwt>
<totfact> 0.97667499E+04</totfact>
</mgrwt>
</event>
<event>
 8    1  0.9331162E-006  0.2879778E+03  0.7546771E-02  0.1091410E+00
         21   -1    0    0  504  503  0.00000000000E+00  0.00000000000E+00  0.24466144403E+03  0.24466144403E+03  0.00000000000E+00 0. -1.
         21   -1    0    0  503  504 -0.00000000000E+00 -0.00000000000E+00 -0.84740762847E+02  0.84740762847E+02  0.00000000000E+00 0. -1.
         25    2    1    2    0    0 -0.47298150920E+02  0.53579368588E+02  0.80275811532E+02  0.16485420025E+03  0.12499935041E+03 0.  0.
         25    2    1    2    0    0  0.47298150920E+02 -0.53579368588E+02  0.79644869650E+02  0.16454800663E+03  0.12499950962E+03 0.  0.
          5    1    3    3  501    0 -0.76482361316E+02  0.45026191701E+02  0.11639646881E+02  0.89635266001E+02  0.47000000000E+01 0. -1.
         -5    1    3    3    0  501  0.29184210396E+02  0.85531768874E+01  0.68636164651E+02  0.75218934247E+02  0.47000000000E+01 0. -1.
          5    1    4    4  502    0  0.46009766942E+02 -0.10654645807E+02 -0.23325311648E+02  0.52882703172E+02  0.47000000000E+01 0. -1.
         -5    1    4    4    0  502  0.12883839784E+01 -0.42924722781E+02  0.10297018130E+03  0.11166530345E+03  0.47000000000E+01 0. -1.
<mgrwt>
<rscale>  0 0.28797776E+03</rscale>
<asrwt>0</asrwt>
<pdfrwt beam="1">  1       21 0.37640222E-01 0.28797776E+03</pdfrwt>
<pdfrwt beam="2">  1       21 0.13037041E-01 0.28797776E+03</pdfrwt>
<totfact> 0.33694690E+05</totfact>
</mgrwt>
</event>
<event>
 8    1  0.9331162E-006  0.2549796E+03  0.7546771E-02  0.1110198E+00
         21   -1    0    0  504  503  0.00000000000E+00  0.00000000000E+00  0.35566154294E+02  0.35566154294E+02  0.00000000000E+00 0.  1.
         21   -1    0    0  503  504 -0.00000000000E+00 -0.00000000000E+00 -0.45699770334E+03  0.45699770334E+03  0.00000000000E+00 0.  1.
         25    2    1    2    0    0  0.13499256647E+02  0.14246357846E+02 -0.18059084095E+03  0.22050798454E+03  0.12500212307E+03 0.  0.
         25    2    1    2    0    0 -0.13499256647E+02 -0.14246357846E+02 -0.24084070810E+03  0.27205587309E+03  0.12499985105E+03 0.  0.
          5    1    3    3  501    0 -0.45864849215E+02  0.23785740771E+02 -0.34084387155E+02  0.62073998625E+02  0.47000000000E+01 0. -1.
         -5    1    3    3    0  501  0.59364105863E+02 -0.95393829250E+01 -0.14650645379E+03  0.15843398592E+03  0.47000000000E+01 0. -1.
          5    1    4    4  502    0 -0.59992429619E+02 -0.19584363964E+02 -0.19997271230E+03  0.20974702522E+03  0.47000000000E+01 0.  1.
         -5    1    4    4    0  502  0.46493172972E+02  0.53380061177E+01 -0.40867995798E+02  0.62308847869E+02  0.47000000000E+01 0.  1.
<mgrwt>
<rscale>  0 0.25497961E+03</rscale>
<asrwt>0</asrwt>
<pdfrwt beam="1">  1       21 0.54717166E-02 0.25497961E+03</pdfrwt>
<pdfrwt beam="2">  1       21 0.70307332E-01 0.25497961E+03</pdfrwt>
<totfact> 0.41744664E+05</totfact>
</mgrwt>
</event>
<event>
 8    1  0.9331162E-006  0.2567074E+03  0.7546771E-02  0.1109138E+00
         21   -1    0    0  504  503  0.00000000000E+00  0.00000000000E+00  0.11203213016E+04  0.11203213016E+04  0.00000000000E+00 0.  1.
         21   -1    0    0  503  504 -0.00000000000E+00 -0.00000000000E+00 -0.14705312350E+02  0.14705312350E+02  0.00000000000E+00 0.  1.
         25    2    1    2    0    0 -0.25096158731E+02  0.43165468720E+01  0.61534520906E+03  0.62843050711E+03  0.12500690457E+03 0.  0.
         25    2    1    2    0    0  0.25096158731E+02 -0.43165468720E+01  0.49027078022E+03  0.50659610688E+03  0.12500291117E+03 0.  0.
          5    1    3    3  501    0 -0.72299164611E+02  0.19549157234E+02  0.30406572649E+03  0.31318907193E+03  0.47000000000E+01 0.  1.
         -5    1    3    3    0  501  0.47203005880E+02 -0.15232610362E+02  0.31127948257E+03  0.31524143518E+03  0.47000000000E+01 0.  1.
          5    1    4    4  502    0  0.40014093628E+02  0.48493020266E+02  0.35478765010E+03  0.36034576086E+03  0.47000000000E+01 0. -1.
         -5    1    4    4    0  502 -0.14917934897E+02 -0.52809567138E+02  0.13548313012E+03  0.14625034602E+03  0.47000000000E+01 0. -1.
<mgrwt>
<rscale>  0 0.25670742E+03</rscale>
<asrwt>0</asrwt>
<pdfrwt beam="1">  1       21 0.17235706E+00 0.25670742E+03</pdfrwt>
<pdfrwt beam="2">  1       21 0.22623566E-02 0.25670742E+03</pdfrwt>
<totfact> 0.20142965E+05</totfact>
</mgrwt>
</event>
<event>
 8    1  0.9331162E-006  0.3376617E+03  0.7546771E-02  0.1067796E+00
         21   -1    0    0  504  503  0.00000000000E+00  0.00000000000E+00  0.14141653810E+03  0.14141653810E+03  0.00000000000E+00 0. -1.
         21   -1    0    0  503  504 -0.00000000000E+00 -0.00000000000E+00 -0.20155955879E+03  0.20155955879E+03  0.00000000000E+00 0. -1.
         25    2    1    2    0    0  0.99343332944E+02 -0.24935668164E+02 -0.79708431949E+02  0.18019182156E+03  0.12499909234E+03 0.  0.
         25    2    1    2    0    0 -0.99343332944E+02  0.24935668164E+02  0.19565411254E+02  0.16278427533E+03  0.12500011852E+03 0.  0.
          5    1    3    3  501    0 -0.12992797045E+01 -0.76302132322E+01  0.29348070286E+02  0.30713311629E+02  0.47000000000E+01 0.  1.
         -5    1    3    3    0  501  0.10064261265E+03 -0.17305454932E+02 -0.10905650223E+03  0.14947850993E+03  0.47000000000E+01 0.  1.
          5    1    4    4  502    0 -0.42834246934E+02  0.74126500438E+02  0.18473430252E+02  0.87708998414E+02  0.47000000000E+01 0. -1.
         -5    1    4    4    0  502 -0.56509086010E+02 -0.49190832274E+02  0.10919810020E+01  0.75075276916E+02  0.47000000000E+01 0. -1.
<mgrwt>
<rscale>  0 0.33766169E+03</rscale>
<asrwt>0</asrwt>
<pdfrwt beam="1">  1       21 0.21756390E-01 0.33766169E+03</pdfrwt>
<pdfrwt beam="2">  1       21 0.31009163E-01 0.33766169E+03</pdfrwt>
<totfact> 0.18970538E+05</totfact>
</mgrwt>
</event>
<event>
 8    1  0.9331162E-006  0.4927871E+03  0.7546771E-02  0.1015679E+00
         21   -1    0    0  504  503  0.00000000000E+00  0.00000000000E+00  0.12572960319E+04  0.12572960319E+04  0.00000000000E+00 0. -1.
         21   -1    0    0  503  504 -0.00000000000E+00 -0.00000000000E+00 -0.48285994220E+02  0.48285994220E+02  0.00000000000E+00 0. -1.
         25    2    1    2    0    0  0.12186061001E+03 -0.16534788316E+03  0.74705702058E+03  0.78479850258E+03  0.12499826766E+03 0.  0.
         25    2    1    2    0    0 -0.12186061001E+03  0.16534788316E+03  0.46195301713E+03  0.52078352357E+03  0.12499983059E+03 0.  0.
          5    1    3    3  501    0  0.24134912463E+02  0.19389061349E+02  0.10465102436E+03  0.10923532670E+03  0.47000000000E+01 0.  1.
         -5    1    3    3    0  501  0.97725697549E+02 -0.18473694451E+03  0.64240599622E+03  0.67556317588E+03  0.47000000000E+01 0.  1.
          5    1    4    4  502    0 -0.51806998174E+02  0.14604744113E+03  0.22765860728E+03  0.27543484091E+03  0.47000000000E+01 0.  1.
         -5    1    4    4    0  502 -0.70053611837E+02  0.19300442031E+02  0.23429440985E+03  0.24534868266E+03  0.47000000000E+01 0.  1.
<mgrwt>
<rscale>  0 0.49278713E+03</rscale>
<asrwt>0</asrwt>
<pdfrwt beam="1">  1       21 0.19343013E+00 0.49278713E+03</pdfrwt>
<pdfrwt beam="2">  1       21 0.74286154E-02 0.49278713E+03</pdfrwt>
<totfact> 0.17586747E+04</totfact>
</mgrwt>
</event>
<event>
 8    1  0.9331162E-006  0.2826291E+03  0.7546771E-02  0.1094262E+00
         21   -1    0    0  504  503  0.00000000000E+00  0.00000000000E+00  0.17035756925E+02  0.17035756925E+02  0.00000000000E+00 0.  1.
         21   -1    0    0  503  504 -0.00000000000E+00 -0.00000000000E+00 -0.11722288900E+04  0.11722288900E+04  0.00000000000E+00 0.  1.
         25    2    1    2    0    0  0.43209243729E+02 -0.48677057350E+02 -0.62170430684E+03  0.63747375509E+03  0.12498019298E+03 0.  0.
         25    2    1    2    0    0 -0.43209243729E+02  0.48677057350E+02 -0.53348882621E+03  0.55179089180E+03  0.12500546361E+03 0.  0.
          5    1    3    3  501    0  0.17989425237E+02 -0.45425708592E+02 -0.71869535844E+02  0.87031227751E+02  0.47000000000E+01 0. -1.
         -5    1    3    3    0  501  0.25219818492E+02 -0.32513487584E+01 -0.54983477099E+03  0.55044252734E+03  0.47000000000E+01 0. -1.
          5    1    4    4  502    0 -0.41447799483E+02  0.80888451883E+02 -0.48431701743E+03  0.49279399864E+03  0.47000000000E+01 0. -1.
         -5    1    4    4    0  502 -0.17614442465E+01 -0.32211394533E+02 -0.49171808779E+02  0.58996893158E+02  0.47000000000E+01 0. -1.
<mgrwt>
<rscale>  0 0.28262913E+03</rscale>
<asrwt>0</asrwt>
<pdfrwt beam="1">  1       21 0.26208851E-02 0.28262913E+03</pdfrwt>
<pdfrwt beam="2">  1       21 0.18034295E+00 0.28262913E+03</pdfrwt>
<totfact> 0.13760157E+05</totfact>
</mgrwt>
</event>
<event>
 8    1  0.9331162E-006  0.4117948E+03  0.7546771E-02  0.1039770E+00
         21   -1    0    0  504  503  0.00000000000E+00  0.00000000000E+00  0.43413967546E+03  0.43413967546E+03  0.00000000000E+00 0. -1.
         21   -1    0    0  503  504 -0.00000000000E+00 -0.00000000000E+00 -0.97650008511E+02  0.97650008511E+02  0.00000000000E+00 0. -1.
         25    2    1    2    0    0 -0.20792508861E+01 -0.98511007606E+01  0.37913222627E+03  0.39933406035E+03  0.12500031715E+03 0.  0.
         25    2    1    2    0    0  0.20792508861E+01  0.98511007606E+01 -0.42642559326E+02  0.13245562362E+03  0.12499894756E+03 0.  0.
          5    1    3    3  501    0 -0.30159155394E+02 -0.50627320472E+01  0.36652907213E+03  0.36783264759E+03  0.47000000000E+01 0. -1.
         -5    1    3    3    0  501  0.28079904508E+02 -0.47883687134E+01  0.12603154139E+02  0.31501412767E+02  0.47000000000E+01 0. -1.
          5    1    4    4  502    0  0.23671055273E+02  0.57584300996E+02 -0.49141181905E+02  0.79455750817E+02  0.47000000000E+01 0. -1.
         -5    1    4    4    0  502 -0.21591804387E+02 -0.47733200235E+02  0.64986225784E+01  0.52999872800E+02  0.47000000000E+01 0. -1.
<mgrwt>
<rscale>  0 0.41179482E+03</rscale>
<asrwt>0</asrwt>
<pdfrwt beam="1">  1       21 0.66790718E-01 0.41179482E+03</pdfrwt>
<pdfrwt beam="2">  1       21 0.15023078E-01 0.41179482E+03</pdfrwt>
<totfact> 0.75071476E+04</totfact>
</mgrwt>
</event>
<event>
 8    1  0.9331162E-006  0.6278249E+03  0.7546771E-02  0.9849303E-01
         21   -1    0    0  504  503  0.00000000000E+00  0.00000000000E+00  0.59890268443E+03  0.59890268443E+03  0.00000000000E+00 0.  1.
         21   -1    0    0  503  504 -0.00000000000E+00 -0.00000000000E+00 -0.16453594096E+03  0.16453594096E+03  0.00000000000E+00 0.  1.
         25    2    1    2    0    0  0.18347897091E+02  0.98553581414E+02  0.54542843597E+03  0.56847783522E+03  0.12500166655E+03 0.  0.
         25    2    1    2    0    0 -0.18347897091E+02 -0.98553581414E+02 -0.11106169250E+03  0.19496079017E+03  0.12500222568E+03 0.  0.
          5    1    3    3  501    0  0.30799658739E+01  0.29227731004E+02  0.15054547075E+02  0.33353797941E+02  0.47000000000E+01 0. -1.
         -5    1    3    3    0  501  0.15267931218E+02  0.69325850410E+02  0.53037388889E+03  0.53512403728E+03  0.47000000000E+01 0. -1.
          5    1    4    4  502    0 -0.42835581321E+02 -0.11954501471E+03 -0.81550515695E+02  0.15099163613E+03  0.47000000000E+01 0. -1.
         -5    1    4    4    0  502  0.24487684230E+02  0.20991433298E+02 -0.29511176807E+02  0.43969154044E+02  0.47000000000E+01 0. -1.
<mgrwt>
<rscale>  0 0.62782487E+03</rscale>
<asrwt>0</asrwt>
<pdfrwt beam="1">  1       21 0.92138873E-01 0.62782487E+03</pdfrwt>
<pdfrwt beam="2">  1       21 0.25313222E-01 0.62782487E+03</pdfrwt>
<totfact> 0.12625121E+04</totfact>
</mgrwt>
</event>
<event>
 8    1  0.9331162E-006  0.3108875E+03  0.7546771E-02  0.1079921E+00
         21   -1    0    0  504  503  0.00000000000E+00  0.00000000000E+00  0.59257207404E+03  0.59257207404E+03  0.00000000000E+00 0.  1.
         21   -1    0    0  503  504 -0.00000000000E+00 -0.00000000000E+00 -0.40776073708E+02  0.40776073708E+02  0.00000000000E+00 0.  1.
         25    2    1    2    0    0  0.16025145838E+02  0.37096132506E+02  0.44518098029E+03  0.46415699251E+03  0.12499072021E+03 0.  0.
         25    2    1    2    0    0 -0.16025145838E+02 -0.37096132506E+02  0.10661502004E+03  0.16919115524E+03  0.12500382460E+03 0.  0.
          5    1    3    3  501    0 -0.17142699531E+02  0.77114807869E+02  0.27346041552E+03  0.28468096985E+03  0.47000000000E+01 0.  1.
         -5    1    3    3    0  501  0.33167845369E+02 -0.40018675364E+02  0.17172056477E+03  0.17947602266E+03  0.47000000000E+01 0.  1.
          5    1    4    4  502    0 -0.10600872994E+02 -0.62834280790E+02  0.12245946529E+03  0.13812652167E+03  0.47000000000E+01 0.  1.
         -5    1    4    4    0  502 -0.54242728443E+01  0.25738148284E+02 -0.15844445251E+02  0.31064633561E+02  0.47000000000E+01 0.  1.
<mgrwt>
<rscale>  0 0.31088752E+03</rscale>
<asrwt>0</asrwt>
<pdfrwt beam="1">  1       21 0.91164928E-01 0.31088752E+03</pdfrwt>
<pdfrwt beam="2">  1       21 0.62732425E-02 0.31088752E+03</pdfrwt>
<totfact> 0.17986771E+05</totfact>
</mgrwt>
</event>
<event>
 8    1  0.9331162E-006  0.3521840E+03  0.7546771E-02  0.1061722E+00
         21   -1    0    0  504  503  0.00000000000E+00  0.00000000000E+00  0.31943909735E+02  0.31943909735E+02  0.00000000000E+00 0.  1.
         21   -1    0    0  503  504 -0.00000000000E+00 -0.00000000000E+00 -0.97071353308E+03  0.97071353308E+03  0.00000000000E+00 0.  1.
         25    2    1    2    0    0  0.51103438923E+02  0.55093471062E+01 -0.14799895208E+03  0.20041995871E+03  0.12499022224E+03 0.  0.
         25    2    1    2    0    0 -0.51103438923E+02 -0.55093471062E+01 -0.79077067126E+03  0.80223748410E+03  0.12499924799E+03 0.  0.
          5    1    3    3  501    0  0.67521492309E+02  0.20485193802E+02 -0.24486453029E+02  0.74836297816E+02  0.47000000000E+01 0.  1.
         -5    1    3    3    0  501 -0.16418053386E+02 -0.14975846696E+02 -0.12351249905E+03  0.12558366089E+03  0.47000000000E+01 0.  1.
          5    1    4    4  502    0 -0.76725633416E+02  0.20336727101E+02 -0.69734100750E+03  0.70185965551E+03  0.47000000000E+01 0. -1.
         -5    1    4    4    0  502  0.25622194493E+02 -0.25846074207E+02 -0.93429663761E+02  0.10037782859E+03  0.47000000000E+01 0. -1.
<mgrwt>
<rscale>  0 0.35218396E+03</rscale>
<asrwt>0</asrwt>
<pdfrwt beam="1">  1       21 0.49144484E-02 0.35218396E+03</pdfrwt>
<pdfrwt beam="2">  1       21 0.14934052E+00 0.35218396E+03</pdfrwt>
<totfact> 0.78664755E+04</totfact>
</mgrwt>
</event>
<event>
 8    1  0.9331162E-006  0.2521867E+03  0.7546771E-02  0.1111931E+00
         21   -1    0    0  504  503  0.00000000000E+00  0.00000000000E+00  0.20866901091E+03  0.20866901091E+03  0.00000000000E+00 0. -1.
         21   -1    0    0  503  504 -0.00000000000E+00 -0.00000000000E+00 -0.76194971302E+02  0.76194971302E+02  0.00000000000E+00 0. -1.
         25    2    1    2    0    0  0.15200616000E+02  0.56610195852E+01  0.62173661206E+02  0.14054790142E+03  0.12500017030E+03 0.  0.
         25    2    1    2    0    0 -0.15200616000E+02 -0.56610195852E+01  0.70300378405E+02  0.14431608080E+03  0.12498752779E+03 0.  0.
          5    1    3    3  501    0 -0.23592108467E+02  0.12082243524E+02  0.88824878025E+02  0.92814423161E+02  0.47000000000E+01 0. -1.
         -5    1    3    3    0  501  0.38792724467E+02 -0.64212239386E+01 -0.26651216819E+02  0.47733478256E+02  0.47000000000E+01 0. -1.
          5    1    4    4  502    0 -0.39027232001E+02  0.31154483966E+02 -0.11431134059E+02  0.51444023314E+02  0.47000000000E+01 0.  1.
         -5    1    4    4    0  502  0.23826616001E+02 -0.36815503551E+02  0.81731512464E+02  0.92872057484E+02  0.47000000000E+01 0.  1.
<mgrwt>
<rscale>  0 0.25218667E+03</rscale>
<asrwt>0</asrwt>
<pdfrwt beam="1">  1       21 0.32102924E-01 0.25218667E+03</pdfrwt>
<pdfrwt beam="2">  1       21 0.11722303E-01 0.25218667E+03</pdfrwt>
<totfact> 0.56487723E+05</totfact>
</mgrwt>
</event>
<event>
 8    1  0.9331162E-006  0.2685414E+03  0.7546771E-02  0.1102117E+00
         21   -1    0    0  504  503  0.00000000000E+00  0.00000000000E+00  0.34007724234E+03  0.34007724234E+03  0.00000000000E+00 0. -1.
         21   -1    0    0  503  504 -0.00000000000E+00 -0.00000000000E+00 -0.53013311899E+02  0.53013311899E+02  0.00000000000E+00 0. -1.
         25    2    1    2    0    0 -0.17295316767E+02  0.23611918586E+02  0.85865228804E+02  0.15442902257E+03  0.12497533682E+03 0.  0.
         25    2    1    2    0    0  0.17295316767E+02 -0.23611918586E+02  0.20119870163E+03  0.23866153166E+03  0.12498703323E+03 0.  0.
          5    1    3    3  501    0 -0.11444679137E+02  0.28119763809E+02 -0.27195960864E+02  0.41029405121E+02  0.47000000000E+01 0.  1.
         -5    1    3    3    0  501 -0.58506376295E+01 -0.45078452235E+01  0.11306118967E+03  0.11339961745E+03  0.47000000000E+01 0.  1.
          5    1    4    4  502    0 -0.21917788416E+02 -0.66192704945E+02  0.11927268874E+03  0.13823866288E+03  0.47000000000E+01 0. -1.
         -5    1    4    4    0  502  0.39213105183E+02  0.42580786360E+02  0.81926012898E+02  0.10042286878E+03  0.47000000000E+01 0. -1.
<mgrwt>
<rscale>  0 0.26854140E+03</rscale>
<asrwt>0</asrwt>
<pdfrwt beam="1">  1       21 0.52319574E-01 0.26854140E+03</pdfrwt>
<pdfrwt beam="2">  1       21 0.81558944E-02 0.26854140E+03</pdfrwt>
<totfact> 0.39540364E+05</totfact>
</mgrwt>
</event>
<event>
 8    1  0.9331162E-006  0.2739638E+03  0.7546771E-02  0.1099032E+00
         21   -1    0    0  504  503  0.00000000000E+00  0.00000000000E+00  0.15692611856E+03  0.15692611856E+03  0.00000000000E+00 0.  1.
         21   -1    0    0  503  504 -0.00000000000E+00 -0.00000000000E+00 -0.11957244541E+03  0.11957244541E+03  0.00000000000E+00 0.  1.
         25    2    1    2    0    0  0.17685116959E+02 -0.23539708023E+02  0.66792001049E+02  0.14474805770E+03  0.12499579029E+03 0.  0.
         25    2    1    2    0    0 -0.17685116959E+02  0.23539708023E+02 -0.29438327908E+02  0.13175050627E+03  0.12499879814E+03 0.  0.
          5    1    3    3  501    0  0.64542199974E+02 -0.73601905601E-02  0.70119086409E+01  0.65091877331E+02  0.47000000000E+01 0.  1.
         -5    1    3    3    0  501 -0.46857083015E+02 -0.23532347833E+02  0.59780092408E+02  0.79656180372E+02  0.47000000000E+01 0.  1.
          5    1    4    4  502    0  0.34437252340E+02 -0.61323648948E+01  0.30633424636E+02  0.46733574151E+02  0.47000000000E+01 0. -1.
         -5    1    4    4    0  502 -0.52122369299E+02  0.29672072918E+02 -0.60071752544E+02  0.85016932116E+02  0.47000000000E+01 0. -1.
<mgrwt>
<rscale>  0 0.27396379E+03</rscale>
<asrwt>0</asrwt>
<pdfrwt beam="1">  1       21 0.24142480E-01 0.27396379E+03</pdfrwt>
<pdfrwt beam="2">  1       21 0.18395761E-01 0.27396379E+03</pdfrwt>
<totfact> 0.42941879E+05</totfact>
</mgrwt>
</event>
<event>
 8    1  0.9331162E-006  0.3519858E+03  0.7546771E-02  0.1061803E+00
         21   -1    0    0  504  503  0.00000000000E+00  0.00000000000E+00  0.56701374812E+03  0.56701374812E+03  0.00000000000E+00 0. -1.
         21   -1    0    0  503  504 -0.00000000000E+00 -0.00000000000E+00 -0.54625650525E+02  0.54625650525E+02  0.00000000000E+00 0. -1.
         25    2    1    2    0    0 -0.42152296827E+02  0.11630324286E+03  0.24430964840E+03  0.30102545574E+03  0.12500344106E+03 0.  0.
         25    2    1    2    0    0  0.42152296827E+02 -0.11630324286E+03  0.26807844919E+03  0.32061394290E+03  0.12499594007E+03 0.  0.
          5    1    3    3  501    0 -0.57289323436E+02  0.12071412187E+03  0.13328380681E+03  0.18878725846E+03  0.47000000000E+01 0. -1.
         -5    1    3    3    0  501  0.15137026609E+02 -0.44108790157E+01  0.11102584159E+03  0.11223819728E+03  0.47000000000E+01 0. -1.
          5    1    4    4  502    0  0.46142226537E+02 -0.70179505377E+02  0.50500654860E+02  0.98115616423E+02  0.47000000000E+01 0. -1.
         -5    1    4    4    0  502 -0.39899297097E+01 -0.46123737481E+02  0.21757779433E+03  0.22249832647E+03  0.47000000000E+01 0. -1.
<mgrwt>
<rscale>  0 0.35198577E+03</rscale>
<asrwt>0</asrwt>
<pdfrwt beam="1">  1       21 0.87232880E-01 0.35198577E+03</pdfrwt>
<pdfrwt beam="2">  1       21 0.84039466E-02 0.35198577E+03</pdfrwt>
<totfact> 0.11835014E+05</totfact>
</mgrwt>
</event>
<event>
 8    1  0.9331162E-006  0.3651681E+03  0.7546771E-02  0.1056556E+00
         21   -1    0    0  504  503  0.00000000000E+00  0.00000000000E+00  0.40332749059E+03  0.40332749059E+03  0.00000000000E+00 0.  1.
         21   -1    0    0  503  504 -0.00000000000E+00 -0.00000000000E+00 -0.82654749139E+02  0.82654749139E+02  0.00000000000E+00 0.  1.
         25    2    1    2    0    0 -0.92145456226E+02  0.55893178633E+02  0.26425791477E+03  0.31156350725E+03  0.12499896405E+03 0.  0.
         25    2    1    2    0    0  0.92145456226E+02 -0.55893178633E+02  0.56414826684E+02  0.17441873248E+03  0.12499771617E+03 0.  0.
          5    1    3    3  501    0 -0.55872396475E+01  0.23036473914E+02  0.19334022721E+03  0.19484462998E+03  0.47000000000E+01 0.  1.
         -5    1    3    3    0  501 -0.86558216578E+02  0.32856704719E+02  0.70917687564E+02  0.11671887727E+03  0.47000000000E+01 0.  1.
          5    1    4    4  502    0  0.11094864382E+03 -0.58033101294E+01  0.41326393466E+02  0.11863069068E+03  0.47000000000E+01 0. -1.
         -5    1    4    4    0  502 -0.18803187597E+02 -0.50089868504E+02  0.15088433218E+02  0.55788041797E+02  0.47000000000E+01 0. -1.
<mgrwt>
<rscale>  0 0.36516808E+03</rscale>
<asrwt>0</asrwt>
<pdfrwt beam="1">  1       21 0.62050382E-01 0.36516808E+03</pdfrwt>
<pdfrwt beam="2">  1       21 0.12716116E-01 0.36516808E+03</pdfrwt>
<totfact> 0.12124263E+05</totfact>
</mgrwt>
</event>
<event>
 8    1  0.9331162E-006  0.4193392E+03  0.7546771E-02  0.1037282E+00
         21   -1    0    0  504  503  0.00000000000E+00  0.00000000000E+00  0.16108972820E+03  0.16108972820E+03  0.00000000000E+00 0.  1.
         21   -1    0    0  503  504 -0.00000000000E+00 -0.00000000000E+00 -0.27289973191E+03  0.27289973191E+03  0.00000000000E+00 0.  1.
         25    2    1    2    0    0 -0.11913067637E+03 -0.18522350514E+02 -0.17748523992E+03  0.24831745780E+03  0.12500141575E+03 0.  0.
         25    2    1    2    0    0  0.11913067637E+03  0.18522350514E+02  0.65675236215E+02  0.18567200231E+03  0.12500264104E+03 0.  0.
          5    1    3    3  501    0 -0.59847503304E+02 -0.71884890691E+02 -0.91319522826E+02  0.13080713440E+03  0.47000000000E+01 0.  1.
         -5    1    3    3    0  501 -0.59283173064E+02  0.53362540177E+02 -0.86165717095E+02  0.11751032340E+03  0.47000000000E+01 0.  1.
          5    1    4    4  502    0  0.69119904207E+01 -0.21879565173E+02  0.61973746213E+02  0.66251990185E+02  0.47000000000E+01 0.  1.
         -5    1    4    4    0  502  0.11221868595E+03  0.40401915687E+02  0.37014900013E+01  0.11942001212E+03  0.47000000000E+01 0.  1.
<mgrwt>
<rscale>  0 0.41933921E+03</rscale>
<asrwt>0</asrwt>
<pdfrwt beam="1">  1       21 0.24783035E-01 0.41933921E+03</pdfrwt>
<pdfrwt beam="2">  1       21 0.41984574E-01 0.41933921E+03</pdfrwt>
<totfact> 0.78600612E+04</totfact>
</mgrwt>
</event>
<event>
 8    1  0.9331162E-006  0.2911427E+03  0.7546771E-02  0.1089754E+00
         21   -1    0    0  504  503  0.00000000000E+00  0.00000000000E+00  0.13533932685E+03  0.13533932685E+03  0.00000000000E+00 0.  1.
         21   -1    0    0  503  504 -0.00000000000E+00 -0.00000000000E+00 -0.15657691306E+03  0.15657691306E+03  0.00000000000E+00 0.  1.
         25    2    1    2    0    0  0.68129909878E+02 -0.20285166569E+02 -0.33284693085E+02  0.14760194177E+03  0.12500115926E+03 0.  0.
         25    2    1    2    0    0 -0.68129909878E+02  0.20285166569E+02  0.12047106873E+02  0.14431429814E+03  0.12501324434E+03 0.  0.
          5    1    3    3  501    0  0.79834974569E+01 -0.55408492568E+02 -0.50678177835E+02  0.75658475989E+02  0.47000000000E+01 0.  1.
         -5    1    3    3    0  501  0.60146412421E+02  0.35123325999E+02  0.17393484751E+02  0.71943465777E+02  0.47000000000E+01 0.  1.
          5    1    4    4  502    0 -0.23181466986E+01 -0.30461462076E+02  0.45166251261E+02  0.54729833993E+02  0.47000000000E+01 0.  1.
         -5    1    4    4    0  502 -0.65811763179E+02  0.50746628645E+02 -0.33119144388E+02  0.89584464148E+02  0.47000000000E+01 0.  1.
<mgrwt>
<rscale>  0 0.29114267E+03</rscale>
<asrwt>0</asrwt>
<pdfrwt beam="1">  1       21 0.20821435E-01 0.29114267E+03</pdfrwt>
<pdfrwt beam="2">  1       21 0.24088756E-01 0.29114267E+03</pdfrwt>
<totfact> 0.34056853E+05</totfact>
</mgrwt>
</event>
<event>
 8    1  0.9331162E-006  0.2863922E+03  0.7546771E-02  0.1092248E+00
         21   -1    0    0  504  503  0.00000000000E+00  0.00000000000E+00  0.67057443553E+03  0.67057443553E+03  0.00000000000E+00 0. -1.
         21   -1    0    0  503  504 -0.00000000000E+00 -0.00000000000E+00 -0.30578454080E+02  0.30578454080E+02  0.00000000000E+00 0. -1.
         25    2    1    2    0    0  0.37870652504E+02  0.44309747597E+02  0.22572975996E+03  0.26452979721E+03  0.12499819611E+03 0.  0.
         25    2    1    2    0    0 -0.37870652504E+02 -0.44309747597E+02  0.41426622150E+03  0.43662309240E+03  0.12500272994E+03 0.  0.
          5    1    3    3  501    0  0.77448516163E+02  0.13828490970E+02  0.88980757991E+02  0.11886616470E+03  0.47000000000E+01 0. -1.
         -5    1    3    3    0  501 -0.39577863659E+02  0.30481256627E+02  0.13674900196E+03  0.14566363251E+03  0.47000000000E+01 0. -1.
          5    1    4    4  502    0 -0.74844667284E+02 -0.63319882623E+01  0.31638680433E+03  0.32521457263E+03  0.47000000000E+01 0. -1.
         -5    1    4    4    0  502  0.36974014780E+02 -0.37977759335E+02  0.97879417166E+02  0.11140851977E+03  0.47000000000E+01 0. -1.
<mgrwt>
<rscale>  0 0.28639225E+03</rscale>
<asrwt>0</asrwt>
<pdfrwt beam="1">  1       21 0.10316529E+00 0.28639225E+03</pdfrwt>
<pdfrwt beam="2">  1       21 0.47043781E-02 0.28639225E+03</pdfrwt>
<totfact> 0.22098550E+05</totfact>
</mgrwt>
</event>
<event>
 8    1  0.9331162E-006  0.2827268E+03  0.7546771E-02  0.1094209E+00
         21   -1    0    0  504  503  0.00000000000E+00  0.00000000000E+00  0.16204298425E+03  0.16204298425E+03  0.00000000000E+00 0.  1.
         21   -1    0    0  503  504 -0.00000000000E+00 -0.00000000000E+00 -0.12332285733E+03  0.12332285733E+03  0.00000000000E+00 0.  1.
         25    2    1    2    0    0  0.36415934432E+01 -0.23637653824E+02 -0.42730769545E+02  0.13426390634E+03  0.12501551104E+03 0.  0.
         25    2    1    2    0    0 -0.36415934432E+01  0.23637653824E+02  0.81450896469E+02  0.15110193524E+03  0.12500218564E+03 0.  0.
          5    1    3    3  501    0  0.33795539117E+02 -0.66198929691E+02 -0.19596752115E+02  0.77010125632E+02  0.47000000000E+01 0.  1.
         -5    1    3    3    0  501 -0.30153945674E+02  0.42561275867E+02 -0.23134017430E+02  0.57253780710E+02  0.47000000000E+01 0.  1.
          5    1    4    4  502    0 -0.22196822012E+02 -0.24875696192E+02 -0.18460623301E+02  0.38397705415E+02  0.47000000000E+01 0. -1.
         -5    1    4    4    0  502  0.18555228569E+02  0.48513350016E+02  0.99911519770E+02  0.11270422982E+03  0.47000000000E+01 0. -1.
<mgrwt>
<rscale>  0 0.28272675E+03</rscale>
<asrwt>0</asrwt>
<pdfrwt beam="1">  1       21 0.24929690E-01 0.28272675E+03</pdfrwt>
<pdfrwt beam="2">  1       21 0.18972747E-01 0.28272675E+03</pdfrwt>
<totfact> 0.38046577E+05</totfact>
</mgrwt>
</event>
<event>
 8    1  0.9331162E-006  0.3127647E+03  0.7546771E-02  0.1079028E+00
         21   -1    0    0  504  503  0.00000000000E+00  0.00000000000E+00  0.72605651429E+02  0.72605651429E+02  0.00000000000E+00 0. -1.
         21   -1    0    0  503  504 -0.00000000000E+00 -0.00000000000E+00 -0.33682552581E+03  0.33682552581E+03  0.00000000000E+00 0. -1.
         25    2    1    2    0    0 -0.31857971248E+02 -0.70688365636E+02 -0.62582572360E+02  0.15985130105E+03  0.12499633882E+03 0.  0.
         25    2    1    2    0    0  0.31857971248E+02  0.70688365636E+02 -0.20163730202E+03  0.24957987618E+03  0.12498294948E+03 0.  0.
          5    1    3    3  501    0  0.35662629465E+02  0.83254384601E+01 -0.37924744697E+02  0.52929314432E+02  0.47000000000E+01 0. -1.
         -5    1    3    3    0  501 -0.67520600713E+02 -0.79013804096E+02 -0.24657827663E+02  0.10692198662E+03  0.47000000000E+01 0. -1.
          5    1    4    4  502    0  0.64853390583E+02  0.21167035684E+02 -0.44756648673E+02  0.81726698638E+02  0.47000000000E+01 0. -1.
         -5    1    4    4    0  502 -0.32995419335E+02  0.49521329952E+02 -0.15688065335E+03  0.16785317755E+03  0.47000000000E+01 0. -1.
<mgrwt>
<rscale>  0 0.31276468E+03</rscale>
<asrwt>0</asrwt>
<pdfrwt beam="1">  1       21 0.11170100E-01 0.31276468E+03</pdfrwt>
<pdfrwt beam="2">  1       21 0.51819312E-01 0.31276468E+03</pdfrwt>
<totfact> 0.22868270E+05</totfact>
</mgrwt>
</event>
<event>
 8    1  0.9331162E-006  0.2708782E+03  0.7546771E-02  0.1100778E+00
         21   -1    0    0  504  503  0.00000000000E+00  0.00000000000E+00  0.30632480957E+02  0.30632480957E+02  0.00000000000E+00 0. -1.
         21   -1    0    0  503  504 -0.00000000000E+00 -0.00000000000E+00 -0.59883308886E+03  0.59883308886E+03  0.00000000000E+00 0. -1.
         25    2    1    2    0    0 -0.16270530026E+02 -0.48559170014E+02 -0.30642025373E+03  0.33487416072E+03  0.12499843390E+03 0.  0.
         25    2    1    2    0    0  0.16270530026E+02  0.48559170014E+02 -0.26178035417E+03  0.29459140911E+03  0.12502968186E+03 0.  0.
          5    1    3    3  501    0 -0.68607749640E+02 -0.38656428437E+02 -0.14861486720E+03  0.16825519761E+03  0.47000000000E+01 0. -1.
         -5    1    3    3    0  501  0.52337219614E+02 -0.99027415773E+01 -0.15780538653E+03  0.16661896311E+03  0.47000000000E+01 0. -1.
          5    1    4    4  502    0  0.27641781621E+02  0.81542041430E+02 -0.11551395138E+03  0.14414831104E+03  0.47000000000E+01 0. -1.
         -5    1    4    4    0  502 -0.11371251595E+02 -0.32982871416E+02 -0.14626640279E+03  0.15044309807E+03  0.47000000000E+01 0. -1.
<mgrwt>
<rscale>  0 0.27087815E+03</rscale>
<asrwt>0</asrwt>
<pdfrwt beam="1">  1       21 0.47126897E-02 0.27087815E+03</pdfrwt>
<pdfrwt beam="2">  1       21 0.92128160E-01 0.27087815E+03</pdfrwt>
<totfact> 0.28961112E+05</totfact>
</mgrwt>
</event>
<event>
 8    1  0.9331162E-006  0.2860395E+03  0.7546771E-02  0.1092435E+00
         21   -1    0    0  504  503  0.00000000000E+00  0.00000000000E+00  0.31349920949E+02  0.31349920949E+02  0.00000000000E+00 0. -1.
         21   -1    0    0  503  504 -0.00000000000E+00 -0.00000000000E+00 -0.65246236879E+03  0.65246236879E+03  0.00000000000E+00 0. -1.
         25    2    1    2    0    0 -0.64328420201E+02  0.24055493682E+02 -0.28519268925E+03  0.31886876958E+03  0.12500243912E+03 0.  0.
         25    2    1    2    0    0  0.64328420201E+02 -0.24055493682E+02 -0.33591975859E+03  0.36494352016E+03  0.12499950510E+03 0.  0.
          5    1    3    3  501    0  0.19366189239E+02  0.10112536816E+02 -0.11390251610E+01  0.22376328224E+02  0.47000000000E+01 0. -1.
         -5    1    3    3    0  501 -0.83694609440E+02  0.13942956867E+02 -0.28405366409E+03  0.29649244135E+03  0.47000000000E+01 0. -1.
          5    1    4    4  502    0  0.58097561866E+02  0.42772959490E+02 -0.21121452831E+03  0.22324542487E+03  0.47000000000E+01 0. -1.
         -5    1    4    4    0  502  0.62308583351E+01 -0.66828453172E+02 -0.12470523028E+03  0.14169809529E+03  0.47000000000E+01 0. -1.
<mgrwt>
<rscale>  0 0.28603946E+03</rscale>
<asrwt>0</asrwt>
<pdfrwt beam="1">  1       21 0.48230651E-02 0.28603946E+03</pdfrwt>
<pdfrwt beam="2">  1       21 0.10037882E+00 0.28603946E+03</pdfrwt>
<totfact> 0.22628954E+05</totfact>
</mgrwt>
</event>
<event>
 8    1  0.9331162E-006  0.6793156E+03  0.7546771E-02  0.9753274E-01
         21   -1    0    0  504  503  0.00000000000E+00  0.00000000000E+00  0.74212619054E+03  0.74212619054E+03  0.00000000000E+00 0. -1.
         21   -1    0    0  503  504 -0.00000000000E+00 -0.00000000000E+00 -0.15545527085E+03  0.15545527085E+03  0.00000000000E+00 0. -1.
         25    2    1    2    0    0 -0.13239927414E+03  0.28082213194E+03  0.21683943776E+03  0.39879133163E+03  0.12499818731E+03 0.  0.
         25    2    1    2    0    0  0.13239927414E+03 -0.28082213194E+03  0.36983148194E+03  0.49879012976E+03  0.12500252371E+03 0.  0.
          5    1    3    3  501    0 -0.29609791627E+02  0.92093886566E+02  0.49795359731E+01  0.96978912561E+02  0.47000000000E+01 0. -1.
         -5    1    3    3    0  501 -0.10278948251E+03  0.18872824538E+03  0.21185990178E+03  0.30181241906E+03  0.47000000000E+01 0. -1.
          5    1    4    4  502    0  0.13755046604E+03 -0.29076358562E+03  0.34873884565E+03  0.47445175297E+03  0.47000000000E+01 0.  1.
         -5    1    4    4    0  502 -0.51511918989E+01  0.99414536793E+01  0.21092636292E+02  0.24338376795E+02  0.47000000000E+01 0.  1.
<mgrwt>
<rscale>  0 0.67931562E+03</rscale>
<asrwt>0</asrwt>
<pdfrwt beam="1">  1       21 0.11417326E+00 0.67931562E+03</pdfrwt>
<pdfrwt beam="2">  1       21 0.23916196E-01 0.67931562E+03</pdfrwt>
<totfact> 0.82264230E+03</totfact>
</mgrwt>
</event>
<event>
 8    1  0.9331162E-006  0.3451995E+03  0.7546771E-02  0.1064603E+00
         21   -1    0    0  504  503  0.00000000000E+00  0.00000000000E+00  0.50135453590E+03  0.50135453590E+03  0.00000000000E+00 0. -1.
         21   -1    0    0  503  504 -0.00000000000E+00 -0.00000000000E+00 -0.59420374017E+02  0.59420374017E+02  0.00000000000E+00 0. -1.
         25    2    1    2    0    0 -0.46042791947E+00 -0.96532806525E+02  0.10786729964E+03  0.19125653636E+03  0.12499965456E+03 0.  0.
         25    2    1    2    0    0  0.46042791947E+00  0.96532806525E+02  0.33406686225E+03  0.36951837356E+03  0.12499746084E+03 0.  0.
          5    1    3    3  501    0  0.30096417749E+02 -0.10747915446E+03  0.45169168878E+02  0.12049857602E+03  0.47000000000E+01 0. -1.
         -5    1    3    3    0  501 -0.30556845668E+02  0.10946347940E+02  0.62698130758E+02  0.70757960336E+02  0.47000000000E+01 0. -1.
          5    1    4    4  502    0  0.38085076444E+01  0.82062571934E+01 -0.99805506857E+01  0.14267052239E+02  0.47000000000E+01 0. -1.
         -5    1    4    4    0  502 -0.33480797249E+01  0.88326549332E+02  0.34404741293E+03  0.35525132132E+03  0.47000000000E+01 0. -1.
<mgrwt>
<rscale>  0 0.34519950E+03</rscale>
<asrwt>0</asrwt>
<pdfrwt beam="1">  1       21 0.77131464E-01 0.34519950E+03</pdfrwt>
<pdfrwt beam="2">  1       21 0.91415964E-02 0.34519950E+03</pdfrwt>
<totfact> 0.13564220E+05</totfact>
</mgrwt>
</event>
<event>
 8    1  0.9331162E-006  0.4185934E+03  0.7546771E-02  0.1037525E+00
         21   -1    0    0  504  503  0.00000000000E+00  0.00000000000E+00  0.99119252433E+03  0.99119252433E+03  0.00000000000E+00 0. -1.
         21   -1    0    0  503  504 -0.00000000000E+00 -0.00000000000E+00 -0.44194343570E+02  0.44194343570E+02  0.00000000000E+00 0. -1.
         25    2    1    2    0    0  0.99991370811E+02  0.13380784064E+03  0.51470902405E+03  0.55538537426E+03  0.12499888820E+03 0.  0.
         25    2    1    2    0    0 -0.99991370811E+02 -0.13380784064E+03  0.43228915671E+03  0.48000149364E+03  0.12499882573E+03 0.  0.
          5    1    3    3  501    0 -0.21690342622E+02 -0.62326256476E+01  0.56499450480E+02  0.61021262606E+02  0.47000000000E+01 0. -1.
         -5    1    3    3    0  501  0.12168171343E+03  0.14004046629E+03  0.45820957357E+03  0.49436411165E+03  0.47000000000E+01 0. -1.
          5    1    4    4  502    0 -0.12743554510E+03 -0.12185311946E+03  0.34269318814E+03  0.38542017601E+03  0.47000000000E+01 0. -1.
         -5    1    4    4    0  502  0.27444174286E+02 -0.11954721180E+02  0.89595968568E+02  0.94581317629E+02  0.47000000000E+01 0. -1.
<mgrwt>
<rscale>  0 0.41859337E+03</rscale>
<asrwt>0</asrwt>
<pdfrwt beam="1">  1       21 0.15249114E+00 0.41859337E+03</pdfrwt>
<pdfrwt beam="2">  1       21 0.67991305E-02 0.41859337E+03</pdfrwt>
<totfact> 0.41541818E+04</totfact>
</mgrwt>
</event>
<event>
 8    1  0.9331162E-006  0.2548558E+03  0.7546771E-02  0.1110274E+00
         21   -1    0    0  504  503  0.00000000000E+00  0.00000000000E+00  0.69748424894E+02  0.69748424894E+02  0.00000000000E+00 0. -1.
         21   -1    0    0  503  504 -0.00000000000E+00 -0.00000000000E+00 -0.23280619896E+03  0.23280619896E+03  0.00000000000E+00 0. -1.
         25    2    1    2    0    0  0.17962882313E+02  0.96522424891E+01 -0.98216425818E+02  0.16027117658E+03  0.12499821126E+03 0.  0.
         25    2    1    2    0    0 -0.17962882313E+02 -0.96522424891E+01 -0.64841348245E+02  0.14228344727E+03  0.12499739196E+03 0.  0.
          5    1    3    3  501    0  0.59108536744E+01  0.45448344890E+02 -0.11095045042E+03  0.12013568451E+03  0.47000000000E+01 0. -1.
         -5    1    3    3    0  501  0.12052028639E+02 -0.35796102401E+02  0.12734024602E+02  0.40135492074E+02  0.47000000000E+01 0. -1.
          5    1    4    4  502    0 -0.64135650116E+01 -0.34461484748E+02 -0.94951929091E+02  0.10132465932E+03  0.47000000000E+01 0.  1.
         -5    1    4    4    0  502 -0.11549317301E+02  0.24809242259E+02  0.30110580847E+02  0.40958787952E+02  0.47000000000E+01 0.  1.
<mgrwt>
<rscale>  0 0.25485577E+03</rscale>
<asrwt>0</asrwt>
<pdfrwt beam="1">  1       21 0.10730527E-01 0.25485577E+03</pdfrwt>
<pdfrwt beam="2">  1       21 0.35816338E-01 0.25485577E+03</pdfrwt>
<totfact> 0.53201692E+05</totfact>
</mgrwt>
</event>
<event>
 8    1  0.9331162E-006  0.4214740E+03  0.7546771E-02  0.1036588E+00
         21   -1    0    0  504  503  0.00000000000E+00  0.00000000000E+00  0.12629569088E+04  0.12629569088E+04  0.00000000000E+00 0. -1.
         21   -1    0    0  503  504 -0.00000000000E+00 -0.00000000000E+00 -0.35163577339E+02  0.35163577339E+02  0.00000000000E+00 0. -1.
         25    2    1    2    0    0  0.96634657881E+02 -0.13828504700E+03  0.55848622765E+03  0.59665229247E+03  0.12500432118E+03 0.  0.
         25    2    1    2    0    0 -0.96634657881E+02  0.13828504700E+03  0.66930710376E+03  0.70146819362E+03  0.12499846471E+03 0.  0.
          5    1    3    3  501    0  0.32117078471E+02 -0.11357522568E+03  0.46818631179E+03  0.48285748536E+03  0.47000000000E+01 0.  1.
         -5    1    3    3    0  501  0.64517579410E+02 -0.24709821315E+02  0.90299915856E+02  0.11379480711E+03  0.47000000000E+01 0.  1.
          5    1    4    4  502    0 -0.87294343056E+02  0.12549293987E+03  0.66755846518E+03  0.68485412660E+03  0.47000000000E+01 0. -1.
         -5    1    4    4    0  502 -0.93403148251E+01  0.12792107128E+02  0.17486385784E+01  0.16614067012E+02  0.47000000000E+01 0. -1.
<mgrwt>
<rscale>  0 0.42147400E+03</rscale>
<asrwt>0</asrwt>
<pdfrwt beam="1">  1       21 0.19430103E+00 0.42147400E+03</pdfrwt>
<pdfrwt beam="2">  1       21 0.54097821E-02 0.42147400E+03</pdfrwt>
<totfact> 0.30882606E+04</totfact>
</mgrwt>
</event>
<event>
 8    1  0.9331162E-006  0.3108407E+03  0.7546771E-02  0.1079944E+00
         21   -1    0    0  504  503  0.00000000000E+00  0.00000000000E+00  0.97154949722E+02  0.97154949722E+02  0.00000000000E+00 0. -1.
         21   -1    0    0  503  504 -0.00000000000E+00 -0.00000000000E+00 -0.24862844651E+03  0.24862844651E+03  0.00000000000E+00 0. -1.
         25    2    1    2    0    0 -0.57512412624E+02 -0.16390164359E+02 -0.15402005615E+03  0.20718044038E+03  0.12500096834E+03 0.  0.
         25    2    1    2    0    0  0.57512412624E+02  0.16390164359E+02  0.25465593546E+01  0.13860295586E+03  0.12501191669E+03 0.  0.
          5    1    3    3  501    0  0.86079270916E+00  0.18332446025E+02 -0.13523321948E+03  0.13655377399E+03  0.47000000000E+01 0. -1.
         -5    1    3    3    0  501 -0.58373205333E+02 -0.34722610385E+02 -0.18786836667E+02  0.70626666386E+02  0.47000000000E+01 0. -1.
          5    1    4    4  502    0 -0.12297335222E+02  0.42740768766E+02 -0.33232162695E+02  0.55717720751E+02  0.47000000000E+01 0.  1.
         -5    1    4    4    0  502  0.69809747846E+02 -0.26350604407E+02  0.35778722050E+02  0.82885235105E+02  0.47000000000E+01 0.  1.
<mgrwt>
<rscale>  0 0.31084069E+03</rscale>
<asrwt>0</asrwt>
<pdfrwt beam="1">  1       21 0.14946915E-01 0.31084069E+03</pdfrwt>
<pdfrwt beam="2">  1       21 0.38250530E-01 0.31084069E+03</pdfrwt>
<totfact> 0.25285672E+05</totfact>
</mgrwt>
</event>
<event>
 8    1  0.9331162E-006  0.3974443E+03  0.7546771E-02  0.1044668E+00
         21   -1    0    0  504  503  0.00000000000E+00  0.00000000000E+00  0.38125873933E+03  0.38125873933E+03  0.00000000000E+00 0. -1.
         21   -1    0    0  503  504 -0.00000000000E+00 -0.00000000000E+00 -0.10357926872E+03  0.10357926872E+03  0.00000000000E+00 0. -1.
         25    2    1    2    0    0 -0.54899359715E+02  0.93716968519E+02  0.27286210265E+03  0.31917989762E+03  0.12500108038E+03 0.  0.
         25    2    1    2    0    0  0.54899359715E+02 -0.93716968519E+02  0.48173679540E+01  0.16565811043E+03  0.12499037015E+03 0.  0.
          5    1    3    3  501    0 -0.49323212967E+02  0.25037004608E+01  0.18781200987E+03  0.19425367153E+03  0.47000000000E+01 0. -1.
         -5    1    3    3    0  501 -0.55761467478E+01  0.91213268058E+02  0.85050092785E+02  0.12492622609E+03  0.47000000000E+01 0. -1.
          5    1    4    4  502    0  0.32569456206E+02  0.26298988781E+02  0.10311912529E+02  0.43368558062E+02  0.47000000000E+01 0. -1.
         -5    1    4    4    0  502  0.22329903510E+02 -0.12001595730E+03 -0.54945445748E+01  0.12228955236E+03  0.47000000000E+01 0. -1.
<mgrwt>
<rscale>  0 0.39744434E+03</rscale>
<asrwt>0</asrwt>
<pdfrwt beam="1">  1       21 0.58655190E-01 0.39744434E+03</pdfrwt>
<pdfrwt beam="2">  1       21 0.15935272E-01 0.39744434E+03</pdfrwt>
<totfact> 0.89861208E+04</totfact>
</mgrwt>
</event>
<event>
 8    1  0.9331162E-006  0.3190880E+03  0.7546771E-02  0.1076070E+00
         21   -1    0    0  504  503  0.00000000000E+00  0.00000000000E+00  0.17458751939E+03  0.17458751939E+03  0.00000000000E+00 0.  1.
         21   -1    0    0  503  504 -0.00000000000E+00 -0.00000000000E+00 -0.14579674600E+03  0.14579674600E+03  0.00000000000E+00 0.  1.
         25    2    1    2    0    0 -0.84378779251E+02  0.48428472447E+02 -0.47693625081E+01  0.15847104032E+03  0.12500091388E+03 0.  0.
         25    2    1    2    0    0  0.84378779251E+02 -0.48428472447E+02  0.33560135900E+02  0.16191322507E+03  0.12499805759E+03 0.  0.
          5    1    3    3  501    0  0.29989181947E+02 -0.17858357905E+00 -0.14680531234E+02  0.33719296007E+02  0.47000000000E+01 0. -1.
         -5    1    3    3    0  501 -0.11436796120E+03  0.48607056026E+02  0.99111687256E+01  0.12475174431E+03  0.47000000000E+01 0. -1.
          5    1    4    4  502    0  0.13812625783E+02  0.27839205667E+02 -0.27103904858E+02  0.41503272904E+02  0.47000000000E+01 0. -1.
         -5    1    4    4    0  502  0.70566153468E+02 -0.76267678115E+02  0.60664040757E+02  0.12040995217E+03  0.47000000000E+01 0. -1.
<mgrwt>
<rscale>  0 0.31908803E+03</rscale>
<asrwt>0</asrwt>
<pdfrwt beam="1">  1       21 0.26859618E-01 0.31908803E+03</pdfrwt>
<pdfrwt beam="2">  1       21 0.22430269E-01 0.31908803E+03</pdfrwt>
<totfact> 0.23822058E+05</totfact>
</mgrwt>
</event>
<event>
 8    1  0.9331162E-006  0.4202537E+03  0.7546771E-02  0.1036984E+00
         21   -1    0    0  504  503  0.00000000000E+00  0.00000000000E+00  0.24433497142E+04  0.24433497142E+04  0.00000000000E+00 0.  1.
         21   -1    0    0  503  504 -0.00000000000E+00 -0.00000000000E+00 -0.18070802157E+02  0.18070802157E+02  0.00000000000E+00 0.  1.
         25    2    1    2    0    0 -0.90921760418E+02  0.57321347383E+02  0.44953041131E+03  0.47880595856E+03  0.12500020750E+03 0.  0.
         25    2    1    2    0    0  0.90921760418E+02 -0.57321347383E+02  0.19757485007E+04  0.19826145578E+04  0.12500337301E+03 0.  0.
          5    1    3    3  501    0 -0.11760869021E+03  0.64216451687E+02  0.40068667887E+03  0.42252510138E+03  0.47000000000E+01 0.  1.
         -5    1    3    3    0  501  0.26686929790E+02 -0.68951043042E+01  0.48843732445E+02  0.56280857173E+02  0.47000000000E+01 0.  1.
          5    1    4    4  502    0  0.71558248169E+02 -0.96116596271E+02  0.15526130116E+04  0.15572373733E+04  0.47000000000E+01 0. -1.
         -5    1    4    4    0  502  0.19363512249E+02  0.38795248888E+02  0.42313548912E+03  0.42537718451E+03  0.47000000000E+01 0. -1.
<mgrwt>
<rscale>  0 0.42025368E+03</rscale>
<asrwt>0</asrwt>
<pdfrwt beam="1">  1       21 0.37589969E+00 0.42025368E+03</pdfrwt>
<pdfrwt beam="2">  1       21 0.27801254E-02 0.42025368E+03</pdfrwt>
<totfact> 0.72915316E+03</totfact>
</mgrwt>
</event>
<event>
 8    1  0.9331162E-006  0.2695230E+03  0.7546771E-02  0.1101553E+00
         21   -1    0    0  504  503  0.00000000000E+00  0.00000000000E+00  0.14130934141E+03  0.14130934141E+03  0.00000000000E+00 0. -1.
         21   -1    0    0  503  504 -0.00000000000E+00 -0.00000000000E+00 -0.12851706083E+03  0.12851706083E+03  0.00000000000E+00 0. -1.
         25    2    1    2    0    0  0.18109584177E+02 -0.15145082544E+02  0.50921336862E+02  0.13702610809E+03  0.12500336470E+03 0.  0.
         25    2    1    2    0    0 -0.18109584177E+02  0.15145082544E+02 -0.38129056283E+02  0.13280029416E+03  0.12499905052E+03 0.  0.
          5    1    3    3  501    0  0.29363671331E+02  0.51376528411E+02  0.19784381604E+02  0.62572235225E+02  0.47000000000E+01 0.  1.
         -5    1    3    3    0  501 -0.11254087154E+02 -0.66521610955E+02  0.31136955258E+02  0.74453872864E+02  0.47000000000E+01 0.  1.
          5    1    4    4  502    0 -0.49687069678E+02  0.46195826010E+02  0.82446387705E+01  0.68504914440E+02  0.47000000000E+01 0.  1.
         -5    1    4    4    0  502  0.31577485501E+02 -0.31050743466E+02 -0.46373695053E+02  0.64295379719E+02  0.47000000000E+01 0.  1.
<mgrwt>
<rscale>  0 0.26952300E+03</rscale>
<asrwt>0</asrwt>
<pdfrwt beam="1">  1       21 0.21739899E-01 0.26952300E+03</pdfrwt>
<pdfrwt beam="2">  1       21 0.19771855E-01 0.26952300E+03</pdfrwt>
<totfact> 0.45850510E+05</totfact>
</mgrwt>
</event>
<event>
 8    1  0.9331162E-006  0.2646572E+03  0.7546771E-02  0.1104377E+00
         21   -1    0    0  504  503  0.00000000000E+00  0.00000000000E+00  0.75356168892E+03  0.75356168892E+03  0.00000000000E+00 0.  1.
         21   -1    0    0  503  504 -0.00000000000E+00 -0.00000000000E+00 -0.23237464055E+02  0.23237464055E+02  0.00000000000E+00 0.  1.
         25    2    1    2    0    0  0.20028738450E+02  0.33974471014E+02  0.41853842724E+03  0.43858215503E+03  0.12499790632E+03 0.  0.
         25    2    1    2    0    0 -0.20028738450E+02 -0.33974471014E+02  0.31178579763E+03  0.33821699796E+03  0.12499975623E+03 0.  0.
          5    1    3    3  501    0  0.24156031314E+02  0.70761136338E+02  0.15216856117E+03  0.16961135950E+03  0.47000000000E+01 0. -1.
         -5    1    3    3    0  501 -0.41272928642E+01 -0.36786665325E+02  0.26636986607E+03  0.26897079552E+03  0.47000000000E+01 0. -1.
          5    1    4    4  502    0 -0.40534911216E+02  0.20416126181E+02  0.41392162169E+02  0.61605992602E+02  0.47000000000E+01 0.  1.
         -5    1    4    4    0  502  0.20506172766E+02 -0.54390597195E+02  0.27039363546E+03  0.27661100535E+03  0.47000000000E+01 0.  1.
<mgrwt>
<rscale>  0 0.26465723E+03</rscale>
<asrwt>0</asrwt>
<pdfrwt beam="1">  1       21 0.11593255E+00 0.26465723E+03</pdfrwt>
<pdfrwt beam="2">  1       21 0.35749951E-02 0.26465723E+03</pdfrwt>
<totfact> 0.26586735E+05</totfact>
</mgrwt>
</event>
<event>
 8    1  0.9331162E-006  0.2711074E+03  0.7546771E-02  0.1100647E+00
         21   -1    0    0  504  503  0.00000000000E+00  0.00000000000E+00  0.19818425997E+03  0.19818425997E+03  0.00000000000E+00 0. -1.
         21   -1    0    0  503  504 -0.00000000000E+00 -0.00000000000E+00 -0.92715775235E+02  0.92715775235E+02  0.00000000000E+00 0. -1.
         25    2    1    2    0    0 -0.95105203298E+01  0.31629864280E+02  0.90827938375E+01  0.12961544533E+03  0.12500707265E+03 0.  0.
         25    2    1    2    0    0  0.95105203298E+01 -0.31629864280E+02  0.96385690902E+02  0.16128458988E+03  0.12502647404E+03 0.  0.
          5    1    3    3  501    0  0.45019410239E+02  0.93401839773E+00  0.39314015253E+02  0.59960832916E+02  0.47000000000E+01 0. -1.
         -5    1    3    3    0  501 -0.54529930569E+02  0.30695845882E+02 -0.30231221415E+02  0.69654612414E+02  0.47000000000E+01 0. -1.
          5    1    4    4  502    0  0.44403609323E+02 -0.60587748168E+02  0.86459583510E+02  0.11462942611E+03  0.47000000000E+01 0. -1.
         -5    1    4    4    0  502 -0.34893088993E+02  0.28957883888E+02  0.99261073923E+01  0.46655163773E+02  0.47000000000E+01 0. -1.
<mgrwt>
<rscale>  0 0.27110741E+03</rscale>
<asrwt>0</asrwt>
<pdfrwt beam="1">  1       21 0.30489886E-01 0.27110741E+03</pdfrwt>
<pdfrwt beam="2">  1       21 0.14263965E-01 0.27110741E+03</pdfrwt>
<totfact> 0.43676534E+05</totfact>
</mgrwt>
</event>
<event>
 8    1  0.9331162E-006  0.2568683E+03  0.7546771E-02  0.1109040E+00
         21   -1    0    0  504  503  0.00000000000E+00  0.00000000000E+00  0.47608246766E+03  0.47608246766E+03  0.00000000000E+00 0. -1.
         21   -1    0    0  503  504 -0.00000000000E+00 -0.00000000000E+00 -0.34648049555E+02  0.34648049555E+02  0.00000000000E+00 0. -1.
         25    2    1    2    0    0  0.15438729948E+02  0.24612291484E+02  0.23069147197E+03  0.26398594966E+03  0.12500362837E+03 0.  0.
         25    2    1    2    0    0 -0.15438729948E+02 -0.24612291484E+02  0.21074294614E+03  0.24674456756E+03  0.12500469190E+03 0.  0.
          5    1    3    3  501    0  0.69097410587E+02  0.21728120391E+01  0.11147507832E+03  0.13125530979E+03  0.47000000000E+01 0.  1.
         -5    1    3    3    0  501 -0.53658680638E+02  0.22439479444E+02  0.11921639365E+03  0.13273063987E+03  0.47000000000E+01 0.  1.
          5    1    4    4  502    0  0.15677563972E+02  0.43593875448E+02  0.44913300973E+02  0.64695491287E+02  0.47000000000E+01 0. -1.
         -5    1    4    4    0  502 -0.31116293920E+02 -0.68206166931E+02  0.16582964517E+03  0.18204907627E+03  0.47000000000E+01 0. -1.
<mgrwt>
<rscale>  0 0.25686828E+03</rscale>
<asrwt>0</asrwt>
<pdfrwt beam="1">  1       21 0.73243452E-01 0.25686828E+03</pdfrwt>
<pdfrwt beam="2">  1       21 0.53304695E-02 0.25686828E+03</pdfrwt>
<totfact> 0.39832319E+05</totfact>
</mgrwt>
</event>
<event>
 8    1  0.9331162E-006  0.2561484E+03  0.7546771E-02  0.1109480E+00
         21   -1    0    0  504  503  0.00000000000E+00  0.00000000000E+00  0.30737873417E+03  0.30737873417E+03  0.00000000000E+00 0.  1.
         21   -1    0    0  503  504 -0.00000000000E+00 -0.00000000000E+00 -0.53364126414E+02  0.53364126414E+02  0.00000000000E+00 0.  1.
         25    2    1    2    0    0  0.17699355301E+02 -0.11626249172E+02  0.10149597121E+03  0.16240992997E+03  0.12500846505E+03 0.  0.
         25    2    1    2    0    0 -0.17699355301E+02  0.11626249172E+02  0.15251863655E+03  0.19833293061E+03  0.12500232007E+03 0.  0.
          5    1    3    3  501    0 -0.24468246418E+02 -0.14207967293E+02  0.11443689823E+03  0.11797650229E+03  0.47000000000E+01 0.  1.
         -5    1    3    3    0  501  0.42167601720E+02  0.25817181205E+01 -0.12940927021E+02  0.44433427680E+02  0.47000000000E+01 0.  1.
          5    1    4    4  502    0 -0.25453718561E+02 -0.52712053822E+02  0.50875308612E+02  0.77697100545E+02  0.47000000000E+01 0.  1.
         -5    1    4    4    0  502  0.77543632593E+01  0.64338302994E+02  0.10164332793E+03  0.12063583006E+03  0.47000000000E+01 0.  1.
<mgrwt>
<rscale>  0 0.25614838E+03</rscale>
<asrwt>0</asrwt>
<pdfrwt beam="1">  1       21 0.47289035E-01 0.25614838E+03</pdfrwt>
<pdfrwt beam="2">  1       21 0.82098658E-02 0.25614838E+03</pdfrwt>
<totfact> 0.48440818E+05</totfact>
</mgrwt>
</event>
<event>
 8    1  0.9331162E-006  0.2876468E+03  0.7546771E-02  0.1091584E+00
         21   -1    0    0  504  503  0.00000000000E+00  0.00000000000E+00  0.29980131029E+03  0.29980131029E+03  0.00000000000E+00 0. -1.
         21   -1    0    0  503  504 -0.00000000000E+00 -0.00000000000E+00 -0.68996286384E+02  0.68996286384E+02  0.00000000000E+00 0. -1.
         25    2    1    2    0    0 -0.98446778213E+01  0.20104811445E+02  0.28834264759E+02  0.13022103925E+03  0.12499993246E+03 0.  0.
         25    2    1    2    0    0  0.98446778213E+01 -0.20104811445E+02  0.20197075915E+03  0.23857655743E+03  0.12500186030E+03 0.  0.
          5    1    3    3  501    0  0.33290568148E+02 -0.39023715085E+02  0.23701123230E+02  0.56700489495E+02  0.47000000000E+01 0. -1.
         -5    1    3    3    0  501 -0.43135245969E+02  0.59128526530E+02  0.51331415286E+01  0.73520549755E+02  0.47000000000E+01 0. -1.
          5    1    4    4  502    0  0.15781802338E+02 -0.62194586712E+01 -0.13713244466E+02  0.22313449420E+02  0.47000000000E+01 0. -1.
         -5    1    4    4    0  502 -0.59371245170E+01 -0.13885352773E+02  0.21568400361E+03  0.21626310801E+03  0.47000000000E+01 0. -1.
<mgrwt>
<rscale>  0 0.28764685E+03</rscale>
<asrwt>0</asrwt>
<pdfrwt beam="1">  1       21 0.46123278E-01 0.28764685E+03</pdfrwt>
<pdfrwt beam="2">  1       21 0.10614813E-01 0.28764685E+03</pdfrwt>
<totfact> 0.32169363E+05</totfact>
</mgrwt>
</event>
<event>
 8    1  0.9331162E-006  0.2529764E+03  0.7546771E-02  0.1111438E+00
         21   -1    0    0  504  503  0.00000000000E+00  0.00000000000E+00  0.88663878111E+02  0.88663878111E+02  0.00000000000E+00 0.  1.
         21   -1    0    0  503  504 -0.00000000000E+00 -0.00000000000E+00 -0.18044844055E+03  0.18044844055E+03  0.00000000000E+00 0.  1.
         25    2    1    2    0    0 -0.18986339574E+02  0.11598915301E+01 -0.48836923376E+02  0.13557941696E+03  0.12503962083E+03 0.  0.
         25    2    1    2    0    0  0.18986339574E+02 -0.11598915301E+01 -0.42947639060E+02  0.13353290170E+03  0.12499883878E+03 0.  0.
          5    1    3    3  501    0 -0.33689628044E+02 -0.21970684985E+02 -0.82508117848E+02  0.91909637945E+02  0.47000000000E+01 0. -1.
         -5    1    3    3    0  501  0.14703288470E+02  0.23130576515E+02  0.33671194472E+02  0.43669779011E+02  0.47000000000E+01 0. -1.
          5    1    4    4  502    0 -0.40455598153E+02  0.36180428393E+02 -0.82867786258E+01  0.55103897508E+02  0.47000000000E+01 0.  1.
         -5    1    4    4    0  502  0.59441937728E+02 -0.37340319923E+02 -0.34660860435E+02  0.78429004194E+02  0.47000000000E+01 0.  1.
<mgrwt>
<rscale>  0 0.25297635E+03</rscale>
<asrwt>0</asrwt>
<pdfrwt beam="1">  1       21 0.13640597E-01 0.25297635E+03</pdfrwt>
<pdfrwt beam="2">  1       21 0.27761298E-01 0.25297635E+03</pdfrwt>
<totfact> 0.57101899E+05</totfact>
</mgrwt>
</event>
<event>
 8    1  0.9331162E-006  0.3325449E+03  0.7546771E-02  0.1070016E+00
         21   -1    0    0  504  503  0.00000000000E+00  0.00000000000E+00  0.57045649808E+03  0.57045649808E+03  0.00000000000E+00 0.  1.
         21   -1    0    0  503  504 -0.00000000000E+00 -0.00000000000E+00 -0.48463856708E+02  0.48463856708E+02  0.00000000000E+00 0.  1.
         25    2    1    2    0    0  0.83756238530E+02  0.45878786438E+01  0.12957542621E+03  0.19862030996E+03  0.12499632126E+03 0.  0.
         25    2    1    2    0    0 -0.83756238530E+02 -0.45878786438E+01  0.39241721516E+03  0.42030004483E+03  0.12499880321E+03 0.  0.
          5    1    3    3  501    0  0.57076500241E+02 -0.14669549474E+02 -0.56330644575E+01  0.59386395553E+02  0.47000000000E+01 0. -1.
         -5    1    3    3    0  501  0.26679738289E+02  0.19257428117E+02  0.13520849066E+03  0.13923391441E+03  0.47000000000E+01 0. -1.
          5    1    4    4  502    0 -0.54733963117E+01 -0.42768763210E+02  0.24660703097E+03  0.25039217819E+03  0.47000000000E+01 0.  1.
         -5    1    4    4    0  502 -0.78282842218E+02  0.38180884566E+02  0.14581018419E+03  0.16990786664E+03  0.47000000000E+01 0.  1.
<mgrwt>
<rscale>  0 0.33254487E+03</rscale>
<asrwt>0</asrwt>
<pdfrwt beam="1">  1       21 0.87762534E-01 0.33254487E+03</pdfrwt>
<pdfrwt beam="2">  1       21 0.74559783E-02 0.33254487E+03</pdfrwt>
<totfact> 0.14473977E+05</totfact>
</mgrwt>
</event>
<event>
 8    1  0.9331162E-006  0.2911850E+03  0.7546771E-02  0.1089732E+00
         21   -1    0    0  504  503  0.00000000000E+00  0.00000000000E+00  0.12149089115E+02  0.12149089115E+02  0.00000000000E+00 0.  1.
         21   -1    0    0  503  504 -0.00000000000E+00 -0.00000000000E+00 -0.17447545080E+04  0.17447545080E+04  0.00000000000E+00 0.  1.
         25    2    1    2    0    0 -0.40726816730E+02 -0.13852995013E+02 -0.49742013015E+03  0.51466455996E+03  0.12490894412E+03 0.  0.
         25    2    1    2    0    0  0.40726816730E+02  0.13852995013E+02 -0.12351852887E+04  0.12422390371E+04  0.12499819546E+03 0.  0.
          5    1    3    3  501    0 -0.79533019471E+02 -0.31611888637E+02 -0.27177875132E+03  0.28497472231E+03  0.47000000000E+01 0.  1.
         -5    1    3    3    0  501  0.38806202741E+02  0.17758893624E+02 -0.22564137884E+03  0.22968983764E+03  0.47000000000E+01 0.  1.
          5    1    4    4  502    0  0.22110101578E+02  0.43383800277E+02 -0.18185007510E+03  0.18831503002E+03  0.47000000000E+01 0. -1.
         -5    1    4    4    0  502  0.18616715153E+02 -0.29530805264E+02 -0.10533352136E+04  0.10539240071E+04  0.47000000000E+01 0. -1.
<mgrwt>
<rscale>  0 0.29118501E+03</rscale>
<asrwt>0</asrwt>
<pdfrwt beam="1">  1       21 0.18690904E-02 0.29118501E+03</pdfrwt>
<pdfrwt beam="2">  1       21 0.26842380E+00 0.29118501E+03</pdfrwt>
<totfact> 0.66915452E+04</totfact>
</mgrwt>
</event>
<event>
 8    1  0.9331162E-006  0.2775304E+03  0.7546771E-02  0.1097046E+00
         21   -1    0    0  504  503  0.00000000000E+00  0.00000000000E+00  0.48770217105E+03  0.48770217105E+03  0.00000000000E+00 0. -1.
         21   -1    0    0  503  504 -0.00000000000E+00 -0.00000000000E+00 -0.39482650696E+02  0.39482650696E+02  0.00000000000E+00 0. -1.
         25    2    1    2    0    0 -0.17882923158E+02 -0.59209678047E+01  0.11539743279E+03  0.17116516260E+03  0.12500435430E+03 0.  0.
         25    2    1    2    0    0  0.17882923158E+02  0.59209678047E+01  0.33282208757E+03  0.35601965915E+03  0.12499839569E+03 0.  0.
          5    1    3    3  501    0 -0.29911983414E+01 -0.27402118653E+02 -0.19234202141E+02  0.33939179515E+02  0.47000000000E+01 0. -1.
         -5    1    3    3    0  501 -0.14891724816E+02  0.21481150848E+02  0.13463163493E+03  0.13722598309E+03  0.47000000000E+01 0. -1.
          5    1    4    4  502    0  0.12306894314E+02  0.40373734262E+02  0.32081326939E+02  0.53224050993E+02  0.47000000000E+01 0. -1.
         -5    1    4    4    0  502  0.55760288432E+01 -0.34452766458E+02  0.30074076063E+03  0.30279560815E+03  0.47000000000E+01 0. -1.
<mgrwt>
<rscale>  0 0.27753035E+03</rscale>
<asrwt>0</asrwt>
<pdfrwt beam="1">  1       21 0.75031099E-01 0.27753035E+03</pdfrwt>
<pdfrwt beam="2">  1       21 0.60742543E-02 0.27753035E+03</pdfrwt>
<totfact> 0.30008514E+05</totfact>
</mgrwt>
</event>
<event>
 8    1  0.9331162E-006  0.3048889E+03  0.7546771E-02  0.1082822E+00
         21   -1    0    0  504  503  0.00000000000E+00  0.00000000000E+00  0.15512175260E+03  0.15512175260E+03  0.00000000000E+00 0. -1.
         21   -1    0    0  503  504 -0.00000000000E+00 -0.00000000000E+00 -0.14981336415E+03  0.14981336415E+03  0.00000000000E+00 0. -1.
         25    2    1    2    0    0 -0.26940525260E+02 -0.82805876731E+02  0.80596324244E+01  0.15255567627E+03  0.12500268623E+03 0.  0.
         25    2    1    2    0    0  0.26940525260E+02  0.82805876731E+02 -0.27512439732E+01  0.15237944049E+03  0.12501727648E+03 0.  0.
          5    1    3    3  501    0 -0.29750082452E+02  0.28154514808E+02  0.32286548674E+01  0.41355269583E+02  0.47000000000E+01 0. -1.
         -5    1    3    3    0  501  0.28095571925E+01 -0.11096039154E+03  0.48309775570E+01  0.11120040668E+03  0.47000000000E+01 0. -1.
          5    1    4    4  502    0  0.61417416539E+02  0.83288261748E+02  0.26491538930E+02  0.10692485789E+03  0.47000000000E+01 0. -1.
         -5    1    4    4    0  502 -0.34476891279E+02 -0.48238501708E+00 -0.29242782903E+02  0.45454582602E+02  0.47000000000E+01 0. -1.
<mgrwt>
<rscale>  0 0.30488891E+03</rscale>
<asrwt>0</asrwt>
<pdfrwt beam="1">  1       21 0.23864885E-01 0.30488891E+03</pdfrwt>
<pdfrwt beam="2">  1       21 0.23048210E-01 0.30488891E+03</pdfrwt>
<totfact> 0.28501309E+05</totfact>
</mgrwt>
</event>
<event>
 8    1  0.9331162E-006  0.3163633E+03  0.7546771E-02  0.1077335E+00
         21   -1    0    0  504  503  0.00000000000E+00  0.00000000000E+00  0.20339254289E+02  0.20339254289E+02  0.00000000000E+00 0. -1.
         21   -1    0    0  503  504 -0.00000000000E+00 -0.00000000000E+00 -0.12302040490E+04  0.12302040490E+04  0.00000000000E+00 0. -1.
         25    2    1    2    0    0 -0.85074593317E+02 -0.36092150533E+02 -0.48938396277E+03  0.51348036716E+03  0.12500037874E+03 0.  0.
         25    2    1    2    0    0  0.85074593317E+02  0.36092150533E+02 -0.72048083198E+03  0.73706293617E+03  0.12501525052E+03 0.  0.
          5    1    3    3  501    0 -0.76018362219E+02 -0.77084911785E+02 -0.28797643865E+03  0.30769041947E+03  0.47000000000E+01 0. -1.
         -5    1    3    3    0  501 -0.90562310978E+01  0.40992761252E+02 -0.20140752412E+03  0.20578994769E+03  0.47000000000E+01 0. -1.
          5    1    4    4  502    0  0.11615529296E+01  0.59696551776E+02 -0.18334399313E+03  0.19287855587E+03  0.47000000000E+01 0. -1.
         -5    1    4    4    0  502  0.83913040388E+02 -0.23604401243E+02 -0.53713683885E+03  0.54418438029E+03  0.47000000000E+01 0. -1.
<mgrwt>
<rscale>  0 0.31636329E+03</rscale>
<asrwt>0</asrwt>
<pdfrwt beam="1">  1       21 0.31291165E-02 0.31636329E+03</pdfrwt>
<pdfrwt beam="2">  1       21 0.18926213E+00 0.31636329E+03</pdfrwt>
<totfact> 0.87921891E+04</totfact>
</mgrwt>
</event>
<event>
 8    1  0.9331162E-006  0.2545184E+03  0.7546771E-02  0.1110482E+00
         21   -1    0    0  504  503  0.00000000000E+00  0.00000000000E+00  0.93408489636E+02  0.93408489636E+02  0.00000000000E+00 0. -1.
         21   -1    0    0  503  504 -0.00000000000E+00 -0.00000000000E+00 -0.17337719305E+03  0.17337719305E+03  0.00000000000E+00 0. -1.
         25    2    1    2    0    0  0.12851749386E+02 -0.13278944594E+02 -0.24168899207E+02  0.12865827580E+03  0.12500927330E+03 0.  0.
         25    2    1    2    0    0 -0.12851749386E+02  0.13278944594E+02 -0.55799804211E+02  0.13812740690E+03  0.12499625816E+03 0.  0.
          5    1    3    3  501    0 -0.28870170490E+02  0.27807801554E+02  0.28782596405E+02  0.49571044242E+02  0.47000000000E+01 0.  1.
         -5    1    3    3    0  501  0.41721919876E+02 -0.41086746148E+02 -0.52951495612E+02  0.79087231553E+02  0.47000000000E+01 0.  1.
          5    1    4    4  502    0  0.38695272803E+02 -0.36839985093E+02 -0.16819269564E+02  0.56209309439E+02  0.47000000000E+01 0.  1.
         -5    1    4    4    0  502 -0.51547022189E+02  0.50118929687E+02 -0.38980534648E+02  0.81918097457E+02  0.47000000000E+01 0.  1.
<mgrwt>
<rscale>  0 0.25451838E+03</rscale>
<asrwt>0</asrwt>
<pdfrwt beam="1">  1       21 0.14370537E-01 0.25451838E+03</pdfrwt>
<pdfrwt beam="2">  1       21 0.26673414E-01 0.25451838E+03</pdfrwt>
<totfact> 0.56098922E+05</totfact>
</mgrwt>
</event>
<event>
 8    1  0.9331162E-006  0.3306237E+03  0.7546771E-02  0.1070861E+00
         21   -1    0    0  504  503  0.00000000000E+00  0.00000000000E+00  0.33282218447E+03  0.33282218447E+03  0.00000000000E+00 0.  1.
         21   -1    0    0  503  504 -0.00000000000E+00 -0.00000000000E+00 -0.82109937779E+02  0.82109937779E+02  0.00000000000E+00 0.  1.
         25    2    1    2    0    0 -0.60841227645E+02 -0.13311816616E+02  0.23632921559E+03  0.27450850576E+03  0.12499824860E+03 0.  0.
         25    2    1    2    0    0  0.60841227645E+02  0.13311816616E+02  0.14383031107E+02  0.14042361649E+03  0.12503224001E+03 0.  0.
          5    1    3    3  501    0  0.27671300373E+02 -0.36094528698E+02  0.10408627500E+03  0.11368622832E+03  0.47000000000E+01 0.  1.
         -5    1    3    3    0  501 -0.88512528018E+02  0.22782712082E+02  0.13224294059E+03  0.16082227744E+03  0.47000000000E+01 0.  1.
          5    1    4    4  502    0  0.49262253787E+02 -0.48777503297E+02 -0.14228460556E+02  0.70926395410E+02  0.47000000000E+01 0. -1.
         -5    1    4    4    0  502  0.11578973858E+02  0.62089319913E+02  0.28611491663E+02  0.69497221082E+02  0.47000000000E+01 0. -1.
<mgrwt>
<rscale>  0 0.33062371E+03</rscale>
<asrwt>0</asrwt>
<pdfrwt beam="1">  1       21 0.51203412E-01 0.33062371E+03</pdfrwt>
<pdfrwt beam="2">  1       21 0.12632298E-01 0.33062371E+03</pdfrwt>
<totfact> 0.18707197E+05</totfact>
</mgrwt>
</event>
<event>
 8    1  0.9331162E-006  0.4725272E+03  0.7546771E-02  0.1021209E+00
         21   -1    0    0  504  503  0.00000000000E+00  0.00000000000E+00  0.20086354043E+03  0.20086354043E+03  0.00000000000E+00 0. -1.
         21   -1    0    0  503  504 -0.00000000000E+00 -0.00000000000E+00 -0.27790259531E+03  0.27790259531E+03  0.00000000000E+00 0. -1.
         25    2    1    2    0    0 -0.81205703868E+02 -0.11677271645E+03 -0.18167203484E+03  0.26241023054E+03  0.12499666876E+03 0.  0.
         25    2    1    2    0    0  0.81205703868E+02  0.11677271645E+03  0.10463297996E+03  0.21635590520E+03  0.12502633152E+03 0.  0.
          5    1    3    3  501    0 -0.80335440590E+02 -0.49748842121E+02 -0.34638561674E+02  0.10075043554E+03  0.47000000000E+01 0.  1.
         -5    1    3    3    0  501 -0.87026327780E+00 -0.67023874330E+02 -0.14703347316E+03  0.16165979500E+03  0.47000000000E+01 0.  1.
          5    1    4    4  502    0  0.93936307103E+02  0.44288898879E+02  0.23241779989E+02  0.10652608457E+03  0.47000000000E+01 0.  1.
         -5    1    4    4    0  502 -0.12730603235E+02  0.72483817571E+02  0.81391199972E+02  0.10982982064E+03  0.47000000000E+01 0.  1.
<mgrwt>
<rscale>  0 0.47252724E+03</rscale>
<asrwt>0</asrwt>
<pdfrwt beam="1">  1       21 0.30902083E-01 0.47252724E+03</pdfrwt>
<pdfrwt beam="2">  1       21 0.42754245E-01 0.47252724E+03</pdfrwt>
<totfact> 0.48487156E+04</totfact>
</mgrwt>
</event>
<event>
 8    1  0.9331162E-006  0.3317860E+03  0.7546771E-02  0.1070349E+00
         21   -1    0    0  504  503  0.00000000000E+00  0.00000000000E+00  0.29601494324E+03  0.29601494324E+03  0.00000000000E+00 0. -1.
         21   -1    0    0  503  504 -0.00000000000E+00 -0.00000000000E+00 -0.92969903346E+02  0.92969903346E+02  0.00000000000E+00 0. -1.
         25    2    1    2    0    0  0.54796065678E+02  0.77068258371E+02  0.16524241521E+03  0.22774988736E+03  0.12499132028E+03 0.  0.
         25    2    1    2    0    0 -0.54796065678E+02 -0.77068258371E+02  0.37802624680E+02  0.16123495922E+03  0.12500219350E+03 0.  0.
          5    1    3    3  501    0  0.15218085096E+02  0.36005471734E+00  0.13534776426E+03  0.13628215966E+03  0.47000000000E+01 0. -1.
         -5    1    3    3    0  501  0.39577980582E+02  0.76708203654E+02  0.29894650958E+02  0.91467727700E+02  0.47000000000E+01 0. -1.
          5    1    4    4  502    0 -0.69639277338E+02 -0.84104579605E+02  0.66427990498E+02  0.12789830796E+03  0.47000000000E+01 0.  1.
         -5    1    4    4    0  502  0.14843211660E+02  0.70363212339E+01 -0.28625365818E+02  0.33336651258E+02  0.47000000000E+01 0.  1.
<mgrwt>
<rscale>  0 0.33178596E+03</rscale>
<asrwt>0</asrwt>
<pdfrwt beam="1">  1       21 0.45540760E-01 0.33178596E+03</pdfrwt>
<pdfrwt beam="2">  1       21 0.14303062E-01 0.33178596E+03</pdfrwt>
<totfact> 0.19068411E+05</totfact>
</mgrwt>
</event>
<event>
 8    1  0.9331162E-006  0.2952486E+03  0.7546771E-02  0.1087640E+00
         21   -1    0    0  504  503  0.00000000000E+00  0.00000000000E+00  0.12633259940E+02  0.12633259940E+02  0.00000000000E+00 0.  1.
         21   -1    0    0  503  504 -0.00000000000E+00 -0.00000000000E+00 -0.17250443423E+04  0.17250443423E+04  0.00000000000E+00 0.  1.
         25    2    1    2    0    0 -0.54210313547E+02  0.50135617494E+02 -0.69898036225E+03  0.71389859321E+03  0.12500126535E+03 0.  0.
         25    2    1    2    0    0  0.54210313547E+02 -0.50135617494E+02 -0.10134307201E+04  0.10237790090E+04  0.12501718535E+03 0.  0.
          5    1    3    3  501    0  0.23120765275E+02  0.38259897316E+02 -0.46440528578E+03  0.46657555550E+03  0.47000000000E+01 0. -1.
         -5    1    3    3    0  501 -0.77331078822E+02  0.11875720177E+02 -0.23457507647E+03  0.24732303771E+03  0.47000000000E+01 0. -1.
          5    1    4    4  502    0  0.75396914167E+02  0.10307629198E+02 -0.41814574053E+03  0.42503987131E+03  0.47000000000E+01 0. -1.
         -5    1    4    4    0  502 -0.21186600620E+02 -0.60443246692E+02 -0.59528497958E+03  0.59873913771E+03  0.47000000000E+01 0. -1.
<mgrwt>
<rscale>  0 0.29524860E+03</rscale>
<asrwt>0</asrwt>
<pdfrwt beam="1">  1       21 0.19435802E-02 0.29524860E+03</pdfrwt>
<pdfrwt beam="2">  1       21 0.26539120E+00 0.29524860E+03</pdfrwt>
<totfact> 0.65286081E+04</totfact>
</mgrwt>
</event>
<event>
 8    1  0.9331162E-006  0.3356276E+03  0.7546771E-02  0.1068674E+00
         21   -1    0    0  504  503  0.00000000000E+00  0.00000000000E+00  0.21369687160E+04  0.21369687160E+04  0.00000000000E+00 0. -1.
         21   -1    0    0  503  504 -0.00000000000E+00 -0.00000000000E+00 -0.13178231077E+02  0.13178231077E+02  0.00000000000E+00 0. -1.
         25    2    1    2    0    0 -0.82848051783E+02  0.91054064756E+01  0.15408885761E+04  0.15481960317E+04  0.12500656207E+03 0.  0.
         25    2    1    2    0    0  0.82848051783E+02 -0.91054064756E+01  0.58290190881E+03  0.60195091535E+03  0.12499424419E+03 0.  0.
          5    1    3    3  501    0 -0.67159145265E+02 -0.34888375402E+02  0.45356673481E+03  0.45986130785E+03  0.47000000000E+01 0.  1.
         -5    1    3    3    0  501 -0.15688906518E+02  0.43993781878E+02  0.10873218413E+04  0.10883347239E+04  0.47000000000E+01 0.  1.
          5    1    4    4  502    0 -0.13362008893E+02  0.33576558384E+02  0.76912357736E+02  0.85108926248E+02  0.47000000000E+01 0.  1.
         -5    1    4    4    0  502  0.96210060676E+02 -0.42681964860E+02  0.50598955107E+03  0.51684198910E+03  0.47000000000E+01 0.  1.
<mgrwt>
<rscale>  0 0.33562758E+03</rscale>
<asrwt>0</asrwt>
<pdfrwt beam="1">  1       21 0.32876414E+00 0.33562758E+03</pdfrwt>
<pdfrwt beam="2">  1       21 0.20274219E-02 0.33562758E+03</pdfrwt>
<totfact> 0.25074754E+04</totfact>
</mgrwt>
</event>
<event>
 8    1  0.9331162E-006  0.3255491E+03  0.7546771E-02  0.1073123E+00
         21   -1    0    0  504  503  0.00000000000E+00  0.00000000000E+00  0.35888678060E+02  0.35888678060E+02  0.00000000000E+00 0.  1.
         21   -1    0    0  503  504 -0.00000000000E+00 -0.00000000000E+00 -0.73827055020E+03  0.73827055020E+03  0.00000000000E+00 0.  1.
         25    2    1    2    0    0  0.92052464783E+02 -0.44133210397E+02 -0.30081761317E+03  0.34137701714E+03  0.12500253960E+03 0.  0.
         25    2    1    2    0    0 -0.92052464783E+02  0.44133210397E+02 -0.40156425897E+03  0.43278221112E+03  0.12500076658E+03 0.  0.
          5    1    3    3  501    0  0.49651838084E+02 -0.74239074373E+02 -0.26045138583E+03  0.27537930127E+03  0.47000000000E+01 0.  1.
         -5    1    3    3    0  501  0.42400626699E+02  0.30105863976E+02 -0.40366227340E+02  0.65997715868E+02  0.47000000000E+01 0.  1.
          5    1    4    4  502    0 -0.92426188646E+02  0.33087417961E+02 -0.14062046391E+03  0.17156218245E+03  0.47000000000E+01 0.  1.
         -5    1    4    4    0  502  0.37372386324E+00  0.11045792436E+02 -0.26094379505E+03  0.26122002867E+03  0.47000000000E+01 0.  1.
<mgrwt>
<rscale>  0 0.32554910E+03</rscale>
<asrwt>0</asrwt>
<pdfrwt beam="1">  1       21 0.55213349E-02 0.32554910E+03</pdfrwt>
<pdfrwt beam="2">  1       21 0.11358009E+00 0.32554910E+03</pdfrwt>
<totfact> 0.13138603E+05</totfact>
</mgrwt>
</event>
<event>
 8    1  0.9331162E-006  0.3029899E+03  0.7546771E-02  0.1083755E+00
         21   -1    0    0  504  503  0.00000000000E+00  0.00000000000E+00  0.96765265929E+02  0.96765265929E+02  0.00000000000E+00 0.  1.
         21   -1    0    0  503  504 -0.00000000000E+00 -0.00000000000E+00 -0.23717931610E+03  0.23717931610E+03  0.00000000000E+00 0.  1.
         25    2    1    2    0    0 -0.25404902584E+02 -0.30477871520E+02 -0.15376990060E+03  0.20210130058E+03  0.12500177455E+03 0.  0.
         25    2    1    2    0    0  0.25404902584E+02  0.30477871520E+02  0.13355850425E+02  0.13184328145E+03  0.12501984800E+03 0.  0.
          5    1    3    3  501    0 -0.34585790344E+02  0.42076572005E+02 -0.88182251426E+02  0.10375362293E+03  0.47000000000E+01 0.  1.
         -5    1    3    3    0  501  0.91808877599E+01 -0.72554443525E+02 -0.65587649169E+02  0.98347677648E+02  0.47000000000E+01 0.  1.
          5    1    4    4  502    0 -0.42421687043E+01  0.25356034416E+02 -0.52856328152E+02  0.58964446087E+02  0.47000000000E+01 0. -1.
         -5    1    4    4    0  502  0.29647071288E+02  0.51218371033E+01  0.66212178578E+02  0.72878835359E+02  0.47000000000E+01 0. -1.
<mgrwt>
<rscale>  0 0.30298990E+03</rscale>
<asrwt>0</asrwt>
<pdfrwt beam="1">  1       21 0.14886964E-01 0.30298990E+03</pdfrwt>
<pdfrwt beam="2">  1       21 0.36489125E-01 0.30298990E+03</pdfrwt>
<totfact> 0.28066404E+05</totfact>
</mgrwt>
</event>
<event>
 8    1  0.9331162E-006  0.6318875E+03  0.7546771E-02  0.9841372E-01
         21   -1    0    0  504  503  0.00000000000E+00  0.00000000000E+00  0.11660245398E+04  0.11660245398E+04  0.00000000000E+00 0.  1.
         21   -1    0    0  503  504 -0.00000000000E+00 -0.00000000000E+00 -0.85607514119E+02  0.85607514119E+02  0.00000000000E+00 0.  1.
         25    2    1    2    0    0  0.74689216158E+02 -0.18675123252E+03  0.12594304322E+03  0.26821918968E+03  0.12500152686E+03 0.  0.
         25    2    1    2    0    0 -0.74689216158E+02  0.18675123252E+03  0.95447398246E+03  0.98341286423E+03  0.12500310596E+03 0.  0.
          5    1    3    3  501    0  0.54375467242E+02 -0.19984210156E+03  0.12799825017E+03  0.24351426866E+03  0.47000000000E+01 0.  1.
         -5    1    3    3    0  501  0.20313748916E+02  0.13090869033E+02 -0.20552069544E+01  0.24704921022E+02  0.47000000000E+01 0.  1.
          5    1    4    4  502    0 -0.83716176555E+02  0.19694236174E+03  0.93502038629E+03  0.95920795704E+03  0.47000000000E+01 0.  1.
         -5    1    4    4    0  502  0.90269603973E+01 -0.10191129216E+02  0.19453596164E+02  0.24204907197E+02  0.47000000000E+01 0.  1.
<mgrwt>
<rscale>  0 0.63188753E+03</rscale>
<asrwt>0</asrwt>
<pdfrwt beam="1">  1       21 0.17938838E+00 0.63188753E+03</pdfrwt>
<pdfrwt beam="2">  1       21 0.13170388E-01 0.63188753E+03</pdfrwt>
<totfact> 0.75472952E+03</totfact>
</mgrwt>
</event>
<event>
 8    1  0.9331162E-006  0.2956550E+03  0.7546771E-02  0.1087433E+00
         21   -1    0    0  504  503  0.00000000000E+00  0.00000000000E+00  0.22004436888E+02  0.22004436888E+02  0.00000000000E+00 0.  1.
         21   -1    0    0  503  504 -0.00000000000E+00 -0.00000000000E+00 -0.99311680723E+03  0.99311680723E+03  0.00000000000E+00 0.  1.
         25    2    1    2    0    0  0.22985153819E+02 -0.33632942685E+02 -0.25348154993E+03  0.28554652167E+03  0.12499771098E+03 0.  0.
         25    2    1    2    0    0 -0.22985153819E+02  0.33632942685E+02 -0.71763082041E+03  0.72957472245E+03  0.12500315640E+03 0.  0.
          5    1    3    3  501    0  0.23760605114E-01 -0.12280653800E+01 -0.24451246588E+03  0.24456071778E+03  0.47000000000E+01 0.  1.
         -5    1    3    3    0  501  0.22961393214E+02 -0.32404877305E+02 -0.89690840515E+01  0.40985803886E+02  0.47000000000E+01 0.  1.
          5    1    4    4  502    0  0.37235414995E+02  0.55698921759E+02 -0.36863683344E+03  0.37470528551E+03  0.47000000000E+01 0. -1.
         -5    1    4    4    0  502 -0.60220568814E+02 -0.22065979074E+02 -0.34899398697E+03  0.35486943695E+03  0.47000000000E+01 0. -1.
<mgrwt>
<rscale>  0 0.29565504E+03</rscale>
<asrwt>0</asrwt>
<pdfrwt beam="1">  1       21 0.33852986E-02 0.29565504E+03</pdfrwt>
<pdfrwt beam="2">  1       21 0.15278717E+00 0.29565504E+03</pdfrwt>
<totfact> 0.14169485E+05</totfact>
</mgrwt>
</event>
<event>
 8    1  0.9331162E-006  0.3512716E+03  0.7546771E-02  0.1062094E+00
         21   -1    0    0  504  503  0.00000000000E+00  0.00000000000E+00  0.27626189861E+03  0.27626189861E+03  0.00000000000E+00 0. -1.
         21   -1    0    0  503  504 -0.00000000000E+00 -0.00000000000E+00 -0.11166190499E+03  0.11166190499E+03  0.00000000000E+00 0. -1.
         25    2    1    2    0    0 -0.81046117324E+02 -0.20862653166E+02 -0.17815645130E+02  0.15148470961E+03  0.12500598627E+03 0.  0.
         25    2    1    2    0    0  0.81046117324E+02  0.20862653166E+02  0.18241563874E+03  0.23643909399E+03  0.12499702588E+03 0.  0.
          5    1    3    3  501    0  0.47870731183E+01  0.42633472134E+02 -0.11126021410E+00  0.43158213518E+02  0.47000000000E+01 0.  1.
         -5    1    3    3    0  501 -0.85833190442E+02 -0.63496125300E+02 -0.17704384916E+02  0.10832649609E+03  0.47000000000E+01 0.  1.
          5    1    4    4  502    0  0.10547429073E+03  0.30419402977E+02  0.17835584924E+03  0.20948285142E+03  0.47000000000E+01 0.  1.
         -5    1    4    4    0  502 -0.24428173404E+02 -0.95567498114E+01  0.40597895072E+01  0.26956242573E+02  0.47000000000E+01 0.  1.
<mgrwt>
<rscale>  0 0.35127158E+03</rscale>
<asrwt>0</asrwt>
<pdfrwt beam="1">  1       21 0.42501830E-01 0.35127158E+03</pdfrwt>
<pdfrwt beam="2">  1       21 0.17178755E-01 0.35127158E+03</pdfrwt>
<totfact> 0.15613926E+05</totfact>
</mgrwt>
</event>
<event>
 8    1  0.9331162E-006  0.2634726E+03  0.7546771E-02  0.1105075E+00
         21   -1    0    0  504  503  0.00000000000E+00  0.00000000000E+00  0.42026057697E+02  0.42026057697E+02  0.00000000000E+00 0.  1.
         21   -1    0    0  503  504 -0.00000000000E+00 -0.00000000000E+00 -0.41294503141E+03  0.41294503141E+03  0.00000000000E+00 0.  1.
         25    2    1    2    0    0 -0.42492825604E+01 -0.27582737013E+02 -0.23870310239E+03  0.27089437428E+03  0.12500290853E+03 0.  0.
         25    2    1    2    0    0  0.42492825604E+01  0.27582737013E+02 -0.13221587132E+03  0.18407671483E+03  0.12499734609E+03 0.  0.
          5    1    3    3  501    0 -0.47948009694E+02 -0.22101959605E+01 -0.20348582709E+03  0.20912309396E+03  0.47000000000E+01 0.  1.
         -5    1    3    3    0  501  0.43698727134E+02 -0.25372541053E+02 -0.35217275302E+02  0.61771280319E+02  0.47000000000E+01 0.  1.
          5    1    4    4  502    0  0.33525409818E+02  0.28302396334E+02 -0.14515779017E+03  0.15171635636E+03  0.47000000000E+01 0.  1.
         -5    1    4    4    0  502 -0.29276127257E+02 -0.71965932080E+00  0.12941918846E+02  0.32360358467E+02  0.47000000000E+01 0.  1.
<mgrwt>
<rscale>  0 0.26347259E+03</rscale>
<asrwt>0</asrwt>
<pdfrwt beam="1">  1       21 0.64655472E-02 0.26347259E+03</pdfrwt>
<pdfrwt beam="2">  1       21 0.63530006E-01 0.26347259E+03</pdfrwt>
<totfact> 0.39086532E+05</totfact>
</mgrwt>
</event>
<event>
 8    1  0.9331162E-006  0.2783182E+03  0.7546771E-02  0.1096611E+00
         21   -1    0    0  504  503  0.00000000000E+00  0.00000000000E+00  0.20457333995E+03  0.20457333995E+03  0.00000000000E+00 0. -1.
         21   -1    0    0  503  504 -0.00000000000E+00 -0.00000000000E+00 -0.94661688589E+02  0.94661688589E+02  0.00000000000E+00 0. -1.
         25    2    1    2    0    0 -0.11831558152E+02  0.21529953231E+02 -0.52699955644E+01  0.12750010454E+03  0.12499991660E+03 0.  0.
         25    2    1    2    0    0  0.11831558152E+02 -0.21529953231E+02  0.11518164693E+03  0.17173492400E+03  0.12499019033E+03 0.  0.
          5    1    3    3  501    0 -0.19739062556E+02 -0.39226443567E+00 -0.62401886919E+02  0.65619127951E+02  0.47000000000E+01 0.  1.
         -5    1    3    3    0  501  0.79075044047E+01  0.21922217666E+02  0.57131891355E+02  0.61880976585E+02  0.47000000000E+01 0.  1.
          5    1    4    4  502    0  0.15647467099E+02 -0.19321689218E+02  0.14195726369E+03  0.14419474891E+03  0.47000000000E+01 0. -1.
         -5    1    4    4    0  502 -0.38159089473E+01 -0.22082640124E+01 -0.26775616761E+02  0.27540175090E+02  0.47000000000E+01 0. -1.
<mgrwt>
<rscale>  0 0.27831822E+03</rscale>
<asrwt>0</asrwt>
<pdfrwt beam="1">  1       21 0.31472821E-01 0.27831822E+03</pdfrwt>
<pdfrwt beam="2">  1       21 0.14563337E-01 0.27831822E+03</pdfrwt>
<totfact> 0.39445050E+05</totfact>
</mgrwt>
</event>
<event>
 8    1  0.9331162E-006  0.4548599E+03  0.7546771E-02  0.1026283E+00
         21   -1    0    0  504  503  0.00000000000E+00  0.00000000000E+00  0.22936401918E+03  0.22936401918E+03  0.00000000000E+00 0. -1.
         21   -1    0    0  503  504 -0.00000000000E+00 -0.00000000000E+00 -0.22551218750E+03  0.22551218750E+03  0.00000000000E+00 0. -1.
         25    2    1    2    0    0  0.15348684965E+03  0.32772420099E+02 -0.10516011002E+03  0.22653148783E+03  0.12500248679E+03 0.  0.
         25    2    1    2    0    0 -0.15348684965E+03 -0.32772420099E+02  0.10901194170E+03  0.22834471886E+03  0.12500185064E+03 0.  0.
          5    1    3    3  501    0  0.13291890826E+03  0.73756070536E+02 -0.64986875593E+02  0.16538675314E+03  0.47000000000E+01 0.  1.
         -5    1    3    3    0  501  0.20567941385E+02 -0.40983650437E+02 -0.40173234426E+02  0.61144734689E+02  0.47000000000E+01 0.  1.
          5    1    4    4  502    0 -0.16019322588E+03  0.64890642444E+01  0.90612096797E+02  0.18421894490E+03  0.47000000000E+01 0. -1.
         -5    1    4    4    0  502  0.67063762357E+01 -0.39261484343E+02  0.18399844899E+02  0.44125773958E+02  0.47000000000E+01 0. -1.
<mgrwt>
<rscale>  0 0.45485990E+03</rscale>
<asrwt>0</asrwt>
<pdfrwt beam="1">  1       21 0.35286772E-01 0.45485990E+03</pdfrwt>
<pdfrwt beam="2">  1       21 0.34694182E-01 0.45485990E+03</pdfrwt>
<totfact> 0.57202503E+04</totfact>
</mgrwt>
</event>
<event>
 8    1  0.9331162E-006  0.2832550E+03  0.7546771E-02  0.1093924E+00
         21   -1    0    0  504  503  0.00000000000E+00  0.00000000000E+00  0.24233459147E+02  0.24233459147E+02  0.00000000000E+00 0. -1.
         21   -1    0    0  503  504 -0.00000000000E+00 -0.00000000000E+00 -0.82771311199E+03  0.82771311199E+03  0.00000000000E+00 0. -1.
         25    2    1    2    0    0 -0.56793215322E+02 -0.94228112041E+01 -0.50234585738E+03  0.52085560800E+03  0.12499978113E+03 0.  0.
         25    2    1    2    0    0  0.56793215322E+02  0.94228112041E+01 -0.30113379547E+03  0.33109096314E+03  0.12500161768E+03 0.  0.
          5    1    3    3  501    0 -0.35473803367E+02  0.55226113621E+02 -0.30584633429E+03  0.31284562415E+03  0.47000000000E+01 0.  1.
         -5    1    3    3    0  501 -0.21319411955E+02 -0.64648924826E+02 -0.19649952309E+03  0.20800998385E+03  0.47000000000E+01 0.  1.
          5    1    4    4  502    0 -0.33218166223E+02 -0.59494987446E+01 -0.31600119720E+02  0.46470427896E+02  0.47000000000E+01 0. -1.
         -5    1    4    4    0  502  0.90011381545E+02  0.15372309949E+02 -0.26953367575E+03  0.28462053524E+03  0.47000000000E+01 0. -1.
<mgrwt>
<rscale>  0 0.28325502E+03</rscale>
<asrwt>0</asrwt>
<pdfrwt beam="1">  1       21 0.37282252E-02 0.28325502E+03</pdfrwt>
<pdfrwt beam="2">  1       21 0.12734046E+00 0.28325502E+03</pdfrwt>
<totfact> 0.19471539E+05</totfact>
</mgrwt>
</event>
<event>
 8    1  0.9331162E-006  0.4087950E+03  0.7546771E-02  0.1040776E+00
         21   -1    0    0  504  503  0.00000000000E+00  0.00000000000E+00  0.51804468465E+02  0.51804468465E+02  0.00000000000E+00 0. -1.
         21   -1    0    0  503  504 -0.00000000000E+00 -0.00000000000E+00 -0.80646212141E+03  0.80646212141E+03  0.00000000000E+00 0. -1.
         25    2    1    2    0    0 -0.11781741888E+03 -0.98095470151E+02 -0.26927901105E+03  0.33413149160E+03  0.12501600870E+03 0.  0.
         25    2    1    2    0    0  0.11781741888E+03  0.98095470151E+02 -0.48537864189E+03  0.52413509827E+03  0.12498603835E+03 0.  0.
          5    1    3    3  501    0 -0.83374393009E+02  0.48497801502E+01 -0.15695645879E+03  0.17785451845E+03  0.47000000000E+01 0.  1.
         -5    1    3    3    0  501 -0.34443025868E+02 -0.10294525030E+03 -0.11232255226E+03  0.15627697315E+03  0.47000000000E+01 0.  1.
          5    1    4    4  502    0  0.22721496850E+02  0.86243815039E+02 -0.14327556392E+03  0.16883198533E+03  0.47000000000E+01 0.  1.
         -5    1    4    4    0  502  0.95095922028E+02  0.11851655112E+02 -0.34210307797E+03  0.35530311295E+03  0.47000000000E+01 0.  1.
<mgrwt>
<rscale>  0 0.40879502E+03</rscale>
<asrwt>0</asrwt>
<pdfrwt beam="1">  1       21 0.79699184E-02 0.40879502E+03</pdfrwt>
<pdfrwt beam="2">  1       21 0.12407109E+00 0.40879502E+03</pdfrwt>
<totfact> 0.54236426E+04</totfact>
</mgrwt>
</event>
<event>
 8    1  0.9331162E-006  0.6482181E+03  0.7546771E-02  0.9810129E-01
         21   -1    0    0  504  503  0.00000000000E+00  0.00000000000E+00  0.15689019936E+03  0.15689019936E+03  0.00000000000E+00 0. -1.
         21   -1    0    0  503  504 -0.00000000000E+00 -0.00000000000E+00 -0.66955542340E+03  0.66955542340E+03  0.00000000000E+00 0. -1.
         25    2    1    2    0    0  0.55415669891E+02 -0.29361493911E+03 -0.27199949549E+03  0.42294527157E+03  0.12497339021E+03 0.  0.
         25    2    1    2    0    0 -0.55415669891E+02  0.29361493911E+03 -0.24066572855E+03  0.40350035119E+03  0.12494763533E+03 0.  0.
          5    1    3    3  501    0  0.26908376072E+02 -0.39865994696E+01 -0.49124003947E+02  0.56349014561E+02  0.47000000000E+01 0. -1.
         -5    1    3    3    0  501  0.28507293818E+02 -0.28962833964E+03 -0.22287549154E+03  0.36659625701E+03  0.47000000000E+01 0. -1.
          5    1    4    4  502    0 -0.63971164795E+02  0.30007556480E+03 -0.24317627008E+03  0.39152834233E+03  0.47000000000E+01 0.  1.
         -5    1    4    4    0  502  0.85554949048E+01 -0.64606256889E+01  0.25105415372E+01  0.11972008861E+02  0.47000000000E+01 0.  1.
<mgrwt>
<rscale>  0 0.64821812E+03</rscale>
<asrwt>0</asrwt>
<pdfrwt beam="1">  1       21 0.24136954E-01 0.64821812E+03</pdfrwt>
<pdfrwt beam="2">  1       21 0.10300853E+00 0.64821812E+03</pdfrwt>
<totfact> 0.10518170E+04</totfact>
</mgrwt>
</event>
<event>
 8    1  0.9331162E-006  0.5102653E+03  0.7546771E-02  0.1011134E+00
         21   -1    0    0  504  503  0.00000000000E+00  0.00000000000E+00  0.11132995926E+03  0.11132995926E+03  0.00000000000E+00 0. -1.
         21   -1    0    0  503  504 -0.00000000000E+00 -0.00000000000E+00 -0.58468231207E+03  0.58468231207E+03  0.00000000000E+00 0. -1.
         25    2    1    2    0    0 -0.20455811113E+03  0.63469445379E+02 -0.15489930430E+03  0.29239182996E+03  0.12500718550E+03 0.  0.
         25    2    1    2    0    0  0.20455811113E+03 -0.63469445379E+02 -0.31845304851E+03  0.40362044137E+03  0.12499890104E+03 0.  0.
          5    1    3    3  501    0 -0.87282566795E+02 -0.15201291968E+02 -0.11561947719E+03  0.14573702086E+03  0.47000000000E+01 0.  1.
         -5    1    3    3    0  501 -0.11727554433E+03  0.78670737346E+02 -0.39279827111E+02  0.14665480910E+03  0.47000000000E+01 0.  1.
          5    1    4    4  502    0  0.10145143975E+03  0.32178313693E+02 -0.15269074839E+03  0.18618376176E+03  0.47000000000E+01 0.  1.
         -5    1    4    4    0  502  0.10310667138E+03 -0.95647759071E+02 -0.16576230011E+03  0.21743667960E+03  0.47000000000E+01 0.  1.
<mgrwt>
<rscale>  0 0.51026526E+03</rscale>
<asrwt>0</asrwt>
<pdfrwt beam="1">  1       21 0.17127686E-01 0.51026526E+03</pdfrwt>
<pdfrwt beam="2">  1       21 0.89951128E-01 0.51026526E+03</pdfrwt>
<totfact> 0.29015469E+04</totfact>
</mgrwt>
</event>
<event>
 8    1  0.9331162E-006  0.2719082E+03  0.7546771E-02  0.1100192E+00
         21   -1    0    0  504  503  0.00000000000E+00  0.00000000000E+00  0.78490244136E+02  0.78490244136E+02  0.00000000000E+00 0. -1.
         21   -1    0    0  503  504 -0.00000000000E+00 -0.00000000000E+00 -0.23548813039E+03  0.23548813039E+03  0.00000000000E+00 0. -1.
         25    2    1    2    0    0 -0.41122132571E+02  0.31750095678E+02 -0.92807089311E+02  0.16416002830E+03  0.12504503469E+03 0.  0.
         25    2    1    2    0    0  0.41122132571E+02 -0.31750095678E+02 -0.64190796938E+02  0.14981834623E+03  0.12500392030E+03 0.  0.
          5    1    3    3  501    0  0.30020401891E+02  0.32157862960E+02 -0.80429071920E+02  0.91794761777E+02  0.47000000000E+01 0.  1.
         -5    1    3    3    0  501 -0.71142534462E+02 -0.40776728181E+00 -0.12378017390E+02  0.72365266519E+02  0.47000000000E+01 0.  1.
          5    1    4    4  502    0  0.68590649842E+02 -0.32982858530E+02 -0.85611904383E+02  0.11464743510E+03  0.47000000000E+01 0.  1.
         -5    1    4    4    0  502 -0.27468517271E+02  0.12327628523E+01  0.21421107445E+02  0.35170911127E+02  0.47000000000E+01 0.  1.
<mgrwt>
<rscale>  0 0.27190823E+03</rscale>
<asrwt>0</asrwt>
<pdfrwt beam="1">  1       21 0.12075422E-01 0.27190823E+03</pdfrwt>
<pdfrwt beam="2">  1       21 0.36228942E-01 0.27190823E+03</pdfrwt>
<totfact> 0.41934557E+05</totfact>
</mgrwt>
</event>
<event>
 8    1  0.9331162E-006  0.3197318E+03  0.7546771E-02  0.1075773E+00
         21   -1    0    0  504  503  0.00000000000E+00  0.00000000000E+00  0.12410185993E+03  0.12410185993E+03  0.00000000000E+00 0. -1.
         21   -1    0    0  503  504 -0.00000000000E+00 -0.00000000000E+00 -0.20593647553E+03  0.20593647553E+03  0.00000000000E+00 0. -1.
         25    2    1    2    0    0  0.38296153800E+02 -0.46416369333E+02  0.41056714457E+02  0.14469095971E+03  0.12501498023E+03 0.  0.
         25    2    1    2    0    0 -0.38296153800E+02  0.46416369333E+02 -0.12289133006E+03  0.18534737575E+03  0.12502118202E+03 0.  0.
          5    1    3    3  501    0 -0.40988962835E+02 -0.35724570242E+02 -0.15388910722E+00  0.54575211178E+02  0.47000000000E+01 0.  1.
         -5    1    3    3    0  501  0.79285116636E+02 -0.10691799092E+02  0.41210603565E+02  0.90115748534E+02  0.47000000000E+01 0.  1.
          5    1    4    4  502    0  0.95109913457E+01 -0.30663132535E+02  0.11171936930E+00  0.32446712228E+02  0.47000000000E+01 0.  1.
         -5    1    4    4    0  502 -0.47807145146E+02  0.77079501868E+02 -0.12300304943E+03  0.15290066352E+03  0.47000000000E+01 0.  1.
<mgrwt>
<rscale>  0 0.31973176E+03</rscale>
<asrwt>0</asrwt>
<pdfrwt beam="1">  1       21 0.19092594E-01 0.31973176E+03</pdfrwt>
<pdfrwt beam="2">  1       21 0.31682535E-01 0.31973176E+03</pdfrwt>
<totfact> 0.23365929E+05</totfact>
</mgrwt>
</event>
<event>
 8    1  0.9331162E-006  0.2870576E+03  0.7546771E-02  0.1091895E+00
         21   -1    0    0  504  503  0.00000000000E+00  0.00000000000E+00  0.39118835078E+03  0.39118835078E+03  0.00000000000E+00 0.  1.
         21   -1    0    0  503  504 -0.00000000000E+00 -0.00000000000E+00 -0.52661360740E+02  0.52661360740E+02  0.00000000000E+00 0.  1.
         25    2    1    2    0    0  0.57696356551E+01 -0.68475433721E+02  0.14466064098E+03  0.20315886373E+03  0.12499859656E+03 0.  0.
         25    2    1    2    0    0 -0.57696356551E+01  0.68475433721E+02  0.19386634905E+03  0.24069084779E+03  0.12500299674E+03 0.  0.
          5    1    3    3  501    0  0.26451197772E+02 -0.69832956060E+02  0.21039514854E+02  0.77724248475E+02  0.47000000000E+01 0. -1.
         -5    1    3    3    0  501 -0.20681562117E+02  0.13575223388E+01  0.12362112613E+03  0.12543461525E+03  0.47000000000E+01 0. -1.
          5    1    4    4  502    0 -0.50665673606E+02 -0.96656383225E+01  0.81624915717E+02  0.96670325912E+02  0.47000000000E+01 0. -1.
         -5    1    4    4    0  502  0.44896037951E+02  0.78141072044E+02  0.11224143334E+03  0.14402052188E+03  0.47000000000E+01 0. -1.
<mgrwt>
<rscale>  0 0.28705756E+03</rscale>
<asrwt>0</asrwt>
<pdfrwt beam="1">  1       21 0.60182821E-01 0.28705756E+03</pdfrwt>
<pdfrwt beam="2">  1       21 0.81017481E-02 0.28705756E+03</pdfrwt>
<totfact> 0.29526190E+05</totfact>
</mgrwt>
</event>
<event>
 8    1  0.9331162E-006  0.3432687E+03  0.7546771E-02  0.1065412E+00
         21   -1    0    0  504  503  0.00000000000E+00  0.00000000000E+00  0.14968365567E+03  0.14968365567E+03  0.00000000000E+00 0.  1.
         21   -1    0    0  503  504 -0.00000000000E+00 -0.00000000000E+00 -0.19680409926E+03  0.19680409926E+03  0.00000000000E+00 0.  1.
         25    2    1    2    0    0 -0.51368618607E+02  0.21488804622E+01 -0.13038047481E+03  0.18779450192E+03  0.12499741627E+03 0.  0.
         25    2    1    2    0    0  0.51368618607E+02 -0.21488804622E+01  0.83260031223E+02  0.15869325301E+03  0.12493183376E+03 0.  0.
          5    1    3    3  501    0 -0.90455736853E+02  0.49503620967E+01 -0.11235775332E+03  0.14440602877E+03  0.47000000000E+01 0. -1.
         -5    1    3    3    0  501  0.39087118246E+02 -0.28014816345E+01 -0.18022721486E+02  0.43388473145E+02  0.47000000000E+01 0. -1.
          5    1    4    4  502    0 -0.11418303100E+02 -0.35548274810E+02 -0.12201231972E+02  0.39560302695E+02  0.47000000000E+01 0.  1.
         -5    1    4    4    0  502  0.62786921707E+02  0.33399394348E+02  0.95461263195E+02  0.11913295032E+03  0.47000000000E+01 0.  1.
<mgrwt>
<rscale>  0 0.34326874E+03</rscale>
<asrwt>0</asrwt>
<pdfrwt beam="1">  1       21 0.23028255E-01 0.34326874E+03</pdfrwt>
<pdfrwt beam="2">  1       21 0.30277554E-01 0.34326874E+03</pdfrwt>
<totfact> 0.17820312E+05</totfact>
</mgrwt>
</event>
<event>
 8    1  0.9331162E-006  0.2587286E+03  0.7546771E-02  0.1107910E+00
         21   -1    0    0  504  503  0.00000000000E+00  0.00000000000E+00  0.27893128379E+02  0.27893128379E+02  0.00000000000E+00 0.  1.
         21   -1    0    0  503  504 -0.00000000000E+00 -0.00000000000E+00 -0.59997289941E+03  0.59997289941E+03  0.00000000000E+00 0.  1.
         25    2    1    2    0    0  0.90138018976E+01  0.31862570057E+02 -0.27563033754E+03  0.30445703655E+03  0.12500212852E+03 0.  0.
         25    2    1    2    0    0 -0.90138018976E+01 -0.31862570057E+02 -0.29644943349E+03  0.32340899124E+03  0.12495854114E+03 0.  0.
          5    1    3    3  501    0 -0.29823960385E+02  0.69000835424E+02 -0.16495188120E+03  0.18133338637E+03  0.47000000000E+01 0. -1.
         -5    1    3    3    0  501  0.38837762283E+02 -0.37138265367E+02 -0.11067845634E+03  0.12312365017E+03  0.47000000000E+01 0. -1.
          5    1    4    4  502    0 -0.13089058910E+02 -0.23878576347E+02 -0.30731777561E+03  0.30855763656E+03  0.47000000000E+01 0.  1.
         -5    1    4    4    0  502  0.40752570121E+01 -0.79839937105E+01  0.10868342126E+02  0.14851354681E+02  0.47000000000E+01 0.  1.
<mgrwt>
<rscale>  0 0.25872859E+03</rscale>
<asrwt>0</asrwt>
<pdfrwt beam="1">  1       21 0.42912510E-02 0.25872859E+03</pdfrwt>
<pdfrwt beam="2">  1       21 0.92303514E-01 0.25872859E+03</pdfrwt>
<totfact> 0.33901526E+05</totfact>
</mgrwt>
</event>
<event>
 8    1  0.9331162E-006  0.4159449E+03  0.7546771E-02  0.1038394E+00
         21   -1    0    0  504  503  0.00000000000E+00  0.00000000000E+00  0.23935994049E+02  0.23935994049E+02  0.00000000000E+00 0. -1.
         21   -1    0    0  503  504 -0.00000000000E+00 -0.00000000000E+00 -0.18070079646E+04  0.18070079646E+04  0.00000000000E+00 0. -1.
         25    2    1    2    0    0  0.60047855234E+01 -0.13527987803E+03 -0.13158484093E+04  0.13286901965E+04  0.12499559636E+03 0.  0.
         25    2    1    2    0    0 -0.60047855234E+01  0.13527987803E+03 -0.46722356126E+03  0.50225376218E+03  0.12499713028E+03 0.  0.
          5    1    3    3  501    0 -0.15880225471E+02 -0.98072909989E+02 -0.41335440675E+03  0.42515224663E+03  0.47000000000E+01 0.  1.
         -5    1    3    3    0  501  0.21885010994E+02 -0.37206968045E+02 -0.90249400255E+03  0.90353794985E+03  0.47000000000E+01 0.  1.
          5    1    4    4  502    0 -0.17030123912E+02  0.15536200319E+03 -0.35969952108E+03  0.39221577304E+03  0.47000000000E+01 0. -1.
         -5    1    4    4    0  502  0.11025338388E+02 -0.20082125157E+02 -0.10752404019E+03  0.11003798915E+03  0.47000000000E+01 0. -1.
<mgrwt>
<rscale>  0 0.41594486E+03</rscale>
<asrwt>0</asrwt>
<pdfrwt beam="1">  1       21 0.36824596E-02 0.41594486E+03</pdfrwt>
<pdfrwt beam="2">  1       21 0.27800130E+00 0.41594486E+03</pdfrwt>
<totfact> 0.17857841E+04</totfact>
</mgrwt>
</event>
<event>
 8    1  0.9331162E-006  0.2764789E+03  0.7546771E-02  0.1097628E+00
         21   -1    0    0  504  503  0.00000000000E+00  0.00000000000E+00  0.25512925362E+03  0.25512925362E+03  0.00000000000E+00 0. -1.
         21   -1    0    0  503  504 -0.00000000000E+00 -0.00000000000E+00 -0.74903794862E+02  0.74903794862E+02  0.00000000000E+00 0. -1.
         25    2    1    2    0    0 -0.27758999654E+02 -0.52099868487E+02  0.89286609315E+02  0.16456410826E+03  0.12499715503E+03 0.  0.
         25    2    1    2    0    0  0.27758999654E+02  0.52099868487E+02  0.90938849440E+02  0.16546894022E+03  0.12500054993E+03 0.  0.
          5    1    3    3  501    0 -0.46564349615E+02  0.27222428267E+02  0.50990339226E+02  0.74373408892E+02  0.47000000000E+01 0. -1.
         -5    1    3    3    0  501  0.18805349961E+02 -0.79322296754E+02  0.38296270088E+02  0.90190699366E+02  0.47000000000E+01 0. -1.
          5    1    4    4  502    0  0.73752970154E+02  0.43077931751E+02  0.79976140879E+02  0.11710457685E+03  0.47000000000E+01 0. -1.
         -5    1    4    4    0  502 -0.45993970501E+02  0.90219367353E+01  0.10962708561E+02  0.48364363367E+02  0.47000000000E+01 0. -1.
<mgrwt>
<rscale>  0 0.27647893E+03</rscale>
<asrwt>0</asrwt>
<pdfrwt beam="1">  1       21 0.39250654E-01 0.27647893E+03</pdfrwt>
<pdfrwt beam="2">  1       21 0.11523661E-01 0.27647893E+03</pdfrwt>
<totfact> 0.38769731E+05</totfact>
</mgrwt>
</event>
<event>
 8    1  0.9331162E-006  0.2731347E+03  0.7546771E-02  0.1099499E+00
         21   -1    0    0  504  503  0.00000000000E+00  0.00000000000E+00  0.90202292164E+03  0.90202292164E+03  0.00000000000E+00 0. -1.
         21   -1    0    0  503  504 -0.00000000000E+00 -0.00000000000E+00 -0.20676462194E+02  0.20676462194E+02  0.00000000000E+00 0. -1.
         25    2    1    2    0    0 -0.54031141160E+02 -0.10322950020E+02  0.43620051943E+03  0.45707705119E+03  0.12499043987E+03 0.  0.
         25    2    1    2    0    0  0.54031141160E+02  0.10322950020E+02  0.44514594002E+03  0.46562233265E+03  0.12499328475E+03 0.  0.
          5    1    3    3  501    0 -0.53036337415E+02  0.51744748276E+02  0.24401258038E+03  0.25505803545E+03  0.47000000000E+01 0. -1.
         -5    1    3    3    0  501 -0.99480374516E+00 -0.62067698297E+02  0.19218793905E+03  0.20201901574E+03  0.47000000000E+01 0. -1.
          5    1    4    4  502    0  0.86360140263E+02 -0.18352304159E+02  0.23625590774E+03  0.25225745745E+03  0.47000000000E+01 0.  1.
         -5    1    4    4    0  502 -0.32328999103E+02  0.28675254180E+02  0.20889003227E+03  0.21336487520E+03  0.47000000000E+01 0.  1.
<mgrwt>
<rscale>  0 0.27313471E+03</rscale>
<asrwt>0</asrwt>
<pdfrwt beam="1">  1       21 0.13877273E+00 0.27313471E+03</pdfrwt>
<pdfrwt beam="2">  1       21 0.31809949E-02 0.27313471E+03</pdfrwt>
<totfact> 0.20434990E+05</totfact>
</mgrwt>
</event>
<event>
 8    1  0.9331162E-006  0.2653464E+03  0.7546771E-02  0.1103973E+00
         21   -1    0    0  504  503  0.00000000000E+00  0.00000000000E+00  0.41568077049E+02  0.41568077049E+02  0.00000000000E+00 0. -1.
         21   -1    0    0  503  504 -0.00000000000E+00 -0.00000000000E+00 -0.42345414200E+03  0.42345414200E+03  0.00000000000E+00 0. -1.
         25    2    1    2    0    0 -0.22432270058E+01 -0.54141680210E+01 -0.26815746686E+03  0.29591664774E+03  0.12499556031E+03 0.  0.
         25    2    1    2    0    0  0.22432270058E+01  0.54141680210E+01 -0.11372859810E+03  0.16910557131E+03  0.12501261912E+03 0.  0.
          5    1    3    3  501    0 -0.29688468480E+02  0.11497352605E+02 -0.26046118465E+03  0.26244182781E+03  0.47000000000E+01 0.  1.
         -5    1    3    3    0  501  0.27445241474E+02 -0.16911520626E+02 -0.76962822108E+01  0.33474819929E+02  0.47000000000E+01 0.  1.
          5    1    4    4  502    0  0.14045801593E+02  0.42862524164E+02 -0.12071174229E+03  0.12894919638E+03  0.47000000000E+01 0. -1.
         -5    1    4    4    0  502 -0.11802574587E+02 -0.37448356143E+02  0.69831441946E+01  0.40156374930E+02  0.47000000000E+01 0. -1.
<mgrwt>
<rscale>  0 0.26534637E+03</rscale>
<asrwt>0</asrwt>
<pdfrwt beam="1">  1       21 0.63950889E-02 0.26534637E+03</pdfrwt>
<pdfrwt beam="2">  1       21 0.65146790E-01 0.26534637E+03</pdfrwt>
<totfact> 0.37687046E+05</totfact>
</mgrwt>
</event>
<event>
 8    1  0.9331162E-006  0.2767527E+03  0.7546771E-02  0.1097476E+00
         21   -1    0    0  504  503  0.00000000000E+00  0.00000000000E+00  0.35370283703E+03  0.35370283703E+03  0.00000000000E+00 0. -1.
         21   -1    0    0  503  504 -0.00000000000E+00 -0.00000000000E+00 -0.54135892215E+02  0.54135892215E+02  0.00000000000E+00 0. -1.
         25    2    1    2    0    0 -0.42583985501E+02 -0.37516230600E+02  0.17534478453E+03  0.22269266354E+03  0.12500146221E+03 0.  0.
         25    2    1    2    0    0  0.42583985501E+02  0.37516230600E+02  0.12422216029E+03  0.18514606570E+03  0.12500822837E+03 0.  0.
          5    1    3    3  501    0 -0.22512211223E+02 -0.16702110174E+02 -0.13586939382E+02  0.31503254755E+02  0.47000000000E+01 0.  1.
         -5    1    3    3    0  501 -0.20071774278E+02 -0.20814120427E+02  0.18893172391E+03  0.19118940879E+03  0.47000000000E+01 0.  1.
          5    1    4    4  502    0  0.13826990705E+02 -0.90649860973E+01  0.12886477550E+03  0.13000607681E+03  0.47000000000E+01 0. -1.
         -5    1    4    4    0  502  0.28756994796E+02  0.46581216698E+02 -0.46426152094E+01  0.55139988889E+02  0.47000000000E+01 0. -1.
<mgrwt>
<rscale>  0 0.27675273E+03</rscale>
<asrwt>0</asrwt>
<pdfrwt beam="1">  1       21 0.54415820E-01 0.27675273E+03</pdfrwt>
<pdfrwt beam="2">  1       21 0.83285990E-02 0.27675273E+03</pdfrwt>
<totfact> 0.35003223E+05</totfact>
</mgrwt>
</event>
<event>
 8    1  0.9331162E-006  0.2833244E+03  0.7546771E-02  0.1093887E+00
         21   -1    0    0  504  503  0.00000000000E+00  0.00000000000E+00  0.78331317161E+03  0.78331317161E+03  0.00000000000E+00 0.  1.
         21   -1    0    0  503  504 -0.00000000000E+00 -0.00000000000E+00 -0.25619616327E+02  0.25619616327E+02  0.00000000000E+00 0.  1.
         25    2    1    2    0    0  0.14671037786E+02 -0.38723381825E+02  0.22975439902E+03  0.26481297075E+03  0.12499634377E+03 0.  0.
         25    2    1    2    0    0 -0.14671037786E+02  0.38723381825E+02  0.52793915626E+03  0.54411981719E+03  0.12502752935E+03 0.  0.
          5    1    3    3  501    0  0.20887670286E+02  0.38085320157E+02  0.37286115237E+02  0.57438060299E+02  0.47000000000E+01 0.  1.
         -5    1    3    3    0  501 -0.62166325002E+01 -0.76808701982E+02  0.19246828379E+03  0.20737491045E+03  0.47000000000E+01 0.  1.
          5    1    4    4  502    0  0.29150819372E+02  0.23922128674E+02  0.44790496889E+02  0.58739400081E+02  0.47000000000E+01 0. -1.
         -5    1    4    4    0  502 -0.43821857158E+02  0.14801253151E+02  0.48314865938E+03  0.48538041711E+03  0.47000000000E+01 0. -1.
<mgrwt>
<rscale>  0 0.28332443E+03</rscale>
<asrwt>0</asrwt>
<pdfrwt beam="1">  1       21 0.12050970E+00 0.28332443E+03</pdfrwt>
<pdfrwt beam="2">  1       21 0.39414800E-02 0.28332443E+03</pdfrwt>
<totfact> 0.20380770E+05</totfact>
</mgrwt>
</event>
<event>
 8    1  0.9331162E-006  0.2626249E+03  0.7546771E-02  0.1105576E+00
         21   -1    0    0  504  503  0.00000000000E+00  0.00000000000E+00  0.35070132924E+03  0.35070132924E+03  0.00000000000E+00 0.  1.
         21   -1    0    0  503  504 -0.00000000000E+00 -0.00000000000E+00 -0.49167079910E+02  0.49167079910E+02  0.00000000000E+00 0.  1.
         25    2    1    2    0    0  0.21946137016E+02 -0.21507617912E+02  0.19028169671E+03  0.22973177480E+03  0.12500141476E+03 0.  0.
         25    2    1    2    0    0 -0.21946137016E+02  0.21507617912E+02  0.11125255262E+03  0.17013663435E+03  0.12500053330E+03 0.  0.
          5    1    3    3  501    0  0.54538384296E+01 -0.55310017169E+02  0.26740079834E+02  0.61855187514E+02  0.47000000000E+01 0. -1.
         -5    1    3    3    0  501  0.16492298587E+02  0.33802399257E+02  0.16354161687E+03  0.16787658728E+03  0.47000000000E+01 0. -1.
          5    1    4    4  502    0 -0.41773514277E+02  0.10631207468E+02 -0.11798014728E+02  0.44936980526E+02  0.47000000000E+01 0. -1.
         -5    1    4    4    0  502  0.19827377260E+02  0.10876410445E+02  0.12305056735E+03  0.12519965383E+03  0.47000000000E+01 0. -1.
<mgrwt>
<rscale>  0 0.26262491E+03</rscale>
<asrwt>0</asrwt>
<pdfrwt beam="1">  1       21 0.53954049E-01 0.26262491E+03</pdfrwt>
<pdfrwt beam="2">  1       21 0.75641663E-02 0.26262491E+03</pdfrwt>
<totfact> 0.42314469E+05</totfact>
</mgrwt>
</event>
<event>
 8    1  0.9331162E-006  0.3244276E+03  0.7546771E-02  0.1073629E+00
         21   -1    0    0  504  503  0.00000000000E+00  0.00000000000E+00  0.48860703505E+02  0.48860703505E+02  0.00000000000E+00 0. -1.
         21   -1    0    0  503  504 -0.00000000000E+00 -0.00000000000E+00 -0.53853752780E+03  0.53853752780E+03  0.00000000000E+00 0. -1.
         25    2    1    2    0    0 -0.41452325152E+02  0.82248826322E+02 -0.32985015951E+03  0.36456709504E+03  0.12499949744E+03 0.  0.
         25    2    1    2    0    0  0.41452325152E+02 -0.82248826322E+02 -0.15982666479E+03  0.22283113627E+03  0.12500395123E+03 0.  0.
          5    1    3    3  501    0 -0.18603247168E+02  0.85482591905E+02 -0.32956897062E+03  0.34101488343E+03  0.47000000000E+01 0.  1.
         -5    1    3    3    0  501 -0.22849077984E+02 -0.32337655828E+01 -0.28118889539E+00  0.23552211611E+02  0.47000000000E+01 0.  1.
          5    1    4    4  502    0 -0.92378982241E+01  0.72565921985E+01  0.15190740986E+02  0.19769812990E+02  0.47000000000E+01 0.  1.
         -5    1    4    4    0  502  0.50690223376E+02 -0.89505418521E+02 -0.17501740577E+03  0.20306132328E+03  0.47000000000E+01 0.  1.
<mgrwt>
<rscale>  0 0.32442763E+03</rscale>
<asrwt>0</asrwt>
<pdfrwt beam="1">  1       21 0.75170314E-02 0.32442763E+03</pdfrwt>
<pdfrwt beam="2">  1       21 0.82851927E-01 0.32442763E+03</pdfrwt>
<totfact> 0.16341633E+05</totfact>
</mgrwt>
</event>
<event>
 8    1  0.9331162E-006  0.3074670E+03  0.7546771E-02  0.1081566E+00
         21   -1    0    0  504  503  0.00000000000E+00  0.00000000000E+00  0.33439892706E+03  0.33439892706E+03  0.00000000000E+00 0.  1.
         21   -1    0    0  503  504 -0.00000000000E+00 -0.00000000000E+00 -0.70676019971E+02  0.70676019971E+02  0.00000000000E+00 0.  1.
         25    2    1    2    0    0  0.71785197225E+02 -0.10944724868E+02  0.20074312359E+03  0.24737380295E+03  0.12499238046E+03 0.  0.
         25    2    1    2    0    0 -0.71785197225E+02  0.10944724868E+02  0.62979783499E+02  0.15770114408E+03  0.12502118289E+03 0.  0.
          5    1    3    3  501    0  0.19069368355E+02  0.12072527120E+02  0.18651238530E+03  0.18793176046E+03  0.47000000000E+01 0. -1.
         -5    1    3    3    0  501  0.52715828870E+02 -0.23017251989E+02  0.14230738290E+02  0.59442042485E+02  0.47000000000E+01 0. -1.
          5    1    4    4  502    0 -0.10285170951E+03  0.30732043238E+02  0.46829582729E+02  0.11720935308E+03  0.47000000000E+01 0.  1.
         -5    1    4    4    0  502  0.31066512284E+02 -0.19787318370E+02  0.16150200770E+02  0.40491791003E+02  0.47000000000E+01 0.  1.
<mgrwt>
<rscale>  0 0.30746698E+03</rscale>
<asrwt>0</asrwt>
<pdfrwt beam="1">  1       21 0.51445988E-01 0.30746698E+03</pdfrwt>
<pdfrwt beam="2">  1       21 0.10873234E-01 0.30746698E+03</pdfrwt>
<totfact> 0.24400186E+05</totfact>
</mgrwt>
</event>
<event>
 8    1  0.9331162E-006  0.2643704E+03  0.7546771E-02  0.1104545E+00
         21   -1    0    0  504  503  0.00000000000E+00  0.00000000000E+00  0.19718686479E+03  0.19718686479E+03  0.00000000000E+00 0. -1.
         21   -1    0    0  503  504 -0.00000000000E+00 -0.00000000000E+00 -0.88611002248E+02  0.88611002248E+02  0.00000000000E+00 0. -1.
         25    2    1    2    0    0 -0.20055621140E+02  0.15715544192E+02  0.91713583813E+02  0.15711817443E+03  0.12500213203E+03 0.  0.
         25    2    1    2    0    0  0.20055621140E+02 -0.15715544192E+02  0.16862278728E+02  0.12867969260E+03  0.12499968231E+03 0.  0.
          5    1    3    3  501    0 -0.50242887017E+02 -0.20453326882E+02  0.61727869814E+00  0.54453258023E+02  0.47000000000E+01 0. -1.
         -5    1    3    3    0  501  0.30187265877E+02  0.36168871074E+02  0.91096305115E+02  0.10266491641E+03  0.47000000000E+01 0. -1.
          5    1    4    4  502    0  0.51352698188E+02 -0.16156450697E+02 -0.37499096256E+02  0.65775396087E+02  0.47000000000E+01 0. -1.
         -5    1    4    4    0  502 -0.31297077048E+02  0.44090650530E+00  0.54361374984E+02  0.62904296518E+02  0.47000000000E+01 0. -1.
<mgrwt>
<rscale>  0 0.26437039E+03</rscale>
<asrwt>0</asrwt>
<pdfrwt beam="1">  1       21 0.30336441E-01 0.26437039E+03</pdfrwt>
<pdfrwt beam="2">  1       21 0.13632462E-01 0.26437039E+03</pdfrwt>
<totfact> 0.47967645E+05</totfact>
</mgrwt>
</event>
<event>
 8    1  0.9331162E-006  0.6108414E+03  0.7546771E-02  0.9883165E-01
         21   -1    0    0  504  503  0.00000000000E+00  0.00000000000E+00  0.16469309689E+03  0.16469309689E+03  0.00000000000E+00 0. -1.
         21   -1    0    0  503  504 -0.00000000000E+00 -0.00000000000E+00 -0.56639785639E+03  0.56639785639E+03  0.00000000000E+00 0. -1.
         25    2    1    2    0    0  0.62973366459E+02 -0.24884005574E+03 -0.71002275615E+02  0.29419863989E+03  0.12499799337E+03 0.  0.
         25    2    1    2    0    0 -0.62973366459E+02  0.24884005574E+03 -0.33070248388E+03  0.43689231338E+03  0.12499496959E+03 0.  0.
          5    1    3    3  501    0  0.42038769283E+02 -0.17014297832E+03  0.14632975286E+02  0.17593210384E+03  0.47000000000E+01 0. -1.
         -5    1    3    3    0  501  0.20934597176E+02 -0.78697077415E+02 -0.85635250901E+02  0.11826653605E+03  0.47000000000E+01 0. -1.
          5    1    4    4  502    0  0.16084669725E+02  0.10477479442E+03 -0.20175621573E+03  0.22795643165E+03  0.47000000000E+01 0. -1.
         -5    1    4    4    0  502 -0.79058036184E+02  0.14406526132E+03 -0.12894626816E+03  0.20893588173E+03  0.47000000000E+01 0. -1.
<mgrwt>
<rscale>  0 0.61084144E+03</rscale>
<asrwt>0</asrwt>
<pdfrwt beam="1">  1       21 0.25337400E-01 0.61084144E+03</pdfrwt>
<pdfrwt beam="2">  1       21 0.87138131E-01 0.61084144E+03</pdfrwt>
<totfact> 0.14444789E+04</totfact>
</mgrwt>
</event>
<event>
 8    1  0.9331162E-006  0.2799445E+03  0.7546771E-02  0.1095719E+00
         21   -1    0    0  504  503  0.00000000000E+00  0.00000000000E+00  0.39815932378E+02  0.39815932378E+02  0.00000000000E+00 0. -1.
         21   -1    0    0  503  504 -0.00000000000E+00 -0.00000000000E+00 -0.49207009454E+03  0.49207009454E+03  0.00000000000E+00 0. -1.
         25    2    1    2    0    0  0.35379281468E+02  0.47959446200E+02 -0.18739481686E+03  0.23300710686E+03  0.12499476959E+03 0.  0.
         25    2    1    2    0    0 -0.35379281468E+02 -0.47959446200E+02 -0.26485934530E+03  0.29887892005E+03  0.12500533598E+03 0.  0.
          5    1    3    3  501    0  0.50535682333E+02  0.84449630188E+02 -0.12837584067E+03  0.16182719702E+03  0.47000000000E+01 0. -1.
         -5    1    3    3    0  501 -0.15156400865E+02 -0.36490183988E+02 -0.59018976187E+02  0.71179909840E+02  0.47000000000E+01 0. -1.
          5    1    4    4  502    0 -0.33208740625E+02 -0.24833184247E+02 -0.27116355949E+03  0.27435610708E+03  0.47000000000E+01 0. -1.
         -5    1    4    4    0  502 -0.21705408432E+01 -0.23126261953E+02  0.63042141961E+01  0.24522812972E+02  0.47000000000E+01 0. -1.
<mgrwt>
<rscale>  0 0.27994449E+03</rscale>
<asrwt>0</asrwt>
<pdfrwt beam="1">  1       21 0.61255286E-02 0.27994449E+03</pdfrwt>
<pdfrwt beam="2">  1       21 0.75703085E-01 0.27994449E+03</pdfrwt>
<totfact> 0.28971390E+05</totfact>
</mgrwt>
</event>
<event>
 8    1  0.9331162E-006  0.2791075E+03  0.7546771E-02  0.1096177E+00
         21   -1    0    0  504  503  0.00000000000E+00  0.00000000000E+00  0.23188108528E+03  0.23188108528E+03  0.00000000000E+00 0. -1.
         21   -1    0    0  503  504 -0.00000000000E+00 -0.00000000000E+00 -0.83988106773E+02  0.83988106773E+02  0.00000000000E+00 0. -1.
         25    2    1    2    0    0 -0.48879835334E+02  0.25504657350E+02  0.10615602224E+03  0.17301453828E+03  0.12500081419E+03 0.  0.
         25    2    1    2    0    0  0.48879835334E+02 -0.25504657350E+02  0.41736956267E+02  0.14285465378E+03  0.12500301092E+03 0.  0.
          5    1    3    3  501    0 -0.34044605112E+02  0.71967392969E+02  0.92528049829E+02  0.12215510957E+03  0.47000000000E+01 0.  1.
         -5    1    3    3    0  501 -0.14835230222E+02 -0.46462735619E+02  0.13627972411E+02  0.50859428713E+02  0.47000000000E+01 0.  1.
          5    1    4    4  502    0  0.63290811203E+02 -0.24048512498E+02  0.78078067954E+02  0.10345207795E+03  0.47000000000E+01 0. -1.
         -5    1    4    4    0  502 -0.14410975869E+02 -0.14561448516E+01 -0.36341111687E+02  0.39402575829E+02  0.47000000000E+01 0. -1.
<mgrwt>
<rscale>  0 0.27910753E+03</rscale>
<asrwt>0</asrwt>
<pdfrwt beam="1">  1       21 0.35674013E-01 0.27910753E+03</pdfrwt>
<pdfrwt beam="2">  1       21 0.12921247E-01 0.27910753E+03</pdfrwt>
<totfact> 0.38218758E+05</totfact>
</mgrwt>
</event>
<event>
 8    1  0.9331162E-006  0.5152624E+03  0.7546771E-02  0.1009870E+00
         21   -1    0    0  504  503  0.00000000000E+00  0.00000000000E+00  0.43364099071E+03  0.43364099071E+03  0.00000000000E+00 0.  1.
         21   -1    0    0  503  504 -0.00000000000E+00 -0.00000000000E+00 -0.15306174498E+03  0.15306174498E+03  0.00000000000E+00 0.  1.
         25    2    1    2    0    0  0.19115932935E+03  0.11917786842E+03  0.13824076909E+03  0.29237129233E+03  0.12500083530E+03 0.  0.
         25    2    1    2    0    0 -0.19115932935E+03 -0.11917786842E+03  0.14233847664E+03  0.29433144335E+03  0.12500201237E+03 0.  0.
          5    1    3    3  501    0  0.10084466877E+02 -0.20260201236E+01 -0.20042217516E+02  0.23012642453E+02  0.47000000000E+01 0. -1.
         -5    1    3    3    0  501  0.18107486247E+03  0.12120388854E+03  0.15828298661E+03  0.26935864988E+03  0.47000000000E+01 0. -1.
          5    1    4    4  502    0 -0.16717884806E+03 -0.14246823420E+03  0.10345773313E+03  0.24284060110E+03  0.47000000000E+01 0. -1.
         -5    1    4    4    0  502 -0.23980481284E+02  0.23290365781E+02  0.38880743507E+02  0.51490842258E+02  0.47000000000E+01 0. -1.
<mgrwt>
<rscale>  0 0.51526244E+03</rscale>
<asrwt>0</asrwt>
<pdfrwt beam="1">  1       21 0.66713998E-01 0.51526244E+03</pdfrwt>
<pdfrwt beam="2">  1       21 0.23547961E-01 0.51526244E+03</pdfrwt>
<totfact> 0.31425055E+04</totfact>
</mgrwt>
</event>
<event>
 8    1  0.9331162E-006  0.2662133E+03  0.7546771E-02  0.1103467E+00
         21   -1    0    0  504  503  0.00000000000E+00  0.00000000000E+00  0.43663396234E+03  0.43663396234E+03  0.00000000000E+00 0. -1.
         21   -1    0    0  503  504 -0.00000000000E+00 -0.00000000000E+00 -0.40577193325E+02  0.40577193325E+02  0.00000000000E+00 0. -1.
         25    2    1    2    0    0 -0.35370534136E+02 -0.24066922806E+02  0.16897607072E+03  0.21449498735E+03  0.12499958265E+03 0.  0.
         25    2    1    2    0    0  0.35370534136E+02  0.24066922806E+02  0.22708069830E+03  0.26271616832E+03  0.12499540031E+03 0.  0.
          5    1    3    3  501    0  0.16463012747E+00  0.17774733338E+01 -0.19896434778E+02  0.20521808678E+02  0.47000000000E+01 0. -1.
         -5    1    3    3    0  501 -0.35535164264E+02 -0.25844396140E+02  0.18887250549E+03  0.19397317867E+03  0.47000000000E+01 0. -1.
          5    1    4    4  502    0 -0.36413426329E+02  0.17673080279E+02  0.15655792761E+03  0.16177376203E+03  0.47000000000E+01 0.  1.
         -5    1    4    4    0  502  0.71783960465E+02  0.63938425268E+01  0.70522770696E+02  0.10094240630E+03  0.47000000000E+01 0.  1.
<mgrwt>
<rscale>  0 0.26621330E+03</rscale>
<asrwt>0</asrwt>
<pdfrwt beam="1">  1       21 0.67174453E-01 0.26621330E+03</pdfrwt>
<pdfrwt beam="2">  1       21 0.62426454E-02 0.26621330E+03</pdfrwt>
<totfact> 0.36722664E+05</totfact>
</mgrwt>
</event>
<event>
 8    1  0.9331162E-006  0.3042381E+03  0.7546771E-02  0.1083141E+00
         21   -1    0    0  504  503  0.00000000000E+00  0.00000000000E+00  0.12903345395E+03  0.12903345395E+03  0.00000000000E+00 0.  1.
         21   -1    0    0  503  504 -0.00000000000E+00 -0.00000000000E+00 -0.17933487741E+03  0.17933487741E+03  0.00000000000E+00 0.  1.
         25    2    1    2    0    0 -0.33708561893E+01 -0.48702335051E+01  0.62513145223E+02  0.13988246020E+03  0.12499650995E+03 0.  0.
         25    2    1    2    0    0  0.33708561893E+01  0.48702335051E+01 -0.11281456868E+03  0.16848587116E+03  0.12500112010E+03 0.  0.
          5    1    3    3  501    0  0.28870480825E+02 -0.56719154710E+02  0.29355521949E+02  0.70245311893E+02  0.47000000000E+01 0. -1.
         -5    1    3    3    0  501 -0.32241337015E+02  0.51848921205E+02  0.33157623274E+02  0.69637148303E+02  0.47000000000E+01 0. -1.
          5    1    4    4  502    0 -0.13878599775E+02  0.60373810468E+02 -0.80929210250E+02  0.10202568105E+03  0.47000000000E+01 0.  1.
         -5    1    4    4    0  502  0.17249455964E+02 -0.55503576963E+02 -0.31885358431E+02  0.66460190107E+02  0.47000000000E+01 0.  1.
<mgrwt>
<rscale>  0 0.30423806E+03</rscale>
<asrwt>0</asrwt>
<pdfrwt beam="1">  1       21 0.19851301E-01 0.30423806E+03</pdfrwt>
<pdfrwt beam="2">  1       21 0.27589981E-01 0.30423806E+03</pdfrwt>
<totfact> 0.28591052E+05</totfact>
</mgrwt>
</event>
<event>
 8    1  0.9331162E-006  0.2719959E+03  0.7546771E-02  0.1100143E+00
         21   -1    0    0  504  503  0.00000000000E+00  0.00000000000E+00  0.46591847624E+02  0.46591847624E+02  0.00000000000E+00 0.  1.
         21   -1    0    0  503  504 -0.00000000000E+00 -0.00000000000E+00 -0.39696744443E+03  0.39696744443E+03  0.00000000000E+00 0.  1.
         25    2    1    2    0    0 -0.28193381490E+02  0.43625454158E+02 -0.19651104764E+03  0.23862709836E+03  0.12501301218E+03 0.  0.
         25    2    1    2    0    0  0.28193381490E+02 -0.43625454158E+02 -0.15386454916E+03  0.20493219370E+03  0.12499943005E+03 0.  0.
          5    1    3    3  501    0 -0.70441257917E+02  0.24438874375E+02 -0.64775531735E+02  0.98879668836E+02  0.47000000000E+01 0. -1.
         -5    1    3    3    0  501  0.42247876428E+02  0.19186579783E+02 -0.13173551591E+03  0.13974742952E+03  0.47000000000E+01 0. -1.
          5    1    4    4  502    0  0.52940605531E+02 -0.20874787947E+02 -0.11077012908E+02  0.58165751957E+02  0.47000000000E+01 0.  1.
         -5    1    4    4    0  502 -0.24747224041E+02 -0.22750666211E+02 -0.14278753626E+03  0.14676644174E+03  0.47000000000E+01 0.  1.
<mgrwt>
<rscale>  0 0.27199593E+03</rscale>
<asrwt>0</asrwt>
<pdfrwt beam="1">  1       21 0.71679768E-02 0.27199593E+03</pdfrwt>
<pdfrwt beam="2">  1       21 0.61071913E-01 0.27199593E+03</pdfrwt>
<totfact> 0.35547390E+05</totfact>
</mgrwt>
</event>
<event>
 8    1  0.9331162E-006  0.6606535E+03  0.7546771E-02  0.9786991E-01
         21   -1    0    0  504  503  0.00000000000E+00  0.00000000000E+00  0.11832572942E+04  0.11832572942E+04  0.00000000000E+00 0.  1.
         21   -1    0    0  503  504 -0.00000000000E+00 -0.00000000000E+00 -0.92216432265E+02  0.92216432265E+02  0.00000000000E+00 0.  1.
         25    2    1    2    0    0  0.11015002033E+03 -0.16375951578E+03  0.94646875885E+02  0.25205978981E+03  0.12500360209E+03 0.  0.
         25    2    1    2    0    0 -0.11015002033E+03  0.16375951578E+03  0.99639398603E+03  0.10234139366E+04  0.12499961729E+03 0.  0.
          5    1    3    3  501    0  0.12750129662E+03 -0.10737704528E+03  0.96844279387E+02  0.19284012794E+03  0.47000000000E+01 0.  1.
         -5    1    3    3    0  501 -0.17351276295E+02 -0.56382470509E+02 -0.21974035027E+01  0.59219661870E+02  0.47000000000E+01 0.  1.
          5    1    4    4  502    0 -0.52089152044E+02  0.14298802165E+03  0.86369087457E+03  0.87700790813E+03  0.47000000000E+01 0. -1.
         -5    1    4    4    0  502 -0.58060868283E+02  0.20771494139E+02  0.13270311146E+03  0.14640602851E+03  0.47000000000E+01 0. -1.
<mgrwt>
<rscale>  0 0.66065351E+03</rscale>
<asrwt>0</asrwt>
<pdfrwt beam="1">  1       21 0.18203957E+00 0.66065351E+03</pdfrwt>
<pdfrwt beam="2">  1       21 0.14187144E-01 0.66065351E+03</pdfrwt>
<totfact> 0.62511711E+03</totfact>
</mgrwt>
</event>
<event>
 8    1  0.9331162E-006  0.3420043E+03  0.7546771E-02  0.1065945E+00
         21   -1    0    0  504  503  0.00000000000E+00  0.00000000000E+00  0.30292964651E+02  0.30292964651E+02  0.00000000000E+00 0.  1.
         21   -1    0    0  503  504 -0.00000000000E+00 -0.00000000000E+00 -0.96529769900E+03  0.96529769900E+03  0.00000000000E+00 0.  1.
         25    2    1    2    0    0 -0.70112751398E+02 -0.73100133238E+02 -0.29878379837E+03  0.33934339971E+03  0.12499102916E+03 0.  0.
         25    2    1    2    0    0  0.70112751398E+02  0.73100133238E+02 -0.63622093598E+03  0.65624726394E+03  0.12499585859E+03 0.  0.
          5    1    3    3  501    0 -0.21586784984E+02  0.31866858914E+02 -0.12225738577E+03  0.12825928567E+03  0.47000000000E+01 0.  1.
         -5    1    3    3    0  501 -0.48525966414E+02 -0.10496699215E+03 -0.17652641260E+03  0.21108411405E+03  0.47000000000E+01 0.  1.
          5    1    4    4  502    0  0.80699289497E+02  0.60264790948E+02 -0.62977557802E+03  0.63779588351E+03  0.47000000000E+01 0. -1.
         -5    1    4    4    0  502 -0.10586538099E+02  0.12835342290E+02 -0.64453579598E+01  0.18451380432E+02  0.47000000000E+01 0. -1.
<mgrwt>
<rscale>  0 0.34200426E+03</rscale>
<asrwt>0</asrwt>
<pdfrwt beam="1">  1       21 0.46604564E-02 0.34200426E+03</pdfrwt>
<pdfrwt beam="2">  1       21 0.14850733E+00 0.34200426E+03</pdfrwt>
<totfact> 0.87716766E+04</totfact>
</mgrwt>
</event>
<event>
 8    1  0.9331162E-006  0.3523544E+03  0.7546771E-02  0.1061653E+00
         21   -1    0    0  504  503  0.00000000000E+00  0.00000000000E+00  0.24700849683E+03  0.24700849683E+03  0.00000000000E+00 0. -1.
         21   -1    0    0  503  504 -0.00000000000E+00 -0.00000000000E+00 -0.12565721317E+03  0.12565721317E+03  0.00000000000E+00 0. -1.
         25    2    1    2    0    0  0.67514118671E+02 -0.10348104262E+03  0.47798990707E+02  0.18214120898E+03  0.12499677634E+03 0.  0.
         25    2    1    2    0    0 -0.67514118671E+02  0.10348104262E+03  0.73552292955E+02  0.19052450103E+03  0.12499265295E+03 0.  0.
          5    1    3    3  501    0  0.96126068401E+02 -0.84193023798E+02  0.63824091653E+01  0.12802933816E+03  0.47000000000E+01 0.  1.
         -5    1    3    3    0  501 -0.28611949731E+02 -0.19288018817E+02  0.41416581542E+02  0.54111870822E+02  0.47000000000E+01 0.  1.
          5    1    4    4  502    0 -0.64890413183E+02  0.41372810158E+02 -0.18555933209E+02  0.79302508162E+02  0.47000000000E+01 0. -1.
         -5    1    4    4    0  502 -0.26237054872E+01  0.62108232457E+02  0.92108226164E+02  0.11122199286E+03  0.47000000000E+01 0. -1.
<mgrwt>
<rscale>  0 0.35235436E+03</rscale>
<asrwt>0</asrwt>
<pdfrwt beam="1">  1       21 0.38001307E-01 0.35235436E+03</pdfrwt>
<pdfrwt beam="2">  1       21 0.19331879E-01 0.35235436E+03</pdfrwt>
<totfact> 0.15734281E+05</totfact>
</mgrwt>
</event>
<event>
 8    1  0.9331162E-006  0.2747547E+03  0.7546771E-02  0.1098589E+00
         21   -1    0    0  504  503  0.00000000000E+00  0.00000000000E+00  0.36223506857E+02  0.36223506857E+02  0.00000000000E+00 0.  1.
         21   -1    0    0  503  504 -0.00000000000E+00 -0.00000000000E+00 -0.52100261413E+03  0.52100261413E+03  0.00000000000E+00 0.  1.
         25    2    1    2    0    0  0.44444213026E+02 -0.21673430759E+02 -0.18507449236E+03  0.22875642276E+03  0.12502762719E+03 0.  0.
         25    2    1    2    0    0 -0.44444213026E+02  0.21673430759E+02 -0.29970461491E+03  0.32846969822E+03  0.12499784310E+03 0.  0.
          5    1    3    3  501    0  0.40807528707E+02 -0.19904055036E+02 -0.20389448314E+03  0.20894132205E+03  0.47000000000E+01 0.  1.
         -5    1    3    3    0  501  0.36366843187E+01 -0.17693757230E+01  0.18819990779E+02  0.19815100711E+02  0.47000000000E+01 0.  1.
          5    1    4    4  502    0 -0.81098703432E+02  0.28923362665E+02 -0.14033037132E+03  0.16470659890E+03  0.47000000000E+01 0.  1.
         -5    1    4    4    0  502  0.36654490406E+02 -0.72499319053E+01 -0.15937424359E+03  0.16376309933E+03  0.47000000000E+01 0.  1.
<mgrwt>
<rscale>  0 0.27475474E+03</rscale>
<asrwt>0</asrwt>
<pdfrwt beam="1">  1       21 0.55728476E-02 0.27475474E+03</pdfrwt>
<pdfrwt beam="2">  1       21 0.80154243E-01 0.27475474E+03</pdfrwt>
<totfact> 0.29983360E+05</totfact>
</mgrwt>
</event>
<event>
 8    1  0.9331162E-006  0.3182818E+03  0.7546771E-02  0.1076443E+00
         21   -1    0    0  504  503  0.00000000000E+00  0.00000000000E+00  0.14044363879E+02  0.14044363879E+02  0.00000000000E+00 0. -1.
         21   -1    0    0  503  504 -0.00000000000E+00 -0.00000000000E+00 -0.18032737726E+04  0.18032737726E+04  0.00000000000E+00 0. -1.
         25    2    1    2    0    0  0.87590825453E+02  0.37282320350E+02 -0.10389278763E+04  0.10507417291E+04  0.12499970040E+03 0.  0.
         25    2    1    2    0    0 -0.87590825453E+02 -0.37282320350E+02 -0.75030153248E+03  0.76657640740E+03  0.12499949846E+03 0.  0.
          5    1    3    3  501    0  0.75244752514E+02 -0.10556130336E+02 -0.27913270609E+03  0.28932743091E+03  0.47000000000E+01 0.  1.
         -5    1    3    3    0  501  0.12346072939E+02  0.47838450686E+02 -0.75979517019E+03  0.76141429822E+03  0.47000000000E+01 0.  1.
          5    1    4    4  502    0 -0.22674439089E+02  0.19546925037E+01 -0.15679429140E+02  0.28033649583E+02  0.47000000000E+01 0. -1.
         -5    1    4    4    0  502 -0.64916386363E+02 -0.39237012854E+02 -0.73462210334E+03  0.73854275781E+03  0.47000000000E+01 0. -1.
<mgrwt>
<rscale>  0 0.31828184E+03</rscale>
<asrwt>0</asrwt>
<pdfrwt beam="1">  1       21 0.21606715E-02 0.31828184E+03</pdfrwt>
<pdfrwt beam="2">  1       21 0.27742671E+00 0.31828184E+03</pdfrwt>
<totfact> 0.45977948E+04</totfact>
</mgrwt>
</event>
<event>
 8    1  0.9331162E-006  0.2588948E+03  0.7546771E-02  0.1107809E+00
         21   -1    0    0  504  503  0.00000000000E+00  0.00000000000E+00  0.96332206203E+02  0.96332206203E+02  0.00000000000E+00 0.  1.
         21   -1    0    0  503  504 -0.00000000000E+00 -0.00000000000E+00 -0.17394622294E+03  0.17394622294E+03  0.00000000000E+00 0.  1.
         25    2    1    2    0    0  0.85759165256E+01 -0.22797857230E+02 -0.63063541632E+02  0.14209676091E+03  0.12498476123E+03 0.  0.
         25    2    1    2    0    0 -0.85759165256E+01  0.22797857230E+02 -0.14550475110E+02  0.12818166824E+03  0.12500214041E+03 0.  0.
          5    1    3    3  501    0 -0.13715938817E+01 -0.73945767721E+02 -0.45245529430E+02  0.86828024088E+02  0.47000000000E+01 0.  1.
         -5    1    3    3    0  501  0.99475104074E+01  0.51147910491E+02 -0.17818012202E+02  0.55268736820E+02  0.47000000000E+01 0.  1.
          5    1    4    4  502    0  0.42141624733E+02 -0.18057098568E+01  0.33415139793E+02  0.54017022230E+02  0.47000000000E+01 0.  1.
         -5    1    4    4    0  502 -0.50717541258E+02  0.24603567087E+02 -0.47965614902E+02  0.74164646009E+02  0.47000000000E+01 0.  1.
<mgrwt>
<rscale>  0 0.25889475E+03</rscale>
<asrwt>0</asrwt>
<pdfrwt beam="1">  1       21 0.14820339E-01 0.25889475E+03</pdfrwt>
<pdfrwt beam="2">  1       21 0.26760957E-01 0.25889475E+03</pdfrwt>
<totfact> 0.52650185E+05</totfact>
</mgrwt>
</event>
<event>
 8    1  0.9331162E-006  0.4445269E+03  0.7546771E-02  0.1029367E+00
         21   -1    0    0  504  503  0.00000000000E+00  0.00000000000E+00  0.16472294280E+03  0.16472294280E+03  0.00000000000E+00 0. -1.
         21   -1    0    0  503  504 -0.00000000000E+00 -0.00000000000E+00 -0.29990382662E+03  0.29990382662E+03  0.00000000000E+00 0. -1.
         25    2    1    2    0    0 -0.14112995737E+03  0.32136813634E+02  0.50777180254E+02  0.19787312166E+03  0.12500004234E+03 0.  0.
         25    2    1    2    0    0  0.14112995737E+03 -0.32136813634E+02 -0.18595806408E+03  0.26675364776E+03  0.12500666917E+03 0.  0.
          5    1    3    3  501    0 -0.10999592737E+03  0.77916711743E+02  0.44129500467E+02  0.14191413185E+03  0.47000000000E+01 0. -1.
         -5    1    3    3    0  501 -0.31134030002E+02 -0.45779898108E+02  0.66476797872E+01  0.55958989818E+02  0.47000000000E+01 0. -1.
          5    1    4    4  502    0  0.69435210318E+02 -0.96925977065E+00 -0.17415972518E+03  0.18755236008E+03  0.47000000000E+01 0. -1.
         -5    1    4    4    0  502  0.71694747050E+02 -0.31167553864E+02 -0.11798338899E+02  0.79201287673E+02  0.47000000000E+01 0. -1.
<mgrwt>
<rscale>  0 0.44452690E+03</rscale>
<asrwt>0</asrwt>
<pdfrwt beam="1">  1       21 0.25341991E-01 0.44452690E+03</pdfrwt>
<pdfrwt beam="2">  1       21 0.46139050E-01 0.44452690E+03</pdfrwt>
<totfact> 0.61489702E+04</totfact>
</mgrwt>
</event>
<event>
 8    1  0.9331162E-006  0.3254186E+03  0.7546771E-02  0.1073182E+00
         21   -1    0    0  504  503  0.00000000000E+00  0.00000000000E+00  0.62450547910E+03  0.62450547910E+03  0.00000000000E+00 0.  1.
         21   -1    0    0  503  504 -0.00000000000E+00 -0.00000000000E+00 -0.42392437287E+02  0.42392437287E+02  0.00000000000E+00 0.  1.
         25    2    1    2    0    0 -0.85894543802E+02  0.30976486489E+02  0.39376711238E+03  0.42310336093E+03  0.12500599931E+03 0.  0.
         25    2    1    2    0    0  0.85894543802E+02 -0.30976486489E+02  0.18834592943E+03  0.24379455546E+03  0.12499672303E+03 0.  0.
          5    1    3    3  501    0 -0.67978382290E+02 -0.32122278962E+02  0.29485081523E+03  0.30432218865E+03  0.47000000000E+01 0.  1.
         -5    1    3    3    0  501 -0.17916161512E+02  0.63098765451E+02  0.98916297154E+02  0.11878117228E+03  0.47000000000E+01 0.  1.
          5    1    4    4  502    0  0.92373211286E+02 -0.14776734838E+02  0.53752079550E+02  0.10799323179E+03  0.47000000000E+01 0.  1.
         -5    1    4    4    0  502 -0.64786674839E+01 -0.16199751651E+02  0.13459384988E+03  0.13580132367E+03  0.47000000000E+01 0.  1.
<mgrwt>
<rscale>  0 0.32541856E+03</rscale>
<asrwt>0</asrwt>
<pdfrwt beam="1">  1       21 0.96077759E-01 0.32541856E+03</pdfrwt>
<pdfrwt beam="2">  1       21 0.65219139E-02 0.32541856E+03</pdfrwt>
<totfact> 0.14795408E+05</totfact>
</mgrwt>
</event>
<event>
 8    1  0.9331162E-006  0.2694427E+03  0.7546771E-02  0.1101599E+00
         21   -1    0    0  504  503  0.00000000000E+00  0.00000000000E+00  0.67533985876E+03  0.67533985876E+03  0.00000000000E+00 0. -1.
         21   -1    0    0  503  504 -0.00000000000E+00 -0.00000000000E+00 -0.26875121413E+02  0.26875121413E+02  0.00000000000E+00 0. -1.
         25    2    1    2    0    0 -0.14797708569E+02  0.31686436425E+02  0.23000628379E+03  0.26408850336E+03  0.12496737410E+03 0.  0.
         25    2    1    2    0    0  0.14797708569E+02 -0.31686436425E+02  0.41845845355E+03  0.43812647681E+03  0.12499731958E+03 0.  0.
          5    1    3    3  501    0  0.43850038606E+02  0.44513092032E+02  0.15950019875E+03  0.17136698821E+03  0.47000000000E+01 0. -1.
         -5    1    3    3    0  501 -0.58647747176E+02 -0.12826655607E+02  0.70506085043E+02  0.92721515146E+02  0.47000000000E+01 0. -1.
          5    1    4    4  502    0  0.61060261303E+02 -0.49693761686E+02  0.28289399423E+03  0.29368167704E+03  0.47000000000E+01 0.  1.
         -5    1    4    4    0  502 -0.46262552734E+02  0.18007325261E+02  0.13556445933E+03  0.14444479977E+03  0.47000000000E+01 0.  1.
<mgrwt>
<rscale>  0 0.26944269E+03</rscale>
<asrwt>0</asrwt>
<pdfrwt beam="1">  1       21 0.10389843E+00 0.26944269E+03</pdfrwt>
<pdfrwt beam="2">  1       21 0.41346346E-02 0.26944269E+03</pdfrwt>
<totfact> 0.27163745E+05</totfact>
</mgrwt>
</event>
<event>
 8    1  0.9331162E-006  0.3214637E+03  0.7546771E-02  0.1074978E+00
         21   -1    0    0  504  503  0.00000000000E+00  0.00000000000E+00  0.70207773345E+03  0.70207773345E+03  0.00000000000E+00 0. -1.
         21   -1    0    0  503  504 -0.00000000000E+00 -0.00000000000E+00 -0.36797531572E+02  0.36797531572E+02  0.00000000000E+00 0. -1.
         25    2    1    2    0    0 -0.38444696672E+02  0.28515054051E+02  0.53712169469E+03  0.55355008179E+03  0.12500750035E+03 0.  0.
         25    2    1    2    0    0  0.38444696672E+02 -0.28515054051E+02  0.12815850719E+03  0.18532518323E+03  0.12501886883E+03 0.  0.
          5    1    3    3  501    0  0.22743176995E+02  0.44781774660E+02  0.39088504231E+03  0.39412671280E+03  0.47000000000E+01 0. -1.
         -5    1    3    3    0  501 -0.61187873667E+02 -0.16266720610E+02  0.14623665238E+03  0.15942336900E+03  0.47000000000E+01 0. -1.
          5    1    4    4  502    0 -0.36721850747E+02 -0.41668248619E+02  0.39845295491E+02  0.68516237769E+02  0.47000000000E+01 0.  1.
         -5    1    4    4    0  502  0.75166547419E+02  0.13153194569E+02  0.88313211702E+02  0.11680894546E+03  0.47000000000E+01 0.  1.
<mgrwt>
<rscale>  0 0.32146370E+03</rscale>
<asrwt>0</asrwt>
<pdfrwt beam="1">  1       21 0.10801195E+00 0.32146370E+03</pdfrwt>
<pdfrwt beam="2">  1       21 0.56611592E-02 0.32146370E+03</pdfrwt>
<totfact> 0.14256652E+05</totfact>
</mgrwt>
</event>
<event>
 8    1  0.9331162E-006  0.3540858E+03  0.7546771E-02  0.1060950E+00
         21   -1    0    0  504  503  0.00000000000E+00  0.00000000000E+00  0.83452746871E+03  0.83452746871E+03  0.00000000000E+00 0.  1.
         21   -1    0    0  503  504 -0.00000000000E+00 -0.00000000000E+00 -0.37559204601E+02  0.37559204601E+02  0.00000000000E+00 0.  1.
         25    2    1    2    0    0  0.20202373203E+01 -0.10801074020E+03  0.24180390824E+03  0.29285936570E+03  0.12500830644E+03 0.  0.
         25    2    1    2    0    0 -0.20202373203E+01  0.10801074020E+03  0.55516435586E+03  0.57922730761E+03  0.12500564190E+03 0.  0.
          5    1    3    3  501    0  0.19178225563E+02 -0.74905004115E+00  0.14784269780E+03  0.14915736222E+03  0.47000000000E+01 0. -1.
         -5    1    3    3    0  501 -0.17157988242E+02 -0.10726169015E+03  0.93961210444E+02  0.14370200348E+03  0.47000000000E+01 0. -1.
          5    1    4    4  502    0 -0.43844075730E+02  0.31101497068E+02  0.83041672242E+02  0.99033405602E+02  0.47000000000E+01 0. -1.
         -5    1    4    4    0  502  0.41823838409E+02  0.76909243128E+02  0.47212268362E+03  0.48019390201E+03  0.47000000000E+01 0. -1.
<mgrwt>
<rscale>  0 0.35408580E+03</rscale>
<asrwt>0</asrwt>
<pdfrwt beam="1">  1       21 0.12838883E+00 0.35408580E+03</pdfrwt>
<pdfrwt beam="2">  1       21 0.57783398E-02 0.35408580E+03</pdfrwt>
<totfact> 0.88478653E+04</totfact>
</mgrwt>
</event>
<event>
 8    1  0.9331162E-006  0.3011118E+03  0.7546771E-02  0.1084686E+00
         21   -1    0    0  504  503  0.00000000000E+00  0.00000000000E+00  0.19771218121E+03  0.19771218121E+03  0.00000000000E+00 0. -1.
         21   -1    0    0  503  504 -0.00000000000E+00 -0.00000000000E+00 -0.11464683881E+03  0.11464683881E+03  0.00000000000E+00 0. -1.
         25    2    1    2    0    0  0.45894522283E+02 -0.68884228475E+02  0.55878865527E+02  0.15999388140E+03  0.12499700143E+03 0.  0.
         25    2    1    2    0    0 -0.45894522283E+02  0.68884228475E+02  0.27186476880E+02  0.15236513862E+03  0.12499874732E+03 0.  0.
          5    1    3    3  501    0 -0.35464482352E+02  0.62576847606E+01  0.27540342836E+02  0.45579036964E+02  0.47000000000E+01 0. -1.
         -5    1    3    3    0  501  0.81359004635E+02 -0.75141913236E+02  0.28338522691E+02  0.11441484444E+03  0.47000000000E+01 0. -1.
          5    1    4    4  502    0 -0.85929085429E+01 -0.21418199629E+02  0.46992417445E+02  0.52563815024E+02  0.47000000000E+01 0. -1.
         -5    1    4    4    0  502 -0.37301613741E+02  0.90302428104E+02 -0.19805940565E+02  0.99801323593E+02  0.47000000000E+01 0. -1.
<mgrwt>
<rscale>  0 0.30111178E+03</rscale>
<asrwt>0</asrwt>
<pdfrwt beam="1">  1       21 0.30417259E-01 0.30111178E+03</pdfrwt>
<pdfrwt beam="2">  1       21 0.17637975E-01 0.30111178E+03</pdfrwt>
<totfact> 0.29487788E+05</totfact>
</mgrwt>
</event>
<event>
 8    1  0.9331162E-006  0.3047690E+03  0.7546771E-02  0.1082881E+00
         21   -1    0    0  504  503  0.00000000000E+00  0.00000000000E+00  0.42289495625E+02  0.42289495625E+02  0.00000000000E+00 0. -1.
         21   -1    0    0  503  504 -0.00000000000E+00 -0.00000000000E+00 -0.54909692440E+03  0.54909692440E+03  0.00000000000E+00 0. -1.
         25    2    1    2    0    0  0.62115805358E+02  0.58511012818E+02 -0.21906198503E+03  0.26626428484E+03  0.12500641663E+03 0.  0.
         25    2    1    2    0    0 -0.62115805358E+02 -0.58511012818E+02 -0.28774544374E+03  0.32512213518E+03  0.12500020198E+03 0.  0.
          5    1    3    3  501    0  0.39222180941E+02  0.83296990941E+02 -0.21241120043E+03  0.23155426199E+03  0.47000000000E+01 0. -1.
         -5    1    3    3    0  501  0.22893624417E+02 -0.24785978123E+02 -0.66507846003E+01  0.34710022850E+02  0.47000000000E+01 0. -1.
          5    1    4    4  502    0 -0.90167027773E+02 -0.31763511110E+02 -0.12321485630E+03  0.15602244822E+03  0.47000000000E+01 0.  1.
         -5    1    4    4    0  502  0.28051222414E+02 -0.26747501708E+02 -0.16453058745E+03  0.16909968696E+03  0.47000000000E+01 0.  1.
<mgrwt>
<rscale>  0 0.30476897E+03</rscale>
<asrwt>0</asrwt>
<pdfrwt beam="1">  1       21 0.65060765E-02 0.30476897E+03</pdfrwt>
<pdfrwt beam="2">  1       21 0.84476447E-01 0.30476897E+03</pdfrwt>
<totfact> 0.20197905E+05</totfact>
</mgrwt>
</event>
<event>
 8    1  0.9331162E-006  0.3707498E+03  0.7546771E-02  0.1054407E+00
         21   -1    0    0  504  503  0.00000000000E+00  0.00000000000E+00  0.42042211601E+03  0.42042211601E+03  0.00000000000E+00 0.  1.
         21   -1    0    0  503  504 -0.00000000000E+00 -0.00000000000E+00 -0.81736529918E+02  0.81736529918E+02  0.00000000000E+00 0.  1.
         25    2    1    2    0    0 -0.20318978990E+02 -0.96368507380E+02  0.29812837069E+03  0.33793392155E+03  0.12497623695E+03 0.  0.
         25    2    1    2    0    0  0.20318978990E+02  0.96368507380E+02  0.40557215408E+02  0.16422472439E+03  0.12500048902E+03 0.  0.
          5    1    3    3  501    0  0.52389211175E+02 -0.40813894005E+02  0.14363617228E+03  0.15831564477E+03  0.47000000000E+01 0. -1.
         -5    1    3    3    0  501 -0.72708190164E+02 -0.55554613374E+02  0.15449219841E+03  0.17961827678E+03  0.47000000000E+01 0. -1.
          5    1    4    4  502    0 -0.41532949017E+02  0.15085553116E+02  0.43155134233E+02  0.61943646789E+02  0.47000000000E+01 0. -1.
         -5    1    4    4    0  502  0.61851928006E+02  0.81282954264E+02 -0.25979188251E+01  0.10228107760E+03  0.47000000000E+01 0. -1.
<mgrwt>
<rscale>  0 0.37074975E+03</rscale>
<asrwt>0</asrwt>
<pdfrwt beam="1">  1       21 0.64680325E-01 0.37074975E+03</pdfrwt>
<pdfrwt beam="2">  1       21 0.12574851E-01 0.37074975E+03</pdfrwt>
<totfact> 0.11278819E+05</totfact>
</mgrwt>
</event>
<event>
 8    1  0.9331162E-006  0.2660786E+03  0.7546771E-02  0.1103545E+00
         21   -1    0    0  504  503  0.00000000000E+00  0.00000000000E+00  0.96480561550E+02  0.96480561550E+02  0.00000000000E+00 0.  1.
         21   -1    0    0  503  504 -0.00000000000E+00 -0.00000000000E+00 -0.18345098384E+03  0.18345098384E+03  0.00000000000E+00 0.  1.
         25    2    1    2    0    0  0.28385291954E+02 -0.28486108887E+02 -0.65804684748E+02  0.14687427748E+03  0.12499845460E+03 0.  0.
         25    2    1    2    0    0 -0.28385291954E+02  0.28486108887E+02 -0.21165737538E+02  0.13305726790E+03  0.12505624693E+03 0.  0.
          5    1    3    3  501    0 -0.21354801860E+02  0.40509546949E+02 -0.20526853590E+02  0.50403300237E+02  0.47000000000E+01 0. -1.
         -5    1    3    3    0  501  0.49740093814E+02 -0.68995655836E+02 -0.45277831158E+02  0.96470977248E+02  0.47000000000E+01 0. -1.
          5    1    4    4  502    0  0.45704652203E+02  0.13035809890E+02  0.13571273640E+02  0.49649945023E+02  0.47000000000E+01 0. -1.
         -5    1    4    4    0  502 -0.74089944157E+02  0.15450298997E+02 -0.34737011178E+02  0.83407322879E+02  0.47000000000E+01 0. -1.
<mgrwt>
<rscale>  0 0.26607859E+03</rscale>
<asrwt>0</asrwt>
<pdfrwt beam="1">  1       21 0.14843163E-01 0.26607859E+03</pdfrwt>
<pdfrwt beam="2">  1       21 0.28223228E-01 0.26607859E+03</pdfrwt>
<totfact> 0.47285791E+05</totfact>
</mgrwt>
</event>
<event>
 8    1  0.9331162E-006  0.3096644E+03  0.7546771E-02  0.1080507E+00
         21   -1    0    0  504  503  0.00000000000E+00  0.00000000000E+00  0.24413242808E+02  0.24413242808E+02  0.00000000000E+00 0. -1.
         21   -1    0    0  503  504 -0.00000000000E+00 -0.00000000000E+00 -0.98196767169E+03  0.98196767169E+03  0.00000000000E+00 0. -1.
         25    2    1    2    0    0  0.35723038154E+02  0.24300636995E+02 -0.21711302600E+03  0.25422118323E+03  0.12499475002E+03 0.  0.
         25    2    1    2    0    0 -0.35723038154E+02 -0.24300636995E+02 -0.74044140288E+03  0.75215973127E+03  0.12499653524E+03 0.  0.
          5    1    3    3  501    0 -0.29508815001E+02 -0.33514424060E+02 -0.77355868865E+02  0.89442759521E+02  0.47000000000E+01 0. -1.
         -5    1    3    3    0  501  0.65231853155E+02  0.57815061055E+02 -0.13975715714E+03  0.16477842371E+03  0.47000000000E+01 0. -1.
          5    1    4    4  502    0 -0.75626734613E+02 -0.43875053391E+02 -0.49071842429E+03  0.49846874048E+03  0.47000000000E+01 0. -1.
         -5    1    4    4    0  502  0.39903696458E+02  0.19574416396E+02 -0.24972297860E+03  0.25369099079E+03  0.47000000000E+01 0. -1.
<mgrwt>
<rscale>  0 0.30966443E+03</rscale>
<asrwt>0</asrwt>
<pdfrwt beam="1">  1       21 0.37558838E-02 0.30966443E+03</pdfrwt>
<pdfrwt beam="2">  1       21 0.15107194E+00 0.30966443E+03</pdfrwt>
<totfact> 0.12208696E+05</totfact>
</mgrwt>
</event>
<event>
 8    1  0.9331162E-006  0.2947177E+03  0.7546771E-02  0.1087911E+00
         21   -1    0    0  504  503  0.00000000000E+00  0.00000000000E+00  0.33425015052E+02  0.33425015052E+02  0.00000000000E+00 0. -1.
         21   -1    0    0  503  504 -0.00000000000E+00 -0.00000000000E+00 -0.64965222601E+03  0.64965222601E+03  0.00000000000E+00 0. -1.
         25    2    1    2    0    0  0.29972997827E+02 -0.17755632882E+02 -0.46995948674E+03  0.48754285508E+03  0.12498989263E+03 0.  0.
         25    2    1    2    0    0 -0.29972997827E+02  0.17755632882E+02 -0.14626772421E+03  0.19553438598E+03  0.12500322339E+03 0.  0.
          5    1    3    3  501    0 -0.33287265095E+02 -0.48522906165E+02 -0.20006754498E+03  0.20859440787E+03  0.47000000000E+01 0.  1.
         -5    1    3    3    0  501  0.63260262923E+02  0.30767273283E+02 -0.26989194176E+03  0.27894844720E+03  0.47000000000E+01 0.  1.
          5    1    4    4  502    0 -0.43678397344E+02 -0.44148537303E+02 -0.96237916757E+02  0.11463298985E+03  0.47000000000E+01 0.  1.
         -5    1    4    4    0  502  0.13705399516E+02  0.61904170184E+02 -0.50029807453E+02  0.80901396131E+02  0.47000000000E+01 0.  1.
<mgrwt>
<rscale>  0 0.29471773E+03</rscale>
<asrwt>0</asrwt>
<pdfrwt beam="1">  1       21 0.51423107E-02 0.29471773E+03</pdfrwt>
<pdfrwt beam="2">  1       21 0.99946484E-01 0.29471773E+03</pdfrwt>
<totfact> 0.20447368E+05</totfact>
</mgrwt>
</event>
<event>
 8    1  0.9331162E-006  0.3004385E+03  0.7546771E-02  0.1085022E+00
         21   -1    0    0  504  503  0.00000000000E+00  0.00000000000E+00  0.23535285965E+03  0.23535285965E+03  0.00000000000E+00 0. -1.
         21   -1    0    0  503  504 -0.00000000000E+00 -0.00000000000E+00 -0.95880793316E+02  0.95880793316E+02  0.00000000000E+00 0. -1.
         25    2    1    2    0    0 -0.44205479008E+01 -0.83095244685E+02  0.74281709330E+02  0.16753142547E+03  0.12499858098E+03 0.  0.
         25    2    1    2    0    0  0.44205479008E+01  0.83095244685E+02  0.65190357005E+02  0.16370222749E+03  0.12499710279E+03 0.  0.
          5    1    3    3  501    0 -0.51437543191E+02 -0.86649052885E+02  0.37783819084E+02  0.10771994337E+03  0.47000000000E+01 0.  1.
         -5    1    3    3    0  501  0.47016995290E+02  0.35538082002E+01  0.36497890246E+02  0.59811482102E+02  0.47000000000E+01 0.  1.
          5    1    4    4  502    0 -0.42764574517E+02  0.36476705060E+02  0.77724929881E+02  0.96034439503E+02  0.47000000000E+01 0. -1.
         -5    1    4    4    0  502  0.47185122418E+02  0.46618539625E+02 -0.12534572876E+02  0.67667787990E+02  0.47000000000E+01 0. -1.
<mgrwt>
<rscale>  0 0.30043847E+03</rscale>
<asrwt>0</asrwt>
<pdfrwt beam="1">  1       21 0.36208132E-01 0.30043847E+03</pdfrwt>
<pdfrwt beam="2">  1       21 0.14750891E-01 0.30043847E+03</pdfrwt>
<totfact> 0.29006813E+05</totfact>
</mgrwt>
</event>
<event>
 8    1  0.9331162E-006  0.3508590E+03  0.7546771E-02  0.1062263E+00
         21   -1    0    0  504  503  0.00000000000E+00  0.00000000000E+00  0.12612734774E+03  0.12612734774E+03  0.00000000000E+00 0.  1.
         21   -1    0    0  503  504 -0.00000000000E+00 -0.00000000000E+00 -0.24400341616E+03  0.24400341616E+03  0.00000000000E+00 0.  1.
         25    2    1    2    0    0  0.36743532813E+02  0.10574360401E+03 -0.50138262634E+01  0.16789081080E+03  0.12502155377E+03 0.  0.
         25    2    1    2    0    0 -0.36743532813E+02 -0.10574360401E+03 -0.11286224215E+03  0.20223995309E+03  0.12502526118E+03 0.  0.
          5    1    3    3  501    0 -0.12205553185E+02  0.11654123589E+03  0.22661796644E+00  0.11727308535E+03  0.47000000000E+01 0. -1.
         -5    1    3    3    0  501  0.48949085998E+02 -0.10797631886E+02 -0.52404442298E+01  0.50617725454E+02  0.47000000000E+01 0. -1.
          5    1    4    4  502    0 -0.66208364138E+02 -0.10793612093E+03 -0.11646699160E+03  0.17210579251E+03  0.47000000000E+01 0.  1.
         -5    1    4    4    0  502  0.29464831324E+02  0.21925169245E+01  0.36047494525E+01  0.30134160583E+02  0.47000000000E+01 0.  1.
<mgrwt>
<rscale>  0 0.35085897E+03</rscale>
<asrwt>0</asrwt>
<pdfrwt beam="1">  1       21 0.19404208E-01 0.35085897E+03</pdfrwt>
<pdfrwt beam="2">  1       21 0.37538986E-01 0.35085897E+03</pdfrwt>
<totfact> 0.16022231E+05</totfact>
</mgrwt>
</event>
<event>
 8    1  0.9331162E-006  0.2661349E+03  0.7546771E-02  0.1103512E+00
         21   -1    0    0  504  503  0.00000000000E+00  0.00000000000E+00  0.63479210715E+02  0.63479210715E+02  0.00000000000E+00 0. -1.
         21   -1    0    0  503  504 -0.00000000000E+00 -0.00000000000E+00 -0.27894076821E+03  0.27894076821E+03  0.00000000000E+00 0. -1.
         25    2    1    2    0    0 -0.45753856927E+01  0.54918204450E+01 -0.49772282628E+02  0.13474139822E+03  0.12500747989E+03 0.  0.
         25    2    1    2    0    0  0.45753856927E+01 -0.54918204450E+01 -0.16568927487E+03  0.20767858071E+03  0.12500545122E+03 0.  0.
          5    1    3    3  501    0  0.17360244986E+02 -0.53495712277E+02 -0.36147399590E+01  0.56553741548E+02  0.47000000000E+01 0.  1.
         -5    1    3    3    0  501 -0.21935630679E+02  0.58987532722E+02 -0.46157542669E+02  0.78187656668E+02  0.47000000000E+01 0.  1.
          5    1    4    4  502    0  0.38175085876E+01 -0.32770079313E+02  0.59226468126E+01  0.33846997138E+02  0.47000000000E+01 0. -1.
         -5    1    4    4    0  502  0.75787710514E+00  0.27278258868E+02 -0.17161192168E+03  0.17383158357E+03  0.47000000000E+01 0. -1.
<mgrwt>
<rscale>  0 0.26613485E+03</rscale>
<asrwt>0</asrwt>
<pdfrwt beam="1">  1       21 0.97660325E-02 0.26613485E+03</pdfrwt>
<pdfrwt beam="2">  1       21 0.42913964E-01 0.26613485E+03</pdfrwt>
<totfact> 0.43507870E+05</totfact>
</mgrwt>
</event>
<event>
 8    1  0.9331162E-006  0.3525171E+03  0.7546771E-02  0.1061587E+00
         21   -1    0    0  504  503  0.00000000000E+00  0.00000000000E+00  0.68644647598E+02  0.68644647598E+02  0.00000000000E+00 0.  1.
         21   -1    0    0  503  504 -0.00000000000E+00 -0.00000000000E+00 -0.45257827812E+03  0.45257827812E+03  0.00000000000E+00 0.  1.
         25    2    1    2    0    0 -0.12240556640E+03 -0.21194679481E+02 -0.19662095585E+03  0.26403771154E+03  0.12499510276E+03 0.  0.
         25    2    1    2    0    0  0.12240556640E+03  0.21194679481E+02 -0.18731267467E+03  0.25718521418E+03  0.12500343665E+03 0.  0.
          5    1    3    3  501    0 -0.13490153550E+03 -0.36475373150E+02 -0.11837569857E+03  0.18320418428E+03  0.47000000000E+01 0. -1.
         -5    1    3    3    0  501  0.12495969101E+02  0.15280693669E+02 -0.78245257278E+02  0.80833527260E+02  0.47000000000E+01 0. -1.
          5    1    4    4  502    0  0.10010885452E+03  0.67765444978E+02 -0.15283272687E+03  0.19492016491E+03  0.47000000000E+01 0. -1.
         -5    1    4    4    0  502  0.22296711872E+02 -0.46570765497E+02 -0.34479947799E+02  0.62265049261E+02  0.47000000000E+01 0. -1.
<mgrwt>
<rscale>  0 0.35251710E+03</rscale>
<asrwt>0</asrwt>
<pdfrwt beam="1">  1       21 0.10560715E-01 0.35251710E+03</pdfrwt>
<pdfrwt beam="2">  1       21 0.69627426E-01 0.35251710E+03</pdfrwt>
<totfact> 0.13182098E+05</totfact>
</mgrwt>
</event>
<event>
 8    1  0.9331162E-006  0.2599643E+03  0.7546771E-02  0.1107165E+00
         21   -1    0    0  504  503  0.00000000000E+00  0.00000000000E+00  0.12413001190E+03  0.12413001190E+03  0.00000000000E+00 0.  1.
         21   -1    0    0  503  504 -0.00000000000E+00 -0.00000000000E+00 -0.13611022103E+03  0.13611022103E+03  0.00000000000E+00 0.  1.
         25    2    1    2    0    0 -0.29274142033E+02 -0.10461971049E+02  0.11441391939E+02  0.12931711612E+03  0.12500233135E+03 0.  0.
         25    2    1    2    0    0  0.29274142033E+02  0.10461971049E+02 -0.23421601069E+02  0.13092311681E+03  0.12500345150E+03 0.  0.
          5    1    3    3  501    0 -0.73991435909E+02  0.59997690650E+00  0.29252926993E+02  0.79705183632E+02  0.47000000000E+01 0.  1.
         -5    1    3    3    0  501  0.44717293877E+02 -0.11061947956E+02 -0.17811535054E+02  0.49611932488E+02  0.47000000000E+01 0.  1.
          5    1    4    4  502    0  0.38360579378E+02 -0.70259228057E+01  0.44902011663E+02  0.59658849242E+02  0.47000000000E+01 0.  1.
         -5    1    4    4    0  502 -0.90864373448E+01  0.17487893855E+02 -0.68323612732E+02  0.71264267567E+02  0.47000000000E+01 0.  1.
<mgrwt>
<rscale>  0 0.25996433E+03</rscale>
<asrwt>0</asrwt>
<pdfrwt beam="1">  1       21 0.19096925E-01 0.25996433E+03</pdfrwt>
<pdfrwt beam="2">  1       21 0.20940034E-01 0.25996433E+03</pdfrwt>
<totfact> 0.52624450E+05</totfact>
</mgrwt>
</event>
<event>
 8    1  0.9331162E-006  0.2783924E+03  0.7546771E-02  0.1096570E+00
         21   -1    0    0  504  503  0.00000000000E+00  0.00000000000E+00  0.50279659255E+03  0.50279659255E+03  0.00000000000E+00 0.  1.
         21   -1    0    0  503  504 -0.00000000000E+00 -0.00000000000E+00 -0.38535633075E+02  0.38535633075E+02  0.00000000000E+00 0.  1.
         25    2    1    2    0    0 -0.28155196377E+02 -0.28440930366E+02  0.32228282051E+03  0.34798428426E+03  0.12500097636E+03 0.  0.
         25    2    1    2    0    0  0.28155196377E+02  0.28440930366E+02  0.14197813897E+03  0.19334794137E+03  0.12499613148E+03 0.  0.
          5    1    3    3  501    0 -0.58498770927E+02 -0.23873878282E+02  0.30683856738E+03  0.31331144999E+03  0.47000000000E+01 0. -1.
         -5    1    3    3    0  501  0.30343574551E+02 -0.45670520846E+01  0.15444253130E+02  0.34672834265E+02  0.47000000000E+01 0. -1.
          5    1    4    4  502    0 -0.32331312415E+02 -0.30718292570E+02  0.35064987267E+02  0.56926009810E+02  0.47000000000E+01 0.  1.
         -5    1    4    4    0  502  0.60486508791E+02  0.59159222936E+02  0.10691315170E+03  0.13642193156E+03  0.47000000000E+01 0.  1.
<mgrwt>
<rscale>  0 0.27839242E+03</rscale>
<asrwt>0</asrwt>
<pdfrwt beam="1">  1       21 0.77353317E-01 0.27839242E+03</pdfrwt>
<pdfrwt beam="2">  1       21 0.59285593E-02 0.27839242E+03</pdfrwt>
<totfact> 0.29202565E+05</totfact>
</mgrwt>
</event>
<event>
 8    1  0.9331162E-006  0.3273574E+03  0.7546771E-02  0.1072312E+00
         21   -1    0    0  504  503  0.00000000000E+00  0.00000000000E+00  0.13919293687E+03  0.13919293687E+03  0.00000000000E+00 0.  1.
         21   -1    0    0  503  504 -0.00000000000E+00 -0.00000000000E+00 -0.19247178778E+03  0.19247178778E+03  0.00000000000E+00 0.  1.
         25    2    1    2    0    0  0.92693592539E+01  0.99056513691E+02 -0.62708966495E+02  0.17162847650E+03  0.12500322213E+03 0.  0.
         25    2    1    2    0    0 -0.92693592539E+01 -0.99056513691E+02  0.94301155848E+01  0.16003624814E+03  0.12499823884E+03 0.  0.
          5    1    3    3  501    0 -0.23212658428E+02  0.94818222572E+02 -0.86786708736E+02  0.13070327332E+03  0.47000000000E+01 0. -1.
         -5    1    3    3    0  501  0.32482017682E+02  0.42382911189E+01  0.24077742241E+02  0.40925203185E+02  0.47000000000E+01 0. -1.
          5    1    4    4  502    0  0.47146076497E+02 -0.20529667871E+01  0.39497660082E+01  0.47588421420E+02  0.47000000000E+01 0.  1.
         -5    1    4    4    0  502 -0.56415435751E+02 -0.97003546904E+02  0.54803495766E+01  0.11244782672E+03  0.47000000000E+01 0.  1.
<mgrwt>
<rscale>  0 0.32735738E+03</rscale>
<asrwt>0</asrwt>
<pdfrwt beam="1">  1       21 0.21414298E-01 0.32735738E+03</pdfrwt>
<pdfrwt beam="2">  1       21 0.29611044E-01 0.32735738E+03</pdfrwt>
<totfact> 0.21462900E+05</totfact>
</mgrwt>
</event>
<event>
 8    1  0.9331162E-006  0.2578203E+03  0.7546771E-02  0.1108460E+00
         21   -1    0    0  504  503  0.00000000000E+00  0.00000000000E+00  0.55350214789E+02  0.55350214789E+02  0.00000000000E+00 0. -1.
         21   -1    0    0  503  504 -0.00000000000E+00 -0.00000000000E+00 -0.30023061543E+03  0.30023061543E+03  0.00000000000E+00 0. -1.
         25    2    1    2    0    0  0.29939098714E+02  0.26345996065E+01 -0.10976743341E+03  0.16904974463E+03  0.12500254388E+03 0.  0.
         25    2    1    2    0    0 -0.29939098714E+02 -0.26345996065E+01 -0.13511296723E+03  0.18653108559E+03  0.12504015846E+03 0.  0.
          5    1    3    3  501    0  0.16379564059E+02  0.57983916818E+02 -0.22032840127E+02  0.64326983237E+02  0.47000000000E+01 0. -1.
         -5    1    3    3    0  501  0.13559534655E+02 -0.55349317211E+02 -0.87734593279E+02  0.10472276139E+03  0.47000000000E+01 0. -1.
          5    1    4    4  502    0  0.31361542304E+02 -0.44034344056E+02 -0.51798114761E+02  0.75018027733E+02  0.47000000000E+01 0. -1.
         -5    1    4    4    0  502 -0.61300641018E+02  0.41399744449E+02 -0.83314852469E+02  0.11151305785E+03  0.47000000000E+01 0. -1.
<mgrwt>
<rscale>  0 0.25782032E+03</rscale>
<asrwt>0</asrwt>
<pdfrwt beam="1">  1       21 0.85154175E-02 0.25782032E+03</pdfrwt>
<pdfrwt beam="2">  1       21 0.46189326E-01 0.25782032E+03</pdfrwt>
<totfact> 0.47692195E+05</totfact>
</mgrwt>
</event>
<event>
 8    1  0.9331162E-006  0.2512942E+03  0.7546771E-02  0.1112490E+00
         21   -1    0    0  504  503  0.00000000000E+00  0.00000000000E+00  0.13631722734E+03  0.13631722734E+03  0.00000000000E+00 0.  1.
         21   -1    0    0  503  504 -0.00000000000E+00 -0.00000000000E+00 -0.11581215031E+03  0.11581215031E+03  0.00000000000E+00 0.  1.
         25    2    1    2    0    0 -0.10008549405E+02  0.16555744315E+01  0.18044259663E+02  0.12670146636E+03  0.12499901713E+03 0.  0.
         25    2    1    2    0    0  0.10008549405E+02 -0.16555744315E+01  0.24608173684E+01  0.12542791130E+03  0.12499277308E+03 0.  0.
          5    1    3    3  501    0  0.45302129070E+02  0.31057935874E+02  0.29994800323E+02  0.62758715135E+02  0.47000000000E+01 0. -1.
         -5    1    3    3    0  501 -0.55310678475E+02 -0.29402361443E+02 -0.11950540660E+02  0.63942751222E+02  0.47000000000E+01 0. -1.
          5    1    4    4  502    0  0.61399987231E+02 -0.25393942739E+01 -0.25533060733E+02  0.66711574300E+02  0.47000000000E+01 0. -1.
         -5    1    4    4    0  502 -0.51391437826E+02  0.88381984244E+00  0.27993878101E+02  0.58716336998E+02  0.47000000000E+01 0. -1.
<mgrwt>
<rscale>  0 0.25129418E+03</rscale>
<asrwt>0</asrwt>
<pdfrwt beam="1">  1       21 0.20971881E-01 0.25129418E+03</pdfrwt>
<pdfrwt beam="2">  1       21 0.17817254E-01 0.25129418E+03</pdfrwt>
<totfact> 0.59807558E+05</totfact>
</mgrwt>
</event>
<event>
 8    1  0.9331162E-006  0.2718637E+03  0.7546771E-02  0.1100218E+00
         21   -1    0    0  504  503  0.00000000000E+00  0.00000000000E+00  0.48940558020E+03  0.48940558020E+03  0.00000000000E+00 0.  1.
         21   -1    0    0  503  504 -0.00000000000E+00 -0.00000000000E+00 -0.37754908512E+02  0.37754908512E+02  0.00000000000E+00 0.  1.
         25    2    1    2    0    0  0.14663071932E+02  0.37436430066E+02  0.15768204131E+03  0.20519961737E+03  0.12500705916E+03 0.  0.
         25    2    1    2    0    0 -0.14663071932E+02 -0.37436430066E+02  0.29396863038E+03  0.32196087134E+03  0.12499902023E+03 0.  0.
          5    1    3    3  501    0 -0.28929944108E+02  0.66168730972E+02  0.12178734490E+03  0.14166682746E+03  0.47000000000E+01 0.  1.
         -5    1    3    3    0  501  0.43593016040E+02 -0.28732300906E+02  0.35894696412E+02  0.63532789907E+02  0.47000000000E+01 0.  1.
          5    1    4    4  502    0 -0.12215488085E+02  0.36695823675E+02  0.34439608344E+02  0.51999790839E+02  0.47000000000E+01 0. -1.
         -5    1    4    4    0  502 -0.24475838470E+01 -0.74132253741E+02  0.25952902203E+03  0.26996108051E+03  0.47000000000E+01 0. -1.
<mgrwt>
<rscale>  0 0.27186366E+03</rscale>
<asrwt>0</asrwt>
<pdfrwt beam="1">  1       21 0.75293162E-01 0.27186366E+03</pdfrwt>
<pdfrwt beam="2">  1       21 0.58084478E-02 0.27186366E+03</pdfrwt>
<totfact> 0.32201312E+05</totfact>
</mgrwt>
</event>
<event>
 8    1  0.9331162E-006  0.3173133E+03  0.7546771E-02  0.1076892E+00
         21   -1    0    0  504  503  0.00000000000E+00  0.00000000000E+00  0.63528089733E+02  0.63528089733E+02  0.00000000000E+00 0. -1.
         21   -1    0    0  503  504 -0.00000000000E+00 -0.00000000000E+00 -0.39623318401E+03  0.39623318401E+03  0.00000000000E+00 0. -1.
         25    2    1    2    0    0  0.10867026995E+02 -0.96596489618E+02 -0.15201256144E+03  0.21950276145E+03  0.12499867746E+03 0.  0.
         25    2    1    2    0    0 -0.10867026995E+02  0.96596489618E+02 -0.18069253283E+03  0.24025851229E+03  0.12500154889E+03 0.  0.
          5    1    3    3  501    0 -0.41143302206E+02 -0.54507576956E+02 -0.19815738933E+02  0.71264302224E+02  0.47000000000E+01 0. -1.
         -5    1    3    3    0  501  0.52010329201E+02 -0.42088912662E+02 -0.13219682251E+03  0.14823845923E+03  0.47000000000E+01 0. -1.
          5    1    4    4  502    0 -0.50114412216E+02  0.10568784993E+03 -0.12372547770E+03  0.17032750737E+03  0.47000000000E+01 0. -1.
         -5    1    4    4    0  502  0.39247385220E+02 -0.90913603101E+01 -0.56967055125E+02  0.69931004916E+02  0.47000000000E+01 0. -1.
<mgrwt>
<rscale>  0 0.31731333E+03</rscale>
<asrwt>0</asrwt>
<pdfrwt beam="1">  1       21 0.97735522E-02 0.31731333E+03</pdfrwt>
<pdfrwt beam="2">  1       21 0.60958952E-01 0.31731333E+03</pdfrwt>
<totfact> 0.20467687E+05</totfact>
</mgrwt>
</event>
<event>
 8    1  0.9331162E-006  0.2671490E+03  0.7546771E-02  0.1102922E+00
         21   -1    0    0  504  503  0.00000000000E+00  0.00000000000E+00  0.29082438690E+02  0.29082438690E+02  0.00000000000E+00 0.  1.
         21   -1    0    0  503  504 -0.00000000000E+00 -0.00000000000E+00 -0.61350246120E+03  0.61350246120E+03  0.00000000000E+00 0.  1.
         25    2    1    2    0    0  0.16612077814E+01  0.13971687497E+02 -0.18419115511E+03  0.22305520313E+03  0.12501709627E+03 0.  0.
         25    2    1    2    0    0 -0.16612077814E+01 -0.13971687497E+02 -0.40022886739E+03  0.41952969675E+03  0.12499620994E+03 0.  0.
          5    1    3    3  501    0 -0.18277849371E+02  0.48703076549E+02 -0.17370968435E+03  0.18139243060E+03  0.47000000000E+01 0.  1.
         -5    1    3    3    0  501  0.19939057153E+02 -0.34731389052E+02 -0.10481470762E+02  0.41662772531E+02  0.47000000000E+01 0.  1.
          5    1    4    4  502    0 -0.16721187948E+02 -0.16624420542E+01  0.13052382343E+01  0.17497299415E+02  0.47000000000E+01 0. -1.
         -5    1    4    4    0  502  0.15059980166E+02 -0.12309245443E+02 -0.40153410563E+03  0.40203239734E+03  0.47000000000E+01 0. -1.
<mgrwt>
<rscale>  0 0.26714900E+03</rscale>
<asrwt>0</asrwt>
<pdfrwt beam="1">  1       21 0.44742213E-02 0.26714900E+03</pdfrwt>
<pdfrwt beam="2">  1       21 0.94384994E-01 0.26714900E+03</pdfrwt>
<totfact> 0.29909379E+05</totfact>
</mgrwt>
</event>
<event>
 8    1  0.9331162E-006  0.3183094E+03  0.7546771E-02  0.1076430E+00
         21   -1    0    0  504  503  0.00000000000E+00  0.00000000000E+00  0.34978838231E+03  0.34978838231E+03  0.00000000000E+00 0.  1.
         21   -1    0    0  503  504 -0.00000000000E+00 -0.00000000000E+00 -0.72415815463E+02  0.72415815463E+02  0.00000000000E+00 0.  1.
         25    2    1    2    0    0 -0.50050802197E+02 -0.82662168498E+02  0.16405503108E+03  0.22776289784E+03  0.12499506994E+03 0.  0.
         25    2    1    2    0    0  0.50050802197E+02  0.82662168498E+02  0.11331753577E+03  0.19444129993E+03  0.12501375246E+03 0.  0.
          5    1    3    3  501    0 -0.86183390430E+01  0.89712364086E+01 -0.16406234949E+02  0.21119029234E+02  0.47000000000E+01 0. -1.
         -5    1    3    3    0  501 -0.41432463154E+02 -0.91633404906E+02  0.18046126602E+03  0.20664386861E+03  0.47000000000E+01 0. -1.
          5    1    4    4  502    0  0.35280685485E+02  0.89699700455E+02  0.18691893457E+02  0.98296693286E+02  0.47000000000E+01 0.  1.
         -5    1    4    4    0  502  0.14770116713E+02 -0.70375319569E+01  0.94625642316E+02  0.96144606648E+02  0.47000000000E+01 0.  1.
<mgrwt>
<rscale>  0 0.31830935E+03</rscale>
<asrwt>0</asrwt>
<pdfrwt beam="1">  1       21 0.53813596E-01 0.31830935E+03</pdfrwt>
<pdfrwt beam="2">  1       21 0.11140895E-01 0.31830935E+03</pdfrwt>
<totfact> 0.21177653E+05</totfact>
</mgrwt>
</event>
<event>
 8    1  0.9331162E-006  0.2640208E+03  0.7546771E-02  0.1104751E+00
         21   -1    0    0  504  503  0.00000000000E+00  0.00000000000E+00  0.24033252811E+03  0.24033252811E+03  0.00000000000E+00 0.  1.
         21   -1    0    0  503  504 -0.00000000000E+00 -0.00000000000E+00 -0.72510983136E+02  0.72510983136E+02  0.00000000000E+00 0.  1.
         25    2    1    2    0    0  0.44734854568E+00 -0.23859207264E+02  0.12552329508E+03  0.17873983758E+03  0.12498947971E+03 0.  0.
         25    2    1    2    0    0 -0.44734854568E+00  0.23859207264E+02  0.42298249895E+02  0.13410367367E+03  0.12500076582E+03 0.  0.
          5    1    3    3  501    0  0.51620774614E+02 -0.33182675830E+02  0.10678671390E+03  0.12325293754E+03  0.47000000000E+01 0.  1.
         -5    1    3    3    0  501 -0.51173426068E+02  0.93234685654E+01  0.18736581179E+02  0.55486900039E+02  0.47000000000E+01 0.  1.
          5    1    4    4  502    0  0.81111473636E+00 -0.76813843684E+01  0.82376584557E+02  0.82871305385E+02  0.47000000000E+01 0.  1.
         -5    1    4    4    0  502 -0.12584632820E+01  0.31540591633E+02 -0.40078334662E+02  0.51232368281E+02  0.47000000000E+01 0.  1.
<mgrwt>
<rscale>  0 0.26402082E+03</rscale>
<asrwt>0</asrwt>
<pdfrwt beam="1">  1       21 0.36974235E-01 0.26402082E+03</pdfrwt>
<pdfrwt beam="2">  1       21 0.11155536E-01 0.26402082E+03</pdfrwt>
<totfact> 0.46481398E+05</totfact>
</mgrwt>
</event>
<event>
 8    1  0.9331162E-006  0.3006935E+03  0.7546771E-02  0.1084894E+00
         21   -1    0    0  504  503  0.00000000000E+00  0.00000000000E+00  0.71971004385E+03  0.71971004385E+03  0.00000000000E+00 0.  1.
         21   -1    0    0  503  504 -0.00000000000E+00 -0.00000000000E+00 -0.31407285764E+02  0.31407285764E+02  0.00000000000E+00 0.  1.
         25    2    1    2    0    0  0.44738854816E+02  0.64860531396E+02  0.41363404683E+03  0.43923446480E+03  0.12500134682E+03 0.  0.
         25    2    1    2    0    0 -0.44738854816E+02 -0.64860531396E+02  0.27466871126E+03  0.31188286482E+03  0.12497826515E+03 0.  0.
          5    1    3    3  501    0 -0.30100102411E+02  0.42464456561E+02  0.73331199426E+02  0.90048881423E+02  0.47000000000E+01 0. -1.
         -5    1    3    3    0  501  0.74838957227E+02  0.22396074835E+02  0.34030284740E+03  0.34918558338E+03  0.47000000000E+01 0. -1.
          5    1    4    4  502    0 -0.37546617333E+01 -0.45889781791E+02  0.26011684695E+03  0.26420225893E+03  0.47000000000E+01 0. -1.
         -5    1    4    4    0  502 -0.40984193082E+02 -0.18970749605E+02  0.14551864314E+02  0.47680605892E+02  0.47000000000E+01 0. -1.
<mgrwt>
<rscale>  0 0.30069346E+03</rscale>
<asrwt>0</asrwt>
<pdfrwt beam="1">  1       21 0.11072461E+00 0.30069346E+03</pdfrwt>
<pdfrwt beam="2">  1       21 0.48318907E-02 0.30069346E+03</pdfrwt>
<totfact> 0.17702595E+05</totfact>
</mgrwt>
</event>
<event>
 8    1  0.9331162E-006  0.3446582E+03  0.7546771E-02  0.1064829E+00
         21   -1    0    0  504  503  0.00000000000E+00  0.00000000000E+00  0.26390542752E+02  0.26390542752E+02  0.00000000000E+00 0. -1.
         21   -1    0    0  503  504 -0.00000000000E+00 -0.00000000000E+00 -0.11253015706E+04  0.11253015706E+04  0.00000000000E+00 0. -1.
         25    2    1    2    0    0 -0.10091726161E+03  0.61376876899E+02 -0.51261970506E+03  0.54069907172E+03  0.12500043776E+03 0.  0.
         25    2    1    2    0    0  0.10091726161E+03 -0.61376876899E+02 -0.58629132283E+03  0.61099304166E+03  0.12499426800E+03 0.  0.
          5    1    3    3  501    0 -0.25917292443E+02  0.86668124497E+02 -0.31503321796E+03  0.32779732804E+03  0.47000000000E+01 0. -1.
         -5    1    3    3    0  501 -0.74999969166E+02 -0.25291247598E+02 -0.19758648709E+03  0.21290174368E+03  0.47000000000E+01 0. -1.
          5    1    4    4  502    0  0.15867141907E+02  0.14399943129E+02 -0.32711577030E+03  0.32785048686E+03  0.47000000000E+01 0.  1.
         -5    1    4    4    0  502  0.85050119702E+02 -0.75776820029E+02 -0.25917555253E+03  0.28314255481E+03  0.47000000000E+01 0.  1.
<mgrwt>
<rscale>  0 0.34465820E+03</rscale>
<asrwt>0</asrwt>
<pdfrwt beam="1">  1       21 0.40600836E-02 0.34465820E+03</pdfrwt>
<pdfrwt beam="2">  1       21 0.17312332E+00 0.34465820E+03</pdfrwt>
<totfact> 0.72617315E+04</totfact>
</mgrwt>
</event>
<event>
 8    1  0.9331162E-006  0.2720282E+03  0.7546771E-02  0.1100124E+00
         21   -1    0    0  504  503  0.00000000000E+00  0.00000000000E+00  0.25357180085E+03  0.25357180085E+03  0.00000000000E+00 0.  1.
         21   -1    0    0  503  504 -0.00000000000E+00 -0.00000000000E+00 -0.72957008207E+02  0.72957008207E+02  0.00000000000E+00 0.  1.
         25    2    1    2    0    0 -0.32756957544E+02 -0.95841399812E+01  0.40583280795E+02  0.13574574646E+03  0.12496011762E+03 0.  0.
         25    2    1    2    0    0  0.32756957544E+02  0.95841399812E+01  0.14003151185E+03  0.19078306260E+03  0.12499791461E+03 0.  0.
          5    1    3    3  501    0  0.12747051277E+02  0.40700725202E+02  0.51351068087E+02  0.66918297512E+02  0.47000000000E+01 0.  1.
         -5    1    3    3    0  501 -0.45504008821E+02 -0.50284865184E+02 -0.10767787291E+02  0.68827448947E+02  0.47000000000E+01 0.  1.
          5    1    4    4  502    0  0.15405389742E+02 -0.28744694782E+02  0.14450339726E+03  0.14821236565E+03  0.47000000000E+01 0. -1.
         -5    1    4    4    0  502  0.17351567802E+02  0.38328834763E+02 -0.44718854151E+01  0.42570696949E+02  0.47000000000E+01 0. -1.
<mgrwt>
<rscale>  0 0.27202823E+03</rscale>
<asrwt>0</asrwt>
<pdfrwt beam="1">  1       21 0.39011046E-01 0.27202823E+03</pdfrwt>
<pdfrwt beam="2">  1       21 0.11224155E-01 0.27202823E+03</pdfrwt>
<totfact> 0.41190479E+05</totfact>
</mgrwt>
</event>
<event>
 8    1  0.9331162E-006  0.2579241E+03  0.7546771E-02  0.1108397E+00
         21   -1    0    0  504  503  0.00000000000E+00  0.00000000000E+00  0.87546955533E+03  0.87546955533E+03  0.00000000000E+00 0.  1.
         21   -1    0    0  503  504 -0.00000000000E+00 -0.00000000000E+00 -0.18996906779E+02  0.18996906779E+02  0.00000000000E+00 0.  1.
         25    2    1    2    0    0  0.39912844439E+01  0.23686835788E+02  0.35640379567E+03  0.37845205221E+03  0.12500117484E+03 0.  0.
         25    2    1    2    0    0 -0.39912844439E+01 -0.23686835788E+02  0.50006885289E+03  0.51601440991E+03  0.12500006825E+03 0.  0.
          5    1    3    3  501    0  0.53779019328E+02 -0.10346739078E+02  0.25077622691E+03  0.25672951508E+03  0.47000000000E+01 0. -1.
         -5    1    3    3    0  501 -0.49787734885E+02  0.34033574867E+02  0.10562756875E+03  0.12172253712E+03  0.47000000000E+01 0. -1.
          5    1    4    4  502    0 -0.19924185328E+02  0.45816541006E+02  0.13517917947E+03  0.14419302740E+03  0.47000000000E+01 0.  1.
         -5    1    4    4    0  502  0.15932900885E+02 -0.69503376794E+02  0.36488967342E+03  0.37182138250E+03  0.47000000000E+01 0.  1.
<mgrwt>
<rscale>  0 0.25792412E+03</rscale>
<asrwt>0</asrwt>
<pdfrwt beam="1">  1       21 0.13468759E+00 0.25792412E+03</pdfrwt>
<pdfrwt beam="2">  1       21 0.29226017E-02 0.25792412E+03</pdfrwt>
<totfact> 0.25545598E+05</totfact>
</mgrwt>
</event>
<event>
 8    1  0.9331162E-006  0.4434113E+03  0.7546771E-02  0.1029705E+00
         21   -1    0    0  504  503  0.00000000000E+00  0.00000000000E+00  0.75378426627E+02  0.75378426627E+02  0.00000000000E+00 0.  1.
         21   -1    0    0  503  504 -0.00000000000E+00 -0.00000000000E+00 -0.65208839877E+03  0.65208839877E+03  0.00000000000E+00 0.  1.
         25    2    1    2    0    0  0.17868326854E+03 -0.24751601030E+02 -0.23682975952E+03  0.32288543062E+03  0.12500525632E+03 0.  0.
         25    2    1    2    0    0 -0.17868326854E+03  0.24751601030E+02 -0.33988021263E+03  0.40458139477E+03  0.12500877511E+03 0.  0.
          5    1    3    3  501    0  0.40055448383E+01 -0.40137954485E+02 -0.69293904771E+02  0.80317090449E+02  0.47000000000E+01 0.  1.
         -5    1    3    3    0  501  0.17467772370E+03  0.15386353455E+02 -0.16753585475E+03  0.24256834017E+03  0.47000000000E+01 0.  1.
          5    1    4    4  502    0 -0.17898114643E+02 -0.41422699473E+02 -0.64033641547E+02  0.78476619379E+02  0.47000000000E+01 0.  1.
         -5    1    4    4    0  502 -0.16078515389E+03  0.66174300503E+02 -0.27584657108E+03  0.32610477539E+03  0.47000000000E+01 0.  1.
<mgrwt>
<rscale>  0 0.44341131E+03</rscale>
<asrwt>0</asrwt>
<pdfrwt beam="1">  1       21 0.11596681E-01 0.44341131E+03</pdfrwt>
<pdfrwt beam="2">  1       21 0.10032130E+00 0.44341131E+03</pdfrwt>
<totfact> 0.46606872E+04</totfact>
</mgrwt>
</event>
<event>
 8    1  0.9331162E-006  0.3269727E+03  0.7546771E-02  0.1072484E+00
         21   -1    0    0  504  503  0.00000000000E+00  0.00000000000E+00  0.13441288099E+03  0.13441288099E+03  0.00000000000E+00 0.  1.
         21   -1    0    0  503  504 -0.00000000000E+00 -0.00000000000E+00 -0.19884843495E+03  0.19884843495E+03  0.00000000000E+00 0.  1.
         25    2    1    2    0    0  0.31489386910E+02 -0.66864191890E+02  0.44327815579E+02  0.15183289310E+03  0.12500348215E+03 0.  0.
         25    2    1    2    0    0 -0.31489386910E+02  0.66864191890E+02 -0.10876336954E+03  0.18142842283E+03  0.12499760163E+03 0.  0.
          5    1    3    3  501    0 -0.47987086222E+02 -0.18557313242E+02  0.10265914770E+02  0.52674598479E+02  0.47000000000E+01 0. -1.
         -5    1    3    3    0  501  0.79476473132E+02 -0.48306878648E+02  0.34061900809E+02  0.99158294624E+02  0.47000000000E+01 0. -1.
          5    1    4    4  502    0 -0.70893232619E+02  0.29658337363E+02 -0.23876912258E+02  0.80608091066E+02  0.47000000000E+01 0. -1.
         -5    1    4    4    0  502  0.39403845709E+02  0.37205854527E+02 -0.84886457282E+02  0.10082033177E+03  0.47000000000E+01 0. -1.
<mgrwt>
<rscale>  0 0.32697273E+03</rscale>
<asrwt>0</asrwt>
<pdfrwt beam="1">  1       21 0.20678905E-01 0.32697273E+03</pdfrwt>
<pdfrwt beam="2">  1       21 0.30592067E-01 0.32697273E+03</pdfrwt>
<totfact> 0.21508592E+05</totfact>
</mgrwt>
</event>
<event>
 8    1  0.9331162E-006  0.2706903E+03  0.7546771E-02  0.1100885E+00
         21   -1    0    0  504  503  0.00000000000E+00  0.00000000000E+00  0.90481835598E+03  0.90481835598E+03  0.00000000000E+00 0. -1.
         21   -1    0    0  503  504 -0.00000000000E+00 -0.00000000000E+00 -0.20245294798E+02  0.20245294798E+02  0.00000000000E+00 0. -1.
         25    2    1    2    0    0  0.36137855042E+02  0.29273330992E+02  0.52097349702E+03  0.53777484386E+03  0.12500210241E+03 0.  0.
         25    2    1    2    0    0 -0.36137855042E+02 -0.29273330992E+02  0.36359956416E+03  0.38728880692E+03  0.12500041775E+03 0.  0.
          5    1    3    3  501    0  0.76636889696E+02 -0.76542156867E+01  0.26782354010E+03  0.27871730932E+03  0.47000000000E+01 0. -1.
         -5    1    3    3    0  501 -0.40499034654E+02  0.36927546679E+02  0.25314995692E+03  0.25905753454E+03  0.47000000000E+01 0. -1.
          5    1    4    4  502    0  0.46034820972E+01 -0.41732198765E+02  0.33035423918E+03  0.33304471443E+03  0.47000000000E+01 0.  1.
         -5    1    4    4    0  502 -0.40741337139E+02  0.12458867773E+02  0.33245324978E+02  0.54244092498E+02  0.47000000000E+01 0.  1.
<mgrwt>
<rscale>  0 0.27069033E+03</rscale>
<asrwt>0</asrwt>
<pdfrwt beam="1">  1       21 0.13920279E+00 0.27069033E+03</pdfrwt>
<pdfrwt beam="2">  1       21 0.31146614E-02 0.27069033E+03</pdfrwt>
<totfact> 0.21012511E+05</totfact>
</mgrwt>
</event>
<event>
 8    1  0.9331162E-006  0.3561689E+03  0.7546771E-02  0.1060111E+00
         21   -1    0    0  504  503  0.00000000000E+00  0.00000000000E+00  0.60772253495E+02  0.60772253495E+02  0.00000000000E+00 0. -1.
         21   -1    0    0  503  504 -0.00000000000E+00 -0.00000000000E+00 -0.52185125349E+03  0.52185125349E+03  0.00000000000E+00 0. -1.
         25    2    1    2    0    0 -0.72619768059E+02 -0.56240752998E+02 -0.37364773577E+03  0.40456292107E+03  0.12498749397E+03 0.  0.
         25    2    1    2    0    0  0.72619768059E+02  0.56240752998E+02 -0.87431264226E+02  0.17806058591E+03  0.12499877312E+03 0.  0.
          5    1    3    3  501    0  0.27500911925E+00  0.34632553065E+02 -0.12741274013E+03  0.13211958866E+03  0.47000000000E+01 0.  1.
         -5    1    3    3    0  501 -0.72894777178E+02 -0.90873306064E+02 -0.24623499564E+03  0.27244333241E+03  0.47000000000E+01 0.  1.
          5    1    4    4  502    0  0.83240585361E+01 -0.35098149228E+02 -0.39735181649E+00  0.36378811390E+02  0.47000000000E+01 0.  1.
         -5    1    4    4    0  502  0.64295709523E+02  0.91338902226E+02 -0.87033912410E+02  0.14168177452E+03  0.47000000000E+01 0.  1.
<mgrwt>
<rscale>  0 0.35616893E+03</rscale>
<asrwt>0</asrwt>
<pdfrwt beam="1">  1       21 0.93495774E-02 0.35616893E+03</pdfrwt>
<pdfrwt beam="2">  1       21 0.80284809E-01 0.35616893E+03</pdfrwt>
<totfact> 0.11859782E+05</totfact>
</mgrwt>
</event>
<event>
 8    1  0.9331162E-006  0.2806455E+03  0.7546771E-02  0.1095337E+00
         21   -1    0    0  504  503  0.00000000000E+00  0.00000000000E+00  0.22919709627E+02  0.22919709627E+02  0.00000000000E+00 0.  1.
         21   -1    0    0  503  504 -0.00000000000E+00 -0.00000000000E+00 -0.85910641431E+03  0.85910641431E+03  0.00000000000E+00 0.  1.
         25    2    1    2    0    0 -0.53725882417E+02 -0.95950064275E+01 -0.31449768513E+03  0.34280273681E+03  0.12500555115E+03 0.  0.
         25    2    1    2    0    0  0.53725882417E+02  0.95950064275E+01 -0.52168901955E+03  0.53922338713E+03  0.12499557400E+03 0.  0.
          5    1    3    3  501    0 -0.76937019794E+02  0.22673357478E+02 -0.12125821587E+03  0.14546144186E+03  0.47000000000E+01 0. -1.
         -5    1    3    3    0  501  0.23211137377E+02 -0.32268363905E+02 -0.19323946927E+03  0.19734129494E+03  0.47000000000E+01 0. -1.
          5    1    4    4  502    0  0.38322615707E+02 -0.45976770444E+02 -0.12890418057E+03  0.14220008461E+03  0.47000000000E+01 0. -1.
         -5    1    4    4    0  502  0.15403266711E+02  0.55571776872E+02 -0.39278483898E+03  0.39702330252E+03  0.47000000000E+01 0. -1.
<mgrwt>
<rscale>  0 0.28064547E+03</rscale>
<asrwt>0</asrwt>
<pdfrwt beam="1">  1       21 0.35261098E-02 0.28064547E+03</pdfrwt>
<pdfrwt beam="2">  1       21 0.13217019E+00 0.28064547E+03</pdfrwt>
<totfact> 0.19459881E+05</totfact>
</mgrwt>
</event>
<event>
 8    1  0.9331162E-006  0.4188211E+03  0.7546771E-02  0.1037451E+00
         21   -1    0    0  504  503  0.00000000000E+00  0.00000000000E+00  0.38414335955E+02  0.38414335955E+02  0.00000000000E+00 0.  1.
         21   -1    0    0  503  504 -0.00000000000E+00 -0.00000000000E+00 -0.11415734891E+04  0.11415734891E+04  0.00000000000E+00 0.  1.
         25    2    1    2    0    0 -0.11152106024E+03  0.69841354821E+02 -0.84589438670E+03  0.86514584977E+03  0.12500106480E+03 0.  0.
         25    2    1    2    0    0  0.11152106024E+03 -0.69841354821E+02 -0.25726476640E+03  0.31484197524E+03  0.12500219047E+03 0.  0.
          5    1    3    3  501    0  0.10403269820E+02 -0.23803877472E+02 -0.16474510324E+03  0.16684691081E+03  0.47000000000E+01 0. -1.
         -5    1    3    3    0  501 -0.12192433006E+03  0.93645232293E+02 -0.68114928346E+03  0.69829893896E+03  0.47000000000E+01 0. -1.
          5    1    4    4  502    0  0.10443486743E+03 -0.10322154181E+03 -0.20350929764E+03  0.25099691722E+03  0.47000000000E+01 0.  1.
         -5    1    4    4    0  502  0.70861928153E+01  0.33380186990E+02 -0.53755468759E+02  0.63845058020E+02  0.47000000000E+01 0.  1.
<mgrwt>
<rscale>  0 0.41882114E+03</rscale>
<asrwt>0</asrwt>
<pdfrwt beam="1">  1       21 0.59098983E-02 0.41882114E+03</pdfrwt>
<pdfrwt beam="2">  1       21 0.17562668E+00 0.41882114E+03</pdfrwt>
<totfact> 0.35715870E+04</totfact>
</mgrwt>
</event>
<event>
 8    1  0.9331162E-006  0.3092246E+03  0.7546771E-02  0.1080718E+00
         21   -1    0    0  504  503  0.00000000000E+00  0.00000000000E+00  0.29850031603E+02  0.29850031603E+02  0.00000000000E+00 0.  1.
         21   -1    0    0  503  504 -0.00000000000E+00 -0.00000000000E+00 -0.80083536710E+03  0.80083536710E+03  0.00000000000E+00 0.  1.
         25    2    1    2    0    0  0.83773091910E+02  0.35081093157E+02 -0.37035419693E+03  0.40129130538E+03  0.12499546618E+03 0.  0.
         25    2    1    2    0    0 -0.83773091910E+02 -0.35081093157E+02 -0.40063113856E+03  0.42939409332E+03  0.12500145665E+03 0.  0.
          5    1    3    3  501    0  0.41973843632E+02  0.79180373015E+02 -0.26242158372E+03  0.27734186958E+03  0.47000000000E+01 0.  1.
         -5    1    3    3    0  501  0.41799248278E+02 -0.44099279858E+02 -0.10793261321E+03  0.12394943580E+03  0.47000000000E+01 0.  1.
          5    1    4    4  502    0 -0.28132720881E+02 -0.68948313549E+02 -0.30215242292E+03  0.31122900990E+03  0.47000000000E+01 0. -1.
         -5    1    4    4    0  502 -0.55640371029E+02  0.33867220391E+02 -0.98478715643E+02  0.11816508342E+03  0.47000000000E+01 0. -1.
<mgrwt>
<rscale>  0 0.30922459E+03</rscale>
<asrwt>0</asrwt>
<pdfrwt beam="1">  1       21 0.45923118E-02 0.30922459E+03</pdfrwt>
<pdfrwt beam="2">  1       21 0.12320546E+00 0.30922459E+03</pdfrwt>
<totfact> 0.14765323E+05</totfact>
</mgrwt>
</event>
<event>
 8    1  0.9331162E-006  0.4759719E+03  0.7546771E-02  0.1020248E+00
         21   -1    0    0  504  503  0.00000000000E+00  0.00000000000E+00  0.11045977563E+03  0.11045977563E+03  0.00000000000E+00 0. -1.
         21   -1    0    0  503  504 -0.00000000000E+00 -0.00000000000E+00 -0.51274160365E+03  0.51274160365E+03  0.00000000000E+00 0. -1.
         25    2    1    2    0    0 -0.49091921721E+02 -0.15974244238E+03 -0.51372861889E+02  0.21492699075E+03  0.12500710275E+03 0.  0.
         25    2    1    2    0    0  0.49091921721E+02  0.15974244238E+03 -0.35090896613E+03  0.40827438853E+03  0.12499283637E+03 0.  0.
          5    1    3    3  501    0 -0.62491505605E+02 -0.71407230886E+02  0.23943088540E+02  0.97977254424E+02  0.47000000000E+01 0. -1.
         -5    1    3    3    0  501  0.13399583884E+02 -0.88335211495E+02 -0.75315950429E+02  0.11694973633E+03  0.47000000000E+01 0. -1.
          5    1    4    4  502    0  0.25152701392E+02 -0.68986654778E+01 -0.11747647939E+03  0.12042866429E+03  0.47000000000E+01 0. -1.
         -5    1    4    4    0  502  0.23939220329E+02  0.16664110786E+03 -0.23343248674E+03  0.28784572424E+03  0.47000000000E+01 0. -1.
<mgrwt>
<rscale>  0 0.47597194E+03</rscale>
<asrwt>0</asrwt>
<pdfrwt beam="1">  1       21 0.16993812E-01 0.47597194E+03</pdfrwt>
<pdfrwt beam="2">  1       21 0.78883323E-01 0.47597194E+03</pdfrwt>
<totfact> 0.40342401E+04</totfact>
</mgrwt>
</event>
<event>
 8    1  0.9331162E-006  0.4163942E+03  0.7546771E-02  0.1038246E+00
         21   -1    0    0  504  503  0.00000000000E+00  0.00000000000E+00  0.22578088560E+03  0.22578088560E+03  0.00000000000E+00 0.  1.
         21   -1    0    0  503  504 -0.00000000000E+00 -0.00000000000E+00 -0.19198272037E+03  0.19198272037E+03  0.00000000000E+00 0.  1.
         25    2    1    2    0    0  0.16352623203E+03  0.28294904495E+02  0.30400877458E+02  0.20997683695E+03  0.12499851408E+03 0.  0.
         25    2    1    2    0    0 -0.16352623203E+03 -0.28294904495E+02  0.33972877713E+01  0.20778676901E+03  0.12498947807E+03 0.  0.
          5    1    3    3  501    0  0.87560032821E+02 -0.42911580899E+02 -0.10128098074E+02  0.98146989222E+02  0.47000000000E+01 0.  1.
         -5    1    3    3    0  501  0.75966199214E+02  0.71206485394E+02  0.40528975533E+02  0.11182984773E+03  0.47000000000E+01 0.  1.
          5    1    4    4  502    0 -0.29797575315E+02 -0.48044551596E+02  0.37862092217E+02  0.68204123481E+02  0.47000000000E+01 0.  1.
         -5    1    4    4    0  502 -0.13372865672E+03  0.19749647102E+02 -0.34464804446E+02  0.13958264553E+03  0.47000000000E+01 0.  1.
<mgrwt>
<rscale>  0 0.41639418E+03</rscale>
<asrwt>0</asrwt>
<pdfrwt beam="1">  1       21 0.34735521E-01 0.41639418E+03</pdfrwt>
<pdfrwt beam="2">  1       21 0.29535803E-01 0.41639418E+03</pdfrwt>
<totfact> 0.82145740E+04</totfact>
</mgrwt>
</event>
<event>
 8    1  0.9331162E-006  0.3503227E+03  0.7546771E-02  0.1062483E+00
         21   -1    0    0  504  503  0.00000000000E+00  0.00000000000E+00  0.17743807494E+03  0.17743807494E+03  0.00000000000E+00 0. -1.
         21   -1    0    0  503  504 -0.00000000000E+00 -0.00000000000E+00 -0.17291380574E+03  0.17291380574E+03  0.00000000000E+00 0. -1.
         25    2    1    2    0    0  0.39556833585E+02  0.85577515290E+02  0.80879570329E+02  0.17615584733E+03  0.12490445727E+03 0.  0.
         25    2    1    2    0    0 -0.39556833585E+02 -0.85577515290E+02 -0.76355301128E+02  0.17419603334E+03  0.12500348722E+03 0.  0.
          5    1    3    3  501    0  0.46761255117E+02  0.69081269694E+02  0.11210045907E+03  0.13981215872E+03  0.47000000000E+01 0. -1.
         -5    1    3    3    0  501 -0.72044215323E+01  0.16496245596E+02 -0.31220888738E+02  0.36343688613E+02  0.47000000000E+01 0. -1.
          5    1    4    4  502    0 -0.71186099451E+02 -0.65961340102E+02 -0.96167673099E+01  0.97636731595E+02  0.47000000000E+01 0.  1.
         -5    1    4    4    0  502  0.31629265866E+02 -0.19616175188E+02 -0.66738533818E+02  0.76559301750E+02  0.47000000000E+01 0.  1.
<mgrwt>
<rscale>  0 0.35032267E+03</rscale>
<asrwt>0</asrwt>
<pdfrwt beam="1">  1       21 0.27298165E-01 0.35032267E+03</pdfrwt>
<pdfrwt beam="2">  1       21 0.26602124E-01 0.35032267E+03</pdfrwt>
<totfact> 0.16505409E+05</totfact>
</mgrwt>
</event>
<event>
 8    1  0.9331162E-006  0.2784185E+03  0.7546771E-02  0.1096556E+00
         21   -1    0    0  504  503  0.00000000000E+00  0.00000000000E+00  0.82477052871E+03  0.82477052871E+03  0.00000000000E+00 0.  1.
         21   -1    0    0  503  504 -0.00000000000E+00 -0.00000000000E+00 -0.23496497254E+02  0.23496497254E+02  0.00000000000E+00 0.  1.
         25    2    1    2    0    0 -0.16213537863E+02  0.58192660032E+02  0.37003989198E+03  0.39523436007E+03  0.12502565031E+03 0.  0.
         25    2    1    2    0    0  0.16213537863E+02 -0.58192660032E+02  0.43123413948E+03  0.45303266589E+03  0.12500579515E+03 0.  0.
          5    1    3    3  501    0 -0.19676140389E+02  0.66283259408E+02  0.37684071478E+03  0.38316006485E+03  0.47000000000E+01 0. -1.
         -5    1    3    3    0  501  0.34626025269E+01 -0.80905993763E+01 -0.68008227987E+01  0.12074295229E+02  0.47000000000E+01 0. -1.
          5    1    4    4  502    0  0.64543804428E+02 -0.16543188714E+02  0.29582232315E+03  0.30326970943E+03  0.47000000000E+01 0. -1.
         -5    1    4    4    0  502 -0.48330266566E+02 -0.41649471318E+02  0.13541181633E+03  0.14976295646E+03  0.47000000000E+01 0. -1.
<mgrwt>
<rscale>  0 0.27841852E+03</rscale>
<asrwt>0</asrwt>
<pdfrwt beam="1">  1       21 0.12688775E+00 0.27841852E+03</pdfrwt>
<pdfrwt beam="2">  1       21 0.36148464E-02 0.27841852E+03</pdfrwt>
<totfact> 0.20725611E+05</totfact>
</mgrwt>
</event>
<event>
 8    1  0.9331162E-006  0.3536783E+03  0.7546771E-02  0.1061115E+00
         21   -1    0    0  504  503  0.00000000000E+00  0.00000000000E+00  0.59998666212E+03  0.59998666212E+03  0.00000000000E+00 0. -1.
         21   -1    0    0  503  504 -0.00000000000E+00 -0.00000000000E+00 -0.52121294002E+02  0.52121294002E+02  0.00000000000E+00 0. -1.
         25    2    1    2    0    0 -0.96962844715E+02  0.78145793906E+02  0.25227313110E+03  0.30785787052E+03  0.12500470953E+03 0.  0.
         25    2    1    2    0    0  0.96962844715E+02 -0.78145793906E+02  0.29559223702E+03  0.34425008560E+03  0.12499916996E+03 0.  0.
          5    1    3    3  501    0 -0.12321824425E+03  0.83425911089E+02  0.22026687702E+03  0.26586125229E+03  0.47000000000E+01 0. -1.
         -5    1    3    3    0  501  0.26255399538E+02 -0.52801171832E+01  0.32006254077E+02  0.41996618226E+02  0.47000000000E+01 0. -1.
          5    1    4    4  502    0  0.11446412310E+03 -0.31210055305E+02  0.15724655163E+03  0.19703977017E+03  0.47000000000E+01 0.  1.
         -5    1    4    4    0  502 -0.17501278388E+02 -0.46935738601E+02  0.13834568539E+03  0.14721031543E+03  0.47000000000E+01 0.  1.
<mgrwt>
<rscale>  0 0.35367828E+03</rscale>
<asrwt>0</asrwt>
<pdfrwt beam="1">  1       21 0.92305635E-01 0.35367828E+03</pdfrwt>
<pdfrwt beam="2">  1       21 0.80186611E-02 0.35367828E+03</pdfrwt>
<totfact> 0.11252696E+05</totfact>
</mgrwt>
</event>
<event>
 8    1  0.9331162E-006  0.3402747E+03  0.7546771E-02  0.1066679E+00
         21   -1    0    0  504  503  0.00000000000E+00  0.00000000000E+00  0.58845943645E+02  0.58845943645E+02  0.00000000000E+00 0.  1.
         21   -1    0    0  503  504 -0.00000000000E+00 -0.00000000000E+00 -0.49190683873E+03  0.49190683873E+03  0.00000000000E+00 0.  1.
         25    2    1    2    0    0  0.10048966862E+03 -0.53108308565E+02 -0.24895930279E+03  0.30087568171E+03  0.12500710165E+03 0.  0.
         25    2    1    2    0    0 -0.10048966862E+03  0.53108308565E+02 -0.18410159229E+03  0.24987710066E+03  0.12500601270E+03 0.  0.
          5    1    3    3  501    0  0.87276057667E+02 -0.92168187428E+02 -0.19660048936E+03  0.23406393877E+03  0.47000000000E+01 0. -1.
         -5    1    3    3    0  501  0.13213610954E+02  0.39059878863E+02 -0.52358813424E+02  0.66811742938E+02  0.47000000000E+01 0. -1.
          5    1    4    4  502    0 -0.71556522652E+02  0.54383402441E+02 -0.32852472385E+02  0.95808482594E+02  0.47000000000E+01 0. -1.
         -5    1    4    4    0  502 -0.28933145969E+02 -0.12750938763E+01 -0.15124911991E+03  0.15406861807E+03  0.47000000000E+01 0. -1.
<mgrwt>
<rscale>  0 0.34027472E+03</rscale>
<asrwt>0</asrwt>
<pdfrwt beam="1">  1       21 0.90532222E-02 0.34027472E+03</pdfrwt>
<pdfrwt beam="2">  1       21 0.75677975E-01 0.34027472E+03</pdfrwt>
<totfact> 0.14426929E+05</totfact>
</mgrwt>
</event>
<event>
 8    1  0.9331162E-006  0.2606004E+03  0.7546771E-02  0.1106783E+00
         21   -1    0    0  504  503  0.00000000000E+00  0.00000000000E+00  0.23962814307E+03  0.23962814307E+03  0.00000000000E+00 0. -1.
         21   -1    0    0  503  504 -0.00000000000E+00 -0.00000000000E+00 -0.70852025869E+02  0.70852025869E+02  0.00000000000E+00 0. -1.
         25    2    1    2    0    0 -0.95040999249E+01  0.28833767296E+02  0.10912241009E+03  0.16868125692E+03  0.12499580794E+03 0.  0.
         25    2    1    2    0    0  0.95040999249E+01 -0.28833767296E+02  0.59653707112E+02  0.14179891202E+03  0.12500661033E+03 0.  0.
          5    1    3    3  501    0 -0.43295903511E+02  0.54079158065E+02  0.10521361564E+03  0.12605984894E+03  0.47000000000E+01 0.  1.
         -5    1    3    3    0  501  0.33791803586E+02 -0.25245390770E+02  0.39087944501E+01  0.42621407987E+02  0.47000000000E+01 0.  1.
          5    1    4    4  502    0  0.18894176138E+02  0.45886431299E+02  0.39772845132E+02  0.63769300444E+02  0.47000000000E+01 0.  1.
         -5    1    4    4    0  502 -0.93900762132E+01 -0.74720198594E+02  0.19880861981E+02  0.78029611574E+02  0.47000000000E+01 0.  1.
<mgrwt>
<rscale>  0 0.26060038E+03</rscale>
<asrwt>0</asrwt>
<pdfrwt beam="1">  1       21 0.36865868E-01 0.26060038E+03</pdfrwt>
<pdfrwt beam="2">  1       21 0.10900312E-01 0.26060038E+03</pdfrwt>
<totfact> 0.48765300E+05</totfact>
</mgrwt>
</event>
<event>
 8    1  0.9331162E-006  0.2568761E+03  0.7546771E-02  0.1109035E+00
         21   -1    0    0  504  503  0.00000000000E+00  0.00000000000E+00  0.20808064748E+03  0.20808064748E+03  0.00000000000E+00 0. -1.
         21   -1    0    0  503  504 -0.00000000000E+00 -0.00000000000E+00 -0.79278531331E+02  0.79278531331E+02  0.00000000000E+00 0. -1.
         25    2    1    2    0    0 -0.17379144374E+02 -0.40245856518E+01  0.90710713819E+02  0.15547447719E+03  0.12500259000E+03 0.  0.
         25    2    1    2    0    0  0.17379144374E+02  0.40245856518E+01  0.38091402329E+02  0.13188470162E+03  0.12499755054E+03 0.  0.
          5    1    3    3  501    0 -0.52197228457E+02 -0.20886424385E+02 -0.35760682154E+00  0.56418182041E+02  0.47000000000E+01 0.  1.
         -5    1    3    3    0  501  0.34818084083E+02  0.16861838733E+02  0.91068320641E+02  0.99056295151E+02  0.47000000000E+01 0.  1.
          5    1    4    4  502    0 -0.33615558861E+02  0.43543719442E+02  0.38307068510E+02  0.67198086269E+02  0.47000000000E+01 0. -1.
         -5    1    4    4    0  502  0.50994703235E+02 -0.39519133790E+02 -0.21566618076E+00  0.64686615350E+02  0.47000000000E+01 0. -1.
<mgrwt>
<rscale>  0 0.25687606E+03</rscale>
<asrwt>0</asrwt>
<pdfrwt beam="1">  1       21 0.32012407E-01 0.25687606E+03</pdfrwt>
<pdfrwt beam="2">  1       21 0.12196697E-01 0.25687606E+03</pdfrwt>
<totfact> 0.52846950E+05</totfact>
</mgrwt>
</event>
<event>
 8    1  0.9331162E-006  0.3154180E+03  0.7546771E-02  0.1077778E+00
         21   -1    0    0  504  503  0.00000000000E+00  0.00000000000E+00  0.36789549268E+02  0.36789549268E+02  0.00000000000E+00 0.  1.
         21   -1    0    0  503  504 -0.00000000000E+00 -0.00000000000E+00 -0.67606509477E+03  0.67606509477E+03  0.00000000000E+00 0.  1.
         25    2    1    2    0    0  0.71418951421E+02  0.53750662571E+01 -0.46460792975E+03  0.48643862930E+03  0.12502981136E+03 0.  0.
         25    2    1    2    0    0 -0.71418951421E+02 -0.53750662571E+01 -0.17466761575E+03  0.22641601474E+03  0.12500351106E+03 0.  0.
          5    1    3    3  501    0  0.45946375798E+02 -0.33034211365E+02 -0.41381075528E+03  0.41768859184E+03  0.47000000000E+01 0.  1.
         -5    1    3    3    0  501  0.25472575622E+02  0.38409277622E+02 -0.50797174467E+02  0.68750037456E+02  0.47000000000E+01 0.  1.
          5    1    4    4  502    0 -0.25117658521E+02  0.52646731996E+02 -0.12189965826E+03  0.13521905133E+03  0.47000000000E+01 0. -1.
         -5    1    4    4    0  502 -0.46301292900E+02 -0.58021798253E+02 -0.52767957496E+02  0.91196963409E+02  0.47000000000E+01 0. -1.
<mgrwt>
<rscale>  0 0.31541801E+03</rscale>
<asrwt>0</asrwt>
<pdfrwt beam="1">  1       21 0.56599310E-02 0.31541801E+03</pdfrwt>
<pdfrwt beam="2">  1       21 0.10401001E+00 0.31541801E+03</pdfrwt>
<totfact> 0.15663421E+05</totfact>
</mgrwt>
</event>
<event>
 8    1  0.9331162E-006  0.2735625E+03  0.7546771E-02  0.1099258E+00
         21   -1    0    0  504  503  0.00000000000E+00  0.00000000000E+00  0.17311355206E+03  0.17311355206E+03  0.00000000000E+00 0.  1.
         21   -1    0    0  503  504 -0.00000000000E+00 -0.00000000000E+00 -0.10807420947E+03  0.10807420947E+03  0.00000000000E+00 0.  1.
         25    2    1    2    0    0  0.29254678123E+02 -0.16448794519E+02  0.78011421602E+02  0.15112000078E+03  0.12500029481E+03 0.  0.
         25    2    1    2    0    0 -0.29254678123E+02  0.16448794519E+02 -0.12972079004E+02  0.13006776075E+03  0.12499179381E+03 0.  0.
          5    1    3    3  501    0  0.30435731061E+02 -0.68752664599E+02  0.57326182226E+02  0.94665958947E+02  0.47000000000E+01 0.  1.
         -5    1    3    3    0  501 -0.11810529384E+01  0.52303870080E+02  0.20685239376E+02  0.56454041835E+02  0.47000000000E+01 0.  1.
          5    1    4    4  502    0 -0.32481516562E+02  0.30807620656E+02 -0.63158064037E+02  0.77557652502E+02  0.47000000000E+01 0.  1.
         -5    1    4    4    0  502  0.32268384399E+01 -0.14358826138E+02  0.50185985032E+02  0.52510108246E+02  0.47000000000E+01 0.  1.
<mgrwt>
<rscale>  0 0.27356250E+03</rscale>
<asrwt>0</asrwt>
<pdfrwt beam="1">  1       21 0.26632854E-01 0.27356250E+03</pdfrwt>
<pdfrwt beam="2">  1       21 0.16626802E-01 0.27356250E+03</pdfrwt>
<totfact> 0.42890196E+05</totfact>
</mgrwt>
</event>
<event>
 8    1  0.9331162E-006  0.2925789E+03  0.7546771E-02  0.1089010E+00
         21   -1    0    0  504  503  0.00000000000E+00  0.00000000000E+00  0.15781526602E+03  0.15781526602E+03  0.00000000000E+00 0. -1.
         21   -1    0    0  503  504 -0.00000000000E+00 -0.00000000000E+00 -0.13560541787E+03  0.13560541787E+03  0.00000000000E+00 0. -1.
         25    2    1    2    0    0  0.50501025406E+02  0.38288377133E+02 -0.30948103445E+02  0.14353201537E+03  0.12500920341E+03 0.  0.
         25    2    1    2    0    0 -0.50501025406E+02 -0.38288377133E+02  0.53157951592E+02  0.14988866853E+03  0.12499796696E+03 0.  0.
          5    1    3    3  501    0 -0.49554453845E+01  0.72530170801E+02 -0.28232435010E+02  0.78130291834E+02  0.47000000000E+01 0.  1.
         -5    1    3    3    0  501  0.55456470790E+02 -0.34241793668E+02 -0.27156684353E+01  0.65401723534E+02  0.47000000000E+01 0.  1.
          5    1    4    4  502    0  0.39389236470E+02 -0.16177504694E+02  0.35265735702E+02  0.55488608942E+02  0.47000000000E+01 0.  1.
         -5    1    4    4    0  502 -0.89890261876E+02 -0.22110872439E+02  0.17892215891E+02  0.94400059585E+02  0.47000000000E+01 0.  1.
<mgrwt>
<rscale>  0 0.29257891E+03</rscale>
<asrwt>0</asrwt>
<pdfrwt beam="1">  1       21 0.24279272E-01 0.29257891E+03</pdfrwt>
<pdfrwt beam="2">  1       21 0.20862372E-01 0.29257891E+03</pdfrwt>
<totfact> 0.33411713E+05</totfact>
</mgrwt>
</event>
<event>
 8    1  0.9331162E-006  0.3353950E+03  0.7546771E-02  0.1068774E+00
         21   -1    0    0  504  503  0.00000000000E+00  0.00000000000E+00  0.16194105212E+03  0.16194105212E+03  0.00000000000E+00 0.  1.
         21   -1    0    0  503  504 -0.00000000000E+00 -0.00000000000E+00 -0.17365858448E+03  0.17365858448E+03  0.00000000000E+00 0.  1.
         25    2    1    2    0    0 -0.85796760299E+02  0.26295268705E+02 -0.72570822022E+02  0.17013156992E+03  0.12500280652E+03 0.  0.
         25    2    1    2    0    0  0.85796760299E+02 -0.26295268705E+02  0.60853289663E+02  0.16546806668E+03  0.12499613192E+03 0.  0.
          5    1    3    3  501    0 -0.63689372278E+02 -0.12032749636E+02 -0.98966410565E+02  0.11839579226E+03  0.47000000000E+01 0. -1.
         -5    1    3    3    0  501 -0.22107388021E+02  0.38328018341E+02  0.26395588543E+02  0.51735777655E+02  0.47000000000E+01 0. -1.
          5    1    4    4  502    0  0.12425274458E+01 -0.56763329846E+02  0.25917596098E+00  0.56971718087E+02  0.47000000000E+01 0.  1.
         -5    1    4    4    0  502  0.84554232854E+02  0.30468061141E+02  0.60594113702E+02  0.10849634860E+03  0.47000000000E+01 0.  1.
<mgrwt>
<rscale>  0 0.33539501E+03</rscale>
<asrwt>0</asrwt>
<pdfrwt beam="1">  1       21 0.24914008E-01 0.33539501E+03</pdfrwt>
<pdfrwt beam="2">  1       21 0.26716705E-01 0.33539501E+03</pdfrwt>
<totfact> 0.19608109E+05</totfact>
</mgrwt>
</event>
<event>
 8    1  0.9331162E-006  0.2595345E+03  0.7546771E-02  0.1107423E+00
         21   -1    0    0  504  503  0.00000000000E+00  0.00000000000E+00  0.25754536032E+03  0.25754536032E+03  0.00000000000E+00 0.  1.
         21   -1    0    0  503  504 -0.00000000000E+00 -0.00000000000E+00 -0.65384761763E+02  0.65384761763E+02  0.00000000000E+00 0.  1.
         25    2    1    2    0    0  0.17475437298E+02  0.23851203867E+01  0.58684943425E+02  0.13921890881E+03  0.12500760888E+03 0.  0.
         25    2    1    2    0    0 -0.17475437298E+02 -0.23851203867E+01  0.13347565513E+03  0.18371121327E+03  0.12499191838E+03 0.  0.
          5    1    3    3  501    0  0.34716803443E+02  0.57146632263E+02  0.42561621229E+02  0.79401357809E+02  0.47000000000E+01 0. -1.
         -5    1    3    3    0  501 -0.17241366145E+02 -0.54761511876E+02  0.16123322196E+02  0.59817551004E+02  0.47000000000E+01 0. -1.
          5    1    4    4  502    0 -0.44335347524E+02  0.24658138069E+02  0.13599420526E+03  0.14522451817E+03  0.47000000000E+01 0. -1.
         -5    1    4    4    0  502  0.26859910226E+02 -0.27043258456E+02 -0.25185501240E+01  0.38486695104E+02  0.47000000000E+01 0. -1.
<mgrwt>
<rscale>  0 0.25953452E+03</rscale>
<asrwt>0</asrwt>
<pdfrwt beam="1">  1       21 0.39622363E-01 0.25953452E+03</pdfrwt>
<pdfrwt beam="2">  1       21 0.10059194E-01 0.25953452E+03</pdfrwt>
<totfact> 0.48652762E+05</totfact>
</mgrwt>
</event>
<event>
 8    1  0.9331162E-006  0.3978861E+03  0.7546771E-02  0.1044514E+00
         21   -1    0    0  504  503  0.00000000000E+00  0.00000000000E+00  0.30929369828E+02  0.30929369828E+02  0.00000000000E+00 0. -1.
         21   -1    0    0  503  504 -0.00000000000E+00 -0.00000000000E+00 -0.12796358865E+04  0.12796358865E+04  0.00000000000E+00 0. -1.
         25    2    1    2    0    0  0.79053058711E+02  0.12011381939E+03 -0.43580060633E+03  0.47562929949E+03  0.12499738539E+03 0.  0.
         25    2    1    2    0    0 -0.79053058711E+02 -0.12011381939E+03 -0.81290591030E+03  0.83493595679E+03  0.12500126900E+03 0.  0.
          5    1    3    3  501    0  0.29268743381E+02  0.13064534587E+03 -0.36084906465E+03  0.38491428032E+03  0.47000000000E+01 0.  1.
         -5    1    3    3    0  501  0.49784315329E+02 -0.10531526475E+02 -0.74951541688E+02  0.90715019176E+02  0.47000000000E+01 0.  1.
          5    1    4    4  502    0 -0.47136162349E+02 -0.61117810333E+02 -0.69432395498E+03  0.69861652500E+03  0.47000000000E+01 0. -1.
         -5    1    4    4    0  502 -0.31916896361E+02 -0.58996009058E+02 -0.11858195531E+03  0.13631943179E+03  0.47000000000E+01 0. -1.
<mgrwt>
<rscale>  0 0.39788607E+03</rscale>
<asrwt>0</asrwt>
<pdfrwt beam="1">  1       21 0.47583644E-02 0.39788607E+03</pdfrwt>
<pdfrwt beam="2">  1       21 0.19686707E+00 0.39788607E+03</pdfrwt>
<totfact> 0.37315169E+04</totfact>
</mgrwt>
</event>
<event>
 8    1  0.9331162E-006  0.4063317E+03  0.7546771E-02  0.1041609E+00
         21   -1    0    0  504  503  0.00000000000E+00  0.00000000000E+00  0.52094368589E+03  0.52094368589E+03  0.00000000000E+00 0. -1.
         21   -1    0    0  503  504 -0.00000000000E+00 -0.00000000000E+00 -0.79233819306E+02  0.79233819306E+02  0.00000000000E+00 0. -1.
         25    2    1    2    0    0 -0.10169056133E+03  0.10912838070E+03  0.13471379315E+03  0.23669267821E+03  0.12500257643E+03 0.  0.
         25    2    1    2    0    0  0.10169056133E+03 -0.10912838070E+03  0.30699607343E+03  0.36348482698E+03  0.12499862643E+03 0.  0.
          5    1    3    3  501    0 -0.39081814061E+02  0.37978966500E+02 -0.17408350846E+02  0.57401487489E+02  0.47000000000E+01 0. -1.
         -5    1    3    3    0  501 -0.62608747265E+02  0.71149414202E+02  0.15212214400E+03  0.17929119072E+03  0.47000000000E+01 0. -1.
          5    1    4    4  502    0  0.91241088137E+02 -0.12014361592E+03  0.17741479939E+03  0.23293244869E+03  0.47000000000E+01 0. -1.
         -5    1    4    4    0  502  0.10449473189E+02  0.11015235214E+02  0.12958127404E+03  0.13055237830E+03  0.47000000000E+01 0. -1.
<mgrwt>
<rscale>  0 0.40633168E+03</rscale>
<asrwt>0</asrwt>
<pdfrwt beam="1">  1       21 0.80145180E-01 0.40633168E+03</pdfrwt>
<pdfrwt beam="2">  1       21 0.12189819E-01 0.40633168E+03</pdfrwt>
<totfact> 0.72995696E+04</totfact>
</mgrwt>
</event>
<event>
 8    1  0.9331162E-006  0.2615493E+03  0.7546771E-02  0.1106216E+00
         21   -1    0    0  504  503  0.00000000000E+00  0.00000000000E+00  0.98921212303E+03  0.98921212303E+03  0.00000000000E+00 0. -1.
         21   -1    0    0  503  504 -0.00000000000E+00 -0.00000000000E+00 -0.17288515137E+02  0.17288515137E+02  0.00000000000E+00 0. -1.
         25    2    1    2    0    0  0.10159050630E+02  0.36467561369E+02  0.51105014946E+03  0.52747885161E+03  0.12501437632E+03 0.  0.
         25    2    1    2    0    0 -0.10159050630E+02 -0.36467561369E+02  0.46087345843E+03  0.47902178656E+03  0.12499775186E+03 0.  0.
          5    1    3    3  501    0  0.38470317268E+02 -0.31027010120E+02  0.29923308462E+03  0.30332353948E+03  0.47000000000E+01 0. -1.
         -5    1    3    3    0  501 -0.28311266638E+02  0.67494571489E+02  0.21181706484E+03  0.22415531213E+03  0.47000000000E+01 0. -1.
          5    1    4    4  502    0 -0.22529374488E+02  0.40736442059E+02  0.11046476889E+03  0.11996493485E+03  0.47000000000E+01 0. -1.
         -5    1    4    4    0  502  0.12370323858E+02 -0.77204003428E+02  0.35040868954E+03  0.35905685171E+03  0.47000000000E+01 0. -1.
<mgrwt>
<rscale>  0 0.26154930E+03</rscale>
<asrwt>0</asrwt>
<pdfrwt beam="1">  1       21 0.15218644E+00 0.26154930E+03</pdfrwt>
<pdfrwt beam="2">  1       21 0.26597723E-02 0.26154930E+03</pdfrwt>
<totfact> 0.21647670E+05</totfact>
</mgrwt>
</event>
<event>
 8    1  0.9331162E-006  0.2917373E+03  0.7546771E-02  0.1089446E+00
         21   -1    0    0  504  503  0.00000000000E+00  0.00000000000E+00  0.23960895027E+03  0.23960895027E+03  0.00000000000E+00 0.  1.
         21   -1    0    0  503  504 -0.00000000000E+00 -0.00000000000E+00 -0.88801630729E+02  0.88801630729E+02  0.00000000000E+00 0.  1.
         25    2    1    2    0    0  0.13509931143E+02  0.53687139833E+01 -0.76349533995E+01  0.12607232725E+03  0.12499839142E+03 0.  0.
         25    2    1    2    0    0 -0.13509931143E+02 -0.53687139833E+01  0.15844227294E+03  0.20233825374E+03  0.12500189496E+03 0.  0.
          5    1    3    3  501    0  0.67222043615E+02  0.56144196739E+01 -0.20465571734E+02  0.70648810907E+02  0.47000000000E+01 0.  1.
         -5    1    3    3    0  501 -0.53712112472E+02 -0.24570569062E+00  0.12830618334E+02  0.55423516348E+02  0.47000000000E+01 0.  1.
          5    1    4    4  502    0  0.11947612483E+02  0.52047182523E+02  0.11172756705E+03  0.12392253181E+03  0.47000000000E+01 0. -1.
         -5    1    4    4    0  502 -0.25457543626E+02 -0.57415896507E+02  0.46714705892E+02  0.78415721929E+02  0.47000000000E+01 0. -1.
<mgrwt>
<rscale>  0 0.29173732E+03</rscale>
<asrwt>0</asrwt>
<pdfrwt beam="1">  1       21 0.36862915E-01 0.29173732E+03</pdfrwt>
<pdfrwt beam="2">  1       21 0.13661789E-01 0.29173732E+03</pdfrwt>
<totfact> 0.32250033E+05</totfact>
</mgrwt>
</event>
<event>
 8    1  0.9331162E-006  0.4174916E+03  0.7546771E-02  0.1037886E+00
         21   -1    0    0  504  503  0.00000000000E+00  0.00000000000E+00  0.37464168623E+03  0.37464168623E+03  0.00000000000E+00 0. -1.
         21   -1    0    0  503  504 -0.00000000000E+00 -0.00000000000E+00 -0.11631061531E+03  0.11631061531E+03  0.00000000000E+00 0. -1.
         25    2    1    2    0    0 -0.10050146243E+02  0.38528896114E+01  0.32535604032E+03  0.34870853679E+03  0.12500096183E+03 0.  0.
         25    2    1    2    0    0  0.10050146243E+02 -0.38528896114E+01 -0.67024969404E+02  0.14224376475E+03  0.12500036756E+03 0.  0.
          5    1    3    3  501    0 -0.56336087355E+02  0.33720292938E+02  0.22123491876E+03  0.23081982621E+03  0.47000000000E+01 0.  1.
         -5    1    3    3    0  501  0.46285941112E+02 -0.29867403326E+02  0.10412112156E+03  0.11788871058E+03  0.47000000000E+01 0.  1.
          5    1    4    4  502    0  0.30841004810E+02  0.36133696003E+02  0.13705028168E+02  0.49666179253E+02  0.47000000000E+01 0. -1.
         -5    1    4    4    0  502 -0.20790858567E+02 -0.39986585615E+02 -0.80729997572E+02  0.92577585500E+02  0.47000000000E+01 0. -1.
<mgrwt>
<rscale>  0 0.41749158E+03</rscale>
<asrwt>0</asrwt>
<pdfrwt beam="1">  1       21 0.57637182E-01 0.41749158E+03</pdfrwt>
<pdfrwt beam="2">  1       21 0.17893941E-01 0.41749158E+03</pdfrwt>
<totfact> 0.74834913E+04</totfact>
</mgrwt>
</event>
<event>
 8    1  0.9331162E-006  0.2812152E+03  0.7546771E-02  0.1095027E+00
         21   -1    0    0  504  503  0.00000000000E+00  0.00000000000E+00  0.56495666887E+03  0.56495666887E+03  0.00000000000E+00 0.  1.
         21   -1    0    0  503  504 -0.00000000000E+00 -0.00000000000E+00 -0.34994710084E+02  0.34994710084E+02  0.00000000000E+00 0.  1.
         25    2    1    2    0    0  0.13260462674E+02 -0.61104348191E+02  0.29783060409E+03  0.32899442464E+03  0.12499872588E+03 0.  0.
         25    2    1    2    0    0 -0.13260462674E+02  0.61104348191E+02  0.23213135470E+03  0.27095695432E+03  0.12499249586E+03 0.  0.
          5    1    3    3  501    0  0.24596903420E+02  0.28295411643E+02  0.15889582383E+03  0.16332669961E+03  0.47000000000E+01 0. -1.
         -5    1    3    3    0  501 -0.11336440745E+02 -0.89399759834E+02  0.13893478026E+03  0.16566772502E+03  0.47000000000E+01 0. -1.
          5    1    4    4  502    0 -0.52841515205E+02 -0.30030088507E+01  0.15129333207E+03  0.16035275526E+03  0.47000000000E+01 0. -1.
         -5    1    4    4    0  502  0.39581052530E+02  0.64107357042E+02  0.80838022626E+02  0.11060419905E+03  0.47000000000E+01 0. -1.
<mgrwt>
<rscale>  0 0.28121518E+03</rscale>
<asrwt>0</asrwt>
<pdfrwt beam="1">  1       21 0.86916404E-01 0.28121518E+03</pdfrwt>
<pdfrwt beam="2">  1       21 0.53838020E-02 0.28121518E+03</pdfrwt>
<totfact> 0.26362174E+05</totfact>
</mgrwt>
</event>
<event>
 8    1  0.9331162E-006  0.2984233E+03  0.7546771E-02  0.1086031E+00
         21   -1    0    0  504  503  0.00000000000E+00  0.00000000000E+00  0.16281484064E+03  0.16281484064E+03  0.00000000000E+00 0.  1.
         21   -1    0    0  503  504 -0.00000000000E+00 -0.00000000000E+00 -0.13674502276E+03  0.13674502276E+03  0.00000000000E+00 0.  1.
         25    2    1    2    0    0  0.61808301301E+02 -0.26928921039E+02 -0.32901756554E+02  0.14578413397E+03  0.12500022094E+03 0.  0.
         25    2    1    2    0    0 -0.61808301301E+02  0.26928921039E+02  0.58971574431E+02  0.15377572943E+03  0.12499558182E+03 0.  0.
          5    1    3    3  501    0  0.76404528562E+02  0.29874614826E+02 -0.27710970422E+02  0.86718697393E+02  0.47000000000E+01 0. -1.
         -5    1    3    3    0  501 -0.14596227261E+02 -0.56803535865E+02 -0.51907861327E+01  0.59065436574E+02  0.47000000000E+01 0. -1.
          5    1    4    4  502    0 -0.95528585394E+02  0.29628809891E+02  0.64604375966E+02  0.11916120340E+03  0.47000000000E+01 0.  1.
         -5    1    4    4    0  502  0.33720284093E+02 -0.26998888525E+01 -0.56328015351E+01  0.34614526029E+02  0.47000000000E+01 0.  1.
<mgrwt>
<rscale>  0 0.29842332E+03</rscale>
<asrwt>0</asrwt>
<pdfrwt beam="1">  1       21 0.25048437E-01 0.29842332E+03</pdfrwt>
<pdfrwt beam="2">  1       21 0.21037696E-01 0.29842332E+03</pdfrwt>
<totfact> 0.30934850E+05</totfact>
</mgrwt>
</event>
<event>
 8    1  0.9331162E-006  0.3725984E+03  0.7546771E-02  0.1053704E+00
         21   -1    0    0  504  503  0.00000000000E+00  0.00000000000E+00  0.33814695080E+02  0.33814695080E+02  0.00000000000E+00 0.  1.
         21   -1    0    0  503  504 -0.00000000000E+00 -0.00000000000E+00 -0.10263996009E+04  0.10263996009E+04  0.00000000000E+00 0.  1.
         25    2    1    2    0    0 -0.55036726719E+02  0.24256663426E+02 -0.14242621014E+03  0.19881644335E+03  0.12500130319E+03 0.  0.
         25    2    1    2    0    0  0.55036726719E+02 -0.24256663426E+02 -0.85015869563E+03  0.86139785259E+03  0.12497610043E+03 0.  0.
          5    1    3    3  501    0 -0.30208963150E+01  0.47949867789E+02 -0.13196754828E+03  0.14051988981E+03  0.47000000000E+01 0.  1.
         -5    1    3    3    0  501 -0.52015830404E+02 -0.23693204363E+02 -0.10458661868E+02  0.58296553531E+02  0.47000000000E+01 0.  1.
          5    1    4    4  502    0  0.32054469528E+02  0.17824788452E+02 -0.74285463040E+03  0.74377436364E+03  0.47000000000E+01 0.  1.
         -5    1    4    4    0  502  0.22982257191E+02 -0.42081451878E+02 -0.10730406523E+03  0.11762348895E+03  0.47000000000E+01 0.  1.
<mgrwt>
<rscale>  0 0.37259839E+03</rscale>
<asrwt>0</asrwt>
<pdfrwt beam="1">  1       21 0.52022611E-02 0.37259839E+03</pdfrwt>
<pdfrwt beam="2">  1       21 0.15790762E+00 0.37259839E+03</pdfrwt>
<totfact> 0.60924451E+04</totfact>
</mgrwt>
</event>
<event>
 8    1  0.9331162E-006  0.2686626E+03  0.7546771E-02  0.1102047E+00
         21   -1    0    0  504  503  0.00000000000E+00  0.00000000000E+00  0.14392748161E+03  0.14392748161E+03  0.00000000000E+00 0.  1.
         21   -1    0    0  503  504 -0.00000000000E+00 -0.00000000000E+00 -0.12537496028E+03  0.12537496028E+03  0.00000000000E+00 0.  1.
         25    2    1    2    0    0 -0.23424260908E+02  0.36051161547E+02 -0.14511024312E+02  0.13303839453E+03  0.12506103448E+03 0.  0.
         25    2    1    2    0    0  0.23424260908E+02 -0.36051161547E+02  0.33063545635E+02  0.13626404736E+03  0.12500524111E+03 0.  0.
          5    1    3    3  501    0 -0.43065870525E+02 -0.33430553852E+02 -0.24572646510E+02  0.59984798836E+02  0.47000000000E+01 0.  1.
         -5    1    3    3    0  501  0.19641609618E+02  0.69481715399E+02  0.10061622198E+02  0.73053595698E+02  0.47000000000E+01 0.  1.
          5    1    4    4  502    0  0.20355816329E+02 -0.82428368314E+02  0.15982255558E+02  0.86523509257E+02  0.47000000000E+01 0. -1.
         -5    1    4    4    0  502  0.30684445784E+01  0.46377206767E+02  0.17081290077E+02  0.49740538099E+02  0.47000000000E+01 0. -1.
<mgrwt>
<rscale>  0 0.26866263E+03</rscale>
<asrwt>0</asrwt>
<pdfrwt beam="1">  1       21 0.22142690E-01 0.26866263E+03</pdfrwt>
<pdfrwt beam="2">  1       21 0.19288455E-01 0.26866263E+03</pdfrwt>
<totfact> 0.46393732E+05</totfact>
</mgrwt>
</event>
<event>
 8    1  0.9331162E-006  0.6594687E+03  0.7546771E-02  0.9789172E-01
         21   -1    0    0  504  503  0.00000000000E+00  0.00000000000E+00  0.32580731821E+03  0.32580731821E+03  0.00000000000E+00 0. -1.
         21   -1    0    0  503  504 -0.00000000000E+00 -0.00000000000E+00 -0.33370875249E+03  0.33370875249E+03  0.00000000000E+00 0. -1.
         25    2    1    2    0    0 -0.16420228187E+03  0.22203938881E+03 -0.13371068615E+03  0.33131356775E+03  0.12500501202E+03 0.  0.
         25    2    1    2    0    0  0.16420228187E+03 -0.22203938881E+03  0.12580925186E+03  0.32820250295E+03  0.12500014215E+03 0.  0.
          5    1    3    3  501    0 -0.61086509413E+02  0.15720870177E+03 -0.30214844902E+02  0.17140934746E+03  0.47000000000E+01 0.  1.
         -5    1    3    3    0  501 -0.10311577246E+03  0.64830687038E+02 -0.10349584124E+03  0.15990422029E+03  0.47000000000E+01 0.  1.
          5    1    4    4  502    0  0.73930172942E+02 -0.10042007950E+03 -0.93666346102E+01  0.12513866981E+03  0.47000000000E+01 0.  1.
         -5    1    4    4    0  502  0.90272108925E+02 -0.12161930931E+03  0.13517588647E+03  0.20306383314E+03  0.47000000000E+01 0.  1.
<mgrwt>
<rscale>  0 0.65946874E+03</rscale>
<asrwt>0</asrwt>
<pdfrwt beam="1">  1       21 0.50124203E-01 0.65946874E+03</pdfrwt>
<pdfrwt beam="2">  1       21 0.51339808E-01 0.65946874E+03</pdfrwt>
<totfact> 0.11670193E+04</totfact>
</mgrwt>
</event>
<event>
 8    1  0.9331162E-006  0.3164999E+03  0.7546771E-02  0.1077272E+00
         21   -1    0    0  504  503  0.00000000000E+00  0.00000000000E+00  0.41682460374E+03  0.41682460374E+03  0.00000000000E+00 0.  1.
         21   -1    0    0  503  504 -0.00000000000E+00 -0.00000000000E+00 -0.60080533403E+02  0.60080533403E+02  0.00000000000E+00 0.  1.
         25    2    1    2    0    0  0.67245588269E+02  0.62255343105E+02  0.13024995990E+03  0.20245564326E+03  0.12500215418E+03 0.  0.
         25    2    1    2    0    0 -0.67245588269E+02 -0.62255343105E+02  0.22649411044E+03  0.27444949388E+03  0.12500098296E+03 0.  0.
          5    1    3    3  501    0  0.47226786624E+02  0.99755983153E+02  0.79583498649E+02  0.13615156557E+03  0.47000000000E+01 0. -1.
         -5    1    3    3    0  501  0.20018801645E+02 -0.37500640048E+02  0.50666461251E+02  0.66304077695E+02  0.47000000000E+01 0. -1.
          5    1    4    4  502    0 -0.81257139929E+02 -0.27058171630E+02  0.21946900188E+03  0.23563446316E+03  0.47000000000E+01 0. -1.
         -5    1    4    4    0  502  0.14011551660E+02 -0.35197171475E+02  0.70251085579E+01  0.38815030723E+02  0.47000000000E+01 0. -1.
<mgrwt>
<rscale>  0 0.31649989E+03</rscale>
<asrwt>0</asrwt>
<pdfrwt beam="1">  1       21 0.64126860E-01 0.31649989E+03</pdfrwt>
<pdfrwt beam="2">  1       21 0.92431593E-02 0.31649989E+03</pdfrwt>
<totfact> 0.20235492E+05</totfact>
</mgrwt>
</event>
<event>
 8    1  0.9331162E-006  0.2860006E+03  0.7546771E-02  0.1092456E+00
         21   -1    0    0  504  503  0.00000000000E+00  0.00000000000E+00  0.70306093197E+03  0.70306093197E+03  0.00000000000E+00 0.  1.
         21   -1    0    0  503  504 -0.00000000000E+00 -0.00000000000E+00 -0.29085786973E+02  0.29085786973E+02  0.00000000000E+00 0.  1.
         25    2    1    2    0    0  0.39245217122E+02  0.36014371245E+02  0.22284553314E+03  0.26100232285E+03  0.12499943555E+03 0.  0.
         25    2    1    2    0    0 -0.39245217122E+02 -0.36014371245E+02  0.45112961186E+03  0.47114439610E+03  0.12498757248E+03 0.  0.
          5    1    3    3  501    0 -0.25562668923E+02  0.35847569264E+02  0.17445072162E+03  0.17998233952E+03  0.47000000000E+01 0. -1.
         -5    1    3    3    0  501  0.64807886046E+02  0.16680198124E+00  0.48394811521E+02  0.81019983330E+02  0.47000000000E+01 0. -1.
          5    1    4    4  502    0 -0.46733334106E+02 -0.73200149680E+02  0.38555801178E+03  0.39524591949E+03  0.47000000000E+01 0.  1.
         -5    1    4    4    0  502  0.74881169832E+01  0.37185778435E+02  0.65571600083E+02  0.75898476606E+02  0.47000000000E+01 0.  1.
<mgrwt>
<rscale>  0 0.28600056E+03</rscale>
<asrwt>0</asrwt>
<pdfrwt beam="1">  1       21 0.10816321E+00 0.28600056E+03</pdfrwt>
<pdfrwt beam="2">  1       21 0.44747370E-02 0.28600056E+03</pdfrwt>
<totfact> 0.21450397E+05</totfact>
</mgrwt>
</event>
<event>
 8    1  0.9331162E-006  0.3659447E+03  0.7546771E-02  0.1056254E+00
         21   -1    0    0  504  503  0.00000000000E+00  0.00000000000E+00  0.54834781187E+02  0.54834781187E+02  0.00000000000E+00 0.  1.
         21   -1    0    0  503  504 -0.00000000000E+00 -0.00000000000E+00 -0.61054113684E+03  0.61054113684E+03  0.00000000000E+00 0.  1.
         25    2    1    2    0    0 -0.45582033111E+02  0.27044869266E+02 -0.54823694807E+02  0.14641853157E+03  0.12499440859E+03 0.  0.
         25    2    1    2    0    0  0.45582033111E+02 -0.27044869266E+02 -0.50088266085E+03  0.51895738646E+03  0.12499672927E+03 0.  0.
          5    1    3    3  501    0 -0.34665929921E+02 -0.41804118408E+02  0.45917272865E+01  0.54703610234E+02  0.47000000000E+01 0.  1.
         -5    1    3    3    0  501 -0.10916103190E+02  0.68848987674E+02 -0.59415422093E+02  0.91714921333E+02  0.47000000000E+01 0.  1.
          5    1    4    4  502    0  0.74432232277E+02 -0.21054768488E+02 -0.17114817203E+03  0.18787561648E+03  0.47000000000E+01 0. -1.
         -5    1    4    4    0  502 -0.28850199167E+02 -0.59901007780E+01 -0.32973448882E+03  0.33108176998E+03  0.47000000000E+01 0. -1.
<mgrwt>
<rscale>  0 0.36594475E+03</rscale>
<asrwt>0</asrwt>
<pdfrwt beam="1">  1       21 0.84361202E-02 0.36594475E+03</pdfrwt>
<pdfrwt beam="2">  1       21 0.93929405E-01 0.36594475E+03</pdfrwt>
<totfact> 0.98413474E+04</totfact>
</mgrwt>
</event>
<event>
 8    1  0.9331162E-006  0.4622804E+03  0.7546771E-02  0.1024122E+00
         21   -1    0    0  504  503  0.00000000000E+00  0.00000000000E+00  0.33803321187E+03  0.33803321187E+03  0.00000000000E+00 0.  1.
         21   -1    0    0  503  504 -0.00000000000E+00 -0.00000000000E+00 -0.15804894938E+03  0.15804894938E+03  0.00000000000E+00 0.  1.
         25    2    1    2    0    0 -0.33539381932E+02 -0.18679963499E+03  0.13528030208E+03  0.26447265179E+03  0.12500411849E+03 0.  0.
         25    2    1    2    0    0  0.33539381932E+02  0.18679963499E+03  0.44703960411E+02  0.23160950946E+03  0.12500210808E+03 0.  0.
          5    1    3    3  501    0 -0.46284004728E+02 -0.10997420406E+03  0.14273934679E+03  0.18609982744E+03  0.47000000000E+01 0.  1.
         -5    1    3    3    0  501  0.12744622796E+02 -0.76825430930E+02 -0.74590447060E+01  0.78372824345E+02  0.47000000000E+01 0.  1.
          5    1    4    4  502    0  0.25235509541E+02  0.12228059999E+03  0.88442754602E+02  0.15308032832E+03  0.47000000000E+01 0. -1.
         -5    1    4    4    0  502  0.83038723919E+01  0.64519034996E+02 -0.43738794192E+02  0.78529181143E+02  0.47000000000E+01 0. -1.
<mgrwt>
<rscale>  0 0.46228041E+03</rscale>
<asrwt>0</asrwt>
<pdfrwt beam="1">  1       21 0.52005109E-01 0.46228041E+03</pdfrwt>
<pdfrwt beam="2">  1       21 0.24315223E-01 0.46228041E+03</pdfrwt>
<totfact> 0.51506529E+04</totfact>
</mgrwt>
</event>
<event>
 8    1  0.9331162E-006  0.3467409E+03  0.7546771E-02  0.1063961E+00
         21   -1    0    0  504  503  0.00000000000E+00  0.00000000000E+00  0.16276445886E+03  0.16276445886E+03  0.00000000000E+00 0.  1.
         21   -1    0    0  503  504 -0.00000000000E+00 -0.00000000000E+00 -0.18466750604E+03  0.18466750604E+03  0.00000000000E+00 0.  1.
         25    2    1    2    0    0 -0.26321609293E+02 -0.11603366949E+03 -0.27576027004E+02  0.17476457809E+03  0.12500232365E+03 0.  0.
         25    2    1    2    0    0  0.26321609293E+02  0.11603366949E+03  0.56729798194E+01  0.17266738681E+03  0.12500081678E+03 0.  0.
          5    1    3    3  501    0 -0.90550573794E+00 -0.11700020877E+03 -0.61372416774E+02  0.13220640050E+03  0.47000000000E+01 0.  1.
         -5    1    3    3    0  501 -0.25416103555E+02  0.96653927766E+00  0.33796389770E+02  0.42558177587E+02  0.47000000000E+01 0.  1.
          5    1    4    4  502    0 -0.12594434511E+02  0.12550901832E+03 -0.15404968217E+02  0.12716342441E+03  0.47000000000E+01 0.  1.
         -5    1    4    4    0  502  0.38916043804E+02 -0.94753488304E+01  0.21077948037E+02  0.45503962402E+02  0.47000000000E+01 0.  1.
<mgrwt>
<rscale>  0 0.34674086E+03</rscale>
<asrwt>0</asrwt>
<pdfrwt beam="1">  1       21 0.25040686E-01 0.34674086E+03</pdfrwt>
<pdfrwt beam="2">  1       21 0.28410386E-01 0.34674086E+03</pdfrwt>
<totfact> 0.17177864E+05</totfact>
</mgrwt>
</event>
<event>
 8    1  0.9331162E-006  0.3242402E+03  0.7546771E-02  0.1073714E+00
         21   -1    0    0  504  503  0.00000000000E+00  0.00000000000E+00  0.37351858497E+03  0.37351858497E+03  0.00000000000E+00 0.  1.
         21   -1    0    0  503  504 -0.00000000000E+00 -0.00000000000E+00 -0.70365779019E+02  0.70365779019E+02  0.00000000000E+00 0.  1.
         25    2    1    2    0    0 -0.37400200279E+02  0.40862804177E+02  0.27083721380E+03  0.30339031464E+03  0.12499737153E+03 0.  0.
         25    2    1    2    0    0  0.37400200279E+02 -0.40862804177E+02  0.32315592148E+02  0.14049404935E+03  0.12500294661E+03 0.  0.
          5    1    3    3  501    0 -0.73086886068E+02  0.49482301922E+02  0.23810397326E+03  0.25397988740E+03  0.47000000000E+01 0.  1.
         -5    1    3    3    0  501  0.35686685789E+02 -0.86194977452E+01  0.32733240539E+02  0.49410427241E+02  0.47000000000E+01 0.  1.
          5    1    4    4  502    0 -0.45468069583E+02 -0.22523573100E+02  0.19345790233E+02  0.54506938059E+02  0.47000000000E+01 0.  1.
         -5    1    4    4    0  502  0.82868269862E+02 -0.18339231076E+02  0.12969801915E+02  0.85987111290E+02  0.47000000000E+01 0.  1.
<mgrwt>
<rscale>  0 0.32424020E+03</rscale>
<asrwt>0</asrwt>
<pdfrwt beam="1">  1       21 0.57464397E-01 0.32424020E+03</pdfrwt>
<pdfrwt beam="2">  1       21 0.10825505E-01 0.32424020E+03</pdfrwt>
<totfact> 0.19345446E+05</totfact>
</mgrwt>
</event>
<event>
 8    1  0.9331162E-006  0.3119316E+03  0.7546771E-02  0.1079424E+00
         21   -1    0    0  504  503  0.00000000000E+00  0.00000000000E+00  0.38966070347E+03  0.38966070347E+03  0.00000000000E+00 0. -1.
         21   -1    0    0  503  504 -0.00000000000E+00 -0.00000000000E+00 -0.62426944031E+02  0.62426944031E+02  0.00000000000E+00 0. -1.
         25    2    1    2    0    0 -0.43192837542E+01 -0.93182617293E+02  0.16603101400E+03  0.22779966313E+03  0.12499893014E+03 0.  0.
         25    2    1    2    0    0  0.43192837542E+01  0.93182617293E+02  0.16120274543E+03  0.22428798437E+03  0.12496846969E+03 0.  0.
          5    1    3    3  501    0  0.38125644351E+02  0.46793041500E+01  0.86180604021E+02  0.94470350661E+02  0.47000000000E+01 0. -1.
         -5    1    3    3    0  501 -0.42444928105E+02 -0.97861921443E+02  0.79850409981E+02  0.13332931247E+03  0.47000000000E+01 0. -1.
          5    1    4    4  502    0  0.55682087265E+02  0.30281230533E+02  0.11323967304E+03  0.12985669530E+03  0.47000000000E+01 0. -1.
         -5    1    4    4    0  502 -0.51362803511E+02  0.62901386760E+02  0.47963072395E+02  0.94431289064E+02  0.47000000000E+01 0. -1.
<mgrwt>
<rscale>  0 0.31193158E+03</rscale>
<asrwt>0</asrwt>
<pdfrwt beam="1">  1       21 0.59947799E-01 0.31193158E+03</pdfrwt>
<pdfrwt beam="2">  1       21 0.96041455E-02 0.31193158E+03</pdfrwt>
<totfact> 0.21923752E+05</totfact>
</mgrwt>
</event>
<event>
 8    1  0.9331162E-006  0.3134451E+03  0.7546771E-02  0.1078706E+00
         21   -1    0    0  504  503  0.00000000000E+00  0.00000000000E+00  0.42382206188E+03  0.42382206188E+03  0.00000000000E+00 0. -1.
         21   -1    0    0  503  504 -0.00000000000E+00 -0.00000000000E+00 -0.57953459779E+02  0.57953459779E+02  0.00000000000E+00 0. -1.
         25    2    1    2    0    0 -0.11901087899E+02  0.93244948230E+02  0.19861239597E+03  0.25278743790E+03  0.12497339182E+03 0.  0.
         25    2    1    2    0    0  0.11901087899E+02 -0.93244948230E+02  0.16725620613E+03  0.22898808376E+03  0.12499859100E+03 0.  0.
          5    1    3    3  501    0  0.40430877077E+02 -0.36559068231E+01  0.27550223486E+02  0.49286167330E+02  0.47000000000E+01 0. -1.
         -5    1    3    3    0  501 -0.52331964977E+02  0.96900855053E+02  0.17106217248E+03  0.20350127057E+03  0.47000000000E+01 0. -1.
          5    1    4    4  502    0 -0.17488163861E+02 -0.25430678015E+02  0.14964232497E+03  0.15286422303E+03  0.47000000000E+01 0. -1.
         -5    1    4    4    0  502  0.29389251760E+02 -0.67814270214E+02  0.17613881167E+02  0.76123860737E+02  0.47000000000E+01 0. -1.
<mgrwt>
<rscale>  0 0.31344508E+03</rscale>
<asrwt>0</asrwt>
<pdfrwt beam="1">  1       21 0.65203392E-01 0.31344508E+03</pdfrwt>
<pdfrwt beam="2">  1       21 0.89159171E-02 0.31344508E+03</pdfrwt>
<totfact> 0.20809687E+05</totfact>
</mgrwt>
</event>
<event>
 8    1  0.9331162E-006  0.2753519E+03  0.7546771E-02  0.1098255E+00
         21   -1    0    0  504  503  0.00000000000E+00  0.00000000000E+00  0.89007956180E+01  0.89007956180E+01  0.00000000000E+00 0. -1.
         21   -1    0    0  503  504 -0.00000000000E+00 -0.00000000000E+00 -0.21295468995E+04  0.21295468995E+04  0.00000000000E+00 0. -1.
         25    2    1    2    0    0  0.15281680683E+02 -0.53888661688E+02 -0.11697541273E+04  0.11777417037E+04  0.12495312952E+03 0.  0.
         25    2    1    2    0    0 -0.15281680683E+02  0.53888661688E+02 -0.95089197653E+03  0.96070599141E+03  0.12499173283E+03 0.  0.
          5    1    3    3  501    0 -0.23811849634E+01 -0.44954287691E+02 -0.12761423370E+03  0.13540325205E+03  0.47000000000E+01 0. -1.
         -5    1    3    3    0  501  0.17662865646E+02 -0.89343739965E+01 -0.10421398936E+04  0.10423384516E+04  0.47000000000E+01 0. -1.
          5    1    4    4  502    0 -0.30849610212E+02 -0.29615807559E+02 -0.17706338929E+03  0.18221506067E+03  0.47000000000E+01 0. -1.
         -5    1    4    4    0  502  0.15567929529E+02  0.83504469247E+02 -0.77382858724E+03  0.77849093074E+03  0.47000000000E+01 0. -1.
<mgrwt>
<rscale>  0 0.27535186E+03</rscale>
<asrwt>0</asrwt>
<pdfrwt beam="1">  1       21 0.13693520E-02 0.27535186E+03</pdfrwt>
<pdfrwt beam="2">  1       21 0.32762288E+00 0.27535186E+03</pdfrwt>
<totfact> 0.50191497E+04</totfact>
</mgrwt>
</event>
<event>
 8    1  0.9331162E-006  0.4174834E+03  0.7546771E-02  0.1037888E+00
         21   -1    0    0  504  503  0.00000000000E+00  0.00000000000E+00  0.49618096544E+03  0.49618096544E+03  0.00000000000E+00 0.  1.
         21   -1    0    0  503  504 -0.00000000000E+00 -0.00000000000E+00 -0.87816941138E+02  0.87816941138E+02  0.00000000000E+00 0.  1.
         25    2    1    2    0    0 -0.12638426747E+03 -0.36112508435E+02  0.34868534091E+03  0.39304278404E+03  0.12499626709E+03 0.  0.
         25    2    1    2    0    0  0.12638426747E+03  0.36112508435E+02  0.59678683388E+02  0.19095512254E+03  0.12500086897E+03 0.  0.
          5    1    3    3  501    0  0.93304525683E+01  0.24555571616E+02  0.23906909571E+02  0.35828253763E+02  0.47000000000E+01 0. -1.
         -5    1    3    3    0  501 -0.13571472004E+03 -0.60668080051E+02  0.32477843134E+03  0.35721453027E+03  0.47000000000E+01 0. -1.
          5    1    4    4  502    0  0.65016249972E+01  0.53240163166E+02 -0.41167554360E+01  0.53998368279E+02  0.47000000000E+01 0. -1.
         -5    1    4    4    0  502  0.11988264247E+03 -0.17127654730E+02  0.63795438824E+02  0.13695675426E+03  0.47000000000E+01 0. -1.
<mgrwt>
<rscale>  0 0.41748339E+03</rscale>
<asrwt>0</asrwt>
<pdfrwt beam="1">  1       21 0.76335532E-01 0.41748339E+03</pdfrwt>
<pdfrwt beam="2">  1       21 0.13510299E-01 0.41748339E+03</pdfrwt>
<totfact> 0.67463423E+04</totfact>
</mgrwt>
</event>
<event>
 8    1  0.9331162E-006  0.2672040E+03  0.7546771E-02  0.1102891E+00
         21   -1    0    0  504  503  0.00000000000E+00  0.00000000000E+00  0.67038860048E+02  0.67038860048E+02  0.00000000000E+00 0. -1.
         21   -1    0    0  503  504 -0.00000000000E+00 -0.00000000000E+00 -0.26625601460E+03  0.26625601460E+03  0.00000000000E+00 0. -1.
         25    2    1    2    0    0 -0.61747433148E+01  0.14348960990E+02 -0.44112205730E+02  0.13347695508E+03  0.12500476273E+03 0.  0.
         25    2    1    2    0    0  0.61747433148E+01 -0.14348960990E+02 -0.15510494882E+03  0.19981791957E+03  0.12500254276E+03 0.  0.
          5    1    3    3  501    0 -0.51649068249E+01 -0.48273724842E+02 -0.50666065032E+02  0.70329004816E+02  0.47000000000E+01 0. -1.
         -5    1    3    3    0  501 -0.10098364899E+01  0.62622685832E+02  0.65538593019E+01  0.63147950262E+02  0.47000000000E+01 0. -1.
          5    1    4    4  502    0 -0.55481037709E+02 -0.62222501570E+00 -0.10576843259E+03  0.11953068243E+03  0.47000000000E+01 0. -1.
         -5    1    4    4    0  502  0.61655781024E+02 -0.13726735974E+02 -0.49336516237E+02  0.80287237146E+02  0.47000000000E+01 0. -1.
<mgrwt>
<rscale>  0 0.26720404E+03</rscale>
<asrwt>0</asrwt>
<pdfrwt beam="1">  1       21 0.10313671E-01 0.26720404E+03</pdfrwt>
<pdfrwt beam="2">  1       21 0.40962464E-01 0.26720404E+03</pdfrwt>
<totfact> 0.43424472E+05</totfact>
</mgrwt>
</event>
<event>
 8    1  0.9331162E-006  0.4561287E+03  0.7546771E-02  0.1025910E+00
         21   -1    0    0  504  503  0.00000000000E+00  0.00000000000E+00  0.67367045474E+02  0.67367045474E+02  0.00000000000E+00 0. -1.
         21   -1    0    0  503  504 -0.00000000000E+00 -0.00000000000E+00 -0.77208888661E+03  0.77208888661E+03  0.00000000000E+00 0. -1.
         25    2    1    2    0    0 -0.13805798997E+03  0.89783701103E+02 -0.52953882349E+03  0.56846630344E+03  0.12498580315E+03 0.  0.
         25    2    1    2    0    0  0.13805798997E+03 -0.89783701103E+02 -0.17518301765E+03  0.27098962864E+03  0.12500067032E+03 0.  0.
          5    1    3    3  501    0 -0.74192577415E+02  0.53551919165E+02 -0.45348006552E+03  0.46264306588E+03  0.47000000000E+01 0.  1.
         -5    1    3    3    0  501 -0.63865412555E+02  0.36231781939E+02 -0.76058757974E+02  0.10582323756E+03  0.47000000000E+01 0.  1.
          5    1    4    4  502    0  0.13465639862E+03 -0.11728813017E+03 -0.15205292101E+03  0.23458693901E+03  0.47000000000E+01 0. -1.
         -5    1    4    4    0  502  0.34015913500E+01  0.27504429064E+02 -0.23130096636E+02  0.36402689629E+02  0.47000000000E+01 0. -1.
<mgrwt>
<rscale>  0 0.45612870E+03</rscale>
<asrwt>0</asrwt>
<pdfrwt beam="1">  1       21 0.10364161E-01 0.45612870E+03</pdfrwt>
<pdfrwt beam="2">  1       21 0.11878290E+00 0.45612870E+03</pdfrwt>
<totfact> 0.37467926E+04</totfact>
</mgrwt>
</event>
<event>
 8    1  0.9331162E-006  0.2840712E+03  0.7546771E-02  0.1093486E+00
         21   -1    0    0  504  503  0.00000000000E+00  0.00000000000E+00  0.16142354459E+03  0.16142354459E+03  0.00000000000E+00 0. -1.
         21   -1    0    0  503  504 -0.00000000000E+00 -0.00000000000E+00 -0.12497627045E+03  0.12497627045E+03  0.00000000000E+00 0. -1.
         25    2    1    2    0    0 -0.91896722198E+01 -0.29950273030E+02  0.78430585889E+02  0.15086952772E+03  0.12501515373E+03 0.  0.
         25    2    1    2    0    0  0.91896722198E+01  0.29950273030E+02 -0.41983311747E+02  0.13553028731E+03  0.12499756551E+03 0.  0.
          5    1    3    3  501    0 -0.56922150736E+02  0.19091669728E+02  0.38989104817E+02  0.71741643359E+02  0.47000000000E+01 0.  1.
         -5    1    3    3    0  501  0.47732478516E+02 -0.49041942759E+02  0.39441481072E+02  0.79127884365E+02  0.47000000000E+01 0.  1.
          5    1    4    4  502    0 -0.51852798475E+02  0.18914902051E+02 -0.47641716122E+02  0.73063734809E+02  0.47000000000E+01 0.  1.
         -5    1    4    4    0  502  0.61042470695E+02  0.11035370979E+02  0.56584043744E+01  0.62466552500E+02  0.47000000000E+01 0.  1.
<mgrwt>
<rscale>  0 0.28407121E+03</rscale>
<asrwt>0</asrwt>
<pdfrwt beam="1">  1       21 0.24834392E-01 0.28407121E+03</pdfrwt>
<pdfrwt beam="2">  1       21 0.19227118E-01 0.28407121E+03</pdfrwt>
<totfact> 0.37372739E+05</totfact>
</mgrwt>
</event>
<event>
 8    1  0.9331162E-006  0.3510152E+03  0.7546771E-02  0.1062199E+00
         21   -1    0    0  504  503  0.00000000000E+00  0.00000000000E+00  0.12110872958E+04  0.12110872958E+04  0.00000000000E+00 0. -1.
         21   -1    0    0  503  504 -0.00000000000E+00 -0.00000000000E+00 -0.25434095079E+02  0.25434095079E+02  0.00000000000E+00 0. -1.
         25    2    1    2    0    0 -0.10669080639E+03  0.42018803024E+02  0.75151261145E+03  0.77041801255E+03  0.12499680359E+03 0.  0.
         25    2    1    2    0    0  0.10669080639E+03 -0.42018803024E+02  0.43414058926E+03  0.46610337832E+03  0.12500320022E+03 0.  0.
          5    1    3    3  501    0 -0.98775237333E+02  0.28454532621E+02  0.27496033994E+03  0.29358386618E+03  0.47000000000E+01 0. -1.
         -5    1    3    3    0  501 -0.79155690620E+01  0.13564270403E+02  0.47655227151E+03  0.47683414637E+03  0.47000000000E+01 0. -1.
          5    1    4    4  502    0  0.47851404933E+02  0.16760575131E+02  0.32416776472E+03  0.32814250489E+03  0.47000000000E+01 0.  1.
         -5    1    4    4    0  502  0.58839401462E+02 -0.58779378155E+02  0.10997282454E+03  0.13796087343E+03  0.47000000000E+01 0.  1.
<mgrwt>
<rscale>  0 0.35101515E+03</rscale>
<asrwt>0</asrwt>
<pdfrwt beam="1">  1       21 0.18632108E+00 0.35101515E+03</pdfrwt>
<pdfrwt beam="2">  1       21 0.39129387E-02 0.35101515E+03</pdfrwt>
<totfact> 0.62388818E+04</totfact>
</mgrwt>
</event>
<event>
 8    1  0.9331162E-006  0.2809366E+03  0.7546771E-02  0.1095178E+00
         21   -1    0    0  504  503  0.00000000000E+00  0.00000000000E+00  0.12437018153E+04  0.12437018153E+04  0.00000000000E+00 0. -1.
         21   -1    0    0  503  504 -0.00000000000E+00 -0.00000000000E+00 -0.15865011898E+02  0.15865011898E+02  0.00000000000E+00 0. -1.
         25    2    1    2    0    0  0.40452592419E+02 -0.27063450170E+02  0.42702970368E+03  0.44760248636E+03  0.12499910158E+03 0.  0.
         25    2    1    2    0    0 -0.40452592419E+02  0.27063450170E+02  0.80080709975E+03  0.81196434087E+03  0.12500094907E+03 0.  0.
          5    1    3    3  501    0 -0.35006034507E+02 -0.34608995567E+02  0.96264470022E+02  0.10822265574E+03  0.47000000000E+01 0.  1.
         -5    1    3    3    0  501  0.75458626926E+02  0.75455453965E+01  0.33076523366E+03  0.33937983062E+03  0.47000000000E+01 0.  1.
          5    1    4    4  502    0 -0.26715833930E+02  0.10143159771E+02  0.33292396211E+02  0.44125878101E+02  0.47000000000E+01 0.  1.
         -5    1    4    4    0  502 -0.13736758489E+02  0.16920290399E+02  0.76751470354E+03  0.76783846277E+03  0.47000000000E+01 0.  1.
<mgrwt>
<rscale>  0 0.28093661E+03</rscale>
<asrwt>0</asrwt>
<pdfrwt beam="1">  1       21 0.19133866E+00 0.28093661E+03</pdfrwt>
<pdfrwt beam="2">  1       21 0.24407720E-02 0.28093661E+03</pdfrwt>
<totfact> 0.13044693E+05</totfact>
</mgrwt>
</event>
<event>
 8    1  0.9331162E-006  0.2691438E+03  0.7546771E-02  0.1101771E+00
         21   -1    0    0  504  503  0.00000000000E+00  0.00000000000E+00  0.19300151083E+02  0.19300151083E+02  0.00000000000E+00 0. -1.
         21   -1    0    0  503  504 -0.00000000000E+00 -0.00000000000E+00 -0.93831349137E+03  0.93831349137E+03  0.00000000000E+00 0. -1.
         25    2    1    2    0    0  0.54756837337E+01  0.45789367772E+02 -0.52701361361E+03  0.54359438925E+03  0.12499944712E+03 0.  0.
         25    2    1    2    0    0 -0.54756837337E+01 -0.45789367772E+02 -0.39199972668E+03  0.41401925321E+03  0.12498602720E+03 0.  0.
          5    1    3    3  501    0  0.15751510929E+02  0.65597667137E+02 -0.13570244181E+03  0.15161928223E+03  0.47000000000E+01 0.  1.
         -5    1    3    3    0  501 -0.10275827196E+02 -0.19808299365E+02 -0.39131117180E+03  0.39197510702E+03  0.47000000000E+01 0.  1.
          5    1    4    4  502    0 -0.25666018602E+02  0.79303732924E+01 -0.32300262817E+03  0.32415185197E+03  0.47000000000E+01 0. -1.
         -5    1    4    4    0  502  0.20190334868E+02 -0.53719741064E+02 -0.68997098511E+02  0.89867401237E+02  0.47000000000E+01 0. -1.
<mgrwt>
<rscale>  0 0.26914377E+03</rscale>
<asrwt>0</asrwt>
<pdfrwt beam="1">  1       21 0.29692541E-02 0.26914377E+03</pdfrwt>
<pdfrwt beam="2">  1       21 0.14435592E+00 0.26914377E+03</pdfrwt>
<totfact> 0.20695331E+05</totfact>
</mgrwt>
</event>
<event>
 8    1  0.9331162E-006  0.2875522E+03  0.7546771E-02  0.1091634E+00
         21   -1    0    0  504  503  0.00000000000E+00  0.00000000000E+00  0.49674972590E+03  0.49674972590E+03  0.00000000000E+00 0. -1.
         21   -1    0    0  503  504 -0.00000000000E+00 -0.00000000000E+00 -0.41613637807E+02  0.41613637807E+02  0.00000000000E+00 0. -1.
         25    2    1    2    0    0 -0.39843433070E+02 -0.57967369190E+02  0.24623747442E+03  0.28496583916E+03  0.12499968252E+03 0.  0.
         25    2    1    2    0    0  0.39843433070E+02  0.57967369190E+02  0.20889861367E+03  0.25339752454E+03  0.12499583834E+03 0.  0.
          5    1    3    3  501    0  0.11265281753E+02 -0.19953094485E+02 -0.65049075389E+01  0.24278310786E+02  0.47000000000E+01 0. -1.
         -5    1    3    3    0  501 -0.51108714823E+02 -0.38014274705E+02  0.25274238196E+03  0.26068752837E+03  0.47000000000E+01 0. -1.
          5    1    4    4  502    0  0.28408525870E+02 -0.32690618227E+02  0.11176911603E+03  0.11995893531E+03  0.47000000000E+01 0. -1.
         -5    1    4    4    0  502  0.11434907199E+02  0.90657987417E+02  0.97129497638E+02  0.13343858923E+03  0.47000000000E+01 0. -1.
<mgrwt>
<rscale>  0 0.28755217E+03</rscale>
<asrwt>0</asrwt>
<pdfrwt beam="1">  1       21 0.76423031E-01 0.28755217E+03</pdfrwt>
<pdfrwt beam="2">  1       21 0.64020985E-02 0.28755217E+03</pdfrwt>
<totfact> 0.26226374E+05</totfact>
</mgrwt>
</event>
<event>
 8    1  0.9331162E-006  0.2703278E+03  0.7546771E-02  0.1101092E+00
         21   -1    0    0  504  503  0.00000000000E+00  0.00000000000E+00  0.73174139810E+03  0.73174139810E+03  0.00000000000E+00 0. -1.
         21   -1    0    0  503  504 -0.00000000000E+00 -0.00000000000E+00 -0.24966844940E+02  0.24966844940E+02  0.00000000000E+00 0. -1.
         25    2    1    2    0    0 -0.32627135688E+02 -0.38460582046E+02  0.38147618269E+03  0.40458986200E+03  0.12500052846E+03 0.  0.
         25    2    1    2    0    0  0.32627135688E+02  0.38460582046E+02  0.32529837047E+03  0.35211838104E+03  0.12499831233E+03 0.  0.
          5    1    3    3  501    0 -0.37490317161E+01  0.26094254539E+02  0.27729872173E+03  0.27858865094E+03  0.47000000000E+01 0.  1.
         -5    1    3    3    0  501 -0.28878103972E+02 -0.64554836585E+02  0.10417746096E+03  0.12600121105E+03  0.47000000000E+01 0.  1.
          5    1    4    4  502    0  0.40247978500E+02  0.74218065871E+02  0.14299849366E+03  0.16612910722E+03  0.47000000000E+01 0.  1.
         -5    1    4    4    0  502 -0.76208428119E+01 -0.35757483826E+02  0.18229987681E+03  0.18598927383E+03  0.47000000000E+01 0.  1.
<mgrwt>
<rscale>  0 0.27032776E+03</rscale>
<asrwt>0</asrwt>
<pdfrwt beam="1">  1       21 0.11257558E+00 0.27032776E+03</pdfrwt>
<pdfrwt beam="2">  1       21 0.38410536E-02 0.27032776E+03</pdfrwt>
<totfact> 0.25290547E+05</totfact>
</mgrwt>
</event>
<event>
 8    1  0.9331162E-006  0.2660739E+03  0.7546771E-02  0.1103548E+00
         21   -1    0    0  504  503  0.00000000000E+00  0.00000000000E+00  0.11939059729E+03  0.11939059729E+03  0.00000000000E+00 0. -1.
         21   -1    0    0  503  504 -0.00000000000E+00 -0.00000000000E+00 -0.14824312941E+03  0.14824312941E+03  0.00000000000E+00 0. -1.
         25    2    1    2    0    0  0.26523574961E+02 -0.33641633381E+02  0.10876167100E+01  0.13214121385E+03  0.12499943184E+03 0.  0.
         25    2    1    2    0    0 -0.26523574961E+02  0.33641633381E+02 -0.29940148826E+02  0.13549251285E+03  0.12500619585E+03 0.  0.
          5    1    3    3  501    0  0.20802432138E+02  0.46476825280E+02  0.62447794803E+01  0.51516247357E+02  0.47000000000E+01 0. -1.
         -5    1    3    3    0  501  0.57211428229E+01 -0.80118458662E+02 -0.51571627703E+01  0.80624966489E+02  0.47000000000E+01 0. -1.
          5    1    4    4  502    0 -0.63798871381E+02  0.30216658041E+02  0.19420091905E+02  0.73366016535E+02  0.47000000000E+01 0. -1.
         -5    1    4    4    0  502  0.37275296420E+02  0.34249753404E+01 -0.49360240731E+02  0.62126496315E+02  0.47000000000E+01 0. -1.
<mgrwt>
<rscale>  0 0.26607394E+03</rscale>
<asrwt>0</asrwt>
<pdfrwt beam="1">  1       21 0.18367784E-01 0.26607394E+03</pdfrwt>
<pdfrwt beam="2">  1       21 0.22806635E-01 0.26607394E+03</pdfrwt>
<totfact> 0.48081417E+05</totfact>
</mgrwt>
</event>
<event>
 8    1  0.9331162E-006  0.2926555E+03  0.7546771E-02  0.1088971E+00
         21   -1    0    0  504  503  0.00000000000E+00  0.00000000000E+00  0.31018938635E+03  0.31018938635E+03  0.00000000000E+00 0.  1.
         21   -1    0    0  503  504 -0.00000000000E+00 -0.00000000000E+00 -0.69028166881E+02  0.69028166881E+02  0.00000000000E+00 0.  1.
         25    2    1    2    0    0 -0.17474353099E+02  0.30722303116E+02  0.20783617435E+03  0.24509006021E+03  0.12499619723E+03 0.  0.
         25    2    1    2    0    0  0.17474353099E+02 -0.30722303116E+02  0.33325045117E+02  0.13412749302E+03  0.12502164943E+03 0.  0.
          5    1    3    3  501    0 -0.43638915287E+02  0.38654610873E+02  0.31198175649E+02  0.66286876778E+02  0.47000000000E+01 0.  1.
         -5    1    3    3    0  501  0.26164562189E+02 -0.79323077574E+01  0.17663799870E+03  0.17880318344E+03  0.47000000000E+01 0.  1.
          5    1    4    4  502    0  0.56227724257E+02  0.27782542620E+01  0.54502405274E+02  0.78497629598E+02  0.47000000000E+01 0. -1.
         -5    1    4    4    0  502 -0.38753371159E+02 -0.33500557378E+02 -0.21177360157E+02  0.55629863419E+02  0.47000000000E+01 0. -1.
<mgrwt>
<rscale>  0 0.29265546E+03</rscale>
<asrwt>0</asrwt>
<pdfrwt beam="1">  1       21 0.47721443E-01 0.29265546E+03</pdfrwt>
<pdfrwt beam="2">  1       21 0.10619718E-01 0.29265546E+03</pdfrwt>
<totfact> 0.29907508E+05</totfact>
</mgrwt>
</event>
<event>
 8    1  0.9331162E-006  0.4328223E+03  0.7546771E-02  0.1032972E+00
         21   -1    0    0  504  503  0.00000000000E+00  0.00000000000E+00  0.49656133978E+03  0.49656133978E+03  0.00000000000E+00 0. -1.
         21   -1    0    0  503  504 -0.00000000000E+00 -0.00000000000E+00 -0.94316224844E+02  0.94316224844E+02  0.00000000000E+00 0. -1.
         25    2    1    2    0    0  0.30786299283E+02 -0.70184167010E+02  0.41842339088E+03  0.44336182283E+03  0.12497183039E+03 0.  0.
         25    2    1    2    0    0 -0.30786299283E+02  0.70184167010E+02 -0.16178275937E+02  0.14751574180E+03  0.12500217575E+03 0.  0.
          5    1    3    3  501    0  0.17816029699E+02 -0.98815802718E+02  0.21339163657E+03  0.23588144128E+03  0.47000000000E+01 0. -1.
         -5    1    3    3    0  501  0.12970269584E+02  0.28631635709E+02  0.20503175431E+03  0.20748038156E+03  0.47000000000E+01 0. -1.
          5    1    4    4  502    0 -0.38062681599E+02  0.18982892769E+01 -0.56070325166E+02  0.67958388716E+02  0.47000000000E+01 0. -1.
         -5    1    4    4    0  502  0.72763823160E+01  0.68285877733E+02  0.39892049229E+02  0.79557353080E+02  0.47000000000E+01 0. -1.
<mgrwt>
<rscale>  0 0.43282232E+03</rscale>
<asrwt>0</asrwt>
<pdfrwt beam="1">  1       21 0.76394050E-01 0.43282232E+03</pdfrwt>
<pdfrwt beam="2">  1       21 0.14510189E-01 0.43282232E+03</pdfrwt>
<totfact> 0.58841408E+04</totfact>
</mgrwt>
</event>
<event>
 8    1  0.9331162E-006  0.2624784E+03  0.7546771E-02  0.1105663E+00
         21   -1    0    0  504  503  0.00000000000E+00  0.00000000000E+00  0.32960398035E+03  0.32960398035E+03  0.00000000000E+00 0. -1.
         21   -1    0    0  503  504 -0.00000000000E+00 -0.00000000000E+00 -0.52255814798E+02  0.52255814798E+02  0.00000000000E+00 0. -1.
         25    2    1    2    0    0 -0.17836063538E+02  0.12614232979E+02  0.89967183624E+02  0.15555342607E+03  0.12500212077E+03 0.  0.
         25    2    1    2    0    0  0.17836063538E+02 -0.12614232979E+02  0.18738098193E+03  0.22630636908E+03  0.12500278501E+03 0.  0.
          5    1    3    3  501    0 -0.52324692353E+02  0.44782256640E+02  0.82502606872E+02  0.10757366815E+03  0.47000000000E+01 0.  1.
         -5    1    3    3    0  501  0.34488628815E+02 -0.32168023661E+02  0.74645767517E+01  0.47979757918E+02  0.47000000000E+01 0.  1.
          5    1    4    4  502    0 -0.75165771709E+01  0.33279013032E+02  0.30135052641E+01  0.34571127473E+02  0.47000000000E+01 0.  1.
         -5    1    4    4    0  502  0.25352640709E+02 -0.45893246012E+02  0.18436747667E+03  0.19173524160E+03  0.47000000000E+01 0.  1.
<mgrwt>
<rscale>  0 0.26247838E+03</rscale>
<asrwt>0</asrwt>
<pdfrwt beam="1">  1       21 0.50708303E-01 0.26247838E+03</pdfrwt>
<pdfrwt beam="2">  1       21 0.80393564E-02 0.26247838E+03</pdfrwt>
<totfact> 0.43370462E+05</totfact>
</mgrwt>
</event>
<event>
 8    1  0.9331162E-006  0.2732830E+03  0.7546771E-02  0.1099415E+00
         21   -1    0    0  504  503  0.00000000000E+00  0.00000000000E+00  0.21357875093E+03  0.21357875093E+03  0.00000000000E+00 0.  1.
         21   -1    0    0  503  504 -0.00000000000E+00 -0.00000000000E+00 -0.87419289376E+02  0.87419289376E+02  0.00000000000E+00 0.  1.
         25    2    1    2    0    0 -0.13946590373E+02 -0.21051201746E+02  0.90117565811E+01  0.12784330181E+03  0.12500015033E+03 0.  0.
         25    2    1    2    0    0  0.13946590373E+02  0.21051201746E+02  0.11714770498E+03  0.17315473850E+03  0.12498527195E+03 0.  0.
          5    1    3    3  501    0 -0.51176356834E+02 -0.52837736199E+02  0.22104837704E+02  0.76951671296E+02  0.47000000000E+01 0.  1.
         -5    1    3    3    0  501  0.37229766461E+02  0.31786534453E+02 -0.13093081122E+02  0.50891630516E+02  0.47000000000E+01 0.  1.
          5    1    4    4  502    0  0.48290842989E+02  0.41367349968E+02  0.18117757538E+02  0.66284283945E+02  0.47000000000E+01 0. -1.
         -5    1    4    4    0  502 -0.34344252616E+02 -0.20316148222E+02  0.99029947438E+02  0.10687045455E+03  0.47000000000E+01 0. -1.
<mgrwt>
<rscale>  0 0.27328302E+03</rscale>
<asrwt>0</asrwt>
<pdfrwt beam="1">  1       21 0.32858269E-01 0.27328302E+03</pdfrwt>
<pdfrwt beam="2">  1       21 0.13449122E-01 0.27328302E+03</pdfrwt>
<totfact> 0.41920820E+05</totfact>
</mgrwt>
</event>
<event>
 8    1  0.9331162E-006  0.3234487E+03  0.7546771E-02  0.1074073E+00
         21   -1    0    0  504  503  0.00000000000E+00  0.00000000000E+00  0.44163129028E+03  0.44163129028E+03  0.00000000000E+00 0.  1.
         21   -1    0    0  503  504 -0.00000000000E+00 -0.00000000000E+00 -0.59223067682E+02  0.59223067682E+02  0.00000000000E+00 0.  1.
         25    2    1    2    0    0  0.36647723918E+02 -0.81382969350E+02  0.11280147402E+03  0.19056637758E+03  0.12500051342E+03 0.  0.
         25    2    1    2    0    0 -0.36647723918E+02  0.81382969350E+02  0.26960674858E+03  0.31028798038E+03  0.12499835406E+03 0.  0.
          5    1    3    3  501    0 -0.43668816269E+02 -0.80959981088E+01  0.36047853316E+02  0.57393801307E+02  0.47000000000E+01 0.  1.
         -5    1    3    3    0  501  0.80316540187E+02 -0.73286971241E+02  0.76753620699E+02  0.13317257628E+03  0.47000000000E+01 0.  1.
          5    1    4    4  502    0 -0.22905097453E+02  0.14481075327E+02  0.22909323205E+03  0.23073825865E+03  0.47000000000E+01 0. -1.
         -5    1    4    4    0  502 -0.13742626465E+02  0.66901894023E+02  0.40513516531E+02  0.79549721732E+02  0.47000000000E+01 0. -1.
<mgrwt>
<rscale>  0 0.32344867E+03</rscale>
<asrwt>0</asrwt>
<pdfrwt beam="1">  1       21 0.67943273E-01 0.32344867E+03</pdfrwt>
<pdfrwt beam="2">  1       21 0.91112415E-02 0.32344867E+03</pdfrwt>
<totfact> 0.18240782E+05</totfact>
</mgrwt>
</event>
<event>
 8    1  0.9331162E-006  0.5743013E+03  0.7546771E-02  0.9960205E-01
         21   -1    0    0  504  503  0.00000000000E+00  0.00000000000E+00  0.56167878389E+02  0.56167878389E+02  0.00000000000E+00 0. -1.
         21   -1    0    0  503  504 -0.00000000000E+00 -0.00000000000E+00 -0.14680188712E+04  0.14680188712E+04  0.00000000000E+00 0. -1.
         25    2    1    2    0    0 -0.22083315391E+03  0.13421688695E+03 -0.68797847312E+03  0.74547126178E+03  0.12502626947E+03 0.  0.
         25    2    1    2    0    0  0.22083315391E+03 -0.13421688695E+03 -0.72387251965E+03  0.77871548777E+03  0.12499972631E+03 0.  0.
          5    1    3    3  501    0 -0.66362254341E+02  0.38324131085E+02 -0.80042757984E+02  0.11091267254E+03  0.47000000000E+01 0.  1.
         -5    1    3    3    0  501 -0.15447089957E+03  0.95892755866E+02 -0.60793571514E+03  0.63455858924E+03  0.47000000000E+01 0.  1.
          5    1    4    4  502    0  0.16656814254E+02 -0.39808588196E+02 -0.25482526737E+03  0.25849599618E+03  0.47000000000E+01 0. -1.
         -5    1    4    4    0  502  0.20417633965E+03 -0.94408298756E+02 -0.46904725229E+03  0.52021949158E+03  0.47000000000E+01 0. -1.
<mgrwt>
<rscale>  0 0.57430133E+03</rscale>
<asrwt>0</asrwt>
<pdfrwt beam="1">  1       21 0.86412116E-02 0.57430133E+03</pdfrwt>
<pdfrwt beam="2">  1       21 0.22584907E+00 0.57430133E+03</pdfrwt>
<totfact> 0.80268729E+03</totfact>
</mgrwt>
</event>
<event>
 8    1  0.9331162E-006  0.2728156E+03  0.7546771E-02  0.1099679E+00
         21   -1    0    0  504  503  0.00000000000E+00  0.00000000000E+00  0.40884528403E+03  0.40884528403E+03  0.00000000000E+00 0. -1.
         21   -1    0    0  503  504 -0.00000000000E+00 -0.00000000000E+00 -0.45511308040E+02  0.45511308040E+02  0.00000000000E+00 0. -1.
         25    2    1    2    0    0  0.71059080970E+00 -0.97985678787E+01  0.27113029335E+03  0.29872011862E+03  0.12500222568E+03 0.  0.
         25    2    1    2    0    0 -0.71059080970E+00  0.97985678787E+01  0.92203682638E+02  0.15563647345E+03  0.12499870361E+03 0.  0.
          5    1    3    3  501    0 -0.19051952328E+02 -0.64225748178E+02  0.13840052297E+03  0.15383341111E+03  0.47000000000E+01 0. -1.
         -5    1    3    3    0  501  0.19762543138E+02  0.54427180300E+02  0.13272977038E+03  0.14488670751E+03  0.47000000000E+01 0. -1.
          5    1    4    4  502    0 -0.11619027044E+02 -0.47120342078E+02  0.26096949300E+01  0.48828566788E+02  0.47000000000E+01 0.  1.
         -5    1    4    4    0  502  0.10908436234E+02  0.56918909956E+02  0.89593987709E+02  0.10680790666E+03  0.47000000000E+01 0.  1.
<mgrwt>
<rscale>  0 0.27281557E+03</rscale>
<asrwt>0</asrwt>
<pdfrwt beam="1">  1       21 0.62899272E-01 0.27281557E+03</pdfrwt>
<pdfrwt beam="2">  1       21 0.70017400E-02 0.27281557E+03</pdfrwt>
<totfact> 0.34721263E+05</totfact>
</mgrwt>
</event>
<event>
 8    1  0.9331162E-006  0.3194573E+03  0.7546771E-02  0.1075899E+00
         21   -1    0    0  504  503  0.00000000000E+00  0.00000000000E+00  0.31518257094E+03  0.31518257094E+03  0.00000000000E+00 0. -1.
         21   -1    0    0  503  504 -0.00000000000E+00 -0.00000000000E+00 -0.80947501134E+02  0.80947501134E+02  0.00000000000E+00 0. -1.
         25    2    1    2    0    0  0.29113217327E+02 -0.47911961832E+02  0.21892215905E+03  0.25828271699E+03  0.12505964443E+03 0.  0.
         25    2    1    2    0    0 -0.29113217327E+02  0.47911961832E+02  0.15312910757E+02  0.13784735508E+03  0.12499709020E+03 0.  0.
          5    1    3    3  501    0  0.28687601512E+01 -0.19116916639E+02  0.21812626793E+03  0.21903160742E+03  0.47000000000E+01 0. -1.
         -5    1    3    3    0  501  0.26244457176E+02 -0.28795045193E+02  0.79589111940E+00  0.39251109574E+02  0.47000000000E+01 0. -1.
          5    1    4    4  502    0 -0.10786505768E+02 -0.97668142801E+01 -0.47855975210E+02  0.50239662929E+02  0.47000000000E+01 0.  1.
         -5    1    4    4    0  502 -0.18326711559E+02  0.57678776112E+02  0.63168885968E+02  0.87607692155E+02  0.47000000000E+01 0.  1.
<mgrwt>
<rscale>  0 0.31945730E+03</rscale>
<asrwt>0</asrwt>
<pdfrwt beam="1">  1       21 0.48489626E-01 0.31945730E+03</pdfrwt>
<pdfrwt beam="2">  1       21 0.12453462E-01 0.31945730E+03</pdfrwt>
<totfact> 0.21586591E+05</totfact>
</mgrwt>
</event>
<event>
 8    1  0.9331162E-006  0.2797320E+03  0.7546771E-02  0.1095835E+00
         21   -1    0    0  504  503  0.00000000000E+00  0.00000000000E+00  0.14551067322E+03  0.14551067322E+03  0.00000000000E+00 0. -1.
         21   -1    0    0  503  504 -0.00000000000E+00 -0.00000000000E+00 -0.13444031408E+03  0.13444031408E+03  0.00000000000E+00 0. -1.
         25    2    1    2    0    0 -0.54550673378E+02 -0.26725646337E+02  0.21285904541E+02  0.14059654501E+03  0.12499705036E+03 0.  0.
         25    2    1    2    0    0  0.54550673378E+02  0.26725646337E+02 -0.10215545405E+02  0.13935444230E+03  0.12500106832E+03 0.  0.
          5    1    3    3  501    0  0.15329350682E+02 -0.29754200614E+02 -0.36500695050E+02  0.49746278108E+02  0.47000000000E+01 0.  1.
         -5    1    3    3    0  501 -0.69880024060E+02  0.30285542765E+01  0.57786599590E+02  0.90850266900E+02  0.47000000000E+01 0.  1.
          5    1    4    4  502    0  0.37157509637E+02  0.66797291174E+02 -0.39879218463E+02  0.86342345902E+02  0.47000000000E+01 0.  1.
         -5    1    4    4    0  502  0.17393163742E+02 -0.40071644837E+02  0.29663673058E+02  0.53012096395E+02  0.47000000000E+01 0.  1.
<mgrwt>
<rscale>  0 0.27973202E+03</rscale>
<asrwt>0</asrwt>
<pdfrwt beam="1">  1       21 0.22386257E-01 0.27973202E+03</pdfrwt>
<pdfrwt beam="2">  1       21 0.20683125E-01 0.27973202E+03</pdfrwt>
<totfact> 0.39762907E+05</totfact>
</mgrwt>
</event>
<event>
 8    1  0.9331162E-006  0.3006378E+03  0.7546771E-02  0.1084922E+00
         21   -1    0    0  504  503  0.00000000000E+00  0.00000000000E+00  0.19156153129E+03  0.19156153129E+03  0.00000000000E+00 0. -1.
         21   -1    0    0  503  504 -0.00000000000E+00 -0.00000000000E+00 -0.11795568027E+03  0.11795568027E+03  0.00000000000E+00 0. -1.
         25    2    1    2    0    0  0.59417715809E+02 -0.51222002108E+02  0.66187314214E+02  0.16174109867E+03  0.12500105593E+03 0.  0.
         25    2    1    2    0    0 -0.59417715809E+02  0.51222002108E+02  0.74185368011E+01  0.14777611289E+03  0.12501434478E+03 0.  0.
          5    1    3    3  501    0  0.29288733057E+02 -0.54413179624E+02 -0.24020137044E+02  0.66465637622E+02  0.47000000000E+01 0. -1.
         -5    1    3    3    0  501  0.30128982752E+02  0.31911775157E+01  0.90207451258E+02  0.95275461049E+02  0.47000000000E+01 0. -1.
          5    1    4    4  502    0 -0.73598803601E+01 -0.37278774682E+02  0.21692433328E+02  0.44005983052E+02  0.47000000000E+01 0. -1.
         -5    1    4    4    0  502 -0.52057835449E+02  0.88500776791E+02 -0.14273896526E+02  0.10377012984E+03  0.47000000000E+01 0. -1.
<mgrwt>
<rscale>  0 0.30063779E+03</rscale>
<asrwt>0</asrwt>
<pdfrwt beam="1">  1       21 0.29471005E-01 0.30063779E+03</pdfrwt>
<pdfrwt beam="2">  1       21 0.18147028E-01 0.30063779E+03</pdfrwt>
<totfact> 0.29760503E+05</totfact>
</mgrwt>
</event>
<event>
 8    1  0.9331162E-006  0.3056020E+03  0.7546771E-02  0.1082473E+00
         21   -1    0    0  504  503  0.00000000000E+00  0.00000000000E+00  0.53398811359E+03  0.53398811359E+03  0.00000000000E+00 0.  1.
         21   -1    0    0  503  504 -0.00000000000E+00 -0.00000000000E+00 -0.43724097967E+02  0.43724097967E+02  0.00000000000E+00 0.  1.
         25    2    1    2    0    0  0.51453617900E+02  0.68712228338E+02  0.20954576192E+03  0.25865643817E+03  0.12499952620E+03 0.  0.
         25    2    1    2    0    0 -0.51453617900E+02 -0.68712228338E+02  0.28071825370E+03  0.31905577338E+03  0.12500001380E+03 0.  0.
          5    1    3    3  501    0  0.42586717533E+02  0.75798868119E+02  0.53638141920E+02  0.10226552296E+03  0.47000000000E+01 0.  1.
         -5    1    3    3    0  501  0.88669003675E+01 -0.70866397804E+01  0.15590762000E+03  0.15639091521E+03  0.47000000000E+01 0.  1.
          5    1    4    4  502    0 -0.89599192523E+02 -0.68470444171E+02  0.19981968056E+03  0.22949120193E+03  0.47000000000E+01 0.  1.
         -5    1    4    4    0  502  0.38145574623E+02 -0.24178416715E+00  0.80898573141E+02  0.89564571450E+02  0.47000000000E+01 0.  1.
<mgrwt>
<rscale>  0 0.30560202E+03</rscale>
<asrwt>0</asrwt>
<pdfrwt beam="1">  1       21 0.82152013E-01 0.30560202E+03</pdfrwt>
<pdfrwt beam="2">  1       21 0.67267847E-02 0.30560202E+03</pdfrwt>
<totfact> 0.20322746E+05</totfact>
</mgrwt>
</event>
<event>
 8    1  0.9331162E-006  0.2577460E+03  0.7546771E-02  0.1108505E+00
         21   -1    0    0  504  503  0.00000000000E+00  0.00000000000E+00  0.58029684578E+02  0.58029684578E+02  0.00000000000E+00 0.  1.
         21   -1    0    0  503  504 -0.00000000000E+00 -0.00000000000E+00 -0.28620256375E+03  0.28620256375E+03  0.00000000000E+00 0.  1.
         25    2    1    2    0    0  0.12337065576E+02 -0.28225572909E+02 -0.12196126756E+03  0.17733440019E+03  0.12499621015E+03 0.  0.
         25    2    1    2    0    0 -0.12337065576E+02  0.28225572909E+02 -0.10621161161E+03  0.16689784814E+03  0.12500039648E+03 0.  0.
          5    1    3    3  501    0  0.60796810923E+02  0.12621273961E+02 -0.41633113420E+02  0.74906307530E+02  0.47000000000E+01 0. -1.
         -5    1    3    3    0  501 -0.48459745347E+02 -0.40846846870E+02 -0.80328154145E+02  0.10242809266E+03  0.47000000000E+01 0. -1.
          5    1    4    4  502    0 -0.51116510918E+02  0.59174403741E+02 -0.57186486344E+02  0.96989133242E+02  0.47000000000E+01 0.  1.
         -5    1    4    4    0  502  0.38779445342E+02 -0.30948830832E+02 -0.49025125268E+02  0.69908714897E+02  0.47000000000E+01 0.  1.
<mgrwt>
<rscale>  0 0.25774596E+03</rscale>
<asrwt>0</asrwt>
<pdfrwt beam="1">  1       21 0.89276438E-02 0.25774596E+03</pdfrwt>
<pdfrwt beam="2">  1       21 0.44031163E-01 0.25774596E+03</pdfrwt>
<totfact> 0.48448930E+05</totfact>
</mgrwt>
</event>
<event>
 8    1  0.9331162E-006  0.4100829E+03  0.7546771E-02  0.1040343E+00
         21   -1    0    0  504  503  0.00000000000E+00  0.00000000000E+00  0.92204862417E+03  0.92204862417E+03  0.00000000000E+00 0. -1.
         21   -1    0    0  503  504 -0.00000000000E+00 -0.00000000000E+00 -0.45596280734E+02  0.45596280734E+02  0.00000000000E+00 0. -1.
         25    2    1    2    0    0  0.57551769713E+01  0.12461530889E+03  0.19239256820E+03  0.26115697954E+03  0.12500388153E+03 0.  0.
         25    2    1    2    0    0 -0.57551769713E+01 -0.12461530889E+03  0.68405977524E+03  0.70648792535E+03  0.12500126121E+03 0.  0.
          5    1    3    3  501    0 -0.53769077990E+02  0.25122499795E+02  0.78957470925E+02  0.98886935228E+02  0.47000000000E+01 0.  1.
         -5    1    3    3    0  501  0.59524254961E+02  0.99492809094E+02  0.11343509727E+03  0.16227004432E+03  0.47000000000E+01 0.  1.
          5    1    4    4  502    0 -0.48128787934E+02 -0.16176400526E+02  0.11777175184E+03  0.12833679010E+03  0.47000000000E+01 0. -1.
         -5    1    4    4    0  502  0.42373610963E+02 -0.10843890836E+03  0.56628802340E+03  0.57815113526E+03  0.47000000000E+01 0. -1.
<mgrwt>
<rscale>  0 0.41008286E+03</rscale>
<asrwt>0</asrwt>
<pdfrwt beam="1">  1       21 0.14185362E+00 0.41008286E+03</pdfrwt>
<pdfrwt beam="2">  1       21 0.70148131E-02 0.41008286E+03</pdfrwt>
<totfact> 0.47891716E+04</totfact>
</mgrwt>
</event>
<event>
 8    1  0.9331162E-006  0.2535486E+03  0.7546771E-02  0.1111082E+00
         21   -1    0    0  504  503  0.00000000000E+00  0.00000000000E+00  0.76746753758E+02  0.76746753758E+02  0.00000000000E+00 0.  1.
         21   -1    0    0  503  504 -0.00000000000E+00 -0.00000000000E+00 -0.20941244466E+03  0.20941244466E+03  0.00000000000E+00 0.  1.
         25    2    1    2    0    0 -0.95098220029E+01 -0.20178351299E+01 -0.87499692287E+02  0.15289135884E+03  0.12500025234E+03 0.  0.
         25    2    1    2    0    0  0.95098220029E+01  0.20178351299E+01 -0.45165998617E+02  0.13326783957E+03  0.12500336500E+03 0.  0.
          5    1    3    3  501    0  0.52068732913E+02  0.22646202304E+02 -0.27247196960E+02  0.63154597364E+02  0.47000000000E+01 0. -1.
         -5    1    3    3    0  501 -0.61578554916E+02 -0.24664037434E+02 -0.60252495326E+02  0.89736761481E+02  0.47000000000E+01 0. -1.
          5    1    4    4  502    0 -0.40081334094E+00  0.50979420208E+02  0.16479238989E+02  0.53783986964E+02  0.47000000000E+01 0. -1.
         -5    1    4    4    0  502  0.99106353438E+01 -0.48961585078E+02 -0.61645237606E+02  0.79483852610E+02  0.47000000000E+01 0. -1.
<mgrwt>
<rscale>  0 0.25354862E+03</rscale>
<asrwt>0</asrwt>
<pdfrwt beam="1">  1       21 0.11807193E-01 0.25354862E+03</pdfrwt>
<pdfrwt beam="2">  1       21 0.32217299E-01 0.25354862E+03</pdfrwt>
<totfact> 0.55356207E+05</totfact>
</mgrwt>
</event>
<event>
 8    1  0.9331162E-006  0.3160045E+03  0.7546771E-02  0.1077503E+00
         21   -1    0    0  504  503  0.00000000000E+00  0.00000000000E+00  0.36356221214E+03  0.36356221214E+03  0.00000000000E+00 0. -1.
         21   -1    0    0  503  504 -0.00000000000E+00 -0.00000000000E+00 -0.68666963798E+02  0.68666963798E+02  0.00000000000E+00 0. -1.
         25    2    1    2    0    0  0.75987897808E+02 -0.42228195216E+02  0.89677467809E+02  0.17669705702E+03  0.12498968214E+03 0.  0.
         25    2    1    2    0    0 -0.75987897808E+02  0.42228195216E+02  0.20521778054E+03  0.25553211892E+03  0.12499978107E+03 0.  0.
          5    1    3    3  501    0  0.44897535862E+02  0.72741523974E+00 -0.24029864154E+02  0.51145305069E+02  0.47000000000E+01 0. -1.
         -5    1    3    3    0  501  0.31090361946E+02 -0.42955610455E+02  0.11370733196E+03  0.12555175195E+03  0.47000000000E+01 0. -1.
          5    1    4    4  502    0 -0.28159161063E+02  0.81388084250E+02  0.14729716727E+03  0.17069125371E+03  0.47000000000E+01 0. -1.
         -5    1    4    4    0  502 -0.47828736744E+02 -0.39159889034E+02  0.57920613272E+02  0.84840865210E+02  0.47000000000E+01 0. -1.
<mgrwt>
<rscale>  0 0.31600451E+03</rscale>
<asrwt>0</asrwt>
<pdfrwt beam="1">  1       21 0.55932647E-01 0.31600451E+03</pdfrwt>
<pdfrwt beam="2">  1       21 0.10564148E-01 0.31600451E+03</pdfrwt>
<totfact> 0.21460937E+05</totfact>
</mgrwt>
</event>
<event>
 8    1  0.9331162E-006  0.4233885E+03  0.7546771E-02  0.1035969E+00
         21   -1    0    0  504  503  0.00000000000E+00  0.00000000000E+00  0.15228773195E+03  0.15228773195E+03  0.00000000000E+00 0.  1.
         21   -1    0    0  503  504 -0.00000000000E+00 -0.00000000000E+00 -0.29427492594E+03  0.29427492594E+03  0.00000000000E+00 0.  1.
         25    2    1    2    0    0  0.54354860567E+02 -0.29055479621E+02  0.97101088928E+02  0.16985734011E+03  0.12499689098E+03 0.  0.
         25    2    1    2    0    0 -0.54354860567E+02  0.29055479621E+02 -0.23908828292E+03  0.27670531779E+03  0.12491578804E+03 0.  0.
          5    1    3    3  501    0 -0.22151294858E+02  0.32871696191E+02  0.37046807452E+02  0.54459014099E+02  0.47000000000E+01 0. -1.
         -5    1    3    3    0  501  0.76506155425E+02 -0.61927175811E+02  0.60054281476E+02  0.11539832601E+03  0.47000000000E+01 0. -1.
          5    1    4    4  502    0  0.17451587663E+02  0.43922277307E+02 -0.16755441606E+03  0.17415595510E+03  0.47000000000E+01 0.  1.
         -5    1    4    4    0  502 -0.71806448230E+02 -0.14866797687E+02 -0.71533866863E+02  0.10254936270E+03  0.47000000000E+01 0.  1.
<mgrwt>
<rscale>  0 0.42338853E+03</rscale>
<asrwt>0</asrwt>
<pdfrwt beam="1">  1       21 0.23428882E-01 0.42338853E+03</pdfrwt>
<pdfrwt beam="2">  1       21 0.45273065E-01 0.42338853E+03</pdfrwt>
<totfact> 0.74833312E+04</totfact>
</mgrwt>
</event>
<event>
 8    1  0.9331162E-006  0.2684860E+03  0.7546771E-02  0.1102149E+00
         21   -1    0    0  504  503  0.00000000000E+00  0.00000000000E+00  0.33584062198E+03  0.33584062198E+03  0.00000000000E+00 0.  1.
         21   -1    0    0  503  504 -0.00000000000E+00 -0.00000000000E+00 -0.53659920898E+02  0.53659920898E+02  0.00000000000E+00 0.  1.
         25    2    1    2    0    0 -0.37104489305E+02 -0.31597788103E+02  0.13457847997E+03  0.19003271982E+03  0.12500361592E+03 0.  0.
         25    2    1    2    0    0  0.37104489305E+02  0.31597788103E+02  0.14760222111E+03  0.19946782305E+03  0.12500333363E+03 0.  0.
          5    1    3    3  501    0 -0.57435112713E+02  0.27794956942E+02  0.98559215130E+02  0.11750472625E+03  0.47000000000E+01 0. -1.
         -5    1    3    3    0  501  0.20330623408E+02 -0.59392745045E+02  0.36019264840E+02  0.72527993573E+02  0.47000000000E+01 0. -1.
          5    1    4    4  502    0 -0.26731629235E+00  0.52455538423E+02  0.14727744155E+03  0.15641096432E+03  0.47000000000E+01 0. -1.
         -5    1    4    4    0  502  0.37371805598E+02 -0.20857750320E+02  0.32477955416E+00  0.43056858731E+02  0.47000000000E+01 0. -1.
<mgrwt>
<rscale>  0 0.26848599E+03</rscale>
<asrwt>0</asrwt>
<pdfrwt beam="1">  1       21 0.51667787E-01 0.26848599E+03</pdfrwt>
<pdfrwt beam="2">  1       21 0.82553726E-02 0.26848599E+03</pdfrwt>
<totfact> 0.39747589E+05</totfact>
</mgrwt>
</event>
<event>
 8    1  0.9331162E-006  0.2937357E+03  0.7546771E-02  0.1088415E+00
         21   -1    0    0  504  503  0.00000000000E+00  0.00000000000E+00  0.18980777445E+03  0.18980777445E+03  0.00000000000E+00 0. -1.
         21   -1    0    0  503  504 -0.00000000000E+00 -0.00000000000E+00 -0.11364215537E+03  0.11364215537E+03  0.00000000000E+00 0. -1.
         25    2    1    2    0    0 -0.10925960654E+02 -0.38547221616E+02  0.10616734447E+03  0.16882416113E+03  0.12499930976E+03 0.  0.
         25    2    1    2    0    0  0.10925960654E+02  0.38547221616E+02 -0.30001725384E+02  0.13462576869E+03  0.12497491411E+03 0.  0.
          5    1    3    3  501    0 -0.64589196944E+02 -0.17335038571E+02  0.82435527763E+02  0.10625429009E+03  0.47000000000E+01 0. -1.
         -5    1    3    3    0  501  0.53663236290E+02 -0.21212183045E+02  0.23731816710E+02  0.62569871048E+02  0.47000000000E+01 0. -1.
          5    1    4    4  502    0  0.16455563623E+02 -0.43406340137E+02 -0.23097658482E+02  0.52062344987E+02  0.47000000000E+01 0.  1.
         -5    1    4    4    0  502 -0.55296029690E+01  0.81953561753E+02 -0.69040669013E+01  0.82563423698E+02  0.47000000000E+01 0.  1.
<mgrwt>
<rscale>  0 0.29373569E+03</rscale>
<asrwt>0</asrwt>
<pdfrwt beam="1">  1       21 0.29201196E-01 0.29373569E+03</pdfrwt>
<pdfrwt beam="2">  1       21 0.17483408E-01 0.29373569E+03</pdfrwt>
<totfact> 0.32527080E+05</totfact>
</mgrwt>
</event>
<event>
 8    1  0.9331162E-006  0.2602575E+03  0.7546771E-02  0.1106989E+00
         21   -1    0    0  504  503  0.00000000000E+00  0.00000000000E+00  0.24685936462E+03  0.24685936462E+03  0.00000000000E+00 0.  1.
         21   -1    0    0  503  504 -0.00000000000E+00 -0.00000000000E+00 -0.68595719734E+02  0.68595719734E+02  0.00000000000E+00 0.  1.
         25    2    1    2    0    0  0.31222219629E+02 -0.18150770144E+02  0.91467690858E+02  0.15903753717E+03  0.12498928875E+03 0.  0.
         25    2    1    2    0    0 -0.31222219629E+02  0.18150770144E+02  0.86795954026E+02  0.15641754718E+03  0.12501453506E+03 0.  0.
          5    1    3    3  501    0  0.31134697131E+01 -0.51335915445E+02 -0.62059686981E+01  0.52016093237E+02  0.47000000000E+01 0. -1.
         -5    1    3    3    0  501  0.28108749916E+02  0.33185145300E+02  0.97673659556E+02  0.10702144393E+03  0.47000000000E+01 0. -1.
          5    1    4    4  502    0 -0.77012522134E+02 -0.37205820797E+01  0.65138108373E+02  0.10104372548E+03  0.47000000000E+01 0. -1.
         -5    1    4    4    0  502  0.45790302505E+02  0.21871352224E+02  0.21657845653E+02  0.55373821702E+02  0.47000000000E+01 0. -1.
<mgrwt>
<rscale>  0 0.26025753E+03</rscale>
<asrwt>0</asrwt>
<pdfrwt beam="1">  1       21 0.37978363E-01 0.26025753E+03</pdfrwt>
<pdfrwt beam="2">  1       21 0.10553188E-01 0.26025753E+03</pdfrwt>
<totfact> 0.48665923E+05</totfact>
</mgrwt>
</event>
<event>
 8    1  0.9331162E-006  0.3380239E+03  0.7546771E-02  0.1067641E+00
         21   -1    0    0  504  503  0.00000000000E+00  0.00000000000E+00  0.40900586524E+03  0.40900586524E+03  0.00000000000E+00 0. -1.
         21   -1    0    0  503  504 -0.00000000000E+00 -0.00000000000E+00 -0.69840184436E+02  0.69840184436E+02  0.00000000000E+00 0. -1.
         25    2    1    2    0    0  0.69539449231E+02 -0.74904412503E+02  0.24032561659E+03  0.28953082326E+03  0.12500115845E+03 0.  0.
         25    2    1    2    0    0 -0.69539449231E+02  0.74904412503E+02  0.98840064209E+02  0.18931522641E+03  0.12499796257E+03 0.  0.
          5    1    3    3  501    0 -0.25106357295E+02  0.12913381681E+02  0.70947256184E+02  0.76502861143E+02  0.47000000000E+01 0. -1.
         -5    1    3    3    0  501  0.94645806526E+02 -0.87817794184E+02  0.16937836041E+03  0.21302796212E+03  0.47000000000E+01 0. -1.
          5    1    4    4  502    0 -0.26109166351E+02  0.67244417378E+02 -0.88712383332E+01  0.72830550634E+02  0.47000000000E+01 0.  1.
         -5    1    4    4    0  502 -0.43430282880E+02  0.76599951248E+01  0.10771130254E+03  0.11648467578E+03  0.47000000000E+01 0.  1.
<mgrwt>
<rscale>  0 0.33802393E+03</rscale>
<asrwt>0</asrwt>
<pdfrwt beam="1">  1       21 0.62923978E-01 0.33802393E+03</pdfrwt>
<pdfrwt beam="2">  1       21 0.10744644E-01 0.33802393E+03</pdfrwt>
<totfact> 0.16043958E+05</totfact>
</mgrwt>
</event>
<event>
 8    1  0.9331162E-006  0.3741220E+03  0.7546771E-02  0.1053128E+00
         21   -1    0    0  504  503  0.00000000000E+00  0.00000000000E+00  0.19365566661E+04  0.19365566661E+04  0.00000000000E+00 0.  1.
         21   -1    0    0  503  504 -0.00000000000E+00 -0.00000000000E+00 -0.18069091958E+02  0.18069091958E+02  0.00000000000E+00 0.  1.
         25    2    1    2    0    0  0.46597440570E+02 -0.99195995421E+02  0.51124599160E+03  0.53759816663E+03  0.12501263080E+03 0.  0.
         25    2    1    2    0    0 -0.46597440570E+02  0.99195995421E+02  0.14072415825E+04  0.14170275914E+04  0.12500862475E+03 0.  0.
          5    1    3    3  501    0  0.14019880480E+02 -0.95089898351E+02  0.48724077605E+03  0.49665310798E+03  0.47000000000E+01 0. -1.
         -5    1    3    3    0  501  0.32577560090E+02 -0.41060970706E+01  0.24005215555E+02  0.40945058657E+02  0.47000000000E+01 0. -1.
          5    1    4    4  502    0 -0.88037602962E+02  0.61036822971E+02  0.79866054670E+03  0.80582682516E+03  0.47000000000E+01 0. -1.
         -5    1    4    4    0  502  0.41440162391E+02  0.38159172450E+02  0.60858103583E+03  0.61120076625E+03  0.47000000000E+01 0. -1.
<mgrwt>
<rscale>  0 0.37412201E+03</rscale>
<asrwt>0</asrwt>
<pdfrwt beam="1">  1       21 0.29793163E+00 0.37412201E+03</pdfrwt>
<pdfrwt beam="2">  1       21 0.27798618E-02 0.37412201E+03</pdfrwt>
<totfact> 0.22219599E+04</totfact>
</mgrwt>
</event>
<event>
 8    1  0.9331162E-006  0.2866897E+03  0.7546771E-02  0.1092090E+00
         21   -1    0    0  504  503  0.00000000000E+00  0.00000000000E+00  0.65000449753E+02  0.65000449753E+02  0.00000000000E+00 0.  1.
         21   -1    0    0  503  504 -0.00000000000E+00 -0.00000000000E+00 -0.31611708659E+03  0.31611708659E+03  0.00000000000E+00 0.  1.
         25    2    1    2    0    0 -0.67867999465E+02 -0.10454731911E+02 -0.10646647363E+03  0.17797759508E+03  0.12500219027E+03 0.  0.
         25    2    1    2    0    0  0.67867999465E+02  0.10454731911E+02 -0.14465016321E+03  0.20313994126E+03  0.12500719679E+03 0.  0.
          5    1    3    3  501    0 -0.88566698641E+02 -0.41991927132E+02 -0.98694668280E+02  0.13917654112E+03  0.47000000000E+01 0.  1.
         -5    1    3    3    0  501  0.20698699175E+02  0.31537195221E+02 -0.77718053542E+01  0.38801053960E+02  0.47000000000E+01 0.  1.
          5    1    4    4  502    0 -0.31151092059E+02  0.10484803975E+02 -0.77112482209E+01  0.34086287565E+02  0.47000000000E+01 0.  1.
         -5    1    4    4    0  502  0.99019091524E+02 -0.30072064109E-01 -0.13693891499E+03  0.16905365370E+03  0.47000000000E+01 0.  1.
<mgrwt>
<rscale>  0 0.28668975E+03</rscale>
<asrwt>0</asrwt>
<pdfrwt beam="1">  1       21 0.10000070E-01 0.28668975E+03</pdfrwt>
<pdfrwt beam="2">  1       21 0.48633396E-01 0.28668975E+03</pdfrwt>
<totfact> 0.32042464E+05</totfact>
</mgrwt>
</event>
<event>
 8    1  0.9331162E-006  0.2857318E+03  0.7546771E-02  0.1092599E+00
         21   -1    0    0  504  503  0.00000000000E+00  0.00000000000E+00  0.98779719118E+02  0.98779719118E+02  0.00000000000E+00 0.  1.
         21   -1    0    0  503  504 -0.00000000000E+00 -0.00000000000E+00 -0.20662813911E+03  0.20662813911E+03  0.00000000000E+00 0.  1.
         25    2    1    2    0    0 -0.69176192385E+01 -0.65714324235E+02 -0.32011173326E+02  0.14496716280E+03  0.12499814882E+03 0.  0.
         25    2    1    2    0    0  0.69176192385E+01  0.65714324235E+02 -0.75837246665E+02  0.16044069542E+03  0.12499481150E+03 0.  0.
          5    1    3    3  501    0 -0.10491808231E+02  0.36847406343E+02 -0.10597438808E+02  0.40027554303E+02  0.47000000000E+01 0.  1.
         -5    1    3    3    0  501  0.35741889922E+01 -0.10256173058E+03 -0.21413734518E+02  0.10493960850E+03  0.47000000000E+01 0.  1.
          5    1    4    4  502    0 -0.92635972791E+01  0.98668128475E+02 -0.73277298247E+02  0.12334044855E+03  0.47000000000E+01 0.  1.
         -5    1    4    4    0  502  0.16181216518E+02 -0.32953804240E+02 -0.25599484177E+01  0.37100246870E+02  0.47000000000E+01 0.  1.
<mgrwt>
<rscale>  0 0.28573183E+03</rscale>
<asrwt>0</asrwt>
<pdfrwt beam="1">  1       21 0.15196880E-01 0.28573183E+03</pdfrwt>
<pdfrwt beam="2">  1       21 0.31788944E-01 0.28573183E+03</pdfrwt>
<totfact> 0.35715460E+05</totfact>
</mgrwt>
</event>
<event>
 8    1  0.9331162E-006  0.3303139E+03  0.7546771E-02  0.1070998E+00
         21   -1    0    0  504  503  0.00000000000E+00  0.00000000000E+00  0.43988806623E+03  0.43988806623E+03  0.00000000000E+00 0.  1.
         21   -1    0    0  503  504 -0.00000000000E+00 -0.00000000000E+00 -0.62008548689E+02  0.62008548689E+02  0.00000000000E+00 0.  1.
         25    2    1    2    0    0  0.40633062597E+02 -0.99810551447E+02  0.19834035794E+03  0.25802473162E+03  0.12499869034E+03 0.  0.
         25    2    1    2    0    0 -0.40633062597E+02  0.99810551447E+02  0.17953915960E+03  0.24387188329E+03  0.12500397464E+03 0.  0.
          5    1    3    3  501    0  0.72940922927E+02 -0.73758231140E+02  0.75803788445E+02  0.12856500006E+03  0.47000000000E+01 0. -1.
         -5    1    3    3    0  501 -0.32307860330E+02 -0.26052320307E+02  0.12253656949E+03  0.12945973156E+03  0.47000000000E+01 0. -1.
          5    1    4    4  502    0 -0.78756787991E+02  0.92856321144E+02  0.11015124216E+03  0.16425685429E+03  0.47000000000E+01 0. -1.
         -5    1    4    4    0  502  0.38123725394E+02  0.69542303032E+01  0.69387917435E+02  0.79615029002E+02  0.47000000000E+01 0. -1.
<mgrwt>
<rscale>  0 0.33031391E+03</rscale>
<asrwt>0</asrwt>
<pdfrwt beam="1">  1       21 0.67675085E-01 0.33031391E+03</pdfrwt>
<pdfrwt beam="2">  1       21 0.95397770E-02 0.33031391E+03</pdfrwt>
<totfact> 0.16931132E+05</totfact>
</mgrwt>
</event>
<event>
 8    1  0.9331162E-006  0.2667039E+03  0.7546771E-02  0.1103181E+00
         21   -1    0    0  504  503  0.00000000000E+00  0.00000000000E+00  0.54667331892E+02  0.54667331892E+02  0.00000000000E+00 0.  1.
         21   -1    0    0  503  504 -0.00000000000E+00 -0.00000000000E+00 -0.32529022103E+03  0.32529022103E+03  0.00000000000E+00 0.  1.
         25    2    1    2    0    0  0.13222278042E+02 -0.34687737753E+02 -0.95544161511E+02  0.16165292994E+03  0.12499966069E+03 0.  0.
         25    2    1    2    0    0 -0.13222278042E+02  0.34687737753E+02 -0.17507872763E+03  0.21830462298E+03  0.12500511893E+03 0.  0.
          5    1    3    3  501    0  0.68297200104E+02 -0.91884029179E+01 -0.57458804935E+02  0.89847306886E+02  0.47000000000E+01 0.  1.
         -5    1    3    3    0  501 -0.55074922062E+02 -0.25499334835E+02 -0.38085356576E+02  0.71805623057E+02  0.47000000000E+01 0.  1.
          5    1    4    4  502    0 -0.47357902274E+02 -0.27799594847E+02 -0.10334314356E+03  0.11712166197E+03  0.47000000000E+01 0.  1.
         -5    1    4    4    0  502  0.34135624232E+02  0.62487332600E+02 -0.71735584066E+02  0.10118296101E+03  0.47000000000E+01 0.  1.
<mgrwt>
<rscale>  0 0.26670394E+03</rscale>
<asrwt>0</asrwt>
<pdfrwt beam="1">  1       21 0.84103591E-02 0.26670394E+03</pdfrwt>
<pdfrwt beam="2">  1       21 0.50044647E-01 0.26670394E+03</pdfrwt>
<totfact> 0.41159802E+05</totfact>
</mgrwt>
</event>
<event>
 8    1  0.9331162E-006  0.3119112E+03  0.7546771E-02  0.1079433E+00
         21   -1    0    0  504  503  0.00000000000E+00  0.00000000000E+00  0.15490925529E+03  0.15490925529E+03  0.00000000000E+00 0.  1.
         21   -1    0    0  503  504 -0.00000000000E+00 -0.00000000000E+00 -0.15700901418E+03  0.15700901418E+03  0.00000000000E+00 0.  1.
         25    2    1    2    0    0  0.75284560229E+02  0.40568543596E+02 -0.38244105579E+02  0.15620701333E+03  0.12499779063E+03 0.  0.
         25    2    1    2    0    0 -0.75284560229E+02 -0.40568543596E+02  0.36144346691E+02  0.15571125614E+03  0.12500403894E+03 0.  0.
          5    1    3    3  501    0  0.58318101836E+02  0.85241811852E+02 -0.24300781974E+02  0.10620633453E+03  0.47000000000E+01 0.  1.
         -5    1    3    3    0  501  0.16966458393E+02 -0.44673268256E+02 -0.13943323605E+02  0.50000678798E+02  0.47000000000E+01 0.  1.
          5    1    4    4  502    0  0.34431292769E+02 -0.13410023250E+02  0.17134292237E+02  0.41000202631E+02  0.47000000000E+01 0. -1.
         -5    1    4    4    0  502 -0.10971585300E+03 -0.27158520346E+02  0.19010054453E+02  0.11471105351E+03  0.47000000000E+01 0. -1.
<mgrwt>
<rscale>  0 0.31191120E+03</rscale>
<asrwt>0</asrwt>
<pdfrwt beam="1">  1       21 0.23832193E-01 0.31191120E+03</pdfrwt>
<pdfrwt beam="2">  1       21 0.24155233E-01 0.31191120E+03</pdfrwt>
<totfact> 0.26080968E+05</totfact>
</mgrwt>
</event>
<event>
 8    1  0.9331162E-006  0.2627905E+03  0.7546771E-02  0.1105478E+00
         21   -1    0    0  504  503  0.00000000000E+00  0.00000000000E+00  0.27640986148E+03  0.27640986148E+03  0.00000000000E+00 0.  1.
         21   -1    0    0  503  504 -0.00000000000E+00 -0.00000000000E+00 -0.62460559951E+02  0.62460559951E+02  0.00000000000E+00 0.  1.
         25    2    1    2    0    0 -0.13218064254E+02  0.38095254734E+02  0.10217160955E+03  0.16640303444E+03  0.12499986567E+03 0.  0.
         25    2    1    2    0    0  0.13218064254E+02 -0.38095254734E+02  0.11177769198E+03  0.17246738699E+03  0.12499912597E+03 0.  0.
          5    1    3    3  501    0 -0.31094851568E+02  0.78253348129E+02  0.50093315866E+02  0.98091317566E+02  0.47000000000E+01 0.  1.
         -5    1    3    3    0  501  0.17876787314E+02 -0.40158093396E+02  0.52078293681E+02  0.68311716876E+02  0.47000000000E+01 0.  1.
          5    1    4    4  502    0  0.17423307409E+02 -0.87610827603E+01  0.13377025748E+03  0.13526603416E+03  0.47000000000E+01 0. -1.
         -5    1    4    4    0  502 -0.42052431559E+01 -0.29334171973E+02 -0.21992565493E+02  0.37201352829E+02  0.47000000000E+01 0. -1.
<mgrwt>
<rscale>  0 0.26279052E+03</rscale>
<asrwt>0</asrwt>
<pdfrwt beam="1">  1       21 0.42524593E-01 0.26279052E+03</pdfrwt>
<pdfrwt beam="2">  1       21 0.96093171E-02 0.26279052E+03</pdfrwt>
<totfact> 0.45650196E+05</totfact>
</mgrwt>
</event>
<event>
 8    1  0.9331162E-006  0.3587024E+03  0.7546771E-02  0.1059099E+00
         21   -1    0    0  504  503  0.00000000000E+00  0.00000000000E+00  0.15446986760E+03  0.15446986760E+03  0.00000000000E+00 0.  1.
         21   -1    0    0  503  504 -0.00000000000E+00 -0.00000000000E+00 -0.20824035557E+03  0.20824035557E+03  0.00000000000E+00 0.  1.
         25    2    1    2    0    0  0.93858461117E+02  0.75404262894E+02 -0.72622575335E+02  0.18813709858E+03  0.12500526321E+03 0.  0.
         25    2    1    2    0    0 -0.93858461117E+02 -0.75404262894E+02  0.18852087367E+02  0.17457312458E+03  0.12500064417E+03 0.  0.
          5    1    3    3  501    0  0.51012421589E+02  0.59651788252E+02  0.23124771162E+02  0.81960039283E+02  0.47000000000E+01 0.  1.
         -5    1    3    3    0  501  0.42846039528E+02  0.15752474642E+02 -0.95747346497E+02  0.10617705930E+03  0.47000000000E+01 0.  1.
          5    1    4    4  502    0 -0.74755655709E+02 -0.94004938434E+01  0.58137996334E+02  0.95283230228E+02  0.47000000000E+01 0.  1.
         -5    1    4    4    0  502 -0.19102805408E+02 -0.66003769051E+02 -0.39285908967E+02  0.79289894355E+02  0.47000000000E+01 0.  1.
<mgrwt>
<rscale>  0 0.35870244E+03</rscale>
<asrwt>0</asrwt>
<pdfrwt beam="1">  1       21 0.23764595E-01 0.35870244E+03</pdfrwt>
<pdfrwt beam="2">  1       21 0.32036978E-01 0.35870244E+03</pdfrwt>
<totfact> 0.14947564E+05</totfact>
</mgrwt>
</event>
<event>
 8    1  0.9331162E-006  0.2553078E+03  0.7546771E-02  0.1109996E+00
         21   -1    0    0  504  503  0.00000000000E+00  0.00000000000E+00  0.17558245505E+03  0.17558245505E+03  0.00000000000E+00 0. -1.
         21   -1    0    0  503  504 -0.00000000000E+00 -0.00000000000E+00 -0.92808320849E+02  0.92808320849E+02  0.00000000000E+00 0. -1.
         25    2    1    2    0    0 -0.10664574546E+02  0.73221125801E+01  0.64978488542E+02  0.14146487670E+03  0.12499104322E+03 0.  0.
         25    2    1    2    0    0  0.10664574546E+02 -0.73221125801E+01  0.17795645661E+02  0.12692589920E+03  0.12500460951E+03 0.  0.
          5    1    3    3  501    0 -0.20201087495E+02 -0.15411908579E+02  0.97226484503E+02  0.10060164090E+03  0.47000000000E+01 0.  1.
         -5    1    3    3    0  501  0.95365129483E+01  0.22734021159E+02 -0.32247995961E+02  0.40863235809E+02  0.47000000000E+01 0.  1.
          5    1    4    4  502    0  0.62593012639E+02  0.79308402066E+01  0.31819397463E+02  0.70819118270E+02  0.47000000000E+01 0. -1.
         -5    1    4    4    0  502 -0.51928438093E+02 -0.15252952787E+02 -0.14023751801E+02  0.56106780927E+02  0.47000000000E+01 0. -1.
<mgrwt>
<rscale>  0 0.25530776E+03</rscale>
<asrwt>0</asrwt>
<pdfrwt beam="1">  1       21 0.27012685E-01 0.25530776E+03</pdfrwt>
<pdfrwt beam="2">  1       21 0.14278203E-01 0.25530776E+03</pdfrwt>
<totfact> 0.55383523E+05</totfact>
</mgrwt>
</event>
<event>
 8    1  0.9331162E-006  0.2849611E+03  0.7546771E-02  0.1093010E+00
         21   -1    0    0  504  503  0.00000000000E+00  0.00000000000E+00  0.49666276310E+03  0.49666276310E+03  0.00000000000E+00 0.  1.
         21   -1    0    0  503  504 -0.00000000000E+00 -0.00000000000E+00 -0.40874220072E+02  0.40874220072E+02  0.00000000000E+00 0.  1.
         25    2    1    2    0    0  0.54030896703E+02 -0.33192491362E+02  0.17963724405E+03  0.22785001086E+03  0.12500003487E+03 0.  0.
         25    2    1    2    0    0 -0.54030896703E+02  0.33192491362E+02  0.27615129898E+03  0.30968697231E+03  0.12500160643E+03 0.  0.
          5    1    3    3  501    0  0.67606154347E+02  0.29855312643E+02  0.11206249884E+03  0.13432060692E+03  0.47000000000E+01 0. -1.
         -5    1    3    3    0  501 -0.13575257644E+02 -0.63047804005E+02  0.67574745208E+02  0.93529403932E+02  0.47000000000E+01 0. -1.
          5    1    4    4  502    0  0.30910625548E+01 -0.24333820380E+02  0.18870542577E+03  0.19035103676E+03  0.47000000000E+01 0. -1.
         -5    1    4    4    0  502 -0.57121959258E+02  0.57526311742E+02  0.87445873211E+02  0.11933593555E+03  0.47000000000E+01 0. -1.
<mgrwt>
<rscale>  0 0.28496107E+03</rscale>
<asrwt>0</asrwt>
<pdfrwt beam="1">  1       21 0.76409652E-01 0.28496107E+03</pdfrwt>
<pdfrwt beam="2">  1       21 0.62883419E-02 0.28496107E+03</pdfrwt>
<totfact> 0.27080235E+05</totfact>
</mgrwt>
</event>
<event>
 8    1  0.9331162E-006  0.3238513E+03  0.7546771E-02  0.1073890E+00
         21   -1    0    0  504  503  0.00000000000E+00  0.00000000000E+00  0.66836368524E+02  0.66836368524E+02  0.00000000000E+00 0.  1.
         21   -1    0    0  503  504 -0.00000000000E+00 -0.00000000000E+00 -0.39230019001E+03  0.39230019001E+03  0.00000000000E+00 0.  1.
         25    2    1    2    0    0 -0.19395478247E+02 -0.46827563261E+02 -0.28975136076E+03  0.31960813301E+03  0.12499800945E+03 0.  0.
         25    2    1    2    0    0  0.19395478247E+02  0.46827563261E+02 -0.35712460725E+02  0.13952842552E+03  0.12499518559E+03 0.  0.
          5    1    3    3  501    0  0.37326359242E+01  0.35440987407E+02 -0.16128872689E+03  0.16524569459E+03  0.47000000000E+01 0. -1.
         -5    1    3    3    0  501 -0.23128114171E+02 -0.82268550667E+02 -0.12846263386E+03  0.15436243841E+03  0.47000000000E+01 0. -1.
          5    1    4    4  502    0  0.49305116698E+02  0.68694729422E+02  0.42962203450E+01  0.84796862514E+02  0.47000000000E+01 0.  1.
         -5    1    4    4    0  502 -0.29909638451E+02 -0.21867166161E+02 -0.40008681070E+02  0.54731563007E+02  0.47000000000E+01 0.  1.
<mgrwt>
<rscale>  0 0.32385132E+03</rscale>
<asrwt>0</asrwt>
<pdfrwt beam="1">  1       21 0.10282518E-01 0.32385132E+03</pdfrwt>
<pdfrwt beam="2">  1       21 0.60353875E-01 0.32385132E+03</pdfrwt>
<totfact> 0.19076407E+05</totfact>
</mgrwt>
</event>
<event>
 8    1  0.9331162E-006  0.3623407E+03  0.7546771E-02  0.1057661E+00
         21   -1    0    0  504  503  0.00000000000E+00  0.00000000000E+00  0.37252832208E+02  0.37252832208E+02  0.00000000000E+00 0. -1.
         21   -1    0    0  503  504 -0.00000000000E+00 -0.00000000000E+00 -0.88107915855E+03  0.88107915855E+03  0.00000000000E+00 0. -1.
         25    2    1    2    0    0  0.27641160737E+02  0.12037964081E+03 -0.53365915558E+03  0.56184661810E+03  0.12499694493E+03 0.  0.
         25    2    1    2    0    0 -0.27641160737E+02 -0.12037964081E+03 -0.31016717076E+03  0.35648537266E+03  0.12499142136E+03 0.  0.
          5    1    3    3  501    0  0.77086592855E+02  0.74005859069E+02 -0.35205962754E+03  0.36795010710E+03  0.47000000000E+01 0. -1.
         -5    1    3    3    0  501 -0.49445432118E+02  0.46373781746E+02 -0.18159952804E+03  0.19389651099E+03  0.47000000000E+01 0. -1.
          5    1    4    4  502    0 -0.76712832900E+02 -0.83672913986E+02 -0.18635354404E+03  0.21825615373E+03  0.47000000000E+01 0.  1.
         -5    1    4    4    0  502  0.49071672163E+02 -0.36706726828E+02 -0.12381362672E+03  0.13822921892E+03  0.47000000000E+01 0.  1.
<mgrwt>
<rscale>  0 0.36234069E+03</rscale>
<asrwt>0</asrwt>
<pdfrwt beam="1">  1       21 0.57312050E-02 0.36234069E+03</pdfrwt>
<pdfrwt beam="2">  1       21 0.13555064E+00 0.36234069E+03</pdfrwt>
<totfact> 0.77816788E+04</totfact>
</mgrwt>
</event>
<event>
 8    1  0.9331162E-006  0.2515378E+03  0.7546771E-02  0.1112337E+00
         21   -1    0    0  504  503  0.00000000000E+00  0.00000000000E+00  0.38623477668E+03  0.38623477668E+03  0.00000000000E+00 0. -1.
         21   -1    0    0  503  504 -0.00000000000E+00 -0.00000000000E+00 -0.40953885820E+02  0.40953885820E+02  0.00000000000E+00 0. -1.
         25    2    1    2    0    0 -0.18405630758E+01  0.36360446266E+01  0.15011638089E+03  0.19539006217E+03  0.12500296032E+03 0.  0.
         25    2    1    2    0    0  0.18405630758E+01 -0.36360446266E+01  0.19516450997E+03  0.23179860033E+03  0.12499918668E+03 0.  0.
          5    1    3    3  501    0 -0.30754870048E+02 -0.51559880921E+02  0.54827711227E+02  0.81439862909E+02  0.47000000000E+01 0. -1.
         -5    1    3    3    0  501  0.28914306973E+02  0.55195925548E+02  0.95288669664E+02  0.11395019926E+03  0.47000000000E+01 0. -1.
          5    1    4    4  502    0  0.37457987351E+02 -0.47569569958E+02  0.60772059241E+02  0.85914480658E+02  0.47000000000E+01 0.  1.
         -5    1    4    4    0  502 -0.35617424276E+02  0.43933525331E+02  0.13439245073E+03  0.14588411967E+03  0.47000000000E+01 0.  1.
<mgrwt>
<rscale>  0 0.25153779E+03</rscale>
<asrwt>0</asrwt>
<pdfrwt beam="1">  1       21 0.59420732E-01 0.25153779E+03</pdfrwt>
<pdfrwt beam="2">  1       21 0.63005981E-02 0.25153779E+03</pdfrwt>
<totfact> 0.47373814E+05</totfact>
</mgrwt>
</event>
<event>
 8    1  0.9331162E-006  0.4707073E+03  0.7546771E-02  0.1021721E+00
         21   -1    0    0  504  503  0.00000000000E+00  0.00000000000E+00  0.14547012395E+03  0.14547012395E+03  0.00000000000E+00 0.  1.
         21   -1    0    0  503  504 -0.00000000000E+00 -0.00000000000E+00 -0.38077475752E+03  0.38077475752E+03  0.00000000000E+00 0.  1.
         25    2    1    2    0    0 -0.13362265657E+03  0.13630724707E+03 -0.18218486337E+03  0.29197770788E+03  0.12499991002E+03 0.  0.
         25    2    1    2    0    0  0.13362265657E+03 -0.13630724707E+03 -0.53119770199E+02  0.23426717360E+03  0.12499887475E+03 0.  0.
          5    1    3    3  501    0 -0.33474789115E+02  0.29106272290E+02  0.14190644897E+02  0.46810265920E+02  0.47000000000E+01 0.  1.
         -5    1    3    3    0  501 -0.10014786745E+03  0.10720097478E+03 -0.19637550826E+03  0.24516744196E+03  0.47000000000E+01 0.  1.
          5    1    4    4  502    0  0.17628745440E+02  0.23618093445E+02 -0.13318266733E+02  0.32681083711E+02  0.47000000000E+01 0. -1.
         -5    1    4    4    0  502  0.11599391113E+03 -0.15992534052E+03 -0.39801503467E+02  0.20158608989E+03  0.47000000000E+01 0. -1.
<mgrwt>
<rscale>  0 0.47070735E+03</rscale>
<asrwt>0</asrwt>
<pdfrwt beam="1">  1       21 0.22380020E-01 0.47070735E+03</pdfrwt>
<pdfrwt beam="2">  1       21 0.58580731E-01 0.47070735E+03</pdfrwt>
<totfact> 0.46658366E+04</totfact>
</mgrwt>
</event>
<event>
 8    1  0.9331162E-006  0.3342662E+03  0.7546771E-02  0.1069265E+00
         21   -1    0    0  504  503  0.00000000000E+00  0.00000000000E+00  0.61468773137E+02  0.61468773137E+02  0.00000000000E+00 0. -1.
         21   -1    0    0  503  504 -0.00000000000E+00 -0.00000000000E+00 -0.45443343055E+03  0.45443343055E+03  0.00000000000E+00 0. -1.
         25    2    1    2    0    0  0.60106628733E+01  0.10650936961E+03 -0.14946854574E+03  0.22214017560E+03  0.12500015027E+03 0.  0.
         25    2    1    2    0    0 -0.60106628733E+01 -0.10650936961E+03 -0.24349611167E+03  0.29376202809E+03  0.12500159545E+03 0.  0.
          5    1    3    3  501    0  0.35118762878E+02  0.23843716689E+02 -0.12340380315E+03  0.13058498752E+03  0.47000000000E+01 0.  1.
         -5    1    3    3    0  501 -0.29108100005E+02  0.82665652920E+02 -0.26064742585E+02  0.91555188081E+02  0.47000000000E+01 0.  1.
          5    1    4    4  502    0  0.53432206284E+02 -0.17274285983E+02 -0.96627126707E+02  0.11185836241E+03  0.47000000000E+01 0. -1.
         -5    1    4    4    0  502 -0.59442869158E+02 -0.89235083626E+02 -0.14686898496E+03  0.18190366568E+03  0.47000000000E+01 0. -1.
<mgrwt>
<rscale>  0 0.33426615E+03</rscale>
<asrwt>0</asrwt>
<pdfrwt beam="1">  1       21 0.94567342E-02 0.33426615E+03</pdfrwt>
<pdfrwt beam="2">  1       21 0.69912837E-01 0.33426615E+03</pdfrwt>
<totfact> 0.15980155E+05</totfact>
</mgrwt>
</event>
<event>
 8    1  0.9331162E-006  0.2818881E+03  0.7546771E-02  0.1094662E+00
         21   -1    0    0  504  503  0.00000000000E+00  0.00000000000E+00  0.31558042053E+03  0.31558042053E+03  0.00000000000E+00 0. -1.
         21   -1    0    0  503  504 -0.00000000000E+00 -0.00000000000E+00 -0.62948215901E+02  0.62948215901E+02  0.00000000000E+00 0. -1.
         25    2    1    2    0    0  0.54813881902E+02 -0.19538241413E+02  0.87069661489E+02  0.16306976284E+03  0.12499726827E+03 0.  0.
         25    2    1    2    0    0 -0.54813881902E+02  0.19538241413E+02  0.16556254314E+03  0.21545887358E+03  0.12500106396E+03 0.  0.
          5    1    3    3  501    0 -0.16656683565E+02  0.54065884884E+01  0.85298817958E+02  0.87204671042E+02  0.47000000000E+01 0. -1.
         -5    1    3    3    0  501  0.71470565467E+02 -0.24944829902E+02  0.17708435310E+01  0.75865091800E+02  0.47000000000E+01 0. -1.
          5    1    4    4  502    0  0.30949120820E+02  0.37692794598E+02  0.46665932746E+02  0.67663831721E+02  0.47000000000E+01 0.  1.
         -5    1    4    4    0  502 -0.85763002722E+02 -0.18154553185E+02  0.11889661039E+03  0.14779504186E+03  0.47000000000E+01 0.  1.
<mgrwt>
<rscale>  0 0.28188809E+03</rscale>
<asrwt>0</asrwt>
<pdfrwt beam="1">  1       21 0.48550833E-01 0.28188809E+03</pdfrwt>
<pdfrwt beam="2">  1       21 0.96843411E-02 0.28188809E+03</pdfrwt>
<totfact> 0.34079476E+05</totfact>
</mgrwt>
</event>
<event>
 8    1  0.9331162E-006  0.3194263E+03  0.7546771E-02  0.1075914E+00
         21   -1    0    0  504  503  0.00000000000E+00  0.00000000000E+00  0.92746100439E+03  0.92746100439E+03  0.00000000000E+00 0. -1.
         21   -1    0    0  503  504 -0.00000000000E+00 -0.00000000000E+00 -0.27503349542E+02  0.27503349542E+02  0.00000000000E+00 0. -1.
         25    2    1    2    0    0  0.34469815607E+02  0.52265698160E+02  0.68084116201E+03  0.69504871869E+03  0.12501264767E+03 0.  0.
         25    2    1    2    0    0 -0.34469815607E+02 -0.52265698160E+02  0.21911649284E+03  0.25991563524E+03  0.12499691443E+03 0.  0.
          5    1    3    3  501    0  0.57892231852E+01 -0.14577840972E+02  0.79156793394E+01  0.18187262903E+02  0.47000000000E+01 0. -1.
         -5    1    3    3    0  501  0.28680592422E+02  0.66843539132E+02  0.67292548267E+03  0.67686145579E+03  0.47000000000E+01 0. -1.
          5    1    4    4  502    0 -0.76924852566E+02 -0.14747472138E+02  0.93704749537E+02  0.12221943774E+03  0.47000000000E+01 0. -1.
         -5    1    4    4    0  502  0.42455036959E+02 -0.37518226022E+02  0.12541174330E+03  0.13769619750E+03  0.47000000000E+01 0. -1.
<mgrwt>
<rscale>  0 0.31942626E+03</rscale>
<asrwt>0</asrwt>
<pdfrwt beam="1">  1       21 0.14268628E+00 0.31942626E+03</pdfrwt>
<pdfrwt beam="2">  1       21 0.42312853E-02 0.31942626E+03</pdfrwt>
<totfact> 0.11582868E+05</totfact>
</mgrwt>
</event>
<event>
 8    1  0.9331162E-006  0.2546416E+03  0.7546771E-02  0.1110406E+00
         21   -1    0    0  504  503  0.00000000000E+00  0.00000000000E+00  0.17352249747E+03  0.17352249747E+03  0.00000000000E+00 0.  1.
         21   -1    0    0  503  504 -0.00000000000E+00 -0.00000000000E+00 -0.93420650613E+02  0.93420650613E+02  0.00000000000E+00 0.  1.
         25    2    1    2    0    0 -0.81790084684E+01 -0.39196602054E+01  0.63532942201E+02  0.14051413225E+03  0.12500210679E+03 0.  0.
         25    2    1    2    0    0  0.81790084684E+01  0.39196602054E+01  0.16568904658E+02  0.12642901583E+03  0.12501002971E+03 0.  0.
          5    1    3    3  501    0 -0.11807687700E+02 -0.34300565343E+02  0.91659409466E+02  0.98688842406E+02  0.47000000000E+01 0.  1.
         -5    1    3    3    0  501  0.36286792317E+01  0.30380905138E+02 -0.28126467266E+02  0.41825289847E+02  0.47000000000E+01 0.  1.
          5    1    4    4  502    0 -0.18517001089E+02  0.53013674638E+02  0.36240797292E+02  0.66998615032E+02  0.47000000000E+01 0.  1.
         -5    1    4    4    0  502  0.26696009557E+02 -0.49094014432E+02 -0.19671892634E+02  0.59430400799E+02  0.47000000000E+01 0.  1.
<mgrwt>
<rscale>  0 0.25464159E+03</rscale>
<asrwt>0</asrwt>
<pdfrwt beam="1">  1       21 0.26695769E-01 0.25464159E+03</pdfrwt>
<pdfrwt beam="2">  1       21 0.14372408E-01 0.25464159E+03</pdfrwt>
<totfact> 0.55993595E+05</totfact>
</mgrwt>
</event>
<event>
 8    1  0.9331162E-006  0.3025124E+03  0.7546771E-02  0.1083991E+00
         21   -1    0    0  504  503  0.00000000000E+00  0.00000000000E+00  0.13370966084E+02  0.13370966084E+02  0.00000000000E+00 0. -1.
         21   -1    0    0  503  504 -0.00000000000E+00 -0.00000000000E+00 -0.17110535602E+04  0.17110535602E+04  0.00000000000E+00 0. -1.
         25    2    1    2    0    0  0.33932694109E+02  0.64417022367E+02 -0.11006566009E+04  0.11101221242E+04  0.12500078811E+03 0.  0.
         25    2    1    2    0    0 -0.33932694109E+02 -0.64417022367E+02 -0.59702599325E+03  0.61430240212E+03  0.12500569641E+03 0.  0.
          5    1    3    3  501    0 -0.13169808894E+02  0.45083361343E+02 -0.13321827983E+03  0.14133348300E+03  0.47000000000E+01 0.  1.
         -5    1    3    3    0  501  0.47102503003E+02  0.19333661024E+02 -0.96743832107E+03  0.96878864119E+03  0.47000000000E+01 0.  1.
          5    1    4    4  502    0 -0.79815527672E+02 -0.27186580864E+02 -0.31571196381E+03  0.32681150948E+03  0.47000000000E+01 0.  1.
         -5    1    4    4    0  502  0.45882833563E+02 -0.37230441503E+02 -0.28131402944E+03  0.28749089264E+03  0.47000000000E+01 0.  1.
<mgrwt>
<rscale>  0 0.30251241E+03</rscale>
<asrwt>0</asrwt>
<pdfrwt beam="1">  1       21 0.20570714E-02 0.30251241E+03</pdfrwt>
<pdfrwt beam="2">  1       21 0.26323905E+00 0.30251241E+03</pdfrwt>
<totfact> 0.61030197E+04</totfact>
</mgrwt>
</event>
<event>
 8    1  0.9331162E-006  0.3070940E+03  0.7546771E-02  0.1081747E+00
         21   -1    0    0  504  503  0.00000000000E+00  0.00000000000E+00  0.10251982497E+03  0.10251982497E+03  0.00000000000E+00 0.  1.
         21   -1    0    0  503  504 -0.00000000000E+00 -0.00000000000E+00 -0.22997187207E+03  0.22997187207E+03  0.00000000000E+00 0.  1.
         25    2    1    2    0    0  0.13914780875E+02  0.80397318787E+02 -0.10268296906E+03  0.18118133602E+03  0.12500213755E+03 0.  0.
         25    2    1    2    0    0 -0.13914780875E+02 -0.80397318787E+02 -0.24769078049E+02  0.15131036103E+03  0.12499587246E+03 0.  0.
          5    1    3    3  501    0  0.21321716787E+02  0.35638263950E+02  0.22840174296E+02  0.47628405663E+02  0.47000000000E+01 0.  1.
         -5    1    3    3    0  501 -0.74069359124E+01  0.44759054837E+02 -0.12552314335E+03  0.13355293035E+03  0.47000000000E+01 0.  1.
          5    1    4    4  502    0 -0.38039857072E+02 -0.10573984918E+03 -0.27860103389E+02  0.11587157456E+03  0.47000000000E+01 0. -1.
         -5    1    4    4    0  502  0.24125076197E+02  0.25342530394E+02  0.30910253397E+01  0.35438786463E+02  0.47000000000E+01 0. -1.
<mgrwt>
<rscale>  0 0.30709397E+03</rscale>
<asrwt>0</asrwt>
<pdfrwt beam="1">  1       21 0.15772281E-01 0.30709397E+03</pdfrwt>
<pdfrwt beam="2">  1       21 0.35380288E-01 0.30709397E+03</pdfrwt>
<totfact> 0.26827032E+05</totfact>
</mgrwt>
</event>
<event>
 8    1  0.9331162E-006  0.2718873E+03  0.7546771E-02  0.1100204E+00
         21   -1    0    0  504  503  0.00000000000E+00  0.00000000000E+00  0.54000915341E+02  0.54000915341E+02  0.00000000000E+00 0.  1.
         21   -1    0    0  503  504 -0.00000000000E+00 -0.00000000000E+00 -0.34222895577E+03  0.34222895577E+03  0.00000000000E+00 0.  1.
         25    2    1    2    0    0  0.38823996485E+02  0.25315525912E+01 -0.19745627543E+03  0.23691410134E+03  0.12500239696E+03 0.  0.
         25    2    1    2    0    0 -0.38823996485E+02 -0.25315525912E+01 -0.90771765004E+02  0.15931576978E+03  0.12501315817E+03 0.  0.
          5    1    3    3  501    0 -0.31877679653E+02 -0.21924571916E+02 -0.13121240160E+03  0.13687825849E+03  0.47000000000E+01 0.  1.
         -5    1    3    3    0  501  0.70701676138E+02  0.24456124507E+02 -0.66243873833E+02  0.10003584285E+03  0.47000000000E+01 0.  1.
          5    1    4    4  502    0 -0.61882067465E+02 -0.48629485411E+02 -0.49247857020E+02  0.92960521439E+02  0.47000000000E+01 0.  1.
         -5    1    4    4    0  502  0.23058070980E+02  0.46097932820E+02 -0.41523907984E+02  0.66355248337E+02  0.47000000000E+01 0.  1.
<mgrwt>
<rscale>  0 0.27188731E+03</rscale>
<asrwt>0</asrwt>
<pdfrwt beam="1">  1       21 0.83078331E-02 0.27188731E+03</pdfrwt>
<pdfrwt beam="2">  1       21 0.52650609E-01 0.27188731E+03</pdfrwt>
<totfact> 0.37745967E+05</totfact>
</mgrwt>
</event>
<event>
 8    1  0.9331162E-006  0.2713243E+03  0.7546771E-02  0.1100524E+00
         21   -1    0    0  504  503  0.00000000000E+00  0.00000000000E+00  0.36167103030E+03  0.36167103030E+03  0.00000000000E+00 0. -1.
         21   -1    0    0  503  504 -0.00000000000E+00 -0.00000000000E+00 -0.50886646106E+02  0.50886646106E+02  0.00000000000E+00 0. -1.
         25    2    1    2    0    0  0.18688044182E+02 -0.44121135384E+02  0.12166890864E+03  0.18085356668E+03  0.12493506981E+03 0.  0.
         25    2    1    2    0    0 -0.18688044182E+02  0.44121135384E+02  0.18911547555E+03  0.23170410972E+03  0.12500485506E+03 0.  0.
          5    1    3    3  501    0 -0.41531111373E+02 -0.45389291083E+02  0.98331924646E+02  0.11608737382E+03  0.47000000000E+01 0.  1.
         -5    1    3    3    0  501  0.60219155555E+02  0.12681556993E+01  0.23336983993E+02  0.64766192852E+02  0.47000000000E+01 0.  1.
          5    1    4    4  502    0 -0.11143392966E+02 -0.40397942229E+02  0.10017158618E+03  0.10868581150E+03  0.47000000000E+01 0. -1.
         -5    1    4    4    0  502 -0.75446512159E+01  0.84519077612E+02  0.88943889373E+02  0.12301829823E+03  0.47000000000E+01 0. -1.
<mgrwt>
<rscale>  0 0.27132435E+03</rscale>
<asrwt>0</asrwt>
<pdfrwt beam="1">  1       21 0.55641695E-01 0.27132435E+03</pdfrwt>
<pdfrwt beam="2">  1       21 0.78287150E-02 0.27132435E+03</pdfrwt>
<totfact> 0.37249197E+05</totfact>
</mgrwt>
</event>
<event>
 8    1  0.9331162E-006  0.2831139E+03  0.7546771E-02  0.1094000E+00
         21   -1    0    0  504  503  0.00000000000E+00  0.00000000000E+00  0.23765500992E+02  0.23765500992E+02  0.00000000000E+00 0. -1.
         21   -1    0    0  503  504 -0.00000000000E+00 -0.00000000000E+00 -0.84317077759E+03  0.84317077759E+03  0.00000000000E+00 0. -1.
         25    2    1    2    0    0  0.54647409840E+02 -0.36509122575E+02 -0.37996759058E+03  0.40536426860E+03  0.12500225970E+03 0.  0.
         25    2    1    2    0    0 -0.54647409840E+02  0.36509122575E+02 -0.43943768601E+03  0.46157200998E+03  0.12499594024E+03 0.  0.
          5    1    3    3  501    0 -0.51193015441E+01 -0.14382847711E+02 -0.31074181313E+03  0.31115211390E+03  0.47000000000E+01 0.  1.
         -5    1    3    3    0  501  0.59766711385E+02 -0.22126274864E+02 -0.69225777451E+02  0.94212154697E+02  0.47000000000E+01 0.  1.
          5    1    4    4  502    0 -0.29955995409E+02  0.48357318404E+02 -0.66650438374E+02  0.87750571734E+02  0.47000000000E+01 0. -1.
         -5    1    4    4    0  502 -0.24691414431E+02 -0.11848195829E+02 -0.37278724764E+03  0.37382143825E+03  0.47000000000E+01 0. -1.
<mgrwt>
<rscale>  0 0.28311394E+03</rscale>
<asrwt>0</asrwt>
<pdfrwt beam="1">  1       21 0.36562304E-02 0.28311394E+03</pdfrwt>
<pdfrwt beam="2">  1       21 0.12971860E+00 0.28311394E+03</pdfrwt>
<totfact> 0.19194852E+05</totfact>
</mgrwt>
</event>
<event>
 8    1  0.9331162E-006  0.2970170E+03  0.7546771E-02  0.1086741E+00
         21   -1    0    0  504  503  0.00000000000E+00  0.00000000000E+00  0.12473324693E+02  0.12473324693E+02  0.00000000000E+00 0.  1.
         21   -1    0    0  503  504 -0.00000000000E+00 -0.00000000000E+00 -0.17681551603E+04  0.17681551603E+04  0.00000000000E+00 0.  1.
         25    2    1    2    0    0 -0.57309010373E+01  0.21477192033E+02 -0.13397224238E+04  0.13457247204E+04  0.12499894962E+03 0.  0.
         25    2    1    2    0    0  0.57309010373E+01 -0.21477192033E+02 -0.41595941181E+03  0.43490376454E+03  0.12499975654E+03 0.  0.
          5    1    3    3  501    0 -0.65146990403E+02  0.10611622793E+02 -0.66127293958E+03  0.66457559955E+03  0.47000000000E+01 0.  1.
         -5    1    3    3    0  501  0.59416089365E+02  0.10865569239E+02 -0.67844948421E+03  0.68114912089E+03  0.47000000000E+01 0.  1.
          5    1    4    4  502    0 -0.19115673705E+02  0.86291259849E+01 -0.38299050398E+03  0.38359312681E+03  0.47000000000E+01 0. -1.
         -5    1    4    4    0  502  0.24846574742E+02 -0.30106318018E+02 -0.32968907828E+02  0.51310637731E+02  0.47000000000E+01 0. -1.
<mgrwt>
<rscale>  0 0.29701699E+03</rscale>
<asrwt>0</asrwt>
<pdfrwt beam="1">  1       21 0.19189729E-02 0.29701699E+03</pdfrwt>
<pdfrwt beam="2">  1       21 0.27202389E+00 0.29701699E+03</pdfrwt>
<totfact> 0.60831325E+04</totfact>
</mgrwt>
</event>
<event>
 8    1  0.9331162E-006  0.2785578E+03  0.7546771E-02  0.1096479E+00
         21   -1    0    0  504  503  0.00000000000E+00  0.00000000000E+00  0.93001883704E+02  0.93001883704E+02  0.00000000000E+00 0.  1.
         21   -1    0    0  503  504 -0.00000000000E+00 -0.00000000000E+00 -0.20858292712E+03  0.20858292712E+03  0.00000000000E+00 0.  1.
         25    2    1    2    0    0 -0.25059086784E+02 -0.44062383268E+02 -0.95374161966E+02  0.16518709322E+03  0.12498437321E+03 0.  0.
         25    2    1    2    0    0  0.25059086784E+02  0.44062383268E+02 -0.20206881452E+02  0.13639771760E+03  0.12500627128E+03 0.  0.
          5    1    3    3  501    0  0.50499038938E+01  0.41329831488E+02 -0.16567159842E+02  0.45057932547E+02  0.47000000000E+01 0.  1.
         -5    1    3    3    0  501 -0.30108990678E+02 -0.85392214756E+02 -0.78807002125E+02  0.12012916068E+03  0.47000000000E+01 0.  1.
          5    1    4    4  502    0 -0.40813556989E+02  0.53691536358E+02 -0.40279523604E+01  0.67726227643E+02  0.47000000000E+01 0. -1.
         -5    1    4    4    0  502  0.65872643773E+02 -0.96291530898E+01 -0.16178929092E+02  0.68671489961E+02  0.47000000000E+01 0. -1.
<mgrwt>
<rscale>  0 0.27855775E+03</rscale>
<asrwt>0</asrwt>
<pdfrwt beam="1">  1       21 0.14307982E-01 0.27855775E+03</pdfrwt>
<pdfrwt beam="2">  1       21 0.32089681E-01 0.27855775E+03</pdfrwt>
<totfact> 0.39206048E+05</totfact>
</mgrwt>
</event>
<event>
 8    1  0.9331162E-006  0.3601835E+03  0.7546771E-02  0.1058511E+00
         21   -1    0    0  504  503  0.00000000000E+00  0.00000000000E+00  0.31650587954E+02  0.31650587954E+02  0.00000000000E+00 0. -1.
         21   -1    0    0  503  504 -0.00000000000E+00 -0.00000000000E+00 -0.10247215614E+04  0.10247215614E+04  0.00000000000E+00 0. -1.
         25    2    1    2    0    0  0.84994228139E+02 -0.29965888929E+02 -0.22316589524E+03  0.27119677780E+03  0.12499080835E+03 0.  0.
         25    2    1    2    0    0 -0.84994228139E+02  0.29965888929E+02 -0.76990507816E+03  0.78517537151E+03  0.12499824534E+03 0.  0.
          5    1    3    3  501    0  0.97552860940E+01 -0.25054719524E+02  0.76385789630E+01  0.28343296664E+02  0.47000000000E+01 0.  1.
         -5    1    3    3    0  501  0.75238942045E+02 -0.49111694044E+01 -0.23080447421E+03  0.24285348113E+03  0.47000000000E+01 0.  1.
          5    1    4    4  502    0 -0.71733769749E+02  0.39259234036E+02 -0.76228384429E+03  0.76667187926E+03  0.47000000000E+01 0.  1.
         -5    1    4    4    0  502 -0.13260458389E+02 -0.92933451069E+01 -0.76212338720E+01  0.18503492257E+02  0.47000000000E+01 0.  1.
<mgrwt>
<rscale>  0 0.36018351E+03</rscale>
<asrwt>0</asrwt>
<pdfrwt beam="1">  1       21 0.48693216E-02 0.36018351E+03</pdfrwt>
<pdfrwt beam="2">  1       21 0.15764946E+00 0.36018351E+03</pdfrwt>
<totfact> 0.68826091E+04</totfact>
</mgrwt>
</event>
<event>
 8    1  0.9331162E-006  0.2711131E+03  0.7546771E-02  0.1100644E+00
         21   -1    0    0  504  503  0.00000000000E+00  0.00000000000E+00  0.11748328244E+03  0.11748328244E+03  0.00000000000E+00 0. -1.
         21   -1    0    0  503  504 -0.00000000000E+00 -0.00000000000E+00 -0.15641018918E+03  0.15641018918E+03  0.00000000000E+00 0. -1.
         25    2    1    2    0    0 -0.62391875844E+01 -0.13699492492E+02 -0.70196350205E+02  0.14414857308E+03  0.12499871992E+03 0.  0.
         25    2    1    2    0    0  0.62391875844E+01  0.13699492492E+02  0.31269443469E+02  0.12974489854E+03  0.12501742697E+03 0.  0.
          5    1    3    3  501    0 -0.12589343476E+02 -0.50616886033E+02 -0.88002811850E+02  0.10240676547E+03  0.47000000000E+01 0. -1.
         -5    1    3    3    0  501  0.63501558915E+01  0.36917393541E+02  0.17806461645E+02  0.41741807604E+02  0.47000000000E+01 0. -1.
          5    1    4    4  502    0 -0.41469678390E+02  0.47864458292E+02  0.31474090694E+02  0.70876293486E+02  0.47000000000E+01 0.  1.
         -5    1    4    4    0  502  0.47708865975E+02 -0.34164965800E+02 -0.20464722462E+00  0.58868605056E+02  0.47000000000E+01 0.  1.
<mgrwt>
<rscale>  0 0.27111313E+03</rscale>
<asrwt>0</asrwt>
<pdfrwt beam="1">  1       21 0.18074351E-01 0.27111313E+03</pdfrwt>
<pdfrwt beam="2">  1       21 0.24063106E-01 0.27111313E+03</pdfrwt>
<totfact> 0.44681176E+05</totfact>
</mgrwt>
</event>
<event>
 8    1  0.9331162E-006  0.3573838E+03  0.7546771E-02  0.1059625E+00
         21   -1    0    0  504  503  0.00000000000E+00  0.00000000000E+00  0.53343461380E+02  0.53343461380E+02  0.00000000000E+00 0.  1.
         21   -1    0    0  503  504 -0.00000000000E+00 -0.00000000000E+00 -0.59858868703E+03  0.59858868703E+03  0.00000000000E+00 0.  1.
         25    2    1    2    0    0 -0.11254126359E+03 -0.22682468158E+02 -0.37464402054E+03  0.41129482618E+03  0.12500104617E+03 0.  0.
         25    2    1    2    0    0  0.11254126359E+03  0.22682468158E+02 -0.17060120511E+03  0.24063732223E+03  0.12498607640E+03 0.  0.
          5    1    3    3  501    0 -0.11977526747E+02  0.26468045578E+02 -0.21059770172E+03  0.21264407012E+03  0.47000000000E+01 0.  1.
         -5    1    3    3    0  501 -0.10056373684E+03 -0.49150513737E+02 -0.16404631882E+03  0.19865075607E+03  0.47000000000E+01 0.  1.
          5    1    4    4  502    0  0.35132468081E+02  0.36632742409E+01 -0.15529900682E+03  0.15933480916E+03  0.47000000000E+01 0. -1.
         -5    1    4    4    0  502  0.77408795505E+02  0.19019193917E+02 -0.15302198291E+02  0.81302513069E+02  0.47000000000E+01 0. -1.
<mgrwt>
<rscale>  0 0.35738379E+03</rscale>
<asrwt>0</asrwt>
<pdfrwt beam="1">  1       21 0.82066857E-02 0.35738379E+03</pdfrwt>
<pdfrwt beam="2">  1       21 0.92090575E-01 0.35738379E+03</pdfrwt>
<totfact> 0.10851666E+05</totfact>
</mgrwt>
</event>
<event>
 8    1  0.9331162E-006  0.3227919E+03  0.7546771E-02  0.1074371E+00
         21   -1    0    0  504  503  0.00000000000E+00  0.00000000000E+00  0.11264700465E+03  0.11264700465E+03  0.00000000000E+00 0. -1.
         21   -1    0    0  503  504 -0.00000000000E+00 -0.00000000000E+00 -0.23124146731E+03  0.23124146731E+03  0.00000000000E+00 0. -1.
         25    2    1    2    0    0 -0.58867623626E+02 -0.78900442932E+02 -0.88185405727E+02  0.18190097223E+03  0.12498248240E+03 0.  0.
         25    2    1    2    0    0  0.58867623626E+02  0.78900442932E+02 -0.30409056930E+02  0.16198749974E+03  0.12499824927E+03 0.  0.
          5    1    3    3  501    0  0.22568724628E+02 -0.13031700171E+02 -0.70842787789E+02  0.75630437804E+02  0.47000000000E+01 0. -1.
         -5    1    3    3    0  501 -0.81436348255E+02 -0.65868742760E+02 -0.17342617938E+02  0.10627053442E+03  0.47000000000E+01 0. -1.
          5    1    4    4  502    0 -0.33719193797E+01 -0.27793058059E+02  0.12667968014E+02  0.31086835319E+02  0.47000000000E+01 0.  1.
         -5    1    4    4    0  502  0.62239543006E+02  0.10669350099E+03 -0.43077024944E+02  0.13090066442E+03  0.47000000000E+01 0.  1.
<mgrwt>
<rscale>  0 0.32279194E+03</rscale>
<asrwt>0</asrwt>
<pdfrwt beam="1">  1       21 0.17330309E-01 0.32279194E+03</pdfrwt>
<pdfrwt beam="2">  1       21 0.35575610E-01 0.32279194E+03</pdfrwt>
<totfact> 0.22205983E+05</totfact>
</mgrwt>
</event>
<event>
 8    1  0.9331162E-006  0.4705516E+03  0.7546771E-02  0.1021765E+00
         21   -1    0    0  504  503  0.00000000000E+00  0.00000000000E+00  0.28046042708E+03  0.28046042708E+03  0.00000000000E+00 0. -1.
         21   -1    0    0  503  504 -0.00000000000E+00 -0.00000000000E+00 -0.19737084842E+03  0.19737084842E+03  0.00000000000E+00 0. -1.
         25    2    1    2    0    0  0.33859545551E+02 -0.14514154439E+03  0.17590376738E+03  0.26225878738E+03  0.12499999778E+03 0.  0.
         25    2    1    2    0    0 -0.33859545551E+02  0.14514154439E+03 -0.92814188728E+02  0.21557248812E+03  0.12507792481E+03 0.  0.
          5    1    3    3  501    0 -0.43875043669E+02 -0.44709257679E+02  0.32786780901E+02  0.70859016229E+02  0.47000000000E+01 0. -1.
         -5    1    3    3    0  501  0.77734589221E+02 -0.10043228671E+03  0.14311698648E+03  0.19139977115E+03  0.47000000000E+01 0. -1.
          5    1    4    4  502    0 -0.81387121916E+02  0.85891926710E+02 -0.58803510939E+02  0.13221660102E+03  0.47000000000E+01 0.  1.
         -5    1    4    4    0  502  0.47527576365E+02  0.59249617679E+02 -0.34010677789E+02  0.83355887098E+02  0.47000000000E+01 0.  1.
<mgrwt>
<rscale>  0 0.47055164E+03</rscale>
<asrwt>0</asrwt>
<pdfrwt beam="1">  1       21 0.43147758E-01 0.47055164E+03</pdfrwt>
<pdfrwt beam="2">  1       21 0.30364746E-01 0.47055164E+03</pdfrwt>
<totfact> 0.49283795E+04</totfact>
</mgrwt>
</event>
<event>
 8    1  0.9331162E-006  0.3873406E+03  0.7546771E-02  0.1048254E+00
         21   -1    0    0  504  503  0.00000000000E+00  0.00000000000E+00  0.58617601937E+02  0.58617601937E+02  0.00000000000E+00 0.  1.
         21   -1    0    0  503  504 -0.00000000000E+00 -0.00000000000E+00 -0.63987909152E+03  0.63987909152E+03  0.00000000000E+00 0.  1.
         25    2    1    2    0    0 -0.94241956267E+02 -0.45754938053E+02 -0.47897673731E+03  0.50598254159E+03  0.12499822734E+03 0.  0.
         25    2    1    2    0    0  0.94241956267E+02  0.45754938053E+02 -0.10228475228E+03  0.19251415187E+03  0.12499786976E+03 0.  0.
          5    1    3    3  501    0 -0.11377706949E+03 -0.67987162180E+02 -0.37435996932E+03  0.39715859854E+03  0.47000000000E+01 0. -1.
         -5    1    3    3    0  501  0.19535113220E+02  0.22232224128E+02 -0.10461676799E+03  0.10882394306E+03  0.47000000000E+01 0. -1.
          5    1    4    4  502    0  0.80044796749E+01 -0.37716590250E+02 -0.76183628202E+01  0.39582096041E+02  0.47000000000E+01 0.  1.
         -5    1    4    4    0  502  0.86237476592E+02  0.83471528302E+02 -0.94666389462E+02  0.15293205583E+03  0.47000000000E+01 0.  1.
<mgrwt>
<rscale>  0 0.38734056E+03</rscale>
<asrwt>0</asrwt>
<pdfrwt beam="1">  1       21 0.90180922E-02 0.38734056E+03</pdfrwt>
<pdfrwt beam="2">  1       21 0.98442942E-01 0.38734056E+03</pdfrwt>
<totfact> 0.77731838E+04</totfact>
</mgrwt>
</event>
<event>
 8    1  0.9331162E-006  0.4052787E+03  0.7546771E-02  0.1041967E+00
         21   -1    0    0  504  503  0.00000000000E+00  0.00000000000E+00  0.50364899925E+02  0.50364899925E+02  0.00000000000E+00 0. -1.
         21   -1    0    0  503  504 -0.00000000000E+00 -0.00000000000E+00 -0.81530391100E+03  0.81530391100E+03  0.00000000000E+00 0. -1.
         25    2    1    2    0    0  0.10558724990E+02  0.13169215570E+03 -0.19164359176E+03  0.26421293751E+03  0.12500759793E+03 0.  0.
         25    2    1    2    0    0 -0.10558724990E+02 -0.13169215570E+03 -0.57329541931E+03  0.60145587341E+03  0.12500887692E+03 0.  0.
          5    1    3    3  501    0  0.16123220843E+02  0.14259997731E+03 -0.20176842694E+03  0.24764349353E+03  0.47000000000E+01 0. -1.
         -5    1    3    3    0  501 -0.55644958533E+01 -0.10907821609E+02  0.10124835182E+02  0.16569443980E+02  0.47000000000E+01 0. -1.
          5    1    4    4  502    0  0.56137429179E+02 -0.76254887959E+02 -0.31399699805E+03  0.32799759706E+03  0.47000000000E+01 0. -1.
         -5    1    4    4    0  502 -0.66696154169E+02 -0.55437267737E+02 -0.25929842126E+03  0.27345827635E+03  0.47000000000E+01 0. -1.
<mgrwt>
<rscale>  0 0.40527867E+03</rscale>
<asrwt>0</asrwt>
<pdfrwt beam="1">  1       21 0.77484465E-02 0.40527867E+03</pdfrwt>
<pdfrwt beam="2">  1       21 0.12543137E+00 0.40527867E+03</pdfrwt>
<totfact> 0.55485672E+04</totfact>
</mgrwt>
</event>
<event>
 8    1  0.9331162E-006  0.2862908E+03  0.7546771E-02  0.1092302E+00
         21   -1    0    0  504  503  0.00000000000E+00  0.00000000000E+00  0.25120098684E+03  0.25120098684E+03  0.00000000000E+00 0.  1.
         21   -1    0    0  503  504 -0.00000000000E+00 -0.00000000000E+00 -0.81570589752E+02  0.81570589752E+02  0.00000000000E+00 0.  1.
         25    2    1    2    0    0 -0.17613085926E+02 -0.60055816844E+02  0.48996583587E+02  0.14812451857E+03  0.12499314328E+03 0.  0.
         25    2    1    2    0    0  0.17613085926E+02  0.60055816844E+02  0.12063381350E+03  0.18464705802E+03  0.12500038857E+03 0.  0.
          5    1    3    3  501    0  0.31791962777E+02 -0.39654324796E+02  0.73217780394E+02  0.89253166543E+02  0.47000000000E+01 0.  1.
         -5    1    3    3    0  501 -0.49405048704E+02 -0.20401492048E+02 -0.24221196807E+02  0.58871352031E+02  0.47000000000E+01 0.  1.
          5    1    4    4  502    0 -0.53174884209E+02  0.33226590829E+02  0.66100570197E+02  0.91230203492E+02  0.47000000000E+01 0. -1.
         -5    1    4    4    0  502  0.70787970135E+02  0.26829226015E+02  0.54533243304E+02  0.93416854527E+02  0.47000000000E+01 0. -1.
<mgrwt>
<rscale>  0 0.28629085E+03</rscale>
<asrwt>0</asrwt>
<pdfrwt beam="1">  1       21 0.38646305E-01 0.28629085E+03</pdfrwt>
<pdfrwt beam="2">  1       21 0.12549322E-01 0.28629085E+03</pdfrwt>
<totfact> 0.34240133E+05</totfact>
</mgrwt>
</event>
<event>
 8    1  0.9331162E-006  0.2668856E+03  0.7546771E-02  0.1103075E+00
         21   -1    0    0  504  503  0.00000000000E+00  0.00000000000E+00  0.87516645790E+02  0.87516645790E+02  0.00000000000E+00 0.  1.
         21   -1    0    0  503  504 -0.00000000000E+00 -0.00000000000E+00 -0.20346963761E+03  0.20346963761E+03  0.00000000000E+00 0.  1.
         25    2    1    2    0    0  0.45162943706E+02  0.11792273523E+02 -0.59539064411E+02  0.14611370951E+03  0.12500226685E+03 0.  0.
         25    2    1    2    0    0 -0.45162943706E+02 -0.11792273523E+02 -0.56413927413E+02  0.14487257389E+03  0.12500712884E+03 0.  0.
          5    1    3    3  501    0 -0.23512861679E+00  0.16446169615E+02 -0.89630424487E+02  0.91248204225E+02  0.47000000000E+01 0. -1.
         -5    1    3    3    0  501  0.45398072323E+02 -0.46538960921E+01  0.30091360076E+02  0.54865505289E+02  0.47000000000E+01 0. -1.
          5    1    4    4  502    0 -0.18337876274E+02  0.21036222188E+01 -0.94291052391E+02  0.96195610573E+02  0.47000000000E+01 0. -1.
         -5    1    4    4    0  502 -0.26825067432E+02 -0.13895895742E+02  0.37877124978E+02  0.48676963317E+02  0.47000000000E+01 0. -1.
<mgrwt>
<rscale>  0 0.26688559E+03</rscale>
<asrwt>0</asrwt>
<pdfrwt beam="1">  1       21 0.13464100E-01 0.26688559E+03</pdfrwt>
<pdfrwt beam="2">  1       21 0.31303021E-01 0.26688559E+03</pdfrwt>
<totfact> 0.46104422E+05</totfact>
</mgrwt>
</event>
<event>
 8    1  0.9331162E-006  0.2810350E+03  0.7546771E-02  0.1095125E+00
         21   -1    0    0  504  503  0.00000000000E+00  0.00000000000E+00  0.27711950808E+02  0.27711950808E+02  0.00000000000E+00 0.  1.
         21   -1    0    0  503  504 -0.00000000000E+00 -0.00000000000E+00 -0.71251433293E+03  0.71251433293E+03  0.00000000000E+00 0.  1.
         25    2    1    2    0    0 -0.33773062404E+02 -0.46393172800E+02 -0.26653310743E+03  0.29992908833E+03  0.12499845776E+03 0.  0.
         25    2    1    2    0    0  0.33773062404E+02  0.46393172800E+02 -0.41826927468E+03  0.44029719540E+03  0.12497794968E+03 0.  0.
          5    1    3    3  501    0  0.36465780669E+02 -0.53671112095E+02 -0.15137212069E+03  0.16476028149E+03  0.47000000000E+01 0. -1.
         -5    1    3    3    0  501 -0.70238843073E+02  0.72779392951E+01 -0.11516098675E+03  0.13516880685E+03  0.47000000000E+01 0. -1.
          5    1    4    4  502    0 -0.19690803972E+02  0.95424882393E+01 -0.63483117389E+01  0.23263230747E+02  0.47000000000E+01 0.  1.
         -5    1    4    4    0  502  0.53463866376E+02  0.36850684561E+02 -0.41192096295E+03  0.41703396465E+03  0.47000000000E+01 0.  1.
<mgrwt>
<rscale>  0 0.28103496E+03</rscale>
<asrwt>0</asrwt>
<pdfrwt beam="1">  1       21 0.42633768E-02 0.28103496E+03</pdfrwt>
<pdfrwt beam="2">  1       21 0.10961760E+00 0.28103496E+03</pdfrwt>
<totfact> 0.22568104E+05</totfact>
</mgrwt>
</event>
<event>
 8    1  0.9331162E-006  0.2532844E+03  0.7546771E-02  0.1111247E+00
         21   -1    0    0  504  503  0.00000000000E+00  0.00000000000E+00  0.64121823766E+02  0.64121823766E+02  0.00000000000E+00 0. -1.
         21   -1    0    0  503  504 -0.00000000000E+00 -0.00000000000E+00 -0.25012140433E+03  0.25012140433E+03  0.00000000000E+00 0. -1.
         25    2    1    2    0    0  0.13152862411E+02 -0.14760208219E+02 -0.87348942386E+02  0.15377896469E+03  0.12500908250E+03 0.  0.
         25    2    1    2    0    0 -0.13152862411E+02  0.14760208219E+02 -0.98650638178E+02  0.16046426341E+03  0.12500387947E+03 0.  0.
          5    1    3    3  501    0  0.17076571980E+02  0.44361906661E+02 -0.80956330966E+02  0.93997902086E+02  0.47000000000E+01 0.  1.
         -5    1    3    3    0  501 -0.39237095681E+01 -0.59122114880E+02 -0.63926114199E+01  0.59781062599E+02  0.47000000000E+01 0.  1.
          5    1    4    4  502    0  0.10138332476E+02 -0.19354107312E+02 -0.11398322748E+03  0.11615349070E+03  0.47000000000E+01 0.  1.
         -5    1    4    4    0  502 -0.23291194888E+02  0.34114315531E+02  0.15332589302E+02  0.44310772710E+02  0.47000000000E+01 0.  1.
<mgrwt>
<rscale>  0 0.25328435E+03</rscale>
<asrwt>0</asrwt>
<pdfrwt beam="1">  1       21 0.98648960E-02 0.25328435E+03</pdfrwt>
<pdfrwt beam="2">  1       21 0.38480216E-01 0.25328435E+03</pdfrwt>
<totfact> 0.53504582E+05</totfact>
</mgrwt>
</event>
<event>
 8    1  0.9331162E-006  0.4092557E+03  0.7546771E-02  0.1040621E+00
         21   -1    0    0  504  503  0.00000000000E+00  0.00000000000E+00  0.51689935724E+02  0.51689935724E+02  0.00000000000E+00 0. -1.
         21   -1    0    0  503  504 -0.00000000000E+00 -0.00000000000E+00 -0.81007171828E+03  0.81007171828E+03  0.00000000000E+00 0. -1.
         25    2    1    2    0    0 -0.32662203258E+02 -0.24833990914E+02 -0.49155303037E+02  0.14043646989E+03  0.12499044617E+03 0.  0.
         25    2    1    2    0    0  0.32662203258E+02  0.24833990914E+02 -0.70922647952E+03  0.72132518411E+03  0.12499710138E+03 0.  0.
          5    1    3    3  501    0  0.51845326582E+01 -0.43646274059E+02 -0.77577783627E+02  0.89287620254E+02  0.47000000000E+01 0.  1.
         -5    1    3    3    0  501 -0.37846735917E+02  0.18812283145E+02  0.28422480590E+02  0.51148849640E+02  0.47000000000E+01 0.  1.
          5    1    4    4  502    0  0.23750168580E+02 -0.30642424578E+02 -0.56680444532E+03  0.56814821828E+03  0.47000000000E+01 0.  1.
         -5    1    4    4    0  502  0.89120346779E+01  0.55476415491E+02 -0.14242203420E+03  0.15317696584E+03  0.47000000000E+01 0.  1.
<mgrwt>
<rscale>  0 0.40925569E+03</rscale>
<asrwt>0</asrwt>
<pdfrwt beam="1">  1       21 0.79522981E-02 0.40925569E+03</pdfrwt>
<pdfrwt beam="2">  1       21 0.12462641E+00 0.40925569E+03</pdfrwt>
<totfact> 0.53823334E+04</totfact>
</mgrwt>
</event>
<event>
 8    1  0.9331162E-006  0.2593724E+03  0.7546771E-02  0.1107521E+00
         21   -1    0    0  504  503  0.00000000000E+00  0.00000000000E+00  0.69686764119E+01  0.69686764119E+01  0.00000000000E+00 0. -1.
         21   -1    0    0  503  504 -0.00000000000E+00 -0.00000000000E+00 -0.24134442361E+04  0.24134442361E+04  0.00000000000E+00 0. -1.
         25    2    1    2    0    0 -0.29814307176E+02 -0.43238634705E+01 -0.10445090531E+04  0.10523904882E+04  0.12497595359E+03 0.  0.
         25    2    1    2    0    0  0.29814307176E+02  0.43238634705E+01 -0.13619665066E+04  0.13680224243E+04  0.12499999839E+03 0.  0.
          5    1    3    3  501    0 -0.30819494732E+02 -0.24743101745E+02 -0.10170843218E+04  0.10178627953E+04  0.47000000000E+01 0.  1.
         -5    1    3    3    0  501  0.10051875557E+01  0.20419238275E+02 -0.27424731317E+02  0.34527692966E+02  0.47000000000E+01 0.  1.
          5    1    4    4  502    0 -0.46111653274E+02  0.19892530675E+02 -0.47899758444E+03  0.48164590027E+03  0.47000000000E+01 0. -1.
         -5    1    4    4    0  502  0.75925960450E+02 -0.15568667205E+02 -0.88296892215E+03  0.88637652403E+03  0.47000000000E+01 0. -1.
<mgrwt>
<rscale>  0 0.25937241E+03</rscale>
<asrwt>0</asrwt>
<pdfrwt beam="1">  1       21 0.10721026E-02 0.25937241E+03</pdfrwt>
<pdfrwt beam="2">  1       21 0.37129963E+00 0.25937241E+03</pdfrwt>
<totfact> 0.41193221E+04</totfact>
</mgrwt>
</event>
<event>
 8    1  0.9331162E-006  0.3216889E+03  0.7546771E-02  0.1074875E+00
         21   -1    0    0  504  503  0.00000000000E+00  0.00000000000E+00  0.59136518709E+03  0.59136518709E+03  0.00000000000E+00 0. -1.
         21   -1    0    0  503  504 -0.00000000000E+00 -0.00000000000E+00 -0.43747816280E+02  0.43747816280E+02  0.00000000000E+00 0. -1.
         25    2    1    2    0    0  0.48020308466E+01  0.65712595350E+02  0.42550211716E+03  0.44835508172E+03  0.12501609059E+03 0.  0.
         25    2    1    2    0    0 -0.48020308466E+01 -0.65712595350E+02  0.12211525365E+03  0.18675792165E+03  0.12500072575E+03 0.  0.
          5    1    3    3  501    0  0.33184601846E+02  0.20806262203E+02  0.36730557836E+03  0.36941791543E+03  0.47000000000E+01 0.  1.
         -5    1    3    3    0  501 -0.28382570999E+02  0.44906333147E+02  0.58196538800E+02  0.78937166287E+02  0.47000000000E+01 0.  1.
          5    1    4    4  502    0  0.18775993592E+02 -0.97638014047E+02  0.99939818518E+02  0.14105239115E+03  0.47000000000E+01 0. -1.
         -5    1    4    4    0  502 -0.23578024438E+02  0.31925418697E+02  0.22175435127E+02  0.45705530502E+02  0.47000000000E+01 0. -1.
<mgrwt>
<rscale>  0 0.32168889E+03</rscale>
<asrwt>0</asrwt>
<pdfrwt beam="1">  1       21 0.90979254E-01 0.32168889E+03</pdfrwt>
<pdfrwt beam="2">  1       21 0.67304337E-02 0.32168889E+03</pdfrwt>
<totfact> 0.15951102E+05</totfact>
</mgrwt>
</event>
<event>
 8    1  0.9331162E-006  0.2980052E+03  0.7546771E-02  0.1086242E+00
         21   -1    0    0  504  503  0.00000000000E+00  0.00000000000E+00  0.36251992070E+02  0.36251992070E+02  0.00000000000E+00 0. -1.
         21   -1    0    0  503  504 -0.00000000000E+00 -0.00000000000E+00 -0.61242898350E+03  0.61242898350E+03  0.00000000000E+00 0. -1.
         25    2    1    2    0    0  0.33754656704E+02 -0.66903779573E+02 -0.35596316128E+03  0.38464356200E+03  0.12500162010E+03 0.  0.
         25    2    1    2    0    0 -0.33754656704E+02  0.66903779573E+02 -0.22021383015E+03  0.26403741357E+03  0.12492450603E+03 0.  0.
          5    1    3    3  501    0  0.33979681490E+02  0.19305878441E+02 -0.36367452728E+02  0.53591205571E+02  0.47000000000E+01 0. -1.
         -5    1    3    3    0  501 -0.22502478621E+00 -0.86209658015E+02 -0.31959570855E+03  0.33105235642E+03  0.47000000000E+01 0. -1.
          5    1    4    4  502    0 -0.46049072340E+02  0.12686387902E+02 -0.19841580481E+03  0.20413814710E+03  0.47000000000E+01 0.  1.
         -5    1    4    4    0  502  0.12294415636E+02  0.54217391671E+02 -0.21798025336E+02  0.59899266473E+02  0.47000000000E+01 0.  1.
<mgrwt>
<rscale>  0 0.29800517E+03</rscale>
<asrwt>0</asrwt>
<pdfrwt beam="1">  1       21 0.55772294E-02 0.29800517E+03</pdfrwt>
<pdfrwt beam="2">  1       21 0.94219846E-01 0.29800517E+03</pdfrwt>
<totfact> 0.20453285E+05</totfact>
</mgrwt>
</event>
<event>
 8    1  0.9331162E-006  0.3281255E+03  0.7546771E-02  0.1071969E+00
         21   -1    0    0  504  503  0.00000000000E+00  0.00000000000E+00  0.29355758918E+03  0.29355758918E+03  0.00000000000E+00 0. -1.
         21   -1    0    0  503  504 -0.00000000000E+00 -0.00000000000E+00 -0.91690986763E+02  0.91690986763E+02  0.00000000000E+00 0. -1.
         25    2    1    2    0    0  0.75449259086E+02 -0.55143848065E+02  0.16031974781E+03  0.22374294502E+03  0.12500019693E+03 0.  0.
         25    2    1    2    0    0 -0.75449259086E+02  0.55143848065E+02  0.41546854609E+02  0.16150563093E+03  0.12499797205E+03 0.  0.
          5    1    3    3  501    0  0.84309586306E+02 -0.75865705273E+02  0.16497425604E+03  0.20025560350E+03  0.47000000000E+01 0.  1.
         -5    1    3    3    0  501 -0.88603272203E+01  0.20721857208E+02 -0.46545082284E+01  0.23487341515E+02  0.47000000000E+01 0.  1.
          5    1    4    4  502    0 -0.99415650388E+02  0.69390561874E+02  0.51114820128E+02  0.13165612958E+03  0.47000000000E+01 0.  1.
         -5    1    4    4    0  502  0.23966391302E+02 -0.14246713809E+02 -0.95679655195E+01  0.29849501346E+02  0.47000000000E+01 0.  1.
<mgrwt>
<rscale>  0 0.32812549E+03</rscale>
<asrwt>0</asrwt>
<pdfrwt beam="1">  1       21 0.45162706E-01 0.32812549E+03</pdfrwt>
<pdfrwt beam="2">  1       21 0.14106306E-01 0.32812549E+03</pdfrwt>
<totfact> 0.19916965E+05</totfact>
</mgrwt>
</event>
<event>
 8    1  0.9331162E-006  0.2892515E+03  0.7546771E-02  0.1090741E+00
         21   -1    0    0  504  503  0.00000000000E+00  0.00000000000E+00  0.22512079093E+03  0.22512079093E+03  0.00000000000E+00 0. -1.
         21   -1    0    0  503  504 -0.00000000000E+00 -0.00000000000E+00 -0.92912817953E+02  0.92912817953E+02  0.00000000000E+00 0. -1.
         25    2    1    2    0    0 -0.69183078667E+02  0.14579704348E+02  0.84924685087E+02  0.16683990441E+03  0.12499794164E+03 0.  0.
         25    2    1    2    0    0  0.69183078667E+02 -0.14579704348E+02  0.47283287887E+02  0.15119370447E+03  0.12499984322E+03 0.  0.
          5    1    3    3  501    0 -0.85969382642E+02  0.50359183559E+02  0.77591982190E+02  0.12637004321E+03  0.47000000000E+01 0. -1.
         -5    1    3    3    0  501  0.16786303975E+02 -0.35779479211E+02  0.73327028966E+01  0.40469861199E+02  0.47000000000E+01 0. -1.
          5    1    4    4  502    0  0.23344649837E+01  0.87809952363E+01  0.74489708703E+02  0.75188844297E+02  0.47000000000E+01 0.  1.
         -5    1    4    4    0  502  0.66848613683E+02 -0.23360699585E+02 -0.27206420816E+02  0.76004860174E+02  0.47000000000E+01 0.  1.
<mgrwt>
<rscale>  0 0.28925150E+03</rscale>
<asrwt>0</asrwt>
<pdfrwt beam="1">  1       21 0.34633968E-01 0.28925150E+03</pdfrwt>
<pdfrwt beam="2">  1       21 0.14294280E-01 0.28925150E+03</pdfrwt>
<totfact> 0.33670303E+05</totfact>
</mgrwt>
</event>
<event>
 8    1  0.9331162E-006  0.2790911E+03  0.7546771E-02  0.1096186E+00
         21   -1    0    0  504  503  0.00000000000E+00  0.00000000000E+00  0.16747895367E+03  0.16747895367E+03  0.00000000000E+00 0. -1.
         21   -1    0    0  503  504 -0.00000000000E+00 -0.00000000000E+00 -0.11627108533E+03  0.11627108533E+03  0.00000000000E+00 0. -1.
         25    2    1    2    0    0 -0.22570391867E+02 -0.35290667855E+02  0.72135023028E+02  0.15027344385E+03  0.12499517012E+03 0.  0.
         25    2    1    2    0    0  0.22570391867E+02  0.35290667855E+02 -0.20927154693E+02  0.13347659515E+03  0.12499280708E+03 0.  0.
          5    1    3    3  501    0  0.89913597304E+01  0.23385138725E+02 -0.22797979948E+02  0.34198642556E+02  0.47000000000E+01 0.  1.
         -5    1    3    3    0  501 -0.31561751597E+02 -0.58675806579E+02  0.94933002977E+02  0.11607480130E+03  0.47000000000E+01 0.  1.
          5    1    4    4  502    0  0.52539765245E+02 -0.27631198094E+02 -0.22363111967E+02  0.63609030939E+02  0.47000000000E+01 0.  1.
         -5    1    4    4    0  502 -0.29969373378E+02  0.62921865949E+02  0.14359572732E+01  0.69867564209E+02  0.47000000000E+01 0.  1.
<mgrwt>
<rscale>  0 0.27909109E+03</rscale>
<asrwt>0</asrwt>
<pdfrwt beam="1">  1       21 0.25765993E-01 0.27909109E+03</pdfrwt>
<pdfrwt beam="2">  1       21 0.17887859E-01 0.27909109E+03</pdfrwt>
<totfact> 0.39880596E+05</totfact>
</mgrwt>
</event>
<event>
 8    1  0.9331162E-006  0.2997255E+03  0.7546771E-02  0.1085378E+00
         21   -1    0    0  504  503  0.00000000000E+00  0.00000000000E+00  0.14565827705E+03  0.14565827705E+03  0.00000000000E+00 0.  1.
         21   -1    0    0  503  504 -0.00000000000E+00 -0.00000000000E+00 -0.15418858074E+03  0.15418858074E+03  0.00000000000E+00 0.  1.
         25    2    1    2    0    0 -0.32610956728E+02 -0.15217335200E+02 -0.78724640236E+02  0.15204245398E+03  0.12499718814E+03 0.  0.
         25    2    1    2    0    0  0.32610956728E+02  0.15217335200E+02  0.70194336545E+02  0.14780440382E+03  0.12499542038E+03 0.  0.
          5    1    3    3  501    0 -0.78886822983E+02 -0.19159699269E+02 -0.62720233900E+02  0.10269441395E+03  0.47000000000E+01 0.  1.
         -5    1    3    3    0  501  0.46275866255E+02  0.39423640698E+01 -0.16004406336E+02  0.49348040025E+02  0.47000000000E+01 0.  1.
          5    1    4    4  502    0 -0.44881686125E+02 -0.93868823420E+01  0.39729400839E+02  0.60852235789E+02  0.47000000000E+01 0. -1.
         -5    1    4    4    0  502  0.77492642853E+02  0.24604217542E+02  0.30464935706E+02  0.86952168028E+02  0.47000000000E+01 0. -1.
<mgrwt>
<rscale>  0 0.29972549E+03</rscale>
<asrwt>0</asrwt>
<pdfrwt beam="1">  1       21 0.22408966E-01 0.29972549E+03</pdfrwt>
<pdfrwt beam="2">  1       21 0.23721320E-01 0.29972549E+03</pdfrwt>
<totfact> 0.30455560E+05</totfact>
</mgrwt>
</event>
<event>
 8    1  0.9331162E-006  0.2653997E+03  0.7546771E-02  0.1103942E+00
         21   -1    0    0  504  503  0.00000000000E+00  0.00000000000E+00  0.29475562541E+03  0.29475562541E+03  0.00000000000E+00 0. -1.
         21   -1    0    0  503  504 -0.00000000000E+00 -0.00000000000E+00 -0.59741873833E+02  0.59741873833E+02  0.00000000000E+00 0. -1.
         25    2    1    2    0    0 -0.40458495600E+02  0.16242914956E+02  0.12988462409E+03  0.18545864310E+03  0.12499668225E+03 0.  0.
         25    2    1    2    0    0  0.40458495600E+02 -0.16242914956E+02  0.10512912749E+03  0.16903885614E+03  0.12498511627E+03 0.  0.
          5    1    3    3  501    0 -0.60232477057E+02  0.49188806740E+02  0.39964530155E+02  0.87559943305E+02  0.47000000000E+01 0. -1.
         -5    1    3    3    0  501  0.19773981457E+02 -0.32945891785E+02  0.89920093936E+02  0.97898699795E+02  0.47000000000E+01 0. -1.
          5    1    4    4  502    0 -0.40890187930E+02 -0.26691020337E+02  0.50362319583E+02  0.70305556462E+02  0.47000000000E+01 0.  1.
         -5    1    4    4    0  502  0.81348683531E+02  0.10448105381E+02  0.54766807904E+02  0.98733299683E+02  0.47000000000E+01 0.  1.
<mgrwt>
<rscale>  0 0.26539972E+03</rscale>
<asrwt>0</asrwt>
<pdfrwt beam="1">  1       21 0.45347018E-01 0.26539972E+03</pdfrwt>
<pdfrwt beam="2">  1       21 0.91910577E-02 0.26539972E+03</pdfrwt>
<totfact> 0.43243232E+05</totfact>
</mgrwt>
</event>
<event>
 8    1  0.9331162E-006  0.2590343E+03  0.7546771E-02  0.1107725E+00
         21   -1    0    0  504  503  0.00000000000E+00  0.00000000000E+00  0.68912136251E+03  0.68912136251E+03  0.00000000000E+00 0. -1.
         21   -1    0    0  503  504 -0.00000000000E+00 -0.00000000000E+00 -0.24342151646E+02  0.24342151646E+02  0.00000000000E+00 0. -1.
         25    2    1    2    0    0  0.39536496454E+01 -0.33656420154E+02  0.32906891274E+03  0.35363199211E+03  0.12498340109E+03 0.  0.
         25    2    1    2    0    0 -0.39536496454E+01  0.33656420154E+02  0.33571029812E+03  0.35983152204E+03  0.12501573512E+03 0.  0.
          5    1    3    3  501    0  0.17826727315E+02 -0.60407139176E+02  0.76383882319E+02  0.99113077585E+02  0.47000000000E+01 0. -1.
         -5    1    3    3    0  501 -0.13873077669E+02  0.26750719023E+02  0.25268503043E+03  0.25451891453E+03  0.47000000000E+01 0. -1.
          5    1    4    4  502    0  0.56815693763E+02  0.69018834502E+01  0.20843052623E+03  0.21619674678E+03  0.47000000000E+01 0.  1.
         -5    1    4    4    0  502 -0.60769343408E+02  0.26754536704E+02  0.12727977189E+03  0.14363477526E+03  0.47000000000E+01 0.  1.
<mgrwt>
<rscale>  0 0.25903434E+03</rscale>
<asrwt>0</asrwt>
<pdfrwt beam="1">  1       21 0.10601866E+00 0.25903434E+03</pdfrwt>
<pdfrwt beam="2">  1       21 0.37449469E-02 0.25903434E+03</pdfrwt>
<totfact> 0.30646328E+05</totfact>
</mgrwt>
</event>
<event>
 8    1  0.9331162E-006  0.3664725E+03  0.7546771E-02  0.1056050E+00
         21   -1    0    0  504  503  0.00000000000E+00  0.00000000000E+00  0.14532556611E+03  0.14532556611E+03  0.00000000000E+00 0.  1.
         21   -1    0    0  503  504 -0.00000000000E+00 -0.00000000000E+00 -0.23103658352E+03  0.23103658352E+03  0.00000000000E+00 0.  1.
         25    2    1    2    0    0 -0.52044994235E+02  0.19200960329E+02 -0.16812237377E+03  0.21671283518E+03  0.12498784768E+03 0.  0.
         25    2    1    2    0    0  0.52044994235E+02 -0.19200960329E+02  0.82411356361E+02  0.15964931445E+03  0.12497565221E+03 0.  0.
          5    1    3    3  501    0 -0.36414125148E+02 -0.11098119308E+02  0.63496294683E+01  0.38878844593E+02  0.47000000000E+01 0.  1.
         -5    1    3    3    0  501 -0.15630869087E+02  0.30299079637E+02 -0.17447200323E+03  0.17783399059E+03  0.47000000000E+01 0.  1.
          5    1    4    4  502    0 -0.10192352660E+01  0.39330885226E+02 -0.70042570376E+01  0.40238128558E+02  0.47000000000E+01 0. -1.
         -5    1    4    4    0  502  0.53064229501E+02 -0.58531845555E+02  0.89415613399E+02  0.11941118589E+03  0.47000000000E+01 0. -1.
<mgrwt>
<rscale>  0 0.36647249E+03</rscale>
<asrwt>0</asrwt>
<pdfrwt beam="1">  1       21 0.22357779E-01 0.36647249E+03</pdfrwt>
<pdfrwt beam="2">  1       21 0.35544090E-01 0.36647249E+03</pdfrwt>
<totfact> 0.13624144E+05</totfact>
</mgrwt>
</event>
<event>
 8    1  0.9331162E-006  0.2622985E+03  0.7546771E-02  0.1105770E+00
         21   -1    0    0  504  503  0.00000000000E+00  0.00000000000E+00  0.74962744789E+02  0.74962744789E+02  0.00000000000E+00 0.  1.
         21   -1    0    0  503  504 -0.00000000000E+00 -0.00000000000E+00 -0.22944896851E+03  0.22944896851E+03  0.00000000000E+00 0.  1.
         25    2    1    2    0    0 -0.86174822483E+01 -0.24230271618E+02 -0.42153623780E+02  0.13440304773E+03  0.12500353666E+03 0.  0.
         25    2    1    2    0    0  0.86174822483E+01  0.24230271618E+02 -0.11233259994E+03  0.17000866557E+03  0.12499186492E+03 0.  0.
          5    1    3    3  501    0  0.44136277933E+02 -0.41802742359E+02 -0.48948540478E+02  0.78189065178E+02  0.47000000000E+01 0. -1.
         -5    1    3    3    0  501 -0.52753760181E+02  0.17572470741E+02  0.67949166980E+01  0.56213982550E+02  0.47000000000E+01 0. -1.
          5    1    4    4  502    0  0.65793288051E+02  0.13380393404E+02 -0.45378380645E+02  0.81173142789E+02  0.47000000000E+01 0.  1.
         -5    1    4    4    0  502 -0.57175805803E+02  0.10849878214E+02 -0.66954219296E+02  0.88835522782E+02  0.47000000000E+01 0.  1.
<mgrwt>
<rscale>  0 0.26229849E+03</rscale>
<asrwt>0</asrwt>
<pdfrwt beam="1">  1       21 0.11532730E-01 0.26229849E+03</pdfrwt>
<pdfrwt beam="2">  1       21 0.35299841E-01 0.26229849E+03</pdfrwt>
<totfact> 0.48073215E+05</totfact>
</mgrwt>
</event>
<event>
 8    1  0.9331162E-006  0.2937696E+03  0.7546771E-02  0.1088397E+00
         21   -1    0    0  504  503  0.00000000000E+00  0.00000000000E+00  0.25346578293E+03  0.25346578293E+03  0.00000000000E+00 0. -1.
         21   -1    0    0  503  504 -0.00000000000E+00 -0.00000000000E+00 -0.85120517473E+02  0.85120517473E+02  0.00000000000E+00 0. -1.
         25    2    1    2    0    0  0.47990364763E+02 -0.37560494217E+02  0.13868515473E+03  0.19639813898E+03  0.12499916406E+03 0.  0.
         25    2    1    2    0    0 -0.47990364763E+02  0.37560494217E+02  0.29660110722E+02  0.14218816142E+03  0.12499554090E+03 0.  0.
          5    1    3    3  501    0  0.77453749978E+02 -0.18517678650E+02  0.35511710520E+02  0.87322158656E+02  0.47000000000E+01 0.  1.
         -5    1    3    3    0  501 -0.29463385215E+02 -0.19042815567E+02  0.10317344421E+03  0.10907598033E+03  0.47000000000E+01 0.  1.
          5    1    4    4  502    0  0.14672008228E+01 -0.29316555921E+02  0.48395842882E+02  0.56796661325E+02  0.47000000000E+01 0.  1.
         -5    1    4    4    0  502 -0.49457565586E+02  0.66877050138E+02 -0.18735732160E+02  0.85391500095E+02  0.47000000000E+01 0.  1.
<mgrwt>
<rscale>  0 0.29376956E+03</rscale>
<asrwt>0</asrwt>
<pdfrwt beam="1">  1       21 0.38994736E-01 0.29376956E+03</pdfrwt>
<pdfrwt beam="2">  1       21 0.13095464E-01 0.29376956E+03</pdfrwt>
<totfact> 0.31075086E+05</totfact>
</mgrwt>
</event>
<event>
 8    1  0.9331162E-006  0.2754493E+03  0.7546771E-02  0.1098201E+00
         21   -1    0    0  504  503  0.00000000000E+00  0.00000000000E+00  0.16952209023E+03  0.16952209023E+03  0.00000000000E+00 0.  1.
         21   -1    0    0  503  504 -0.00000000000E+00 -0.00000000000E+00 -0.11189151417E+03  0.11189151417E+03  0.00000000000E+00 0.  1.
         25    2    1    2    0    0 -0.28654842586E+02 -0.48434623572E+02  0.15256554700E+02  0.13793082661E+03  0.12500055082E+03 0.  0.
         25    2    1    2    0    0  0.28654842586E+02  0.48434623572E+02  0.42374021361E+02  0.14348277778E+03  0.12499894828E+03 0.  0.
          5    1    3    3  501    0 -0.32532239441E+02  0.37842817772E+02  0.11096274717E+02  0.51338511592E+02  0.47000000000E+01 0. -1.
         -5    1    3    3    0  501  0.38773968545E+01 -0.86277441344E+02  0.41602799825E+01  0.86592315021E+02  0.47000000000E+01 0. -1.
          5    1    4    4  502    0  0.69231132440E+01  0.86475041847E+02  0.47680207517E+02  0.99102747431E+02  0.47000000000E+01 0.  1.
         -5    1    4    4    0  502  0.21731729342E+02 -0.38040418275E+02 -0.53061861564E+01  0.44380030354E+02  0.47000000000E+01 0.  1.
<mgrwt>
<rscale>  0 0.27544933E+03</rscale>
<asrwt>0</asrwt>
<pdfrwt beam="1">  1       21 0.26080322E-01 0.27544933E+03</pdfrwt>
<pdfrwt beam="2">  1       21 0.17214079E-01 0.27544933E+03</pdfrwt>
<totfact> 0.41868416E+05</totfact>
</mgrwt>
</event>
<event>
 8    1  0.9331162E-006  0.2972292E+03  0.7546771E-02  0.1086634E+00
         21   -1    0    0  504  503  0.00000000000E+00  0.00000000000E+00  0.49968751551E+02  0.49968751551E+02  0.00000000000E+00 0. -1.
         21   -1    0    0  503  504 -0.00000000000E+00 -0.00000000000E+00 -0.44200208483E+03  0.44200208483E+03  0.00000000000E+00 0. -1.
         25    2    1    2    0    0 -0.47748369979E+02 -0.55942169194E+02 -0.24969900153E+03  0.28876502223E+03  0.12500485419E+03 0.  0.
         25    2    1    2    0    0  0.47748369979E+02  0.55942169194E+02 -0.14233433175E+03  0.20320581415E+03  0.12499643106E+03 0.  0.
          5    1    3    3  501    0  0.33108065916E+02 -0.49313615994E+02 -0.72656241075E+02  0.93962737925E+02  0.47000000000E+01 0. -1.
         -5    1    3    3    0  501 -0.80856435895E+02 -0.66285531995E+01 -0.17704276045E+03  0.19480228431E+03  0.47000000000E+01 0. -1.
          5    1    4    4  502    0 -0.19150703950E+02 -0.28363483320E+02 -0.18912565893E+02  0.39382887102E+02  0.47000000000E+01 0.  1.
         -5    1    4    4    0  502  0.66899073929E+02  0.84305652514E+02 -0.12342176586E+03  0.16382292705E+03  0.47000000000E+01 0.  1.
<mgrwt>
<rscale>  0 0.29722915E+03</rscale>
<asrwt>0</asrwt>
<pdfrwt beam="1">  1       21 0.76875005E-02 0.29722915E+03</pdfrwt>
<pdfrwt beam="2">  1       21 0.68000318E-01 0.29722915E+03</pdfrwt>
<totfact> 0.24712791E+05</totfact>
</mgrwt>
</event>
<event>
 8    1  0.9331162E-006  0.4596463E+03  0.7546771E-02  0.1024884E+00
         21   -1    0    0  504  503  0.00000000000E+00  0.00000000000E+00  0.19909319550E+03  0.19909319550E+03  0.00000000000E+00 0.  1.
         21   -1    0    0  503  504 -0.00000000000E+00 -0.00000000000E+00 -0.26529623087E+03  0.26529623087E+03  0.00000000000E+00 0.  1.
         25    2    1    2    0    0 -0.41113534004E+02 -0.55176892709E+02 -0.21512495186E+03  0.25814452173E+03  0.12500014809E+03 0.  0.
         25    2    1    2    0    0  0.41113534004E+02  0.55176892709E+02  0.14892191649E+03  0.20624490464E+03  0.12499764522E+03 0.  0.
          5    1    3    3  501    0 -0.56440444606E+02 -0.30602153567E+02 -0.30557135858E+02  0.71258993412E+02  0.47000000000E+01 0.  1.
         -5    1    3    3    0  501  0.15326910603E+02 -0.24574739142E+02 -0.18456781600E+03  0.18688552832E+03  0.47000000000E+01 0.  1.
          5    1    4    4  502    0 -0.17207926849E+01 -0.17906286681E+02  0.11231436014E+03  0.11384288175E+03  0.47000000000E+01 0.  1.
         -5    1    4    4    0  502  0.42834326688E+02  0.73083179390E+02  0.36607556344E+02  0.92402022889E+02  0.47000000000E+01 0.  1.
<mgrwt>
<rscale>  0 0.45964627E+03</rscale>
<asrwt>0</asrwt>
<pdfrwt beam="1">  1       21 0.30629723E-01 0.45964627E+03</pdfrwt>
<pdfrwt beam="2">  1       21 0.40814804E-01 0.45964627E+03</pdfrwt>
<totfact> 0.54485881E+04</totfact>
</mgrwt>
</event>
<event>
 8    1  0.9331162E-006  0.2716749E+03  0.7546771E-02  0.1100325E+00
         21   -1    0    0  504  503  0.00000000000E+00  0.00000000000E+00  0.89452624894E+02  0.89452624894E+02  0.00000000000E+00 0. -1.
         21   -1    0    0  503  504 -0.00000000000E+00 -0.00000000000E+00 -0.20627461803E+03  0.20627461803E+03  0.00000000000E+00 0. -1.
         25    2    1    2    0    0  0.30460155237E+02 -0.42465118927E+02 -0.68933184982E+02  0.15201345493E+03  0.12500079642E+03 0.  0.
         25    2    1    2    0    0 -0.30460155237E+02  0.42465118927E+02 -0.47888808154E+02  0.14371378799E+03  0.12501682899E+03 0.  0.
          5    1    3    3  501    0  0.72910954499E+02 -0.45060504880E+02 -0.22229041187E+02  0.88671735396E+02  0.47000000000E+01 0. -1.
         -5    1    3    3    0  501 -0.42450799262E+02  0.25953859533E+01 -0.46704143795E+02  0.63341719536E+02  0.47000000000E+01 0. -1.
          5    1    4    4  502    0 -0.26074778822E+02  0.73570421606E+02  0.88443820134E+01  0.78694435121E+02  0.47000000000E+01 0.  1.
         -5    1    4    4    0  502 -0.43853764153E+01 -0.31105302679E+02 -0.56733190168E+02  0.65019352870E+02  0.47000000000E+01 0.  1.
<mgrwt>
<rscale>  0 0.27167485E+03</rscale>
<asrwt>0</asrwt>
<pdfrwt beam="1">  1       21 0.13761943E-01 0.27167485E+03</pdfrwt>
<pdfrwt beam="2">  1       21 0.31734556E-01 0.27167485E+03</pdfrwt>
<totfact> 0.43084471E+05</totfact>
</mgrwt>
</event>
<event>
 8    1  0.9331162E-006  0.3586154E+03  0.7546771E-02  0.1059133E+00
         21   -1    0    0  504  503  0.00000000000E+00  0.00000000000E+00  0.16992421999E+03  0.16992421999E+03  0.00000000000E+00 0. -1.
         21   -1    0    0  503  504 -0.00000000000E+00 -0.00000000000E+00 -0.18920931265E+03  0.18920931265E+03  0.00000000000E+00 0. -1.
         25    2    1    2    0    0 -0.10105100533E+03 -0.28115670318E+02 -0.84070685469E+02  0.18356316044E+03  0.12500302845E+03 0.  0.
         25    2    1    2    0    0  0.10105100533E+03  0.28115670318E+02  0.64785592808E+02  0.17557037219E+03  0.12500394378E+03 0.  0.
          5    1    3    3  501    0  0.26276664695E+02 -0.54628699682E+00  0.28934510430E+01  0.26855606415E+02  0.47000000000E+01 0. -1.
         -5    1    3    3    0  501 -0.12732767002E+03 -0.27569383322E+02 -0.86964136511E+02  0.15670755403E+03  0.47000000000E+01 0. -1.
          5    1    4    4  502    0  0.11313643096E+03  0.52232004428E+02  0.24854329940E+02  0.12715290801E+03  0.47000000000E+01 0.  1.
         -5    1    4    4    0  502 -0.12085425636E+02 -0.24116334110E+02  0.39931262868E+02  0.48417464183E+02  0.47000000000E+01 0.  1.
<mgrwt>
<rscale>  0 0.35861536E+03</rscale>
<asrwt>0</asrwt>
<pdfrwt beam="1">  1       21 0.26142188E-01 0.35861536E+03</pdfrwt>
<pdfrwt beam="2">  1       21 0.29109125E-01 0.35861536E+03</pdfrwt>
<totfact> 0.15027231E+05</totfact>
</mgrwt>
</event>
<event>
 8    1  0.9331162E-006  0.4260763E+03  0.7546771E-02  0.1035107E+00
         21   -1    0    0  504  503  0.00000000000E+00  0.00000000000E+00  0.26001689338E+03  0.26001689338E+03  0.00000000000E+00 0. -1.
         21   -1    0    0  503  504 -0.00000000000E+00 -0.00000000000E+00 -0.17454732561E+03  0.17454732561E+03  0.00000000000E+00 0. -1.
         25    2    1    2    0    0 -0.14700599143E+03  0.61298655992E+02 -0.24880054147E+02  0.20397903539E+03  0.12498057066E+03 0.  0.
         25    2    1    2    0    0  0.14700599143E+03 -0.61298655992E+02  0.11034962191E+03  0.23058518360E+03  0.12499680435E+03 0.  0.
          5    1    3    3  501    0 -0.12690179469E+03 -0.96378641453E+01 -0.49146411853E+01  0.12744880391E+03  0.47000000000E+01 0.  1.
         -5    1    3    3    0  501 -0.20104196742E+02  0.70936520137E+02 -0.19965412961E+02  0.76530231481E+02  0.47000000000E+01 0.  1.
          5    1    4    4  502    0 -0.14902251349E+02 -0.33221928264E+02  0.30971684493E+02  0.48032372970E+02  0.47000000000E+01 0. -1.
         -5    1    4    4    0  502  0.16190824278E+03 -0.28076727728E+02  0.79377937420E+02  0.18255281063E+03  0.47000000000E+01 0. -1.
<mgrwt>
<rscale>  0 0.42607630E+03</rscale>
<asrwt>0</asrwt>
<pdfrwt beam="1">  1       21 0.40002599E-01 0.42607630E+03</pdfrwt>
<pdfrwt beam="2">  1       21 0.26853435E-01 0.42607630E+03</pdfrwt>
<totfact> 0.74172440E+04</totfact>
</mgrwt>
</event>
<event>
 8    1  0.9331162E-006  0.2593912E+03  0.7546771E-02  0.1107510E+00
         21   -1    0    0  504  503  0.00000000000E+00  0.00000000000E+00  0.42100544809E+03  0.42100544809E+03  0.00000000000E+00 0.  1.
         21   -1    0    0  503  504 -0.00000000000E+00 -0.00000000000E+00 -0.39954223258E+02  0.39954223258E+02  0.00000000000E+00 0.  1.
         25    2    1    2    0    0 -0.34580531680E+01 -0.34355623337E+02  0.19245575684E+03  0.23207139124E+03  0.12500258118E+03 0.  0.
         25    2    1    2    0    0  0.34580531680E+01  0.34355623337E+02  0.18859546799E+03  0.22888828011E+03  0.12501730776E+03 0.  0.
          5    1    3    3  501    0  0.93251960918E+01  0.46380422992E+02  0.63644831882E+02  0.79440905989E+02  0.47000000000E+01 0.  1.
         -5    1    3    3    0  501 -0.12783249260E+02 -0.80736046328E+02  0.12881092496E+03  0.15263048525E+03  0.47000000000E+01 0.  1.
          5    1    4    4  502    0 -0.13229832627E+02  0.11018105392E+02 -0.14947394531E+02  0.23279641772E+02  0.47000000000E+01 0.  1.
         -5    1    4    4    0  502  0.16687885795E+02  0.23337517944E+02  0.20354286252E+03  0.20560863833E+03  0.47000000000E+01 0.  1.
<mgrwt>
<rscale>  0 0.25939118E+03</rscale>
<asrwt>0</asrwt>
<pdfrwt beam="1">  1       21 0.64770066E-01 0.25939118E+03</pdfrwt>
<pdfrwt beam="2">  1       21 0.61468039E-02 0.25939118E+03</pdfrwt>
<totfact> 0.40922996E+05</totfact>
</mgrwt>
</event>
<event>
 8    1  0.9331162E-006  0.4070857E+03  0.7546771E-02  0.1041353E+00
         21   -1    0    0  504  503  0.00000000000E+00  0.00000000000E+00  0.95069164506E+02  0.95069164506E+02  0.00000000000E+00 0.  1.
         21   -1    0    0  503  504 -0.00000000000E+00 -0.00000000000E+00 -0.43578469368E+03  0.43578469368E+03  0.00000000000E+00 0.  1.
         25    2    1    2    0    0  0.97644306056E+02  0.10732874841E+03 -0.26024912124E+03  0.32312385200E+03  0.12500219152E+03 0.  0.
         25    2    1    2    0    0 -0.97644306056E+02 -0.10732874841E+03 -0.80466407934E+02  0.20773000618E+03  0.12499216745E+03 0.  0.
          5    1    3    3  501    0  0.10800366570E+02  0.33180003337E+02 -0.18015580186E+03  0.18356405825E+03  0.47000000000E+01 0. -1.
         -5    1    3    3    0  501  0.86843939486E+02  0.74148745072E+02 -0.80093319382E+02  0.13955979375E+03  0.47000000000E+01 0. -1.
          5    1    4    4  502    0  0.92878151041E+01  0.81186581174E+01 -0.44262761320E+02  0.46189372789E+02  0.47000000000E+01 0.  1.
         -5    1    4    4    0  502 -0.10693212116E+03 -0.11544740653E+03 -0.36203646614E+02  0.16154063339E+03  0.47000000000E+01 0.  1.
<mgrwt>
<rscale>  0 0.40708568E+03</rscale>
<asrwt>0</asrwt>
<pdfrwt beam="1">  1       21 0.14626026E-01 0.40708568E+03</pdfrwt>
<pdfrwt beam="2">  1       21 0.67043798E-01 0.40708568E+03</pdfrwt>
<totfact> 0.78303591E+04</totfact>
</mgrwt>
</event>
<event>
 8    1  0.9331162E-006  0.2669280E+03  0.7546771E-02  0.1103051E+00
         21   -1    0    0  504  503  0.00000000000E+00  0.00000000000E+00  0.60658594558E+03  0.60658594558E+03  0.00000000000E+00 0. -1.
         21   -1    0    0  503  504 -0.00000000000E+00 -0.00000000000E+00 -0.29365409985E+02  0.29365409985E+02  0.00000000000E+00 0. -1.
         25    2    1    2    0    0 -0.93598559707E+01  0.44433173027E+02  0.31521755230E+03  0.34212446825E+03  0.12500053090E+03 0.  0.
         25    2    1    2    0    0  0.93598559707E+01 -0.44433173027E+02  0.26200298330E+03  0.29382688732E+03  0.12500705055E+03 0.  0.
          5    1    3    3  501    0 -0.10154836175E+02  0.56293381993E+02  0.32239560422E+03  0.32746462584E+03  0.47000000000E+01 0.  1.
         -5    1    3    3    0  501  0.79498020384E+00 -0.11860208967E+02 -0.71780519164E+01  0.14659842413E+02  0.47000000000E+01 0.  1.
          5    1    4    4  502    0 -0.56698810737E+02 -0.32282150226E+02  0.12004772341E+03  0.13671297765E+03  0.47000000000E+01 0. -1.
         -5    1    4    4    0  502  0.66058666708E+02 -0.12151022801E+02  0.14195525988E+03  0.15711390967E+03  0.47000000000E+01 0. -1.
<mgrwt>
<rscale>  0 0.26692804E+03</rscale>
<asrwt>0</asrwt>
<pdfrwt beam="1">  1       21 0.93320906E-01 0.26692804E+03</pdfrwt>
<pdfrwt beam="2">  1       21 0.45177558E-02 0.26692804E+03</pdfrwt>
<totfact> 0.30219976E+05</totfact>
</mgrwt>
</event>
<event>
 8    1  0.9331162E-006  0.3755844E+03  0.7546771E-02  0.1052578E+00
         21   -1    0    0  504  503  0.00000000000E+00  0.00000000000E+00  0.25016164155E+03  0.25016164155E+03  0.00000000000E+00 0.  1.
         21   -1    0    0  503  504 -0.00000000000E+00 -0.00000000000E+00 -0.14097251233E+03  0.14097251233E+03  0.00000000000E+00 0.  1.
         25    2    1    2    0    0 -0.65629756492E+02 -0.74073497509E+01 -0.74129387493E+02  0.15963224018E+03  0.12500060899E+03 0.  0.
         25    2    1    2    0    0  0.65629756492E+02  0.74073497509E+01  0.18331851671E+03  0.23150191370E+03  0.12500129484E+03 0.  0.
          5    1    3    3  501    0  0.33615280936E+02  0.55334573660E+01  0.98941596900E+00  0.34404581189E+02  0.47000000000E+01 0. -1.
         -5    1    3    3    0  501 -0.99245037429E+02 -0.12940807117E+02 -0.75118803462E+02  0.12522765899E+03  0.47000000000E+01 0. -1.
          5    1    4    4  502    0  0.45335050376E+02  0.63066698365E+02  0.13078139940E+03  0.15217930104E+03  0.47000000000E+01 0.  1.
         -5    1    4    4    0  502  0.20294706116E+02 -0.55659348614E+02  0.52537117308E+02  0.79322612662E+02  0.47000000000E+01 0.  1.
<mgrwt>
<rscale>  0 0.37558443E+03</rscale>
<asrwt>0</asrwt>
<pdfrwt beam="1">  1       21 0.38486406E-01 0.37558443E+03</pdfrwt>
<pdfrwt beam="2">  1       21 0.21688079E-01 0.37558443E+03</pdfrwt>
<totfact> 0.12264909E+05</totfact>
</mgrwt>
</event>
<event>
 8    1  0.9331162E-006  0.2680219E+03  0.7546771E-02  0.1102417E+00
         21   -1    0    0  504  503  0.00000000000E+00  0.00000000000E+00  0.30432391580E+03  0.30432391580E+03  0.00000000000E+00 0. -1.
         21   -1    0    0  503  504 -0.00000000000E+00 -0.00000000000E+00 -0.59012561868E+02  0.59012561868E+02  0.00000000000E+00 0. -1.
         25    2    1    2    0    0 -0.40958126290E+02 -0.22838157043E+02  0.13837372395E+03  0.19228157152E+03  0.12500306292E+03 0.  0.
         25    2    1    2    0    0  0.40958126290E+02  0.22838157043E+02  0.10693762998E+03  0.17105490615E+03  0.12499989874E+03 0.  0.
          5    1    3    3  501    0  0.14151924973E+02 -0.47966792874E+02  0.11378952430E+02  0.51503987782E+02  0.47000000000E+01 0. -1.
         -5    1    3    3    0  501 -0.55110051264E+02  0.25128635832E+02  0.12699477152E+03  0.14077758374E+03  0.47000000000E+01 0. -1.
          5    1    4    4  502    0 -0.43948083591E+02 -0.94746196552E+00  0.26089786225E+02  0.51333212259E+02  0.47000000000E+01 0.  1.
         -5    1    4    4    0  502  0.84906209881E+02  0.23785619008E+02  0.80847843758E+02  0.11972169389E+03  0.47000000000E+01 0.  1.
<mgrwt>
<rscale>  0 0.26802189E+03</rscale>
<asrwt>0</asrwt>
<pdfrwt beam="1">  1       21 0.46819063E-01 0.26802189E+03</pdfrwt>
<pdfrwt beam="2">  1       21 0.90788558E-02 0.26802189E+03</pdfrwt>
<totfact> 0.41335556E+05</totfact>
</mgrwt>
</event>
<event>
 8    1  0.9331162E-006  0.3829909E+03  0.7546771E-02  0.1049834E+00
         21   -1    0    0  504  503  0.00000000000E+00  0.00000000000E+00  0.21277913563E+03  0.21277913563E+03  0.00000000000E+00 0. -1.
         21   -1    0    0  503  504 -0.00000000000E+00 -0.00000000000E+00 -0.17234066619E+03  0.17234066619E+03  0.00000000000E+00 0. -1.
         25    2    1    2    0    0  0.28700571441E+02 -0.13327375646E+03  0.70115474919E+02  0.19780361733E+03  0.12499789697E+03 0.  0.
         25    2    1    2    0    0 -0.28700571441E+02  0.13327375646E+03 -0.29677005471E+02  0.18731618448E+03  0.12498404440E+03 0.  0.
          5    1    3    3  501    0  0.78382641469E+01 -0.89022504347E+02  0.10467995727E+03  0.13771865566E+03  0.47000000000E+01 0.  1.
         -5    1    3    3    0  501  0.20862307294E+02 -0.44251252110E+02 -0.34564482347E+02  0.60084961670E+02  0.47000000000E+01 0.  1.
          5    1    4    4  502    0  0.21829870286E+02  0.13208746972E+03 -0.25641455948E+02  0.13639361113E+03  0.47000000000E+01 0. -1.
         -5    1    4    4    0  502 -0.50530441727E+02  0.11862867390E+01 -0.40355495235E+01  0.50922573357E+02  0.47000000000E+01 0. -1.
<mgrwt>
<rscale>  0 0.38299085E+03</rscale>
<asrwt>0</asrwt>
<pdfrwt beam="1">  1       21 0.32735252E-01 0.38299085E+03</pdfrwt>
<pdfrwt beam="2">  1       21 0.26513949E-01 0.38299085E+03</pdfrwt>
<totfact> 0.11521799E+05</totfact>
</mgrwt>
</event>
<event>
 8    1  0.9331162E-006  0.2829355E+03  0.7546771E-02  0.1094096E+00
         21   -1    0    0  504  503  0.00000000000E+00  0.00000000000E+00  0.39515007797E+02  0.39515007797E+02  0.00000000000E+00 0.  1.
         21   -1    0    0  503  504 -0.00000000000E+00 -0.00000000000E+00 -0.50646903105E+03  0.50646903105E+03  0.00000000000E+00 0.  1.
         25    2    1    2    0    0  0.12836726217E+02  0.63318116348E+02 -0.26163450460E+03  0.29707137396E+03  0.12499928731E+03 0.  0.
         25    2    1    2    0    0 -0.12836726217E+02 -0.63318116348E+02 -0.20531951865E+03  0.24891266489E+03  0.12500977804E+03 0.  0.
          5    1    3    3  501    0  0.75621515018E+00  0.83752372595E+02 -0.87324276816E+02  0.12108943430E+03  0.47000000000E+01 0. -1.
         -5    1    3    3    0  501  0.12080511067E+02 -0.20434256247E+02 -0.17431022778E+03  0.17598193966E+03  0.47000000000E+01 0. -1.
          5    1    4    4  502    0 -0.27654117918E+02 -0.68784979388E+02 -0.21657281598E+03  0.22895850770E+03  0.47000000000E+01 0.  1.
         -5    1    4    4    0  502  0.14817391701E+02  0.54668630400E+01  0.11253297330E+02  0.19954157189E+02  0.47000000000E+01 0.  1.
<mgrwt>
<rscale>  0 0.28293552E+03</rscale>
<asrwt>0</asrwt>
<pdfrwt beam="1">  1       21 0.60792331E-02 0.28293552E+03</pdfrwt>
<pdfrwt beam="2">  1       21 0.77918297E-01 0.28293552E+03</pdfrwt>
<totfact> 0.27478626E+05</totfact>
</mgrwt>
</event>
<event>
 8    1  0.9331162E-006  0.2784169E+03  0.7546771E-02  0.1096557E+00
         21   -1    0    0  504  503  0.00000000000E+00  0.00000000000E+00  0.21395422854E+04  0.21395422854E+04  0.00000000000E+00 0.  1.
         21   -1    0    0  503  504 -0.00000000000E+00 -0.00000000000E+00 -0.90575388388E+01  0.90575388388E+01  0.00000000000E+00 0.  1.
         25    2    1    2    0    0 -0.34197052957E+02 -0.43823139024E+00  0.67346836158E+03  0.68583127484E+03  0.12504108534E+03 0.  0.
         25    2    1    2    0    0  0.34197052957E+02  0.43823139024E+00  0.14570163850E+04  0.14627685494E+04  0.12500181009E+03 0.  0.
          5    1    3    3  501    0  0.26522409732E+01  0.45353451566E+02  0.51022276069E+03  0.51226294564E+03  0.47000000000E+01 0.  1.
         -5    1    3    3    0  501 -0.36849293931E+02 -0.45791682957E+02  0.16324560089E+03  0.17356832920E+03  0.47000000000E+01 0.  1.
          5    1    4    4  502    0 -0.31238548916E+01  0.90557808777E+01  0.13294530830E+04  0.13294959028E+04  0.47000000000E+01 0. -1.
         -5    1    4    4    0  502  0.37320907849E+02 -0.86175494875E+01  0.12756330201E+03  0.13327264664E+03  0.47000000000E+01 0. -1.
<mgrwt>
<rscale>  0 0.27841686E+03</rscale>
<asrwt>0</asrwt>
<pdfrwt beam="1">  1       21 0.32915995E+00 0.27841686E+03</pdfrwt>
<pdfrwt beam="2">  1       21 0.13934692E-02 0.27841686E+03</pdfrwt>
<totfact> 0.47678914E+04</totfact>
</mgrwt>
</event>
<event>
 8    1  0.9331162E-006  0.2887420E+03  0.7546771E-02  0.1091008E+00
         21   -1    0    0  504  503  0.00000000000E+00  0.00000000000E+00  0.55258216207E+03  0.55258216207E+03  0.00000000000E+00 0. -1.
         21   -1    0    0  503  504 -0.00000000000E+00 -0.00000000000E+00 -0.37719254519E+02  0.37719254519E+02  0.00000000000E+00 0. -1.
         25    2    1    2    0    0 -0.32503436481E+02 -0.58178060851E+02  0.20046772909E+03  0.24546668112E+03  0.12500168394E+03 0.  0.
         25    2    1    2    0    0  0.32503436481E+02  0.58178060851E+02  0.31439517846E+03  0.34483473546E+03  0.12500202557E+03 0.  0.
          5    1    3    3  501    0  0.34217777359E+02  0.18096904089E+02  0.42019259569E+02  0.57324186865E+02  0.47000000000E+01 0. -1.
         -5    1    3    3    0  501 -0.66721213840E+02 -0.76274964940E+02  0.15844846952E+03  0.18814249426E+03  0.47000000000E+01 0. -1.
          5    1    4    4  502    0  0.58467721486E+02  0.28824547534E+02  0.29247157791E+03  0.29968490600E+03  0.47000000000E+01 0. -1.
         -5    1    4    4    0  502 -0.25964285005E+02  0.29353513316E+02  0.21923600547E+02  0.45149829466E+02  0.47000000000E+01 0. -1.
<mgrwt>
<rscale>  0 0.28874201E+03</rscale>
<asrwt>0</asrwt>
<pdfrwt beam="1">  1       21 0.85012634E-01 0.28874201E+03</pdfrwt>
<pdfrwt beam="2">  1       21 0.58029626E-02 0.28874201E+03</pdfrwt>
<totfact> 0.24351198E+05</totfact>
</mgrwt>
</event>
<event>
 8    1  0.9331162E-006  0.2970950E+03  0.7546771E-02  0.1086702E+00
         21   -1    0    0  504  503  0.00000000000E+00  0.00000000000E+00  0.19996484839E+03  0.19996484839E+03  0.00000000000E+00 0.  1.
         21   -1    0    0  503  504 -0.00000000000E+00 -0.00000000000E+00 -0.11035120304E+03  0.11035120304E+03  0.00000000000E+00 0.  1.
         25    2    1    2    0    0  0.87591634265E+01  0.79273509422E+02  0.54191533916E+02  0.15787929707E+03  0.12501255079E+03 0.  0.
         25    2    1    2    0    0 -0.87591634265E+01 -0.79273509422E+02  0.35422111429E+02  0.15243675436E+03  0.12498490253E+03 0.  0.
          5    1    3    3  501    0 -0.51942180028E+02  0.57870518944E+01  0.13844974686E+02  0.54270188500E+02  0.47000000000E+01 0.  1.
         -5    1    3    3    0  501  0.60701343455E+02  0.73486457528E+02  0.40346559230E+02  0.10360910857E+03  0.47000000000E+01 0.  1.
          5    1    4    4  502    0 -0.15353262986E+02 -0.70373789415E+02  0.79127794016E+02  0.10710504520E+03  0.47000000000E+01 0.  1.
         -5    1    4    4    0  502  0.65940995599E+01 -0.88997200076E+01 -0.43705682587E+02  0.45331709163E+02  0.47000000000E+01 0.  1.
<mgrwt>
<rscale>  0 0.29709501E+03</rscale>
<asrwt>0</asrwt>
<pdfrwt beam="1">  1       21 0.30763823E-01 0.29709501E+03</pdfrwt>
<pdfrwt beam="2">  1       21 0.16977108E-01 0.29709501E+03</pdfrwt>
<totfact> 0.30983884E+05</totfact>
</mgrwt>
</event>
<event>
 8    1  0.9331162E-006  0.3278347E+03  0.7546771E-02  0.1072099E+00
         21   -1    0    0  504  503  0.00000000000E+00  0.00000000000E+00  0.32809718600E+03  0.32809718600E+03  0.00000000000E+00 0. -1.
         21   -1    0    0  503  504 -0.00000000000E+00 -0.00000000000E+00 -0.81893095697E+02  0.81893095697E+02  0.00000000000E+00 0. -1.
         25    2    1    2    0    0  0.65028148320E+02 -0.11316170415E+02  0.22689111283E+03  0.26731168378E+03  0.12497697155E+03 0.  0.
         25    2    1    2    0    0 -0.65028148320E+02  0.11316170415E+02  0.19312977478E+02  0.14267859792E+03  0.12500990128E+03 0.  0.
          5    1    3    3  501    0 -0.16516089033E+02  0.38572884731E+02  0.44560365214E+02  0.61387008246E+02  0.47000000000E+01 0. -1.
         -5    1    3    3    0  501  0.81544237352E+02 -0.49889055146E+02  0.18233074762E+03  0.20592467554E+03  0.47000000000E+01 0. -1.
          5    1    4    4  502    0  0.72875055308E+01  0.55705538258E+02  0.83617958710E+01  0.56993195732E+02  0.47000000000E+01 0. -1.
         -5    1    4    4    0  502 -0.72315653850E+02 -0.44389367844E+02  0.10951181607E+02  0.85685402187E+02  0.47000000000E+01 0. -1.
<mgrwt>
<rscale>  0 0.32783468E+03</rscale>
<asrwt>0</asrwt>
<pdfrwt beam="1">  1       21 0.50476489E-01 0.32783468E+03</pdfrwt>
<pdfrwt beam="2">  1       21 0.12598938E-01 0.32783468E+03</pdfrwt>
<totfact> 0.19386537E+05</totfact>
</mgrwt>
</event>
<event>
 8    1  0.9331162E-006  0.3487079E+03  0.7546771E-02  0.1063147E+00
         21   -1    0    0  504  503  0.00000000000E+00  0.00000000000E+00  0.13087837068E+03  0.13087837068E+03  0.00000000000E+00 0.  1.
         21   -1    0    0  503  504 -0.00000000000E+00 -0.00000000000E+00 -0.23227142729E+03  0.23227142729E+03  0.00000000000E+00 0.  1.
         25    2    1    2    0    0 -0.47550974645E+02 -0.92370409222E+02 -0.11640772925E+03  0.19992310653E+03  0.12500040562E+03 0.  0.
         25    2    1    2    0    0  0.47550974645E+02  0.92370409222E+02  0.15014672642E+02  0.16322669145E+03  0.12499649882E+03 0.  0.
          5    1    3    3  501    0  0.19103930578E+02 -0.75882871085E+02 -0.19012371130E+02  0.80664307743E+02  0.47000000000E+01 0. -1.
         -5    1    3    3    0  501 -0.66654905223E+02 -0.16487538136E+02 -0.97395358120E+02  0.11925879878E+03  0.47000000000E+01 0. -1.
          5    1    4    4  502    0  0.85799858394E+02  0.34029866126E+02  0.45976152805E+01  0.92535806882E+02  0.47000000000E+01 0. -1.
         -5    1    4    4    0  502 -0.38248883750E+02  0.58340543096E+02  0.10417057362E+02  0.70690884567E+02  0.47000000000E+01 0. -1.
<mgrwt>
<rscale>  0 0.34870793E+03</rscale>
<asrwt>0</asrwt>
<pdfrwt beam="1">  1       21 0.20135134E-01 0.34870793E+03</pdfrwt>
<pdfrwt beam="2">  1       21 0.35734065E-01 0.34870793E+03</pdfrwt>
<totfact> 0.16514293E+05</totfact>
</mgrwt>
</event>
<event>
 8    1  0.9331162E-006  0.2903180E+03  0.7546771E-02  0.1090183E+00
         21   -1    0    0  504  503  0.00000000000E+00  0.00000000000E+00  0.21404667534E+03  0.21404667534E+03  0.00000000000E+00 0. -1.
         21   -1    0    0  503  504 -0.00000000000E+00 -0.00000000000E+00 -0.98441775818E+02  0.98441775818E+02  0.00000000000E+00 0. -1.
         25    2    1    2    0    0  0.41582275968E+02 -0.42422073184E+02  0.10652473716E+02  0.13879737021E+03  0.12499006685E+03 0.  0.
         25    2    1    2    0    0 -0.41582275968E+02  0.42422073184E+02  0.10495242581E+03  0.17369108095E+03  0.12499944781E+03 0.  0.
          5    1    3    3  501    0  0.24066582959E+02 -0.19347020328E+02  0.67747386849E+02  0.74600978785E+02  0.47000000000E+01 0.  1.
         -5    1    3    3    0  501  0.17515693008E+02 -0.23075052856E+02 -0.57094913133E+02  0.64196391421E+02  0.47000000000E+01 0.  1.
          5    1    4    4  502    0 -0.22463063066E+02  0.74883876807E+02  0.20292130736E+02  0.80907631147E+02  0.47000000000E+01 0. -1.
         -5    1    4    4    0  502 -0.19119212902E+02 -0.32461803623E+02  0.84660295073E+02  0.92783449808E+02  0.47000000000E+01 0. -1.
<mgrwt>
<rscale>  0 0.29031800E+03</rscale>
<asrwt>0</asrwt>
<pdfrwt beam="1">  1       21 0.32930258E-01 0.29031800E+03</pdfrwt>
<pdfrwt beam="2">  1       21 0.15144889E-01 0.29031800E+03</pdfrwt>
<totfact> 0.33481568E+05</totfact>
</mgrwt>
</event>
<event>
 8    1  0.9331162E-006  0.2542229E+03  0.7546771E-02  0.1110665E+00
         21   -1    0    0  504  503  0.00000000000E+00  0.00000000000E+00  0.24957865713E+03  0.24957865713E+03  0.00000000000E+00 0. -1.
         21   -1    0    0  503  504 -0.00000000000E+00 -0.00000000000E+00 -0.64738377766E+02  0.64738377766E+02  0.00000000000E+00 0. -1.
         25    2    1    2    0    0 -0.20752990841E+01 -0.58583339172E+00  0.63915915097E+02  0.14040784150E+03  0.12499787072E+03 0.  0.
         25    2    1    2    0    0  0.20752990841E+01  0.58583339172E+00  0.12092436427E+03  0.17390919340E+03  0.12496821839E+03 0.  0.
          5    1    3    3  501    0  0.19611809716E+02 -0.22391810403E+02  0.93035849799E+02  0.97794558138E+02  0.47000000000E+01 0.  1.
         -5    1    3    3    0  501 -0.21687108800E+02  0.21805977012E+02 -0.29119934702E+02  0.42613283359E+02  0.47000000000E+01 0.  1.
          5    1    4    4  502    0  0.26866350541E+02 -0.34232574138E+02 -0.18642047640E+01  0.43809076490E+02  0.47000000000E+01 0.  1.
         -5    1    4    4    0  502 -0.24791051457E+02  0.34818407530E+02  0.12278856903E+03  0.13010011691E+03  0.47000000000E+01 0.  1.
<mgrwt>
<rscale>  0 0.25422287E+03</rscale>
<asrwt>0</asrwt>
<pdfrwt beam="1">  1       21 0.38396716E-01 0.25422287E+03</pdfrwt>
<pdfrwt beam="2">  1       21 0.99597505E-02 0.25422287E+03</pdfrwt>
<totfact> 0.52825503E+05</totfact>
</mgrwt>
</event>
<event>
 8    1  0.9331162E-006  0.2657552E+03  0.7546771E-02  0.1103734E+00
         21   -1    0    0  504  503  0.00000000000E+00  0.00000000000E+00  0.83086123546E+03  0.83086123546E+03  0.00000000000E+00 0.  1.
         21   -1    0    0  503  504 -0.00000000000E+00 -0.00000000000E+00 -0.21250781879E+02  0.21250781879E+02  0.00000000000E+00 0.  1.
         25    2    1    2    0    0  0.41395536511E+02  0.13744950949E+02  0.36835908847E+03  0.39142786696E+03  0.12499937142E+03 0.  0.
         25    2    1    2    0    0 -0.41395536511E+02 -0.13744950949E+02  0.44125136511E+03  0.46068415038E+03  0.12499842030E+03 0.  0.
          5    1    3    3  501    0  0.57788475207E+02 -0.43613041135E+02  0.20217069905E+03  0.21479452223E+03  0.47000000000E+01 0.  1.
         -5    1    3    3    0  501 -0.16392938695E+02  0.57357992083E+02  0.16618838942E+03  0.17663334473E+03  0.47000000000E+01 0.  1.
          5    1    4    4  502    0  0.17071313780E+02  0.43395723819E+02  0.21555783110E+03  0.22059439510E+03  0.47000000000E+01 0.  1.
         -5    1    4    4    0  502 -0.58466850291E+02 -0.57140674767E+02  0.22569353401E+03  0.24008975528E+03  0.47000000000E+01 0.  1.
<mgrwt>
<rscale>  0 0.26575516E+03</rscale>
<asrwt>0</asrwt>
<pdfrwt beam="1">  1       21 0.12782478E+00 0.26575516E+03</pdfrwt>
<pdfrwt beam="2">  1       21 0.32693517E-02 0.26575516E+03</pdfrwt>
<totfact> 0.24162151E+05</totfact>
</mgrwt>
</event>
<event>
 8    1  0.9331162E-006  0.3148124E+03  0.7546771E-02  0.1078062E+00
         21   -1    0    0  504  503  0.00000000000E+00  0.00000000000E+00  0.56630485299E+03  0.56630485299E+03  0.00000000000E+00 0. -1.
         21   -1    0    0  503  504 -0.00000000000E+00 -0.00000000000E+00 -0.43751536830E+02  0.43751536830E+02  0.00000000000E+00 0. -1.
         25    2    1    2    0    0  0.89757331579E+02 -0.22091295156E+02  0.21344051009E+03  0.26405570221E+03  0.12499663446E+03 0.  0.
         25    2    1    2    0    0 -0.89757331579E+02  0.22091295156E+02  0.30911280607E+03  0.34600068761E+03  0.12498537938E+03 0.  0.
          5    1    3    3  501    0 -0.18579582180E+02 -0.17436544833E+02  0.15168384823E+01  0.25954282280E+02  0.47000000000E+01 0. -1.
         -5    1    3    3    0  501  0.10833691376E+03 -0.46547503231E+01  0.21192367161E+03  0.23810141993E+03  0.47000000000E+01 0. -1.
          5    1    4    4  502    0 -0.79058585563E+02 -0.18387625748E+02  0.28724860381E+03  0.29853344055E+03  0.47000000000E+01 0. -1.
         -5    1    4    4    0  502 -0.10698746016E+02  0.40478920904E+02  0.21864202256E+02  0.47467247067E+02  0.47000000000E+01 0. -1.
<mgrwt>
<rscale>  0 0.31481237E+03</rscale>
<asrwt>0</asrwt>
<pdfrwt beam="1">  1       21 0.87123818E-01 0.31481237E+03</pdfrwt>
<pdfrwt beam="2">  1       21 0.67310061E-02 0.31481237E+03</pdfrwt>
<totfact> 0.17679953E+05</totfact>
</mgrwt>
</event>
<event>
 8    1  0.9331162E-006  0.4009929E+03  0.7546771E-02  0.1043436E+00
         21   -1    0    0  504  503  0.00000000000E+00  0.00000000000E+00  0.10304310851E+03  0.10304310851E+03  0.00000000000E+00 0.  1.
         21   -1    0    0  503  504 -0.00000000000E+00 -0.00000000000E+00 -0.39011665334E+03  0.39011665334E+03  0.00000000000E+00 0.  1.
         25    2    1    2    0    0  0.71239147223E+02 -0.89341002561E+02 -0.27551973328E+03  0.32340816882E+03  0.12499955760E+03 0.  0.
         25    2    1    2    0    0 -0.71239147223E+02  0.89341002561E+02 -0.11553811556E+02  0.16975159304E+03  0.12500112776E+03 0.  0.
          5    1    3    3  501    0 -0.16427429358E+02 -0.19564500296E+02 -0.16115367207E+03  0.16323365502E+03  0.47000000000E+01 0. -1.
         -5    1    3    3    0  501  0.87666576581E+02 -0.69776502265E+02 -0.11436606120E+03  0.16017451381E+03  0.47000000000E+01 0. -1.
          5    1    4    4  502    0 -0.45595056236E+02  0.28042565073E+02 -0.65009637431E+02  0.84342382987E+02  0.47000000000E+01 0.  1.
         -5    1    4    4    0  502 -0.25644090987E+02  0.61298437489E+02  0.53455825875E+02  0.85409210048E+02  0.47000000000E+01 0.  1.
<mgrwt>
<rscale>  0 0.40099293E+03</rscale>
<asrwt>0</asrwt>
<pdfrwt beam="1">  1       21 0.15852786E-01 0.40099293E+03</pdfrwt>
<pdfrwt beam="2">  1       21 0.60017948E-01 0.40099293E+03</pdfrwt>
<totfact> 0.86231356E+04</totfact>
</mgrwt>
</event>
<event>
 8    1  0.9331162E-006  0.3123176E+03  0.7546771E-02  0.1079240E+00
         21   -1    0    0  504  503  0.00000000000E+00  0.00000000000E+00  0.73247637156E+03  0.73247637156E+03  0.00000000000E+00 0. -1.
         21   -1    0    0  503  504 -0.00000000000E+00 -0.00000000000E+00 -0.33291963635E+02  0.33291963635E+02  0.00000000000E+00 0. -1.
         25    2    1    2    0    0  0.50173718226E+02  0.24723195964E+02  0.16568195317E+03  0.21497126428E+03  0.12503398114E+03 0.  0.
         25    2    1    2    0    0 -0.50173718226E+02 -0.24723195964E+02  0.53350245475E+03  0.55079707091E+03  0.12499562267E+03 0.  0.
          5    1    3    3  501    0  0.70140982384E+02  0.24052621678E+02  0.34016808627E+02  0.81716089533E+02  0.47000000000E+01 0. -1.
         -5    1    3    3    0  501 -0.19967264158E+02  0.67057428630E+00  0.13166514455E+03  0.13325517475E+03  0.47000000000E+01 0. -1.
          5    1    4    4  502    0 -0.36037383041E+02 -0.71660845552E+02  0.41074980891E+03  0.41853490330E+03  0.47000000000E+01 0.  1.
         -5    1    4    4    0  502 -0.14136335184E+02  0.46937649588E+02  0.12275264584E+03  0.13226216761E+03  0.47000000000E+01 0.  1.
<mgrwt>
<rscale>  0 0.31231764E+03</rscale>
<asrwt>0</asrwt>
<pdfrwt beam="1">  1       21 0.11268866E+00 0.31231764E+03</pdfrwt>
<pdfrwt beam="2">  1       21 0.51218411E-02 0.31231764E+03</pdfrwt>
<totfact> 0.15296534E+05</totfact>
</mgrwt>
</event>
<event>
 8    1  0.9331162E-006  0.2687361E+03  0.7546771E-02  0.1102005E+00
         21   -1    0    0  504  503  0.00000000000E+00  0.00000000000E+00  0.65019407074E+02  0.65019407074E+02  0.00000000000E+00 0.  1.
         21   -1    0    0  503  504 -0.00000000000E+00 -0.00000000000E+00 -0.27768288632E+03  0.27768288632E+03  0.00000000000E+00 0.  1.
         25    2    1    2    0    0 -0.27542169397E+01  0.44599913770E+02 -0.79814805998E+02  0.15489425396E+03  0.12500035454E+03 0.  0.
         25    2    1    2    0    0  0.27542169397E+01 -0.44599913770E+02 -0.13284867325E+03  0.18780803943E+03  0.12500540657E+03 0.  0.
          5    1    3    3  501    0 -0.62094214449E+01 -0.18529676291E+02 -0.88634731863E+02  0.90885155612E+02  0.47000000000E+01 0. -1.
         -5    1    3    3    0  501  0.34552045052E+01  0.63129590061E+02  0.88199258647E+01  0.64009098351E+02  0.47000000000E+01 0. -1.
          5    1    4    4  502    0  0.80752002959E+00 -0.33620947859E+02  0.16650508934E+02  0.37819963925E+02  0.47000000000E+01 0.  1.
         -5    1    4    4    0  502  0.19466969101E+01 -0.10978965911E+02 -0.14949918218E+03  0.14998807551E+03  0.47000000000E+01 0.  1.
<mgrwt>
<rscale>  0 0.26873613E+03</rscale>
<asrwt>0</asrwt>
<pdfrwt beam="1">  1       21 0.10002986E-01 0.26873613E+03</pdfrwt>
<pdfrwt beam="2">  1       21 0.42720444E-01 0.26873613E+03</pdfrwt>
<totfact> 0.42060878E+05</totfact>
</mgrwt>
</event>
<event>
 8    1  0.9331162E-006  0.3153916E+03  0.7546771E-02  0.1077790E+00
         21   -1    0    0  504  503  0.00000000000E+00  0.00000000000E+00  0.51790550939E+02  0.51790550939E+02  0.00000000000E+00 0. -1.
         21   -1    0    0  503  504 -0.00000000000E+00 -0.00000000000E+00 -0.48016404281E+03  0.48016404281E+03  0.00000000000E+00 0. -1.
         25    2    1    2    0    0 -0.22955247955E+02  0.76582958626E+02 -0.12415362993E+03  0.19347240478E+03  0.12500221849E+03 0.  0.
         25    2    1    2    0    0  0.22955247955E+02 -0.76582958626E+02 -0.30421986195E+03  0.33848218897E+03  0.12501429873E+03 0.  0.
          5    1    3    3  501    0 -0.50352680398E+02  0.35971422761E+02 -0.12986155043E+03  0.14392862105E+03  0.47000000000E+01 0.  1.
         -5    1    3    3    0  501  0.27397432444E+02  0.40611535864E+02  0.57079205004E+01  0.49543783729E+02  0.47000000000E+01 0.  1.
          5    1    4    4  502    0  0.41557319768E+02 -0.76261521827E+02 -0.30700865980E+03  0.31909126865E+03  0.47000000000E+01 0. -1.
         -5    1    4    4    0  502 -0.18602071813E+02 -0.32143679872E+00  0.27887978511E+01  0.19390920319E+02  0.47000000000E+01 0. -1.
<mgrwt>
<rscale>  0 0.31539157E+03</rscale>
<asrwt>0</asrwt>
<pdfrwt beam="1">  1       21 0.79677774E-02 0.31539157E+03</pdfrwt>
<pdfrwt beam="2">  1       21 0.73871388E-01 0.31539157E+03</pdfrwt>
<totfact> 0.19205373E+05</totfact>
</mgrwt>
</event>
<event>
 8    1  0.9331162E-006  0.3289230E+03  0.7546771E-02  0.1071614E+00
         21   -1    0    0  504  503  0.00000000000E+00  0.00000000000E+00  0.10945606466E+04  0.10945606466E+04  0.00000000000E+00 0. -1.
         21   -1    0    0  503  504 -0.00000000000E+00 -0.00000000000E+00 -0.24710908672E+02  0.24710908672E+02  0.00000000000E+00 0. -1.
         25    2    1    2    0    0  0.67988739377E+02  0.58246184682E+02  0.73349854417E+03  0.74944236173E+03  0.12501460932E+03 0.  0.
         25    2    1    2    0    0 -0.67988739377E+02 -0.58246184682E+02  0.33635119379E+03  0.36982919357E+03  0.12500568045E+03 0.  0.
          5    1    3    3  501    0  0.83820394588E+02  0.28488310361E+02  0.25954300474E+03  0.27426648298E+03  0.47000000000E+01 0.  1.
         -5    1    3    3    0  501 -0.15831655211E+02  0.29757874321E+02  0.47395553942E+03  0.47517587875E+03  0.47000000000E+01 0.  1.
          5    1    4    4  502    0 -0.41347844936E+01 -0.47780715287E+02  0.30179233073E+02  0.56859205983E+02  0.47000000000E+01 0. -1.
         -5    1    4    4    0  502 -0.63853954883E+02 -0.10465469396E+02  0.30617196072E+03  0.31296998759E+03  0.47000000000E+01 0. -1.
<mgrwt>
<rscale>  0 0.32892302E+03</rscale>
<asrwt>0</asrwt>
<pdfrwt beam="1">  1       21 0.16839391E+00 0.32892302E+03</pdfrwt>
<pdfrwt beam="2">  1       21 0.38016791E-02 0.32892302E+03</pdfrwt>
<totfact> 0.88231395E+04</totfact>
</mgrwt>
</event>
<event>
 8    1  0.9331162E-006  0.4033015E+03  0.7546771E-02  0.1042642E+00
         21   -1    0    0  504  503  0.00000000000E+00  0.00000000000E+00  0.53761113433E+03  0.53761113433E+03  0.00000000000E+00 0. -1.
         21   -1    0    0  503  504 -0.00000000000E+00 -0.00000000000E+00 -0.75636514674E+02  0.75636514674E+02  0.00000000000E+00 0. -1.
         25    2    1    2    0    0  0.14657185297E+03 -0.19250764491E+02  0.31674019067E+03  0.37121852102E+03  0.12499976778E+03 0.  0.
         25    2    1    2    0    0 -0.14657185297E+03  0.19250764491E+02  0.14523442899E+03  0.24202912798E+03  0.12502463522E+03 0.  0.
          5    1    3    3  501    0  0.79410767203E+02  0.47240251197E+02  0.20421802507E+03  0.22419813345E+03  0.47000000000E+01 0.  1.
         -5    1    3    3    0  501  0.67161085771E+02 -0.66491015688E+02  0.11252216560E+03  0.14702038757E+03  0.47000000000E+01 0.  1.
          5    1    4    4  502    0  0.99960740602E+01  0.22192899022E+02  0.57158150424E+02  0.62302411057E+02  0.47000000000E+01 0.  1.
         -5    1    4    4    0  502 -0.15656792703E+03 -0.29421345311E+01  0.88076278562E+02  0.17972671693E+03  0.47000000000E+01 0.  1.
<mgrwt>
<rscale>  0 0.40330154E+03</rscale>
<asrwt>0</asrwt>
<pdfrwt beam="1">  1       21 0.82709403E-01 0.40330154E+03</pdfrwt>
<pdfrwt beam="2">  1       21 0.11636387E-01 0.40330154E+03</pdfrwt>
<totfact> 0.73899820E+04</totfact>
</mgrwt>
</event>
<event>
 8    1  0.9331162E-006  0.2682221E+03  0.7546771E-02  0.1102302E+00
         21   -1    0    0  504  503  0.00000000000E+00  0.00000000000E+00  0.17201649141E+04  0.17201649141E+04  0.00000000000E+00 0.  1.
         21   -1    0    0  503  504 -0.00000000000E+00 -0.00000000000E+00 -0.10455838881E+02  0.10455838881E+02  0.00000000000E+00 0.  1.
         25    2    1    2    0    0  0.58740806345E+01  0.12822272662E+02  0.55484885884E+03  0.56892954536E+03  0.12499862371E+03 0.  0.
         25    2    1    2    0    0 -0.58740806345E+01 -0.12822272662E+02  0.11548602164E+04  0.11616912076E+04  0.12500170792E+03 0.  0.
          5    1    3    3  501    0  0.38284330846E+02 -0.24478938831E+02  0.85289020773E+02  0.96753374613E+02  0.47000000000E+01 0. -1.
         -5    1    3    3    0  501 -0.32410250212E+02  0.37301211493E+02  0.46955983806E+03  0.47217617074E+03  0.47000000000E+01 0. -1.
          5    1    4    4  502    0  0.51829067897E+02 -0.35649543786E+02  0.53053435210E+03  0.53427140201E+03  0.47000000000E+01 0.  1.
         -5    1    4    4    0  502 -0.57703148531E+02  0.22827271124E+02  0.62432586427E+03  0.62741980559E+03  0.47000000000E+01 0.  1.
<mgrwt>
<rscale>  0 0.26822205E+03</rscale>
<asrwt>0</asrwt>
<pdfrwt beam="1">  1       21 0.26464053E+00 0.26822205E+03</pdfrwt>
<pdfrwt beam="2">  1       21 0.16085920E-02 0.26822205E+03</pdfrwt>
<totfact> 0.91133104E+04</totfact>
</mgrwt>
</event>
<event>
 8    1  0.9331162E-006  0.5209408E+03  0.7546771E-02  0.1008453E+00
         21   -1    0    0  504  503  0.00000000000E+00  0.00000000000E+00  0.13548941558E+04  0.13548941558E+04  0.00000000000E+00 0. -1.
         21   -1    0    0  503  504 -0.00000000000E+00 -0.00000000000E+00 -0.50073902389E+02  0.50073902389E+02  0.00000000000E+00 0. -1.
         25    2    1    2    0    0 -0.17556505315E+03  0.17377919287E+02  0.10441210490E+04  0.10662735505E+04  0.12500175749E+03 0.  0.
         25    2    1    2    0    0  0.17556505315E+03 -0.17377919287E+02  0.26069920435E+03  0.33869450772E+03  0.12499925776E+03 0.  0.
          5    1    3    3  501    0 -0.44320757205E+02  0.30704964360E+02  0.10708170986E+03  0.11998211093E+03  0.47000000000E+01 0.  1.
         -5    1    3    3    0  501 -0.13124429595E+03 -0.13327045073E+02  0.93703933918E+03  0.94629143953E+03  0.47000000000E+01 0.  1.
          5    1    4    4  502    0  0.65267859800E+02 -0.51971755950E+02  0.47480800933E+02  0.96111775536E+02  0.47000000000E+01 0. -1.
         -5    1    4    4    0  502  0.11029719335E+03  0.34593836663E+02  0.21321840342E+03  0.24258273218E+03  0.47000000000E+01 0. -1.
<mgrwt>
<rscale>  0 0.52094083E+03</rscale>
<asrwt>0</asrwt>
<pdfrwt beam="1">  1       21 0.20844523E+00 0.52094083E+03</pdfrwt>
<pdfrwt beam="2">  1       21 0.77036783E-02 0.52094083E+03</pdfrwt>
<totfact> 0.12977325E+04</totfact>
</mgrwt>
</event>
<event>
 8    1  0.9331162E-006  0.3843910E+03  0.7546771E-02  0.1049323E+00
         21   -1    0    0  504  503  0.00000000000E+00  0.00000000000E+00  0.12547883191E+03  0.12547883191E+03  0.00000000000E+00 0.  1.
         21   -1    0    0  503  504 -0.00000000000E+00 -0.00000000000E+00 -0.29438526853E+03  0.29438526853E+03  0.00000000000E+00 0.  1.
         25    2    1    2    0    0 -0.82661720546E+02 -0.11726782186E+03 -0.11389835684E+03  0.22177704008E+03  0.12501007051E+03 0.  0.
         25    2    1    2    0    0  0.82661720546E+02  0.11726782186E+03 -0.55008079779E+02  0.19808706035E+03  0.12501156967E+03 0.  0.
          5    1    3    3  501    0  0.83290058234E+01  0.97553458344E+01 -0.51803605219E+02  0.53574645347E+02  0.47000000000E+01 0. -1.
         -5    1    3    3    0  501 -0.90990726369E+02 -0.12702316769E+03 -0.62094751618E+02  0.16820239473E+03  0.47000000000E+01 0. -1.
          5    1    4    4  502    0  0.51692309032E+02 -0.98534279790E+01 -0.40080136589E+02  0.66315097866E+02  0.47000000000E+01 0. -1.
         -5    1    4    4    0  502  0.30969411513E+02  0.12712124984E+03 -0.14927943190E+02  0.13177196249E+03  0.47000000000E+01 0. -1.
<mgrwt>
<rscale>  0 0.38439105E+03</rscale>
<asrwt>0</asrwt>
<pdfrwt beam="1">  1       21 0.19304435E-01 0.38439105E+03</pdfrwt>
<pdfrwt beam="2">  1       21 0.45290042E-01 0.38439105E+03</pdfrwt>
<totfact> 0.10914079E+05</totfact>
</mgrwt>
</event>
<event>
 8    1  0.9331162E-006  0.3330432E+03  0.7546771E-02  0.1069798E+00
         21   -1    0    0  504  503  0.00000000000E+00  0.00000000000E+00  0.28460931894E+02  0.28460931894E+02  0.00000000000E+00 0. -1.
         21   -1    0    0  503  504 -0.00000000000E+00 -0.00000000000E+00 -0.97429848690E+03  0.97429848690E+03  0.00000000000E+00 0. -1.
         25    2    1    2    0    0  0.82433125033E+02 -0.72351646055E+02 -0.44686770650E+03  0.47680691527E+03  0.12499642615E+03 0.  0.
         25    2    1    2    0    0 -0.82433125033E+02  0.72351646055E+02 -0.49896984850E+03  0.52595250352E+03  0.12500058180E+03 0.  0.
          5    1    3    3  501    0  0.11115041336E+03 -0.61172564255E+02 -0.28550458301E+03  0.31246032377E+03  0.47000000000E+01 0. -1.
         -5    1    3    3    0  501 -0.28717288325E+02 -0.11179081800E+02 -0.16136312348E+03  0.16434659150E+03  0.47000000000E+01 0. -1.
          5    1    4    4  502    0 -0.40879171233E+02 -0.32016263812E+02 -0.19519552439E+03  0.20203843825E+03  0.47000000000E+01 0.  1.
         -5    1    4    4    0  502 -0.41553953799E+02  0.10436790987E+03 -0.30377432412E+03  0.32391406527E+03  0.47000000000E+01 0.  1.
<mgrwt>
<rscale>  0 0.33304320E+03</rscale>
<asrwt>0</asrwt>
<pdfrwt beam="1">  1       21 0.43786044E-02 0.33304320E+03</pdfrwt>
<pdfrwt beam="2">  1       21 0.14989209E+00 0.33304320E+03</pdfrwt>
<totfact> 0.95431249E+04</totfact>
</mgrwt>
</event>
<event>
 8    1  0.9331162E-006  0.4147961E+03  0.7546771E-02  0.1038773E+00
         21   -1    0    0  504  503  0.00000000000E+00  0.00000000000E+00  0.55518373570E+03  0.55518373570E+03  0.00000000000E+00 0.  1.
         21   -1    0    0  503  504 -0.00000000000E+00 -0.00000000000E+00 -0.77476962864E+02  0.77476962864E+02  0.00000000000E+00 0.  1.
         25    2    1    2    0    0  0.12022381215E+03 -0.75176386110E+02  0.36900169246E+03  0.41460564968E+03  0.12502136486E+03 0.  0.
         25    2    1    2    0    0 -0.12022381215E+03  0.75176386110E+02  0.10870508038E+03  0.21805504889E+03  0.12500382318E+03 0.  0.
          5    1    3    3  501    0  0.13535465740E+03 -0.82332621441E+02  0.36320074908E+03  0.39627820779E+03  0.47000000000E+01 0.  1.
         -5    1    3    3    0  501 -0.15130845252E+02  0.71562353308E+01  0.58009433753E+01  0.18327441889E+02  0.47000000000E+01 0.  1.
          5    1    4    4  502    0 -0.95745749919E+02  0.10642763045E+02  0.92319130991E+01  0.96890841942E+02  0.47000000000E+01 0.  1.
         -5    1    4    4    0  502 -0.24478062227E+02  0.64533623065E+02  0.99473167281E+02  0.12116420695E+03  0.47000000000E+01 0.  1.
<mgrwt>
<rscale>  0 0.41479609E+03</rscale>
<asrwt>0</asrwt>
<pdfrwt beam="1">  1       21 0.85412880E-01 0.41479609E+03</pdfrwt>
<pdfrwt beam="2">  1       21 0.11919533E-01 0.41479609E+03</pdfrwt>
<totfact> 0.65463987E+04</totfact>
</mgrwt>
</event>
<event>
 8    1  0.9331162E-006  0.2851794E+03  0.7546771E-02  0.1092893E+00
         21   -1    0    0  504  503  0.00000000000E+00  0.00000000000E+00  0.54817522416E+02  0.54817522416E+02  0.00000000000E+00 0. -1.
         21   -1    0    0  503  504 -0.00000000000E+00 -0.00000000000E+00 -0.37090018260E+03  0.37090018260E+03  0.00000000000E+00 0. -1.
         25    2    1    2    0    0  0.11656873508E+02  0.93152452733E+01 -0.58120864052E+02  0.13865404587E+03  0.12499701238E+03 0.  0.
         25    2    1    2    0    0 -0.11656873508E+02 -0.93152452733E+01 -0.25796179613E+03  0.28706365914E+03  0.12505438673E+03 0.  0.
          5    1    3    3  501    0  0.18825326038E+02  0.16718427679E+02  0.35818938824E+02  0.44033908558E+02  0.47000000000E+01 0.  1.
         -5    1    3    3    0  501 -0.71684525301E+01 -0.74031824057E+01 -0.93939802875E+02  0.94620137316E+02  0.47000000000E+01 0.  1.
          5    1    4    4  502    0 -0.20186805702E+02 -0.30040659833E+02 -0.26137520382E+03  0.26391103717E+03  0.47000000000E+01 0.  1.
         -5    1    4    4    0  502  0.85299321943E+01  0.20725414560E+02  0.34134076924E+01  0.23152621968E+02  0.47000000000E+01 0.  1.
<mgrwt>
<rscale>  0 0.28517945E+03</rscale>
<asrwt>0</asrwt>
<pdfrwt beam="1">  1       21 0.84334653E-02 0.28517945E+03</pdfrwt>
<pdfrwt beam="2">  1       21 0.57061565E-01 0.28517945E+03</pdfrwt>
<totfact> 0.30879892E+05</totfact>
</mgrwt>
</event>
<event>
 8    1  0.9331162E-006  0.2943400E+03  0.7546771E-02  0.1088105E+00
         21   -1    0    0  504  503  0.00000000000E+00  0.00000000000E+00  0.23024790050E+03  0.23024790050E+03  0.00000000000E+00 0. -1.
         21   -1    0    0  503  504 -0.00000000000E+00 -0.00000000000E+00 -0.94068208406E+02  0.94068208406E+02  0.00000000000E+00 0. -1.
         25    2    1    2    0    0  0.44610387037E+02 -0.52592732893E+01  0.13790533919E+03  0.19147551525E+03  0.12500897478E+03 0.  0.
         25    2    1    2    0    0 -0.44610387037E+02  0.52592732893E+01 -0.17256470940E+01  0.13284059366E+03  0.12500359546E+03 0.  0.
          5    1    3    3  501    0 -0.58219713073E+01 -0.57986390521E+02  0.74461536187E+02  0.94672737401E+02  0.47000000000E+01 0. -1.
         -5    1    3    3    0  501  0.50432358344E+02  0.52727117232E+02  0.63443803005E+02  0.96802777850E+02  0.47000000000E+01 0. -1.
          5    1    4    4  502    0 -0.80432589718E+02  0.16433307960E+02 -0.27917458421E+02  0.86838525920E+02  0.47000000000E+01 0. -1.
         -5    1    4    4    0  502  0.35822202681E+02 -0.11174034670E+02  0.26191811327E+02  0.46002067740E+02  0.47000000000E+01 0. -1.
<mgrwt>
<rscale>  0 0.29433999E+03</rscale>
<asrwt>0</asrwt>
<pdfrwt beam="1">  1       21 0.35422754E-01 0.29433999E+03</pdfrwt>
<pdfrwt beam="2">  1       21 0.14472032E-01 0.29433999E+03</pdfrwt>
<totfact> 0.31432644E+05</totfact>
</mgrwt>
</event>
<event>
 8    1  0.9331162E-006  0.2635768E+03  0.7546771E-02  0.1105013E+00
         21   -1    0    0  504  503  0.00000000000E+00  0.00000000000E+00  0.60027573262E+02  0.60027573262E+02  0.00000000000E+00 0.  1.
         21   -1    0    0  503  504 -0.00000000000E+00 -0.00000000000E+00 -0.28933663282E+03  0.28933663282E+03  0.00000000000E+00 0.  1.
         25    2    1    2    0    0 -0.12904758963E+02 -0.35415108605E+02 -0.90773893258E+02  0.15900161749E+03  0.12498340669E+03 0.  0.
         25    2    1    2    0    0  0.12904758963E+02  0.35415108605E+02 -0.13853516630E+03  0.19036258859E+03  0.12500064044E+03 0.  0.
          5    1    3    3  501    0  0.47739132739E+02 -0.60058280731E+01 -0.75632475489E+02  0.89763333907E+02  0.47000000000E+01 0. -1.
         -5    1    3    3    0  501 -0.60643891701E+02 -0.29409280532E+02 -0.15141417769E+02  0.69238283587E+02  0.47000000000E+01 0. -1.
          5    1    4    4  502    0  0.16476896495E+02  0.71788385967E+02 -0.13433547022E+03  0.15327481540E+03  0.47000000000E+01 0. -1.
         -5    1    4    4    0  502 -0.35721375320E+01 -0.36373277362E+02 -0.41996960802E+01  0.37087773184E+02  0.47000000000E+01 0. -1.
<mgrwt>
<rscale>  0 0.26357675E+03</rscale>
<asrwt>0</asrwt>
<pdfrwt beam="1">  1       21 0.92350110E-02 0.26357675E+03</pdfrwt>
<pdfrwt beam="2">  1       21 0.44513329E-01 0.26357675E+03</pdfrwt>
<totfact> 0.44573174E+05</totfact>
</mgrwt>
</event>
<event>
 8    1  0.9331162E-006  0.2884698E+03  0.7546771E-02  0.1091151E+00
         21   -1    0    0  504  503  0.00000000000E+00  0.00000000000E+00  0.88605971793E+02  0.88605971793E+02  0.00000000000E+00 0. -1.
         21   -1    0    0  503  504 -0.00000000000E+00 -0.00000000000E+00 -0.23478899362E+03  0.23478899362E+03  0.00000000000E+00 0. -1.
         25    2    1    2    0    0  0.50848265446E+02  0.48069825529E+02 -0.92034787350E+02  0.17026911126E+03  0.12499965576E+03 0.  0.
         25    2    1    2    0    0 -0.50848265446E+02 -0.48069825529E+02 -0.54148234482E+02  0.15312585416E+03  0.12497696464E+03 0.  0.
          5    1    3    3  501    0 -0.25635652137E+02  0.58455546492E+02 -0.55628302284E+02  0.84798794750E+02  0.47000000000E+01 0. -1.
         -5    1    3    3    0  501  0.76483917583E+02 -0.10385720963E+02 -0.36406485066E+02  0.85470316506E+02  0.47000000000E+01 0. -1.
          5    1    4    4  502    0 -0.32295673723E+02 -0.60353845978E+02 -0.88467084306E+02  0.11195584965E+03  0.47000000000E+01 0. -1.
         -5    1    4    4    0  502 -0.18552591723E+02  0.12284020450E+02  0.34318849824E+02  0.41170004509E+02  0.47000000000E+01 0. -1.
<mgrwt>
<rscale>  0 0.28846980E+03</rscale>
<asrwt>0</asrwt>
<pdfrwt beam="1">  1       21 0.13631688E-01 0.28846980E+03</pdfrwt>
<pdfrwt beam="2">  1       21 0.36121383E-01 0.28846980E+03</pdfrwt>
<totfact> 0.33754569E+05</totfact>
</mgrwt>
</event>
<event>
 8    1  0.9331162E-006  0.3243292E+03  0.7546771E-02  0.1073674E+00
         21   -1    0    0  504  503  0.00000000000E+00  0.00000000000E+00  0.31984980211E+03  0.31984980211E+03  0.00000000000E+00 0.  1.
         21   -1    0    0  503  504 -0.00000000000E+00 -0.00000000000E+00 -0.82217808073E+02  0.82217808073E+02  0.00000000000E+00 0.  1.
         25    2    1    2    0    0  0.57273923160E+02  0.67510850346E+02  0.52838139564E+02  0.16203955229E+03  0.12500772107E+03 0.  0.
         25    2    1    2    0    0 -0.57273923160E+02 -0.67510850346E+02  0.18479385447E+03  0.24002805789E+03  0.12500673076E+03 0.  0.
          5    1    3    3  501    0  0.70872991986E+02  0.31722497289E+02  0.82492112365E+02  0.11338578584E+03  0.47000000000E+01 0.  1.
         -5    1    3    3    0  501 -0.13599068826E+02  0.35788353057E+02 -0.29653972801E+02  0.48653766456E+02  0.47000000000E+01 0.  1.
          5    1    4    4  502    0 -0.88574535796E+02 -0.67361457152E+02  0.17398515405E+03  0.20658155322E+03  0.47000000000E+01 0. -1.
         -5    1    4    4    0  502  0.31300612636E+02 -0.14939319386E+00  0.10808700422E+02  0.33446504669E+02  0.47000000000E+01 0. -1.
<mgrwt>
<rscale>  0 0.32432915E+03</rscale>
<asrwt>0</asrwt>
<pdfrwt beam="1">  1       21 0.49207661E-01 0.32432915E+03</pdfrwt>
<pdfrwt beam="2">  1       21 0.12648894E-01 0.32432915E+03</pdfrwt>
<totfact> 0.20325193E+05</totfact>
</mgrwt>
</event>
<event>
 8    1  0.9331162E-006  0.3171649E+03  0.7546771E-02  0.1076962E+00
         21   -1    0    0  504  503  0.00000000000E+00  0.00000000000E+00  0.17108354563E+03  0.17108354563E+03  0.00000000000E+00 0. -1.
         21   -1    0    0  503  504 -0.00000000000E+00 -0.00000000000E+00 -0.14699479710E+03  0.14699479710E+03  0.00000000000E+00 0. -1.
         25    2    1    2    0    0  0.69096230980E+01 -0.97185736134E+02  0.74626646660E+01  0.15871980973E+03  0.12507388392E+03 0.  0.
         25    2    1    2    0    0 -0.69096230980E+01  0.97185736134E+02  0.16626083864E+02  0.15935853299E+03  0.12500362064E+03 0.  0.
          5    1    3    3  501    0 -0.32612805706E+02 -0.84577627675E+02 -0.36734895931E+02  0.97920951681E+02  0.47000000000E+01 0. -1.
         -5    1    3    3    0  501  0.39522428804E+02 -0.12608108459E+02  0.44197560597E+02  0.60798858050E+02  0.47000000000E+01 0. -1.
          5    1    4    4  502    0  0.40786330811E+02  0.10218566981E+03  0.15020881605E+02  0.11114473797E+03  0.47000000000E+01 0.  1.
         -5    1    4    4    0  502 -0.47695953909E+02 -0.49999336717E+01  0.16052022584E+01  0.48213795021E+02  0.47000000000E+01 0.  1.
<mgrwt>
<rscale>  0 0.31716489E+03</rscale>
<asrwt>0</asrwt>
<pdfrwt beam="1">  1       21 0.26320545E-01 0.31716489E+03</pdfrwt>
<pdfrwt beam="2">  1       21 0.22614584E-01 0.31716489E+03</pdfrwt>
<totfact> 0.24404386E+05</totfact>
</mgrwt>
</event>
<event>
 8    1  0.9331162E-006  0.3646316E+03  0.7546771E-02  0.1056765E+00
         21   -1    0    0  504  503  0.00000000000E+00  0.00000000000E+00  0.41453906997E+02  0.41453906997E+02  0.00000000000E+00 0. -1.
         21   -1    0    0  503  504 -0.00000000000E+00 -0.00000000000E+00 -0.80183135211E+03  0.80183135211E+03  0.00000000000E+00 0. -1.
         25    2    1    2    0    0  0.40062150946E+02 -0.27827743609E+02 -0.66563649377E+03  0.67902599927E+03  0.12500002640E+03 0.  0.
         25    2    1    2    0    0 -0.40062150946E+02  0.27827743609E+02 -0.94740951350E+02  0.16425925984E+03  0.12500358926E+03 0.  0.
          5    1    3    3  501    0 -0.38857219297E+01  0.45093293742E+02 -0.16408546558E+03  0.17027810778E+03  0.47000000000E+01 0.  1.
         -5    1    3    3    0  501  0.43947872876E+02 -0.72921037352E+02 -0.50155102819E+03  0.50874789149E+03  0.47000000000E+01 0.  1.
          5    1    4    4  502    0  0.95860901031E+01 -0.43325635419E+02 -0.17267218314E+02  0.47846114118E+02  0.47000000000E+01 0.  1.
         -5    1    4    4    0  502 -0.49648241050E+02  0.71153379028E+02 -0.77473733036E+02  0.11641314572E+03  0.47000000000E+01 0.  1.
<mgrwt>
<rscale>  0 0.36463155E+03</rscale>
<asrwt>0</asrwt>
<pdfrwt beam="1">  1       21 0.63775242E-02 0.36463155E+03</pdfrwt>
<pdfrwt beam="2">  1       21 0.12335867E+00 0.36463155E+03</pdfrwt>
<totfact> 0.82342895E+04</totfact>
</mgrwt>
</event>
<event>
 8    1  0.9331162E-006  0.2718740E+03  0.7546771E-02  0.1100212E+00
         21   -1    0    0  504  503  0.00000000000E+00  0.00000000000E+00  0.17579893915E+03  0.17579893915E+03  0.00000000000E+00 0. -1.
         21   -1    0    0  503  504 -0.00000000000E+00 -0.00000000000E+00 -0.10511366103E+03  0.10511366103E+03  0.00000000000E+00 0. -1.
         25    2    1    2    0    0 -0.42806799581E+02 -0.30407780939E+02  0.25193878422E+02  0.13790441019E+03  0.12500335838E+03 0.  0.
         25    2    1    2    0    0  0.42806799581E+02  0.30407780939E+02  0.45491399693E+02  0.14300819000E+03  0.12499927891E+03 0.  0.
          5    1    3    3  501    0 -0.50262501608E+02  0.37539166969E+02  0.29022540417E+02  0.69281353746E+02  0.47000000000E+01 0. -1.
         -5    1    3    3    0  501  0.74557020269E+01 -0.67946947908E+02 -0.38286619944E+01  0.68623056441E+02  0.47000000000E+01 0. -1.
          5    1    4    4  502    0 -0.37736419710E+02 -0.15469495371E+02  0.24647687166E+02  0.47884665001E+02  0.47000000000E+01 0. -1.
         -5    1    4    4    0  502  0.80543219292E+02  0.45877276310E+02  0.20843712527E+02  0.95123524995E+02  0.47000000000E+01 0. -1.
<mgrwt>
<rscale>  0 0.27187402E+03</rscale>
<asrwt>0</asrwt>
<pdfrwt beam="1">  1       21 0.27045991E-01 0.27187402E+03</pdfrwt>
<pdfrwt beam="2">  1       21 0.16171332E-01 0.27187402E+03</pdfrwt>
<totfact> 0.43835616E+05</totfact>
</mgrwt>
</event>
<event>
 8    1  0.9331162E-006  0.4847310E+03  0.7546771E-02  0.1017843E+00
         21   -1    0    0  504  503  0.00000000000E+00  0.00000000000E+00  0.24859052204E+03  0.24859052204E+03  0.00000000000E+00 0.  1.
         21   -1    0    0  503  504 -0.00000000000E+00 -0.00000000000E+00 -0.23629638543E+03  0.23629638543E+03  0.00000000000E+00 0.  1.
         25    2    1    2    0    0 -0.19196345980E+03  0.75737316737E+02 -0.16888792622E+02  0.24186046239E+03  0.12500056363E+03 0.  0.
         25    2    1    2    0    0  0.19196345980E+03 -0.75737316737E+02  0.29182929232E+02  0.24302644507E+03  0.12499639435E+03 0.  0.
          5    1    3    3  501    0 -0.20435206474E+03  0.76866032220E+02 -0.33119015837E+02  0.22087804889E+03  0.47000000000E+01 0.  1.
         -5    1    3    3    0  501  0.12388604936E+02 -0.11287154823E+01  0.16230223215E+02  0.20982413506E+02  0.47000000000E+01 0.  1.
          5    1    4    4  502    0  0.14665614462E+03 -0.10251298136E+03  0.50606870028E+02  0.18601097117E+03  0.47000000000E+01 0.  1.
         -5    1    4    4    0  502  0.45307315180E+02  0.26775664621E+02 -0.21423940796E+02  0.57015473900E+02  0.47000000000E+01 0.  1.
<mgrwt>
<rscale>  0 0.48473103E+03</rscale>
<asrwt>0</asrwt>
<pdfrwt beam="1">  1       21 0.38244696E-01 0.48473103E+03</pdfrwt>
<pdfrwt beam="2">  1       21 0.36353290E-01 0.48473103E+03</pdfrwt>
<totfact> 0.43885091E+04</totfact>
</mgrwt>
</event>
<event>
 8    1  0.9331162E-006  0.2712512E+03  0.7546771E-02  0.1100566E+00
         21   -1    0    0  504  503  0.00000000000E+00  0.00000000000E+00  0.21227551174E+03  0.21227551174E+03  0.00000000000E+00 0. -1.
         21   -1    0    0  503  504 -0.00000000000E+00 -0.00000000000E+00 -0.86652981586E+02  0.86652981586E+02  0.00000000000E+00 0. -1.
         25    2    1    2    0    0 -0.91142237556E+01 -0.28453536747E+02  0.11054577865E+03  0.16952392074E+03  0.12500127078E+03 0.  0.
         25    2    1    2    0    0  0.91142237556E+01  0.28453536747E+02  0.15076751501E+02  0.12940457259E+03  0.12500224855E+03 0.  0.
          5    1    3    3  501    0 -0.28217775867E+02  0.43119280614E+02  0.62335872973E+02  0.81014605441E+02  0.47000000000E+01 0. -1.
         -5    1    3    3    0  501  0.19103552112E+02 -0.71572817361E+02  0.48209905681E+02  0.88509315295E+02  0.47000000000E+01 0. -1.
          5    1    4    4  502    0  0.57675570131E+02 -0.65748233781E+01 -0.17846445225E+02  0.60912111271E+02  0.47000000000E+01 0.  1.
         -5    1    4    4    0  502 -0.48561346375E+02  0.35028360125E+02  0.32923196726E+02  0.68492461318E+02  0.47000000000E+01 0.  1.
<mgrwt>
<rscale>  0 0.27125122E+03</rscale>
<asrwt>0</asrwt>
<pdfrwt beam="1">  1       21 0.32657771E-01 0.27125122E+03</pdfrwt>
<pdfrwt beam="2">  1       21 0.13331228E-01 0.27125122E+03</pdfrwt>
<totfact> 0.43134197E+05</totfact>
</mgrwt>
</event>
<event>
 8    1  0.9331162E-006  0.3091858E+03  0.7546771E-02  0.1080737E+00
         21   -1    0    0  504  503  0.00000000000E+00  0.00000000000E+00  0.15538717603E+03  0.15538717603E+03  0.00000000000E+00 0. -1.
         21   -1    0    0  503  504 -0.00000000000E+00 -0.00000000000E+00 -0.15380265824E+03  0.15380265824E+03  0.00000000000E+00 0. -1.
         25    2    1    2    0    0  0.73543437347E+02 -0.53508141063E+02  0.23659037683E+01  0.15460647972E+03  0.12500323090E+03 0.  0.
         25    2    1    2    0    0 -0.73543437347E+02  0.53508141063E+02 -0.78138597629E+00  0.15458335455E+03  0.12499457829E+03 0.  0.
          5    1    3    3  501    0  0.96257322032E+02 -0.16702543955E+02 -0.27780718901E+02  0.10167745749E+03  0.47000000000E+01 0. -1.
         -5    1    3    3    0  501 -0.22713884685E+02 -0.36805597108E+02  0.30146622669E+02  0.52929022231E+02  0.47000000000E+01 0. -1.
          5    1    4    4  502    0 -0.52889954082E+01 -0.37599265385E+02 -0.11999484274E+02  0.40096830957E+02  0.47000000000E+01 0. -1.
         -5    1    4    4    0  502 -0.68254441939E+02  0.91107406448E+02  0.11218098298E+02  0.11448652359E+03  0.47000000000E+01 0. -1.
<mgrwt>
<rscale>  0 0.30918577E+03</rscale>
<asrwt>0</asrwt>
<pdfrwt beam="1">  1       21 0.23905719E-01 0.30918577E+03</pdfrwt>
<pdfrwt beam="2">  1       21 0.23661947E-01 0.30918577E+03</pdfrwt>
<totfact> 0.26989988E+05</totfact>
</mgrwt>
</event>
<event>
 8    1  0.9331162E-006  0.2758272E+03  0.7546771E-02  0.1097990E+00
         21   -1    0    0  504  503  0.00000000000E+00  0.00000000000E+00  0.47575983901E+02  0.47575983901E+02  0.00000000000E+00 0.  1.
         21   -1    0    0  503  504 -0.00000000000E+00 -0.00000000000E+00 -0.39978478751E+03  0.39978478751E+03  0.00000000000E+00 0.  1.
         25    2    1    2    0    0  0.73561634711E+01 -0.48575563810E+02 -0.22693825952E+03  0.26370265104E+03  0.12499766396E+03 0.  0.
         25    2    1    2    0    0 -0.73561634711E+01  0.48575563810E+02 -0.12527054409E+03  0.18365812037E+03  0.12499558960E+03 0.  0.
          5    1    3    3  501    0  0.20393861803E+01  0.41030075579E+02 -0.47259281692E+02  0.62794553140E+02  0.47000000000E+01 0.  1.
         -5    1    3    3    0  501  0.53167772908E+01 -0.89605639389E+02 -0.17967897782E+03  0.20090809790E+03  0.47000000000E+01 0.  1.
          5    1    4    4  502    0 -0.64548874798E+02  0.34940537681E+02 -0.84117869823E+02  0.11173765898E+03  0.47000000000E+01 0. -1.
         -5    1    4    4    0  502  0.57192711327E+02  0.13635026129E+02 -0.41152674270E+02  0.71920461386E+02  0.47000000000E+01 0. -1.
<mgrwt>
<rscale>  0 0.27582715E+03</rscale>
<asrwt>0</asrwt>
<pdfrwt beam="1">  1       21 0.73193819E-02 0.27582715E+03</pdfrwt>
<pdfrwt beam="2">  1       21 0.61505354E-01 0.27582715E+03</pdfrwt>
<totfact> 0.33725261E+05</totfact>
</mgrwt>
</event>
<event>
 8    1  0.9331162E-006  0.3620739E+03  0.7546771E-02  0.1057766E+00
         21   -1    0    0  504  503  0.00000000000E+00  0.00000000000E+00  0.85378842221E+02  0.85378842221E+02  0.00000000000E+00 0. -1.
         21   -1    0    0  503  504 -0.00000000000E+00 -0.00000000000E+00 -0.38386991112E+03  0.38386991112E+03  0.00000000000E+00 0. -1.
         25    2    1    2    0    0 -0.28397228063E+02  0.12719523970E+03 -0.13264781232E+03  0.22406504709E+03  0.12499868659E+03 0.  0.
         25    2    1    2    0    0  0.28397228063E+02 -0.12719523970E+03 -0.16584325658E+03  0.24518370625E+03  0.12500412992E+03 0.  0.
          5    1    3    3  501    0 -0.56058290433E+01 -0.25127158006E+02 -0.24141400827E+02  0.35604727532E+02  0.47000000000E+01 0. -1.
         -5    1    3    3    0  501 -0.22791399020E+02  0.15232239770E+03 -0.10850641149E+03  0.18846031955E+03  0.47000000000E+01 0. -1.
          5    1    4    4  502    0 -0.41693135875E+02 -0.85997327690E+02 -0.65526279082E+02  0.11597258814E+03  0.47000000000E+01 0. -1.
         -5    1    4    4    0  502  0.70090363938E+02 -0.41197912009E+02 -0.10031697749E+03  0.12921111812E+03  0.47000000000E+01 0. -1.
<mgrwt>
<rscale>  0 0.36207385E+03</rscale>
<asrwt>0</asrwt>
<pdfrwt beam="1">  1       21 0.13135207E-01 0.36207385E+03</pdfrwt>
<pdfrwt beam="2">  1       21 0.59056908E-01 0.36207385E+03</pdfrwt>
<totfact> 0.12739636E+05</totfact>
</mgrwt>
</event>
<event>
 8    1  0.9331162E-006  0.2641283E+03  0.7546771E-02  0.1104688E+00
         21   -1    0    0  504  503  0.00000000000E+00  0.00000000000E+00  0.36979837320E+03  0.36979837320E+03  0.00000000000E+00 0. -1.
         21   -1    0    0  503  504 -0.00000000000E+00 -0.00000000000E+00 -0.47163384094E+02  0.47163384094E+02  0.00000000000E+00 0. -1.
         25    2    1    2    0    0 -0.18657428126E+02  0.15696042497E+02  0.21645754979E+03  0.25114471551E+03  0.12500132757E+03 0.  0.
         25    2    1    2    0    0  0.18657428126E+02 -0.15696042497E+02  0.10617743932E+03  0.16581704178E+03  0.12500870910E+03 0.  0.
          5    1    3    3  501    0 -0.62554187162E+02  0.37685277520E+02  0.16146860658E+03  0.17727776901E+03  0.47000000000E+01 0. -1.
         -5    1    3    3    0  501  0.43896759037E+02 -0.21989235023E+02  0.54988943212E+02  0.73866946508E+02  0.47000000000E+01 0. -1.
          5    1    4    4  502    0  0.23678926448E+02  0.52986800226E+02  0.52037214574E+02  0.78091319982E+02  0.47000000000E+01 0. -1.
         -5    1    4    4    0  502 -0.50214983226E+01 -0.68682842723E+02  0.54140224743E+02  0.87725721799E+02  0.47000000000E+01 0. -1.
<mgrwt>
<rscale>  0 0.26412832E+03</rscale>
<asrwt>0</asrwt>
<pdfrwt beam="1">  1       21 0.56892055E-01 0.26412832E+03</pdfrwt>
<pdfrwt beam="2">  1       21 0.72559055E-02 0.26412832E+03</pdfrwt>
<totfact> 0.40619630E+05</totfact>
</mgrwt>
</event>
<event>
 8    1  0.9331162E-006  0.3468752E+03  0.7546771E-02  0.1063905E+00
         21   -1    0    0  504  503  0.00000000000E+00  0.00000000000E+00  0.12331058226E+03  0.12331058226E+03  0.00000000000E+00 0. -1.
         21   -1    0    0  503  504 -0.00000000000E+00 -0.00000000000E+00 -0.24394171652E+03  0.24394171652E+03  0.00000000000E+00 0. -1.
         25    2    1    2    0    0 -0.28232216891E+02  0.75334140737E+02 -0.15490965336E+03  0.21470177541E+03  0.12501024290E+03 0.  0.
         25    2    1    2    0    0  0.28232216891E+02 -0.75334140737E+02  0.34278519095E+02  0.15255052337E+03  0.12499741788E+03 0.  0.
          5    1    3    3  501    0 -0.71532460768E+02  0.32434578570E+02 -0.12227236923E+03  0.14540122802E+03  0.47000000000E+01 0. -1.
         -5    1    3    3    0  501  0.43300243878E+02  0.42899562168E+02 -0.32637284121E+02  0.69300547392E+02  0.47000000000E+01 0. -1.
          5    1    4    4  502    0 -0.66786868283E+01  0.19469156192E+01 -0.39296170690E+02  0.40183010950E+02  0.47000000000E+01 0.  1.
         -5    1    4    4    0  502  0.34910903719E+02 -0.77281056356E+02  0.73574689784E+02  0.11236751242E+03  0.47000000000E+01 0.  1.
<mgrwt>
<rscale>  0 0.34687517E+03</rscale>
<asrwt>0</asrwt>
<pdfrwt beam="1">  1       21 0.18970859E-01 0.34687517E+03</pdfrwt>
<pdfrwt beam="2">  1       21 0.37529495E-01 0.34687517E+03</pdfrwt>
<totfact> 0.16741844E+05</totfact>
</mgrwt>
</event>
<event>
 8    1  0.9331162E-006  0.3106277E+03  0.7546771E-02  0.1080045E+00
         21   -1    0    0  504  503  0.00000000000E+00  0.00000000000E+00  0.30371079123E+02  0.30371079123E+02  0.00000000000E+00 0. -1.
         21   -1    0    0  503  504 -0.00000000000E+00 -0.00000000000E+00 -0.79425542201E+03  0.79425542201E+03  0.00000000000E+00 0. -1.
         25    2    1    2    0    0 -0.75951414446E+01  0.24975759038E+02 -0.14726374132E+03  0.19492592489E+03  0.12501212731E+03 0.  0.
         25    2    1    2    0    0  0.75951414446E+01 -0.24975759038E+02 -0.61662060156E+03  0.62970057624E+03  0.12498149755E+03 0.  0.
          5    1    3    3  501    0  0.55275109668E+02  0.89002889273E+01 -0.38236237625E+02  0.67960670682E+02  0.47000000000E+01 0. -1.
         -5    1    3    3    0  501 -0.62870251112E+02  0.16075470111E+02 -0.10902750370E+03  0.12696525421E+03  0.47000000000E+01 0. -1.
          5    1    4    4  502    0 -0.22615654832E+02 -0.61723552231E+02 -0.20547790481E+03  0.21578814636E+03  0.47000000000E+01 0.  1.
         -5    1    4    4    0  502  0.30210796277E+02  0.36747793193E+02 -0.41114269675E+03  0.41391242988E+03  0.47000000000E+01 0.  1.
<mgrwt>
<rscale>  0 0.31062771E+03</rscale>
<asrwt>0</asrwt>
<pdfrwt beam="1">  1       21 0.46724734E-02 0.31062771E+03</pdfrwt>
<pdfrwt beam="2">  1       21 0.12219315E+00 0.31062771E+03</pdfrwt>
<totfact> 0.14632698E+05</totfact>
</mgrwt>
</event>
<event>
 8    1  0.9331162E-006  0.3235574E+03  0.7546771E-02  0.1074024E+00
         21   -1    0    0  504  503  0.00000000000E+00  0.00000000000E+00  0.15405804916E+03  0.15405804916E+03  0.00000000000E+00 0. -1.
         21   -1    0    0  503  504 -0.00000000000E+00 -0.00000000000E+00 -0.16988631404E+03  0.16988631404E+03  0.00000000000E+00 0. -1.
         25    2    1    2    0    0  0.73060765530E+02 -0.39176378496E+02  0.52774196314E+02  0.15900588057E+03  0.12500036067E+03 0.  0.
         25    2    1    2    0    0 -0.73060765530E+02  0.39176378496E+02 -0.68602461195E+02  0.16493848264E+03  0.12500296509E+03 0.  0.
          5    1    3    3  501    0 -0.22483591933E+01 -0.35126702734E+02  0.72656037109E+02  0.80869834255E+02  0.47000000000E+01 0. -1.
         -5    1    3    3    0  501  0.75309124723E+02 -0.40496757623E+01 -0.19881840795E+02  0.78136046315E+02  0.47000000000E+01 0. -1.
          5    1    4    4  502    0  0.11571466480E+02 -0.34739117738E+02 -0.23537202086E+02  0.43781217659E+02  0.47000000000E+01 0. -1.
         -5    1    4    4    0  502 -0.84632232010E+02  0.73915496234E+02 -0.45065259109E+02  0.12115726498E+03  0.47000000000E+01 0. -1.
<mgrwt>
<rscale>  0 0.32355744E+03</rscale>
<asrwt>0</asrwt>
<pdfrwt beam="1">  1       21 0.23701238E-01 0.32355744E+03</pdfrwt>
<pdfrwt beam="2">  1       21 0.26136356E-01 0.32355744E+03</pdfrwt>
<totfact> 0.22582587E+05</totfact>
</mgrwt>
</event>
<event>
 8    1  0.9331162E-006  0.4984813E+03  0.7546771E-02  0.1014176E+00
         21   -1    0    0  504  503  0.00000000000E+00  0.00000000000E+00  0.69509294734E+02  0.69509294734E+02  0.00000000000E+00 0.  1.
         21   -1    0    0  503  504 -0.00000000000E+00 -0.00000000000E+00 -0.89370654099E+03  0.89370654099E+03  0.00000000000E+00 0.  1.
         25    2    1    2    0    0 -0.14177751106E+03  0.15489335319E+03 -0.50679032672E+03  0.56263450415E+03  0.12501334526E+03 0.  0.
         25    2    1    2    0    0  0.14177751106E+03 -0.15489335319E+03 -0.31740691953E+03  0.40058133157E+03  0.12500174852E+03 0.  0.
          5    1    3    3  501    0 -0.16105482520E+03  0.11050543066E+03 -0.39277013680E+03  0.43868049567E+03  0.47000000000E+01 0. -1.
         -5    1    3    3    0  501  0.19277314133E+02  0.44387922527E+02 -0.11402018993E+03  0.12395400848E+03  0.47000000000E+01 0. -1.
          5    1    4    4  502    0  0.21478942273E+02  0.58773421898E+01  0.24510690970E+01  0.22890737256E+02  0.47000000000E+01 0.  1.
         -5    1    4    4    0  502  0.12029856879E+03 -0.16077069538E+03 -0.31985798863E+03  0.37769059432E+03  0.47000000000E+01 0.  1.
<mgrwt>
<rscale>  0 0.49848134E+03</rscale>
<asrwt>0</asrwt>
<pdfrwt beam="1">  1       21 0.10693738E-01 0.49848134E+03</pdfrwt>
<pdfrwt beam="2">  1       21 0.13749331E+00 0.49848134E+03</pdfrwt>
<totfact> 0.23986918E+04</totfact>
</mgrwt>
</event>
<event>
 8    1  0.9331162E-006  0.4367302E+03  0.7546771E-02  0.1031755E+00
         21   -1    0    0  504  503  0.00000000000E+00  0.00000000000E+00  0.38816379571E+03  0.38816379571E+03  0.00000000000E+00 0.  1.
         21   -1    0    0  503  504 -0.00000000000E+00 -0.00000000000E+00 -0.12284331194E+03  0.12284331194E+03  0.00000000000E+00 0.  1.
         25    2    1    2    0    0  0.14199030233E+03  0.81264906069E+01  0.25992706877E+03  0.32158102479E+03  0.12499995449E+03 0.  0.
         25    2    1    2    0    0 -0.14199030233E+03 -0.81264906069E+01  0.53934149898E+01  0.18942608286E+03  0.12500346450E+03 0.  0.
          5    1    3    3  501    0  0.11448717019E+03 -0.20159783841E+02  0.25655958182E+03  0.28170665247E+03  0.47000000000E+01 0.  1.
         -5    1    3    3    0  501  0.27503132138E+02  0.28286274448E+02  0.33674869478E+01  0.39874372320E+02  0.47000000000E+01 0.  1.
          5    1    4    4  502    0 -0.60639497470E+02 -0.20550462332E+02  0.62144707599E+02  0.89350572679E+02  0.47000000000E+01 0. -1.
         -5    1    4    4    0  502 -0.81350804856E+02  0.12423971725E+02 -0.56751292610E+02  0.10007551018E+03  0.47000000000E+01 0. -1.
<mgrwt>
<rscale>  0 0.43673024E+03</rscale>
<asrwt>0</asrwt>
<pdfrwt beam="1">  1       21 0.59717507E-01 0.43673024E+03</pdfrwt>
<pdfrwt beam="2">  1       21 0.18898971E-01 0.43673024E+03</pdfrwt>
<totfact> 0.62227012E+04</totfact>
</mgrwt>
</event>
<event>
 8    1  0.9331162E-006  0.4157195E+03  0.7546771E-02  0.1038469E+00
         21   -1    0    0  504  503  0.00000000000E+00  0.00000000000E+00  0.24253542084E+02  0.24253542084E+02  0.00000000000E+00 0.  1.
         21   -1    0    0  503  504 -0.00000000000E+00 -0.00000000000E+00 -0.17814174602E+04  0.17814174602E+04  0.00000000000E+00 0.  1.
         25    2    1    2    0    0 -0.48542536183E+02 -0.15762825000E+03 -0.79422294998E+03  0.82074187067E+03  0.12499632385E+03 0.  0.
         25    2    1    2    0    0  0.48542536183E+02  0.15762825000E+03 -0.96294096812E+03  0.98492913160E+03  0.12500817242E+03 0.  0.
          5    1    3    3  501    0  0.23013711234E+02 -0.12454877548E+03 -0.53171295902E+03  0.54661027174E+03  0.47000000000E+01 0. -1.
         -5    1    3    3    0  501 -0.71556247417E+02 -0.33079474520E+02 -0.26250999095E+03  0.27413159893E+03  0.47000000000E+01 0. -1.
          5    1    4    4  502    0 -0.16936386641E+02  0.32223740723E+01 -0.18576969745E+02  0.25776320374E+02  0.47000000000E+01 0. -1.
         -5    1    4    4    0  502  0.65478922824E+02  0.15440587593E+03 -0.94436399838E+03  0.95915281123E+03  0.47000000000E+01 0. -1.
<mgrwt>
<rscale>  0 0.41571954E+03</rscale>
<asrwt>0</asrwt>
<pdfrwt beam="1">  1       21 0.37313127E-02 0.41571954E+03</pdfrwt>
<pdfrwt beam="2">  1       21 0.27406433E+00 0.41571954E+03</pdfrwt>
<totfact> 0.18443057E+04</totfact>
</mgrwt>
</event>
<event>
 8    1  0.9331162E-006  0.4678871E+03  0.7546771E-02  0.1022518E+00
         21   -1    0    0  504  503  0.00000000000E+00  0.00000000000E+00  0.36352696555E+03  0.36352696555E+03  0.00000000000E+00 0.  1.
         21   -1    0    0  503  504 -0.00000000000E+00 -0.00000000000E+00 -0.15055164189E+03  0.15055164189E+03  0.00000000000E+00 0.  1.
         25    2    1    2    0    0 -0.26635018787E+02  0.16162215365E+03  0.22821733899E+03  0.30747231668E+03  0.12499970774E+03 0.  0.
         25    2    1    2    0    0  0.26635018787E+02 -0.16162215365E+03 -0.15242015326E+02  0.20660629075E+03  0.12499078194E+03 0.  0.
          5    1    3    3  501    0  0.50087668662E+01  0.36396463695E+02  0.15408462362E+03  0.15847381977E+03  0.47000000000E+01 0. -1.
         -5    1    3    3    0  501 -0.31643785653E+02  0.12522568996E+03  0.74132715364E+02  0.14899849691E+03  0.47000000000E+01 0. -1.
          5    1    4    4  502    0  0.38290277593E+02 -0.24563146101E+02 -0.46762785521E+02  0.65409033124E+02  0.47000000000E+01 0. -1.
         -5    1    4    4    0  502 -0.11655258806E+02 -0.13705900755E+03  0.31520770195E+02  0.14119725763E+03  0.47000000000E+01 0. -1.
<mgrwt>
<rscale>  0 0.46788709E+03</rscale>
<asrwt>0</asrwt>
<pdfrwt beam="1">  1       21 0.55927225E-01 0.46788709E+03</pdfrwt>
<pdfrwt beam="2">  1       21 0.23161791E-01 0.46788709E+03</pdfrwt>
<totfact> 0.48330601E+04</totfact>
</mgrwt>
</event>
<event>
 8    1  0.9331162E-006  0.3863566E+03  0.7546771E-02  0.1048609E+00
         21   -1    0    0  504  503  0.00000000000E+00  0.00000000000E+00  0.10220881735E+04  0.10220881735E+04  0.00000000000E+00 0.  1.
         21   -1    0    0  503  504 -0.00000000000E+00 -0.00000000000E+00 -0.36511387223E+02  0.36511387223E+02  0.00000000000E+00 0.  1.
         25    2    1    2    0    0  0.80436490456E+02 -0.37515184751E+02  0.81481772024E+03  0.82912231836E+03  0.12505392240E+03 0.  0.
         25    2    1    2    0    0 -0.80436490456E+02  0.37515184751E+02  0.17075906599E+03  0.22947724231E+03  0.12499491205E+03 0.  0.
          5    1    3    3  501    0  0.38510224683E+02 -0.38972915439E+02  0.74844522659E+03  0.75046270577E+03  0.47000000000E+01 0.  1.
         -5    1    3    3    0  501  0.41926265773E+02  0.14577306884E+01  0.66372493648E+02  0.78659612594E+02  0.47000000000E+01 0.  1.
          5    1    4    4  502    0 -0.82635836344E+01 -0.33144874097E+02  0.10076532514E+03  0.10650169127E+03  0.47000000000E+01 0.  1.
         -5    1    4    4    0  502 -0.72172906822E+02  0.70660058848E+02  0.69993740852E+02  0.12297555104E+03  0.47000000000E+01 0.  1.
<mgrwt>
<rscale>  0 0.38635661E+03</rscale>
<asrwt>0</asrwt>
<pdfrwt beam="1">  1       21 0.15724431E+00 0.38635661E+03</pdfrwt>
<pdfrwt beam="2">  1       21 0.56171373E-02 0.38635661E+03</pdfrwt>
<totfact> 0.53765558E+04</totfact>
</mgrwt>
</event>
<event>
 8    1  0.9331162E-006  0.2732319E+03  0.7546771E-02  0.1099444E+00
         21   -1    0    0  504  503  0.00000000000E+00  0.00000000000E+00  0.72080271164E+02  0.72080271164E+02  0.00000000000E+00 0.  1.
         21   -1    0    0  503  504 -0.00000000000E+00 -0.00000000000E+00 -0.25893236925E+03  0.25893236925E+03  0.00000000000E+00 0.  1.
         25    2    1    2    0    0  0.53510903512E+02 -0.10516390257E+02 -0.10365281291E+03  0.17125751105E+03  0.12494486067E+03 0.  0.
         25    2    1    2    0    0 -0.53510903512E+02  0.10516390257E+02 -0.83199285178E+02  0.15975512937E+03  0.12500227616E+03 0.  0.
          5    1    3    3  501    0  0.63655422226E+02 -0.56159634304E+02 -0.45293829414E+02  0.96330360151E+02  0.47000000000E+01 0. -1.
         -5    1    3    3    0  501 -0.10144518714E+02  0.45643244047E+02 -0.58358983496E+02  0.74927150898E+02  0.47000000000E+01 0. -1.
          5    1    4    4  502    0  0.75955976084E+01  0.50673937841E+02 -0.67405761406E+02  0.84800753241E+02  0.47000000000E+01 0.  1.
         -5    1    4    4    0  502 -0.61106501120E+02 -0.40157547584E+02 -0.15793523772E+02  0.74954376125E+02  0.47000000000E+01 0.  1.
<mgrwt>
<rscale>  0 0.27323188E+03</rscale>
<asrwt>0</asrwt>
<pdfrwt beam="1">  1       21 0.11089273E-01 0.27323188E+03</pdfrwt>
<pdfrwt beam="2">  1       21 0.39835749E-01 0.27323188E+03</pdfrwt>
<totfact> 0.40331999E+05</totfact>
</mgrwt>
</event>
<event>
 8    1  0.9331162E-006  0.4791424E+03  0.7546771E-02  0.1019371E+00
         21   -1    0    0  504  503  0.00000000000E+00  0.00000000000E+00  0.47442844307E+03  0.47442844307E+03  0.00000000000E+00 0.  1.
         21   -1    0    0  503  504 -0.00000000000E+00 -0.00000000000E+00 -0.12097580066E+03  0.12097580066E+03  0.00000000000E+00 0.  1.
         25    2    1    2    0    0  0.11020612603E+01 -0.14741652723E+03  0.82547044305E+00  0.19328134144E+03  0.12499659399E+03 0.  0.
         25    2    1    2    0    0 -0.11020612603E+01  0.14741652723E+03  0.35262717197E+03  0.40212290229E+03  0.12499623636E+03 0.  0.
          5    1    3    3  501    0  0.46846344071E+02 -0.90478197252E+02 -0.39903684694E+02  0.10952295733E+03  0.47000000000E+01 0.  1.
         -5    1    3    3    0  501 -0.45744282810E+02 -0.56938329975E+02  0.40729155137E+02  0.83758384108E+02  0.47000000000E+01 0.  1.
          5    1    4    4  502    0 -0.57314650511E+02  0.41161278271E+02  0.16124071536E+03  0.17606782296E+03  0.47000000000E+01 0. -1.
         -5    1    4    4    0  502  0.56212589251E+02  0.10625524896E+03  0.19138645660E+03  0.22605507933E+03  0.47000000000E+01 0. -1.
<mgrwt>
<rscale>  0 0.47914240E+03</rscale>
<asrwt>0</asrwt>
<pdfrwt beam="1">  1       21 0.72988990E-01 0.47914240E+03</pdfrwt>
<pdfrwt beam="2">  1       21 0.18611662E-01 0.47914240E+03</pdfrwt>
<totfact> 0.40576271E+04</totfact>
</mgrwt>
</event>
<event>
 8    1  0.9331162E-006  0.3604911E+03  0.7546771E-02  0.1058390E+00
         21   -1    0    0  504  503  0.00000000000E+00  0.00000000000E+00  0.99141769593E+03  0.99141769593E+03  0.00000000000E+00 0. -1.
         21   -1    0    0  503  504 -0.00000000000E+00 -0.00000000000E+00 -0.32769698415E+02  0.32769698415E+02  0.00000000000E+00 0. -1.
         25    2    1    2    0    0  0.10573211116E+03 -0.49854085868E+02  0.63988878725E+03  0.66238933340E+03  0.12504902935E+03 0.  0.
         25    2    1    2    0    0 -0.10573211116E+03  0.49854085868E+02  0.31875921026E+03  0.36179806095E+03  0.12500277424E+03 0.  0.
          5    1    3    3  501    0 -0.18593301594E+02 -0.34200051542E+02  0.24357740408E+03  0.24671318605E+03  0.47000000000E+01 0.  1.
         -5    1    3    3    0  501  0.12432541275E+03 -0.15654034327E+02  0.39631138317E+03  0.41567614735E+03  0.47000000000E+01 0.  1.
          5    1    4    4  502    0  0.16922224243E+02  0.99313215822E+01  0.13923699013E+03  0.14069123016E+03  0.47000000000E+01 0. -1.
         -5    1    4    4    0  502 -0.12265433540E+03  0.39922764286E+02  0.17952222013E+03  0.22110683079E+03  0.47000000000E+01 0. -1.
<mgrwt>
<rscale>  0 0.36049110E+03</rscale>
<asrwt>0</asrwt>
<pdfrwt beam="1">  1       21 0.15252578E+00 0.36049110E+03</pdfrwt>
<pdfrwt beam="2">  1       21 0.50414928E-02 0.36049110E+03</pdfrwt>
<totfact> 0.70949859E+04</totfact>
</mgrwt>
</event>
<event>
 8    1  0.9331162E-006  0.2777948E+03  0.7546771E-02  0.1096899E+00
         21   -1    0    0  504  503  0.00000000000E+00  0.00000000000E+00  0.40372795479E+03  0.40372795479E+03  0.00000000000E+00 0. -1.
         21   -1    0    0  503  504 -0.00000000000E+00 -0.00000000000E+00 -0.47785869548E+02  0.47785869548E+02  0.00000000000E+00 0. -1.
         25    2    1    2    0    0  0.44970535235E+02 -0.37277353408E+02  0.15200360250E+03  0.20528661390E+03  0.12500219420E+03 0.  0.
         25    2    1    2    0    0 -0.44970535235E+02  0.37277353408E+02  0.20393848274E+03  0.24622721044E+03  0.12499993721E+03 0.  0.
          5    1    3    3  501    0  0.35745508997E+02 -0.33866627412E+01 -0.11494373389E+02  0.37992387627E+02  0.47000000000E+01 0. -1.
         -5    1    3    3    0  501  0.92250262382E+01 -0.33890690666E+02  0.16349797589E+03  0.16729422627E+03  0.47000000000E+01 0. -1.
          5    1    4    4  502    0 -0.33447668170E+02 -0.43834279873E+02  0.93325232942E+02  0.10849829354E+03  0.47000000000E+01 0. -1.
         -5    1    4    4    0  502 -0.11522867066E+02  0.81111633281E+02  0.11061324979E+03  0.13772891689E+03  0.47000000000E+01 0. -1.
<mgrwt>
<rscale>  0 0.27779483E+03</rscale>
<asrwt>0</asrwt>
<pdfrwt beam="1">  1       21 0.62111991E-01 0.27779483E+03</pdfrwt>
<pdfrwt beam="2">  1       21 0.73516725E-02 0.27779483E+03</pdfrwt>
<totfact> 0.32745960E+05</totfact>
</mgrwt>
</event>
<event>
 8    1  0.9331162E-006  0.2838081E+03  0.7546771E-02  0.1093627E+00
         21   -1    0    0  504  503  0.00000000000E+00  0.00000000000E+00  0.58129719664E+03  0.58129719664E+03  0.00000000000E+00 0. -1.
         21   -1    0    0  503  504 -0.00000000000E+00 -0.00000000000E+00 -0.34641077152E+02  0.34641077152E+02  0.00000000000E+00 0. -1.
         25    2    1    2    0    0  0.85087253752E+00  0.62906185558E+02  0.22223694901E+03  0.26262533146E+03  0.12499956421E+03 0.  0.
         25    2    1    2    0    0 -0.85087253752E+00 -0.62906185558E+02  0.32441917047E+03  0.35331294233E+03  0.12499729950E+03 0.  0.
          5    1    3    3  501    0 -0.58747309083E+02  0.35962684760E+02  0.77903815799E+02  0.10409445487E+03  0.47000000000E+01 0.  1.
         -5    1    3    3    0  501  0.59598181620E+02  0.26943500798E+02  0.14433313321E+03  0.15853087658E+03  0.47000000000E+01 0.  1.
          5    1    4    4  502    0  0.40296338398E+02 -0.75492355470E+02  0.14225417323E+03  0.16607597786E+03  0.47000000000E+01 0. -1.
         -5    1    4    4    0  502 -0.41147210935E+02  0.12586169912E+02  0.18216499725E+03  0.18723696447E+03  0.47000000000E+01 0. -1.
<mgrwt>
<rscale>  0 0.28380811E+03</rscale>
<asrwt>0</asrwt>
<pdfrwt beam="1">  1       21 0.89430331E-01 0.28380811E+03</pdfrwt>
<pdfrwt beam="2">  1       21 0.53293969E-02 0.28380811E+03</pdfrwt>
<totfact> 0.25086301E+05</totfact>
</mgrwt>
</event>
<event>
 8    1  0.9331162E-006  0.3714822E+03  0.7546771E-02  0.1054128E+00
         21   -1    0    0  504  503  0.00000000000E+00  0.00000000000E+00  0.13920364857E+03  0.13920364857E+03  0.00000000000E+00 0.  1.
         21   -1    0    0  503  504 -0.00000000000E+00 -0.00000000000E+00 -0.24783656396E+03  0.24783656396E+03  0.00000000000E+00 0.  1.
         25    2    1    2    0    0  0.93669543136E+02 -0.98034914967E+02 -0.31243331142E+02  0.18704830508E+03  0.12500437924E+03 0.  0.
         25    2    1    2    0    0 -0.93669543136E+02  0.98034914967E+02 -0.77389584242E+02  0.19999190745E+03  0.12499114941E+03 0.  0.
          5    1    3    3  501    0  0.25054040119E+02  0.15237720606E+02 -0.44895763177E+02  0.53829477118E+02  0.47000000000E+01 0.  1.
         -5    1    3    3    0  501  0.68615503017E+02 -0.11327263557E+03  0.13652432035E+02  0.13321882796E+03  0.47000000000E+01 0.  1.
          5    1    4    4  502    0 -0.63184970622E+02  0.32176038232E+02 -0.10103313935E+03  0.12352094234E+03  0.47000000000E+01 0. -1.
         -5    1    4    4    0  502 -0.30484572515E+02  0.65858876735E+02  0.23643555113E+02  0.76470965108E+02  0.47000000000E+01 0. -1.
<mgrwt>
<rscale>  0 0.37148219E+03</rscale>
<asrwt>0</asrwt>
<pdfrwt beam="1">  1       21 0.21415946E-01 0.37148219E+03</pdfrwt>
<pdfrwt beam="2">  1       21 0.38128702E-01 0.37148219E+03</pdfrwt>
<totfact> 0.12816678E+05</totfact>
</mgrwt>
</event>
<event>
 8    1  0.9331162E-006  0.4661272E+03  0.7546771E-02  0.1023019E+00
         21   -1    0    0  504  503  0.00000000000E+00  0.00000000000E+00  0.77557929749E+02  0.77557929749E+02  0.00000000000E+00 0. -1.
         21   -1    0    0  503  504 -0.00000000000E+00 -0.00000000000E+00 -0.70036219026E+03  0.70036219026E+03  0.00000000000E+00 0. -1.
         25    2    1    2    0    0 -0.19501582499E+03  0.25108596169E+02 -0.30111631019E+03  0.38072175938E+03  0.12496564407E+03 0.  0.
         25    2    1    2    0    0  0.19501582499E+03 -0.25108596169E+02 -0.32168795032E+03  0.39719836064E+03  0.12498714619E+03 0.  0.
          5    1    3    3  501    0 -0.19055322751E+03  0.51699542692E+02 -0.29068847603E+03  0.35143314489E+03  0.47000000000E+01 0. -1.
         -5    1    3    3    0  501 -0.44625974868E+01 -0.26590946523E+02 -0.10427834164E+02  0.29288614489E+02  0.47000000000E+01 0. -1.
          5    1    4    4  502    0  0.11530028512E+03 -0.21797032623E+02 -0.78609783359E+02  0.14131827348E+03  0.47000000000E+01 0.  1.
         -5    1    4    4    0  502  0.79715539878E+02 -0.33115635454E+01 -0.24307816696E+03  0.25588008716E+03  0.47000000000E+01 0.  1.
<mgrwt>
<rscale>  0 0.46612720E+03</rscale>
<asrwt>0</asrwt>
<pdfrwt beam="1">  1       21 0.11931990E-01 0.46612720E+03</pdfrwt>
<pdfrwt beam="2">  1       21 0.10774803E+00 0.46612720E+03</pdfrwt>
<totfact> 0.36931227E+04</totfact>
</mgrwt>
</event>
<event>
 8    1  0.9331162E-006  0.4027672E+03  0.7546771E-02  0.1042826E+00
         21   -1    0    0  504  503  0.00000000000E+00  0.00000000000E+00  0.27173391907E+03  0.27173391907E+03  0.00000000000E+00 0.  1.
         21   -1    0    0  503  504 -0.00000000000E+00 -0.00000000000E+00 -0.14924659046E+03  0.14924659046E+03  0.00000000000E+00 0.  1.
         25    2    1    2    0    0 -0.14162825864E+03  0.64298572551E+02  0.32866661713E+02  0.20223534865E+03  0.12500419479E+03 0.  0.
         25    2    1    2    0    0  0.14162825864E+03 -0.64298572551E+02  0.89620666899E+02  0.21874516088E+03  0.12499884558E+03 0.  0.
          5    1    3    3  501    0 -0.75342781475E+02  0.17551855763E+01 -0.40006796126E+02  0.85453198495E+02  0.47000000000E+01 0.  1.
         -5    1    3    3    0  501 -0.66285477161E+02  0.62543386975E+02  0.72873457839E+02  0.11678215015E+03  0.47000000000E+01 0.  1.
          5    1    4    4  502    0  0.15168803361E+03 -0.68328337982E+02  0.44748418658E+02  0.17234422614E+03  0.47000000000E+01 0. -1.
         -5    1    4    4    0  502 -0.10059774978E+02  0.40297654313E+01  0.44872248242E+02  0.46400934735E+02  0.47000000000E+01 0. -1.
<mgrwt>
<rscale>  0 0.40276723E+03</rscale>
<asrwt>0</asrwt>
<pdfrwt beam="1">  1       21 0.41805218E-01 0.40276723E+03</pdfrwt>
<pdfrwt beam="2">  1       21 0.22961014E-01 0.40276723E+03</pdfrwt>
<totfact> 0.92232266E+04</totfact>
</mgrwt>
</event>
<event>
 8    1  0.9331162E-006  0.2782179E+03  0.7546771E-02  0.1096666E+00
         21   -1    0    0  504  503  0.00000000000E+00  0.00000000000E+00  0.51841045854E+02  0.51841045854E+02  0.00000000000E+00 0. -1.
         21   -1    0    0  503  504 -0.00000000000E+00 -0.00000000000E+00 -0.37328148303E+03  0.37328148303E+03  0.00000000000E+00 0. -1.
         25    2    1    2    0    0 -0.38948941054E+02 -0.12302898546E+02 -0.22999908878E+03  0.26493924220E+03  0.12499935959E+03 0.  0.
         25    2    1    2    0    0  0.38948941054E+02  0.12302898546E+02 -0.91441348400E+02  0.16018328668E+03  0.12501513434E+03 0.  0.
          5    1    3    3  501    0 -0.82764018900E+02  0.29359595151E+01 -0.12457990539E+03  0.14966878602E+03  0.47000000000E+01 0. -1.
         -5    1    3    3    0  501  0.43815077847E+02 -0.15238858061E+02 -0.10541918339E+03  0.11527045618E+03  0.47000000000E+01 0. -1.
          5    1    4    4  502    0 -0.39465062668E+02  0.11578081424E+01 -0.86400988043E+00  0.39770192407E+02  0.47000000000E+01 0.  1.
         -5    1    4    4    0  502  0.78414003721E+02  0.11145090404E+02 -0.90577338519E+02  0.12041309428E+03  0.47000000000E+01 0.  1.
<mgrwt>
<rscale>  0 0.27821792E+03</rscale>
<asrwt>0</asrwt>
<pdfrwt beam="1">  1       21 0.79755455E-02 0.27821792E+03</pdfrwt>
<pdfrwt beam="2">  1       21 0.57427920E-01 0.27821792E+03</pdfrwt>
<totfact> 0.33647029E+05</totfact>
</mgrwt>
</event>
<event>
 8    1  0.9331162E-006  0.3756457E+03  0.7546771E-02  0.1052555E+00
         21   -1    0    0  504  503  0.00000000000E+00  0.00000000000E+00  0.27636129498E+03  0.27636129498E+03  0.00000000000E+00 0. -1.
         21   -1    0    0  503  504 -0.00000000000E+00 -0.00000000000E+00 -0.12764963828E+03  0.12764963828E+03  0.00000000000E+00 0. -1.
         25    2    1    2    0    0  0.86686648997E+02  0.12027041239E+02 -0.43428400899E+02  0.15865313250E+03  0.12500226243E+03 0.  0.
         25    2    1    2    0    0 -0.86686648997E+02 -0.12027041239E+02  0.19214005760E+03  0.24535780076E+03  0.12499369513E+03 0.  0.
          5    1    3    3  501    0  0.82910304845E+02 -0.30659096845E+02  0.11019062950E+02  0.89205429303E+02  0.47000000000E+01 0. -1.
         -5    1    3    3    0  501  0.37763441518E+01  0.42686138084E+02 -0.54447463849E+02  0.69447703197E+02  0.47000000000E+01 0. -1.
          5    1    4    4  502    0 -0.79263327399E+02  0.46758297881E+02  0.13023205342E+03  0.15953523507E+03  0.47000000000E+01 0.  1.
         -5    1    4    4    0  502 -0.74233215977E+01 -0.58785339120E+02  0.61908004185E+02  0.85822565687E+02  0.47000000000E+01 0.  1.
<mgrwt>
<rscale>  0 0.37564568E+03</rscale>
<asrwt>0</asrwt>
<pdfrwt beam="1">  1       21 0.42517122E-01 0.37564568E+03</pdfrwt>
<pdfrwt beam="2">  1       21 0.19638406E-01 0.37564568E+03</pdfrwt>
<totfact> 0.12071296E+05</totfact>
</mgrwt>
</event>
<event>
 8    1  0.9331162E-006  0.3165189E+03  0.7546771E-02  0.1077263E+00
         21   -1    0    0  504  503  0.00000000000E+00  0.00000000000E+00  0.12716486752E+03  0.12716486752E+03  0.00000000000E+00 0. -1.
         21   -1    0    0  503  504 -0.00000000000E+00 -0.00000000000E+00 -0.19695729536E+03  0.19695729536E+03  0.00000000000E+00 0. -1.
         25    2    1    2    0    0  0.14408090075E+02  0.35697178338E+02 -0.12616942534E+03  0.18169516870E+03  0.12495010539E+03 0.  0.
         25    2    1    2    0    0 -0.14408090075E+02 -0.35697178338E+02  0.56376997490E+02  0.14242699418E+03  0.12500080490E+03 0.  0.
          5    1    3    3  501    0 -0.21554751951E+02 -0.23895811935E+02  0.52154057287E+01  0.32937935828E+02  0.47000000000E+01 0.  1.
         -5    1    3    3    0  501  0.35962842025E+02  0.59592990273E+02 -0.13138483107E+03  0.14875723287E+03  0.47000000000E+01 0.  1.
          5    1    4    4  502    0  0.38055803511E+02  0.27704562894E+02  0.11964335478E+02  0.48795720196E+02  0.47000000000E+01 0.  1.
         -5    1    4    4    0  502 -0.52463893586E+02 -0.63401741232E+02  0.44412662012E+02  0.93631273987E+02  0.47000000000E+01 0.  1.
<mgrwt>
<rscale>  0 0.31651887E+03</rscale>
<asrwt>0</asrwt>
<pdfrwt beam="1">  1       21 0.19563826E-01 0.31651887E+03</pdfrwt>
<pdfrwt beam="2">  1       21 0.30301122E-01 0.31651887E+03</pdfrwt>
<totfact> 0.24391488E+05</totfact>
</mgrwt>
</event>
<event>
 8    1  0.9331162E-006  0.3303219E+03  0.7546771E-02  0.1070995E+00
         21   -1    0    0  504  503  0.00000000000E+00  0.00000000000E+00  0.11319109048E+03  0.11319109048E+03  0.00000000000E+00 0. -1.
         21   -1    0    0  503  504 -0.00000000000E+00 -0.00000000000E+00 -0.24099191375E+03  0.24099191375E+03  0.00000000000E+00 0. -1.
         25    2    1    2    0    0 -0.28856064242E+02  0.10385825620E+03 -0.69974434495E+02  0.17928647625E+03  0.12501203645E+03 0.  0.
         25    2    1    2    0    0  0.28856064242E+02 -0.10385825620E+03 -0.57826388776E+02  0.17489652799E+03  0.12500277773E+03 0.  0.
          5    1    3    3  501    0 -0.47097047132E+02  0.11599880911E+03 -0.85803932975E+02  0.15184946650E+03  0.47000000000E+01 0.  1.
         -5    1    3    3    0  501  0.18240982890E+02 -0.12140552909E+02  0.15829498480E+02  0.27437009747E+02  0.47000000000E+01 0.  1.
          5    1    4    4  502    0  0.74354003166E+02 -0.41569865311E+02 -0.45343244478E+02  0.96616102739E+02  0.47000000000E+01 0.  1.
         -5    1    4    4    0  502 -0.45497938923E+02 -0.62288390885E+02 -0.12483144298E+02  0.78280425248E+02  0.47000000000E+01 0.  1.
<mgrwt>
<rscale>  0 0.33032189E+03</rscale>
<asrwt>0</asrwt>
<pdfrwt beam="1">  1       21 0.17414014E-01 0.33032189E+03</pdfrwt>
<pdfrwt beam="2">  1       21 0.37075679E-01 0.33032189E+03</pdfrwt>
<totfact> 0.20215937E+05</totfact>
</mgrwt>
</event>
<event>
 8    1  0.9331162E-006  0.2932910E+03  0.7546771E-02  0.1088643E+00
         21   -1    0    0  504  503  0.00000000000E+00  0.00000000000E+00  0.18719181617E+04  0.18719181617E+04  0.00000000000E+00 0.  1.
         21   -1    0    0  503  504 -0.00000000000E+00 -0.00000000000E+00 -0.11488164679E+02  0.11488164679E+02  0.00000000000E+00 0.  1.
         25    2    1    2    0    0  0.11707632819E+02  0.59286937287E+02  0.62731251406E+03  0.64249768231E+03  0.12502108571E+03 0.  0.
         25    2    1    2    0    0 -0.11707632819E+02 -0.59286937287E+02  0.12331174830E+04  0.12409086441E+04  0.12499410606E+03 0.  0.
          5    1    3    3  501    0 -0.56697657828E+02  0.29757939177E+02  0.29134656438E+03  0.29833717489E+03  0.47000000000E+01 0. -1.
         -5    1    3    3    0  501  0.68405290647E+02  0.29528998110E+02  0.33596594968E+03  0.34416050742E+03  0.47000000000E+01 0. -1.
          5    1    4    4  502    0 -0.12162625611E+02  0.35208397495E+02  0.54862223597E+03  0.54990545416E+03  0.47000000000E+01 0. -1.
         -5    1    4    4    0  502  0.45499279185E+00 -0.94495334782E+02  0.68449524699E+03  0.69100318991E+03  0.47000000000E+01 0. -1.
<mgrwt>
<rscale>  0 0.29329101E+03</rscale>
<asrwt>0</asrwt>
<pdfrwt beam="1">  1       21 0.28798717E+00 0.29329101E+03</pdfrwt>
<pdfrwt beam="2">  1       21 0.17674114E-02 0.29329101E+03</pdfrwt>
<totfact> 0.56132854E+04</totfact>
</mgrwt>
</event>
<event>
 8    1  0.9331162E-006  0.3326625E+03  0.7546771E-02  0.1069965E+00
         21   -1    0    0  504  503  0.00000000000E+00  0.00000000000E+00  0.23581931890E+03  0.23581931890E+03  0.00000000000E+00 0.  1.
         21   -1    0    0  503  504 -0.00000000000E+00 -0.00000000000E+00 -0.11731900931E+03  0.11731900931E+03  0.00000000000E+00 0.  1.
         25    2    1    2    0    0 -0.55464348075E+02 -0.83386609447E+01  0.15937273733E+03  0.21016814596E+03  0.12500061199E+03 0.  0.
         25    2    1    2    0    0  0.55464348075E+02  0.83386609447E+01 -0.40872427745E+02  0.14297018225E+03  0.12499636190E+03 0.  0.
          5    1    3    3  501    0 -0.11387420143E+02 -0.48712736396E+02  0.13741986639E+03  0.14631785162E+03  0.47000000000E+01 0. -1.
         -5    1    3    3    0  501 -0.44076927932E+02  0.40374075452E+02  0.21952870944E+02  0.63850294339E+02  0.47000000000E+01 0. -1.
          5    1    4    4  502    0  0.82102972989E+02  0.23601699613E+02  0.70672584903E+01  0.85848555846E+02  0.47000000000E+01 0.  1.
         -5    1    4    4    0  502 -0.26638624915E+02 -0.15263038668E+02 -0.47939686235E+02  0.57121626404E+02  0.47000000000E+01 0.  1.
<mgrwt>
<rscale>  0 0.33266252E+03</rscale>
<asrwt>0</asrwt>
<pdfrwt beam="1">  1       21 0.36279895E-01 0.33266252E+03</pdfrwt>
<pdfrwt beam="2">  1       21 0.18049078E-01 0.33266252E+03</pdfrwt>
<totfact> 0.19745276E+05</totfact>
</mgrwt>
</event>
<event>
 8    1  0.9331162E-006  0.2673209E+03  0.7546771E-02  0.1102823E+00
         21   -1    0    0  504  503  0.00000000000E+00  0.00000000000E+00  0.12626218736E+04  0.12626218736E+04  0.00000000000E+00 0. -1.
         21   -1    0    0  503  504 -0.00000000000E+00 -0.00000000000E+00 -0.14149219725E+02  0.14149219725E+02  0.00000000000E+00 0. -1.
         25    2    1    2    0    0  0.15961352947E+02 -0.40934845884E+02  0.70825832558E+03  0.72054565282E+03  0.12500302255E+03 0.  0.
         25    2    1    2    0    0 -0.15961352947E+02  0.40934845884E+02  0.54021432827E+03  0.55622544049E+03  0.12499917510E+03 0.  0.
          5    1    3    3  501    0 -0.25373610900E+02 -0.13722822807E+02  0.60739281100E+03  0.60809559516E+03  0.47000000000E+01 0. -1.
         -5    1    3    3    0  501  0.41334963847E+02 -0.27212023077E+02  0.10086551457E+03  0.11245005765E+03  0.47000000000E+01 0. -1.
          5    1    4    4  502    0 -0.12129850426E+02  0.65317793670E+02  0.13803664111E+03  0.15326366735E+03  0.47000000000E+01 0. -1.
         -5    1    4    4    0  502 -0.38315025210E+01 -0.24382947786E+02  0.40217768717E+03  0.40296177314E+03  0.47000000000E+01 0. -1.
<mgrwt>
<rscale>  0 0.26732089E+03</rscale>
<asrwt>0</asrwt>
<pdfrwt beam="1">  1       21 0.19424943E+00 0.26732089E+03</pdfrwt>
<pdfrwt beam="2">  1       21 0.21768040E-02 0.26732089E+03</pdfrwt>
<totfact> 0.15149350E+05</totfact>
</mgrwt>
</event>
<event>
 8    1  0.9331162E-006  0.2665464E+03  0.7546771E-02  0.1103273E+00
         21   -1    0    0  504  503  0.00000000000E+00  0.00000000000E+00  0.26354618833E+03  0.26354618833E+03  0.00000000000E+00 0. -1.
         21   -1    0    0  503  504 -0.00000000000E+00 -0.00000000000E+00 -0.67395180333E+02  0.67395180333E+02  0.00000000000E+00 0. -1.
         25    2    1    2    0    0  0.38308146437E+02  0.95692534499E+01  0.12793481916E+03  0.18317068345E+03  0.12500038650E+03 0.  0.
         25    2    1    2    0    0 -0.38308146437E+02 -0.95692534499E+01  0.68216188835E+02  0.14777068522E+03  0.12499456906E+03 0.  0.
          5    1    3    3  501    0  0.31742252749E+02 -0.41134043342E+02  0.80925461819E+01  0.52793554861E+02  0.47000000000E+01 0.  1.
         -5    1    3    3    0  501  0.65658936878E+01  0.50703296792E+02  0.11984227298E+03  0.13037712859E+03  0.47000000000E+01 0.  1.
          5    1    4    4  502    0 -0.27921766745E+02 -0.85659447271E+01  0.10508351457E+03  0.10916792341E+03  0.47000000000E+01 0. -1.
         -5    1    4    4    0  502 -0.10386379692E+02 -0.10033087228E+01 -0.36867325740E+02  0.38602761801E+02  0.47000000000E+01 0. -1.
<mgrwt>
<rscale>  0 0.26654638E+03</rscale>
<asrwt>0</asrwt>
<pdfrwt beam="1">  1       21 0.40545567E-01 0.26654638E+03</pdfrwt>
<pdfrwt beam="2">  1       21 0.10368489E-01 0.26654638E+03</pdfrwt>
<totfact> 0.43929063E+05</totfact>
</mgrwt>
</event>
<event>
 8    1  0.9331162E-006  0.3263975E+03  0.7546771E-02  0.1072742E+00
         21   -1    0    0  504  503  0.00000000000E+00  0.00000000000E+00  0.49101741493E+02  0.49101741493E+02  0.00000000000E+00 0.  1.
         21   -1    0    0  503  504 -0.00000000000E+00 -0.00000000000E+00 -0.54242148843E+03  0.54242148843E+03  0.00000000000E+00 0.  1.
         25    2    1    2    0    0 -0.10347495357E+03  0.41818481153E-02 -0.21520118463E+03  0.26952713346E+03  0.12500503897E+03 0.  0.
         25    2    1    2    0    0  0.10347495357E+03 -0.41818481153E-02 -0.27811856231E+03  0.32199609647E+03  0.12499794162E+03 0.  0.
          5    1    3    3  501    0  0.25163347282E+02  0.11844860971E+02 -0.17112539288E+02  0.32991268220E+02  0.47000000000E+01 0. -1.
         -5    1    3    3    0  501 -0.12863830085E+03 -0.11840679123E+02 -0.19808864534E+03  0.23653586524E+03  0.47000000000E+01 0. -1.
          5    1    4    4  502    0  0.53942529681E+02 -0.30707726708E+02 -0.24903320401E+03  0.25669512596E+03  0.47000000000E+01 0.  1.
         -5    1    4    4    0  502  0.49532423889E+02  0.30703544860E+02 -0.29085358296E+02  0.65300970517E+02  0.47000000000E+01 0.  1.
<mgrwt>
<rscale>  0 0.32639755E+03</rscale>
<asrwt>0</asrwt>
<pdfrwt beam="1">  1       21 0.75541136E-02 0.32639755E+03</pdfrwt>
<pdfrwt beam="2">  1       21 0.83449465E-01 0.32639755E+03</pdfrwt>
<totfact> 0.15927052E+05</totfact>
</mgrwt>
</event>
<event>
 8    1  0.9331162E-006  0.3025826E+03  0.7546771E-02  0.1083957E+00
         21   -1    0    0  504  503  0.00000000000E+00  0.00000000000E+00  0.13371007521E+03  0.13371007521E+03  0.00000000000E+00 0.  1.
         21   -1    0    0  503  504 -0.00000000000E+00 -0.00000000000E+00 -0.17118419894E+03  0.17118419894E+03  0.00000000000E+00 0.  1.
         25    2    1    2    0    0  0.27494848309E+02  0.33067944581E+02  0.55407784463E+02  0.14333318135E+03  0.12499969062E+03 0.  0.
         25    2    1    2    0    0 -0.27494848309E+02 -0.33067944581E+02 -0.92881908193E+02  0.16156109279E+03  0.12500192875E+03 0.  0.
          5    1    3    3  501    0  0.28116820640E+02  0.48132111154E+02  0.89623304565E+02  0.10564886392E+03  0.47000000000E+01 0. -1.
         -5    1    3    3    0  501 -0.62197233033E+00 -0.15064166573E+02 -0.34215520102E+02  0.37684317428E+02  0.47000000000E+01 0. -1.
          5    1    4    4  502    0 -0.59304831474E+02 -0.63081873718E+02 -0.49806841974E+02  0.99995986596E+02  0.47000000000E+01 0.  1.
         -5    1    4    4    0  502  0.31809983165E+02  0.30013929137E+02 -0.43075066220E+02  0.61565106197E+02  0.47000000000E+01 0.  1.
<mgrwt>
<rscale>  0 0.30258256E+03</rscale>
<asrwt>0</asrwt>
<pdfrwt beam="1">  1       21 0.20570781E-01 0.30258256E+03</pdfrwt>
<pdfrwt beam="2">  1       21 0.26336031E-01 0.30258256E+03</pdfrwt>
<totfact> 0.29272052E+05</totfact>
</mgrwt>
</event>
<event>
 8    1  0.9331162E-006  0.2788447E+03  0.7546771E-02  0.1096322E+00
         21   -1    0    0  504  503  0.00000000000E+00  0.00000000000E+00  0.59627024013E+03  0.59627024013E+03  0.00000000000E+00 0.  1.
         21   -1    0    0  503  504 -0.00000000000E+00 -0.00000000000E+00 -0.32600298494E+02  0.32600298494E+02  0.00000000000E+00 0.  1.
         25    2    1    2    0    0  0.33992087329E+02 -0.26668117104E+02  0.38128085475E+03  0.40357661058E+03  0.12502935631E+03 0.  0.
         25    2    1    2    0    0 -0.33992087329E+02  0.26668117104E+02  0.18238908688E+03  0.22529392804E+03  0.12499969811E+03 0.  0.
          5    1    3    3  501    0  0.44085908222E+02  0.17065569142E+02  0.33706738196E+03  0.34039875284E+03  0.47000000000E+01 0.  1.
         -5    1    3    3    0  501 -0.10093820893E+02 -0.43733686245E+02  0.44213472798E+02  0.63177857748E+02  0.47000000000E+01 0.  1.
          5    1    4    4  502    0 -0.52237251640E+02  0.36868961180E+02  0.19154895793E+03  0.20199293068E+03  0.47000000000E+01 0.  1.
         -5    1    4    4    0  502  0.18245164311E+02 -0.10200844076E+02 -0.91598710500E+01  0.23300997366E+02  0.47000000000E+01 0.  1.
<mgrwt>
<rscale>  0 0.27884467E+03</rscale>
<asrwt>0</asrwt>
<pdfrwt beam="1">  1       21 0.91733875E-01 0.27884467E+03</pdfrwt>
<pdfrwt beam="2">  1       21 0.50154310E-02 0.27884467E+03</pdfrwt>
<totfact> 0.26256002E+05</totfact>
</mgrwt>
</event>
<event>
 8    1  0.9331162E-006  0.2842370E+03  0.7546771E-02  0.1093397E+00
         21   -1    0    0  504  503  0.00000000000E+00  0.00000000000E+00  0.60637166874E+02  0.60637166874E+02  0.00000000000E+00 0.  1.
         21   -1    0    0  503  504 -0.00000000000E+00 -0.00000000000E+00 -0.33309050020E+03  0.33309050020E+03  0.00000000000E+00 0.  1.
         25    2    1    2    0    0  0.64897863007E+02 -0.32156572173E+01 -0.11042210856E+03  0.17901804161E+03  0.12502937291E+03 0.  0.
         25    2    1    2    0    0 -0.64897863007E+02  0.32156572173E+01 -0.16203122477E+03  0.21470962547E+03  0.12499612951E+03 0.  0.
          5    1    3    3  501    0 -0.64008763334E+01 -0.25491995035E+02 -0.99936372595E+02  0.10344168210E+03  0.47000000000E+01 0.  1.
         -5    1    3    3    0  501  0.71298739340E+02  0.22276337817E+02 -0.10485735966E+02  0.75576359510E+02  0.47000000000E+01 0.  1.
          5    1    4    4  502    0  0.11223713977E+02 -0.44783192366E+02 -0.81839395411E+02  0.94081255918E+02  0.47000000000E+01 0.  1.
         -5    1    4    4    0  502 -0.76121576984E+02  0.47998849584E+02 -0.80191829357E+02  0.12062836955E+03  0.47000000000E+01 0.  1.
<mgrwt>
<rscale>  0 0.28423697E+03</rscale>
<asrwt>0</asrwt>
<pdfrwt beam="1">  1       21 0.93287948E-02 0.28423697E+03</pdfrwt>
<pdfrwt beam="2">  1       21 0.51244693E-01 0.28423697E+03</pdfrwt>
<totfact> 0.32492966E+05</totfact>
</mgrwt>
</event>
<event>
 8    1  0.9331162E-006  0.3873418E+03  0.7546771E-02  0.1048253E+00
         21   -1    0    0  504  503  0.00000000000E+00  0.00000000000E+00  0.37376222289E+02  0.37376222289E+02  0.00000000000E+00 0. -1.
         21   -1    0    0  503  504 -0.00000000000E+00 -0.00000000000E+00 -0.10035367394E+04  0.10035367394E+04  0.00000000000E+00 0. -1.
         25    2    1    2    0    0 -0.11309526293E+03  0.72276020684E+02 -0.31592329436E+03  0.36530373818E+03  0.12499972620E+03 0.  0.
         25    2    1    2    0    0  0.11309526293E+03 -0.72276020684E+02 -0.65023722276E+03  0.67560922351E+03  0.12500006147E+03 0.  0.
          5    1    3    3  501    0 -0.77001386198E+02  0.21129056093E+02 -0.55336023322E+02  0.97261585248E+02  0.47000000000E+01 0. -1.
         -5    1    3    3    0  501 -0.36093876736E+02  0.51146964591E+02 -0.26058727103E+03  0.26804215293E+03  0.47000000000E+01 0. -1.
          5    1    4    4  502    0  0.40899810575E+01 -0.16788869462E+01 -0.32924852922E+03  0.32931175291E+03  0.47000000000E+01 0. -1.
         -5    1    4    4    0  502  0.10900528188E+03 -0.70597133738E+02 -0.32098869353E+03  0.34629747060E+03  0.47000000000E+01 0. -1.
<mgrwt>
<rscale>  0 0.38734177E+03</rscale>
<asrwt>0</asrwt>
<pdfrwt beam="1">  1       21 0.57501883E-02 0.38734177E+03</pdfrwt>
<pdfrwt beam="2">  1       21 0.15439026E+00 0.38734177E+03</pdfrwt>
<totfact> 0.54273934E+04</totfact>
</mgrwt>
</event>
<event>
 8    1  0.9331162E-006  0.4139260E+03  0.7546771E-02  0.1039061E+00
         21   -1    0    0  504  503  0.00000000000E+00  0.00000000000E+00  0.56584881449E+02  0.56584881449E+02  0.00000000000E+00 0.  1.
         21   -1    0    0  503  504 -0.00000000000E+00 -0.00000000000E+00 -0.75698120311E+03  0.75698120311E+03  0.00000000000E+00 0.  1.
         25    2    1    2    0    0  0.56840888169E+02 -0.11612174222E+03 -0.14884615928E+03  0.23343925268E+03  0.12499423976E+03 0.  0.
         25    2    1    2    0    0 -0.56840888169E+02  0.11612174222E+03 -0.55155016239E+03  0.58012683189E+03  0.12499765543E+03 0.  0.
          5    1    3    3  501    0 -0.13034959464E+02 -0.15597984683E+02  0.17233218824E+02  0.27060693366E+02  0.47000000000E+01 0.  1.
         -5    1    3    3    0  501  0.69875847634E+02 -0.10052375754E+03 -0.16607937810E+03  0.20637855931E+03  0.47000000000E+01 0.  1.
          5    1    4    4  502    0  0.87630329750E+01  0.57960975295E+02 -0.73746467904E+02  0.94323363661E+02  0.47000000000E+01 0.  1.
         -5    1    4    4    0  502 -0.65603921144E+02  0.58160766928E+02 -0.47780369448E+03  0.48580346823E+03  0.47000000000E+01 0.  1.
<mgrwt>
<rscale>  0 0.41392604E+03</rscale>
<asrwt>0</asrwt>
<pdfrwt beam="1">  1       21 0.87053673E-02 0.41392604E+03</pdfrwt>
<pdfrwt beam="2">  1       21 0.11645863E+00 0.41392604E+03</pdfrwt>
<totfact> 0.54384091E+04</totfact>
</mgrwt>
</event>
<event>
 8    1  0.9331162E-006  0.3998000E+03  0.7546771E-02  0.1043849E+00
         21   -1    0    0  504  503  0.00000000000E+00  0.00000000000E+00  0.11918508220E+03  0.11918508220E+03  0.00000000000E+00 0.  1.
         21   -1    0    0  503  504 -0.00000000000E+00 -0.00000000000E+00 -0.33527696006E+03  0.33527696006E+03  0.00000000000E+00 0.  1.
         25    2    1    2    0    0  0.90980681522E+02  0.17250580431E+02 -0.25074931767E+03  0.29507918935E+03  0.12498576214E+03 0.  0.
         25    2    1    2    0    0 -0.90980681522E+02 -0.17250580431E+02  0.34657439816E+02  0.15938285292E+03  0.12500675475E+03 0.  0.
          5    1    3    3  501    0  0.37354956316E+02 -0.41485983293E+02 -0.18003697638E+03  0.18855206823E+03  0.47000000000E+01 0.  1.
         -5    1    3    3    0  501  0.53625725206E+02  0.58736563723E+02 -0.70712341298E+02  0.10652712112E+03  0.47000000000E+01 0.  1.
          5    1    4    4  502    0 -0.97107416903E+02 -0.23687155620E+01  0.70296916984E+02  0.11999669899E+03  0.47000000000E+01 0.  1.
         -5    1    4    4    0  502  0.61267353815E+01 -0.14881864869E+02 -0.35639477168E+02  0.39386153928E+02  0.47000000000E+01 0.  1.
<mgrwt>
<rscale>  0 0.39980001E+03</rscale>
<asrwt>0</asrwt>
<pdfrwt beam="1">  1       21 0.18336167E-01 0.39980001E+03</pdfrwt>
<pdfrwt beam="2">  1       21 0.51581070E-01 0.39980001E+03</pdfrwt>
<totfact> 0.91102205E+04</totfact>
</mgrwt>
</event>
<event>
 8    1  0.9331162E-006  0.2994986E+03  0.7546771E-02  0.1085492E+00
         21   -1    0    0  504  503  0.00000000000E+00  0.00000000000E+00  0.45475899748E+02  0.45475899748E+02  0.00000000000E+00 0.  1.
         21   -1    0    0  503  504 -0.00000000000E+00 -0.00000000000E+00 -0.49311496215E+03  0.49311496215E+03  0.00000000000E+00 0.  1.
         25    2    1    2    0    0 -0.33322439575E+02  0.74148790991E+02 -0.19880218039E+03  0.24849908954E+03  0.12498424856E+03 0.  0.
         25    2    1    2    0    0  0.33322439575E+02 -0.74148790991E+02 -0.24883688202E+03  0.29009177237E+03  0.12500005744E+03 0.  0.
          5    1    3    3  501    0 -0.10511275884E+02  0.10463461270E+03 -0.11258176159E+03  0.15412862205E+03  0.47000000000E+01 0. -1.
         -5    1    3    3    0  501 -0.22811163691E+02 -0.30485821704E+02 -0.86220418803E+02  0.94370467481E+02  0.47000000000E+01 0. -1.
          5    1    4    4  502    0  0.80673277856E+02 -0.42084322005E+02 -0.13959608545E+03  0.16669860525E+03  0.47000000000E+01 0. -1.
         -5    1    4    4    0  502 -0.47350838282E+02 -0.32064468985E+02 -0.10924079656E+03  0.12339316712E+03  0.47000000000E+01 0. -1.
<mgrwt>
<rscale>  0 0.29949856E+03</rscale>
<asrwt>0</asrwt>
<pdfrwt beam="1">  1       21 0.69962922E-02 0.29949856E+03</pdfrwt>
<pdfrwt beam="2">  1       21 0.75863841E-01 0.29949856E+03</pdfrwt>
<totfact> 0.22791459E+05</totfact>
</mgrwt>
</event>
<event>
 8    1  0.9331162E-006  0.3497202E+03  0.7546771E-02  0.1062730E+00
         21   -1    0    0  504  503  0.00000000000E+00  0.00000000000E+00  0.35022318611E+03  0.35022318611E+03  0.00000000000E+00 0.  1.
         21   -1    0    0  503  504 -0.00000000000E+00 -0.00000000000E+00 -0.87304502041E+02  0.87304502041E+02  0.00000000000E+00 0.  1.
         25    2    1    2    0    0 -0.55861728928E+02  0.22871922136E+02  0.26449577475E+03  0.29870849723E+03  0.12500037551E+03 0.  0.
         25    2    1    2    0    0  0.55861728928E+02 -0.22871922136E+02 -0.15770906797E+01  0.13881919092E+03  0.12499849188E+03 0.  0.
          5    1    3    3  501    0 -0.63407232625E+02  0.36721368759E+02  0.27118128349E+03  0.28094539432E+03  0.47000000000E+01 0.  1.
         -5    1    3    3    0  501  0.75455036973E+01 -0.13849446622E+02 -0.66855087458E+01  0.17763102910E+02  0.47000000000E+01 0.  1.
          5    1    4    4  502    0  0.89295378745E+02  0.95234814817E+01  0.10388716458E+02  0.90522797098E+02  0.47000000000E+01 0. -1.
         -5    1    4    4    0  502 -0.33433649818E+02 -0.32395403618E+02 -0.11965807138E+02  0.48296393821E+02  0.47000000000E+01 0. -1.
<mgrwt>
<rscale>  0 0.34972024E+03</rscale>
<asrwt>0</asrwt>
<pdfrwt beam="1">  1       21 0.53880490E-01 0.34972024E+03</pdfrwt>
<pdfrwt beam="2">  1       21 0.13431462E-01 0.34972024E+03</pdfrwt>
<totfact> 0.14946059E+05</totfact>
</mgrwt>
</event>
<event>
 8    1  0.9331162E-006  0.2616672E+03  0.7546771E-02  0.1106146E+00
         21   -1    0    0  504  503  0.00000000000E+00  0.00000000000E+00  0.13803027874E+04  0.13803027874E+04  0.00000000000E+00 0.  1.
         21   -1    0    0  503  504 -0.00000000000E+00 -0.00000000000E+00 -0.12401214400E+02  0.12401214400E+02  0.00000000000E+00 0.  1.
         25    2    1    2    0    0 -0.24995866456E+02 -0.10904835081E+02  0.53889697497E+03  0.55387591773E+03  0.12499949537E+03 0.  0.
         25    2    1    2    0    0  0.24995866456E+02  0.10904835081E+02  0.82900459800E+03  0.83882808403E+03  0.12506087437E+03 0.  0.
          5    1    3    3  501    0  0.13948407247E+02  0.35583353193E+02  0.61096134421E+02  0.72218839166E+02  0.47000000000E+01 0. -1.
         -5    1    3    3    0  501 -0.38944273703E+02 -0.46488188274E+02  0.47780084055E+03  0.48165707857E+03  0.47000000000E+01 0. -1.
          5    1    4    4  502    0 -0.41118208621E+02 -0.18377629161E+02  0.49428838233E+03  0.49635827709E+03  0.47000000000E+01 0.  1.
         -5    1    4    4    0  502  0.66114075078E+02  0.29282464242E+02  0.33471621567E+03  0.34246980694E+03  0.47000000000E+01 0.  1.
<mgrwt>
<rscale>  0 0.26166720E+03</rscale>
<asrwt>0</asrwt>
<pdfrwt beam="1">  1       21 0.21235415E+00 0.26166720E+03</pdfrwt>
<pdfrwt beam="2">  1       21 0.19078802E-02 0.26166720E+03</pdfrwt>
<totfact> 0.14396887E+05</totfact>
</mgrwt>
</event>
<event>
 8    1  0.9331162E-006  0.2771608E+03  0.7546771E-02  0.1097250E+00
         21   -1    0    0  504  503  0.00000000000E+00  0.00000000000E+00  0.66241886936E+02  0.66241886936E+02  0.00000000000E+00 0.  1.
         21   -1    0    0  503  504 -0.00000000000E+00 -0.00000000000E+00 -0.28991522887E+03  0.28991522887E+03  0.00000000000E+00 0.  1.
         25    2    1    2    0    0 -0.26835684782E+02 -0.27263628601E+02 -0.52747004941E+02  0.14096348518E+03  0.12499999281E+03 0.  0.
         25    2    1    2    0    0  0.26835684782E+02  0.27263628601E+02 -0.17092633699E+03  0.21519363062E+03  0.12501610521E+03 0.  0.
          5    1    3    3  501    0 -0.15492941232E+02  0.23709370566E+02 -0.77746165045E+02  0.82877751296E+02  0.47000000000E+01 0. -1.
         -5    1    3    3    0  501 -0.11342743550E+02 -0.50972999167E+02  0.24999160103E+02  0.58085733887E+02  0.47000000000E+01 0. -1.
          5    1    4    4  502    0 -0.45882198951E+02 -0.93242187854E+01 -0.44573592888E+02  0.64815217499E+02  0.47000000000E+01 0. -1.
         -5    1    4    4    0  502  0.72717883733E+02  0.36587847387E+02 -0.12635274411E+03  0.15037841313E+03  0.47000000000E+01 0. -1.
<mgrwt>
<rscale>  0 0.27716083E+03</rscale>
<asrwt>0</asrwt>
<pdfrwt beam="1">  1       21 0.10191059E-01 0.27716083E+03</pdfrwt>
<pdfrwt beam="2">  1       21 0.44602343E-01 0.27716083E+03</pdfrwt>
<totfact> 0.37167498E+05</totfact>
</mgrwt>
</event>
<event>
 8    1  0.9331162E-006  0.4001400E+03  0.7546771E-02  0.1043731E+00
         21   -1    0    0  504  503  0.00000000000E+00  0.00000000000E+00  0.10309672908E+04  0.10309672908E+04  0.00000000000E+00 0. -1.
         21   -1    0    0  503  504 -0.00000000000E+00 -0.00000000000E+00 -0.38825672835E+02  0.38825672835E+02  0.00000000000E+00 0. -1.
         25    2    1    2    0    0 -0.69454811621E+02 -0.94836580126E+02  0.22097416481E+03  0.27977213371E+03  0.12499966999E+03 0.  0.
         25    2    1    2    0    0  0.69454811621E+02  0.94836580126E+02  0.77116745316E+03  0.79002082993E+03  0.12496288700E+03 0.  0.
          5    1    3    3  501    0 -0.58605060788E+02  0.13130301448E+02  0.55968895928E+02  0.82228737540E+02  0.47000000000E+01 0.  1.
         -5    1    3    3    0  501 -0.10849750833E+02 -0.10796688157E+03  0.16500526888E+03  0.19754339617E+03  0.47000000000E+01 0.  1.
          5    1    4    4  502    0 -0.23011841500E+02  0.69673416028E+02  0.27483717902E+03  0.28450218755E+03  0.47000000000E+01 0.  1.
         -5    1    4    4    0  502  0.92466653121E+02  0.25163164098E+02  0.49633027413E+03  0.50551864237E+03  0.47000000000E+01 0.  1.
<mgrwt>
<rscale>  0 0.40013997E+03</rscale>
<asrwt>0</asrwt>
<pdfrwt beam="1">  1       21 0.15861033E+00 0.40013997E+03</pdfrwt>
<pdfrwt beam="2">  1       21 0.59731812E-02 0.40013997E+03</pdfrwt>
<totfact> 0.46996692E+04</totfact>
</mgrwt>
</event>
<event>
 8    1  0.9331162E-006  0.3395072E+03  0.7546771E-02  0.1067006E+00
         21   -1    0    0  504  503  0.00000000000E+00  0.00000000000E+00  0.11462812627E+03  0.11462812627E+03  0.00000000000E+00 0. -1.
         21   -1    0    0  503  504 -0.00000000000E+00 -0.00000000000E+00 -0.25138932365E+03  0.25138932365E+03  0.00000000000E+00 0. -1.
         25    2    1    2    0    0  0.49160235010E+02 -0.24871332028E+02  0.40266000476E+02  0.14241259133E+03  0.12499873404E+03 0.  0.
         25    2    1    2    0    0 -0.49160235010E+02  0.24871332028E+02 -0.17702719786E+03  0.22360485859E+03  0.12500076857E+03 0.  0.
          5    1    3    3  501    0  0.50973006513E+02 -0.11182221844E+02 -0.36767915396E+02  0.64009835814E+02  0.47000000000E+01 0. -1.
         -5    1    3    3    0  501 -0.18127715037E+01 -0.13689110184E+02  0.77033915872E+02  0.78402755518E+02  0.47000000000E+01 0. -1.
          5    1    4    4  502    0  0.31182793745E+02 -0.26016548911E+02 -0.62226309839E+02  0.74454221365E+02  0.47000000000E+01 0.  1.
         -5    1    4    4    0  502 -0.80343028754E+02  0.50887880940E+02 -0.11480088802E+03  0.14915063723E+03  0.47000000000E+01 0.  1.
<mgrwt>
<rscale>  0 0.33950721E+03</rscale>
<asrwt>0</asrwt>
<pdfrwt beam="1">  1       21 0.17635097E-01 0.33950721E+03</pdfrwt>
<pdfrwt beam="2">  1       21 0.38675280E-01 0.33950721E+03</pdfrwt>
<totfact> 0.18088081E+05</totfact>
</mgrwt>
</event>
<event>
 8    1  0.9331162E-006  0.3048852E+03  0.7546771E-02  0.1082824E+00
         21   -1    0    0  504  503  0.00000000000E+00  0.00000000000E+00  0.13734754730E+03  0.13734754730E+03  0.00000000000E+00 0.  1.
         21   -1    0    0  503  504 -0.00000000000E+00 -0.00000000000E+00 -0.16919667325E+03  0.16919667325E+03  0.00000000000E+00 0.  1.
         25    2    1    2    0    0 -0.59948300171E+02  0.58639143628E+02  0.83368429827E+01  0.15075075596E+03  0.12499575838E+03 0.  0.
         25    2    1    2    0    0  0.59948300171E+02 -0.58639143628E+02 -0.40185968937E+02  0.15579346459E+03  0.12499737457E+03 0.  0.
          5    1    3    3  501    0 -0.37617922562E+02  0.97945410663E+02  0.74854194221E+01  0.10529260692E+03  0.47000000000E+01 0. -1.
         -5    1    3    3    0  501 -0.22330377609E+02 -0.39306267035E+02  0.85142356060E+00  0.45458149044E+02  0.47000000000E+01 0. -1.
          5    1    4    4  502    0 -0.57772853765E+01  0.32738610829E+02  0.58709555815E+01  0.34084480116E+02  0.47000000000E+01 0.  1.
         -5    1    4    4    0  502  0.65725585547E+02 -0.91377754457E+02 -0.46056924519E+02  0.12170898447E+03  0.47000000000E+01 0.  1.
<mgrwt>
<rscale>  0 0.30488521E+03</rscale>
<asrwt>0</asrwt>
<pdfrwt beam="1">  1       21 0.21130392E-01 0.30488521E+03</pdfrwt>
<pdfrwt beam="2">  1       21 0.26030257E-01 0.30488521E+03</pdfrwt>
<totfact> 0.28444821E+05</totfact>
</mgrwt>
</event>
<event>
 8    1  0.9331162E-006  0.2944338E+03  0.7546771E-02  0.1088057E+00
         21   -1    0    0  504  503  0.00000000000E+00  0.00000000000E+00  0.18773043906E+03  0.18773043906E+03  0.00000000000E+00 0.  1.
         21   -1    0    0  503  504 -0.00000000000E+00 -0.00000000000E+00 -0.11544644753E+03  0.11544644753E+03  0.00000000000E+00 0.  1.
         25    2    1    2    0    0 -0.33592408196E+02  0.46499104987E+02 -0.17914639751E+02  0.13869537626E+03  0.12499942570E+03 0.  0.
         25    2    1    2    0    0  0.33592408196E+02 -0.46499104987E+02  0.90198631280E+02  0.16448151033E+03  0.12501102952E+03 0.  0.
          5    1    3    3  501    0 -0.61505065015E+02 -0.12489228300E+02  0.16087377496E+02  0.64959584056E+02  0.47000000000E+01 0. -1.
         -5    1    3    3    0  501  0.27912656818E+02  0.58988333288E+02 -0.34002017248E+02  0.73735792202E+02  0.47000000000E+01 0. -1.
          5    1    4    4  502    0  0.75427448635E+01 -0.86479532942E+02  0.73071041142E+02  0.11356526613E+03  0.47000000000E+01 0.  1.
         -5    1    4    4    0  502  0.26049663333E+02  0.39980427955E+02  0.17127590138E+02  0.50916244197E+02  0.47000000000E+01 0.  1.
<mgrwt>
<rscale>  0 0.29443378E+03</rscale>
<asrwt>0</asrwt>
<pdfrwt beam="1">  1       21 0.28881606E-01 0.29443378E+03</pdfrwt>
<pdfrwt beam="2">  1       21 0.17760992E-01 0.29443378E+03</pdfrwt>
<totfact> 0.32271025E+05</totfact>
</mgrwt>
</event>
<event>
 8    1  0.9331162E-006  0.2675693E+03  0.7546771E-02  0.1102679E+00
         21   -1    0    0  504  503  0.00000000000E+00  0.00000000000E+00  0.17044665843E+03  0.17044665843E+03  0.00000000000E+00 0. -1.
         21   -1    0    0  503  504 -0.00000000000E+00 -0.00000000000E+00 -0.10500842056E+03  0.10500842056E+03  0.00000000000E+00 0. -1.
         25    2    1    2    0    0 -0.13728585143E+02  0.13742084378E+02 -0.12105691724E+02  0.12708028997E+03  0.12500213356E+03 0.  0.
         25    2    1    2    0    0  0.13728585143E+02 -0.13742084378E+02  0.77543929592E+02  0.14837478901E+03  0.12499879225E+03 0.  0.
          5    1    3    3  501    0  0.32134698931E+02  0.20081177368E+01 -0.54423716981E+02  0.63409008683E+02  0.47000000000E+01 0. -1.
         -5    1    3    3    0  501 -0.45863284074E+02  0.11733966641E+02  0.42318025257E+02  0.63671281287E+02  0.47000000000E+01 0. -1.
          5    1    4    4  502    0  0.56773552897E+02 -0.10705029617E+02  0.86429784511E+02  0.10406743784E+03  0.47000000000E+01 0.  1.
         -5    1    4    4    0  502 -0.43044967754E+02 -0.30370547608E+01 -0.88858549184E+01  0.44307351175E+02  0.47000000000E+01 0.  1.
<mgrwt>
<rscale>  0 0.26756931E+03</rscale>
<asrwt>0</asrwt>
<pdfrwt beam="1">  1       21 0.26222563E-01 0.26756931E+03</pdfrwt>
<pdfrwt beam="2">  1       21 0.16155142E-01 0.26756931E+03</pdfrwt>
<totfact> 0.46662648E+05</totfact>
</mgrwt>
</event>
<event>
 8    1  0.9331162E-006  0.3906326E+03  0.7546771E-02  0.1047072E+00
         21   -1    0    0  504  503  0.00000000000E+00  0.00000000000E+00  0.31249234439E+03  0.31249234439E+03  0.00000000000E+00 0. -1.
         21   -1    0    0  503  504 -0.00000000000E+00 -0.00000000000E+00 -0.12207804517E+03  0.12207804517E+03  0.00000000000E+00 0. -1.
         25    2    1    2    0    0  0.15839950951E+01 -0.14851575919E+03  0.71377747951E+02  0.20685441688E+03  0.12503810264E+03 0.  0.
         25    2    1    2    0    0 -0.15839950951E+01  0.14851575919E+03  0.11903655127E+03  0.22771597268E+03  0.12500169561E+03 0.  0.
          5    1    3    3  501    0  0.51735171595E+02 -0.79830930323E+02 -0.74158656631E+00  0.95247810300E+02  0.47000000000E+01 0. -1.
         -5    1    3    3    0  501 -0.50151176500E+02 -0.68684828868E+02  0.72119334518E+02  0.11160660658E+03  0.47000000000E+01 0. -1.
          5    1    4    4  502    0 -0.13193636181E+02 -0.19183870943E+02  0.27184512320E+02  0.36099593490E+02  0.47000000000E+01 0. -1.
         -5    1    4    4    0  502  0.11609641085E+02  0.16769963013E+03  0.91852038951E+02  0.19161637919E+03  0.47000000000E+01 0. -1.
<mgrwt>
<rscale>  0 0.39063259E+03</rscale>
<asrwt>0</asrwt>
<pdfrwt beam="1">  1       21 0.48075745E-01 0.39063259E+03</pdfrwt>
<pdfrwt beam="2">  1       21 0.18781238E-01 0.39063259E+03</pdfrwt>
<totfact> 0.10128532E+05</totfact>
</mgrwt>
</event>
<event>
 8    1  0.9331162E-006  0.2739451E+03  0.7546771E-02  0.1099043E+00
         21   -1    0    0  504  503  0.00000000000E+00  0.00000000000E+00  0.18244394411E+03  0.18244394411E+03  0.00000000000E+00 0. -1.
         21   -1    0    0  503  504 -0.00000000000E+00 -0.00000000000E+00 -0.10283422830E+03  0.10283422830E+03  0.00000000000E+00 0. -1.
         25    2    1    2    0    0  0.52540979333E+02 -0.13154365843E+02  0.24906357808E+02  0.13848610812E+03  0.12499793452E+03 0.  0.
         25    2    1    2    0    0 -0.52540979333E+02  0.13154365843E+02  0.54703358001E+02  0.14679206428E+03  0.12498744301E+03 0.  0.
          5    1    3    3  501    0  0.15281612061E+02 -0.64935462156E+02  0.31984366695E+02  0.74129829525E+02  0.47000000000E+01 0. -1.
         -5    1    3    3    0  501  0.37259367271E+02  0.51781096313E+02 -0.70780088865E+01  0.64356278595E+02  0.47000000000E+01 0. -1.
          5    1    4    4  502    0  0.31053699471E+01  0.57921785083E+02  0.47002459794E+02  0.74805733313E+02  0.47000000000E+01 0.  1.
         -5    1    4    4    0  502 -0.55646349280E+02 -0.44767419241E+02  0.77008982070E+01  0.71986330972E+02  0.47000000000E+01 0.  1.
<mgrwt>
<rscale>  0 0.27394512E+03</rscale>
<asrwt>0</asrwt>
<pdfrwt beam="1">  1       21 0.28068299E-01 0.27394512E+03</pdfrwt>
<pdfrwt beam="2">  1       21 0.15820651E-01 0.27394512E+03</pdfrwt>
<totfact> 0.42449858E+05</totfact>
</mgrwt>
</event>
<event>
 8    1  0.9331162E-006  0.4112899E+03  0.7546771E-02  0.1039939E+00
         21   -1    0    0  504  503  0.00000000000E+00  0.00000000000E+00  0.20956546557E+02  0.20956546557E+02  0.00000000000E+00 0.  1.
         21   -1    0    0  503  504 -0.00000000000E+00 -0.00000000000E+00 -0.20179779940E+04  0.20179779940E+04  0.00000000000E+00 0.  1.
         25    2    1    2    0    0 -0.20428890664E+02 -0.14793428701E+03 -0.67100201697E+03  0.69869115563E+03  0.12499492528E+03 0.  0.
         25    2    1    2    0    0  0.20428890664E+02  0.14793428701E+03 -0.13260194305E+04  0.13402433849E+04  0.12499163164E+03 0.  0.
          5    1    3    3  501    0  0.22075218687E+02  0.12639723291E+02 -0.56902517586E+02  0.62506514801E+02  0.47000000000E+01 0.  1.
         -5    1    3    3    0  501 -0.42504109351E+02 -0.16057401030E+03 -0.61409949938E+03  0.63618464083E+03  0.47000000000E+01 0.  1.
          5    1    4    4  502    0  0.67721614912E+02  0.12424818959E+03 -0.97875928155E+03  0.98894673818E+03  0.47000000000E+01 0. -1.
         -5    1    4    4    0  502 -0.47292724248E+02  0.23686097416E+02 -0.34726014891E+03  0.35129664672E+03  0.47000000000E+01 0. -1.
<mgrwt>
<rscale>  0 0.41128992E+03</rscale>
<asrwt>0</asrwt>
<pdfrwt beam="1">  1       21 0.32240840E-02 0.41128992E+03</pdfrwt>
<pdfrwt beam="2">  1       21 0.31045816E+00 0.41128992E+03</pdfrwt>
<totfact> 0.14315597E+04</totfact>
</mgrwt>
</event>
<event>
 8    1  0.9331162E-006  0.4486535E+03  0.7546771E-02  0.1028124E+00
         21   -1    0    0  504  503  0.00000000000E+00  0.00000000000E+00  0.90762714496E+03  0.90762714496E+03  0.00000000000E+00 0.  1.
         21   -1    0    0  503  504 -0.00000000000E+00 -0.00000000000E+00 -0.55444004763E+02  0.55444004763E+02  0.00000000000E+00 0.  1.
         25    2    1    2    0    0 -0.43959524220E+02  0.36278517087E+02  0.80674161426E+03  0.81836783442E+03  0.12508121223E+03 0.  0.
         25    2    1    2    0    0  0.43959524220E+02 -0.36278517087E+02  0.45441525930E+02  0.14470331530E+03  0.12500218642E+03 0.  0.
          5    1    3    3  501    0 -0.40802777236E+02  0.18763453116E+02  0.79553897071E+03  0.79681947624E+03  0.47000000000E+01 0.  1.
         -5    1    3    3    0  501 -0.31567469832E+01  0.17515063971E+02  0.11202643556E+02  0.21548358176E+02  0.47000000000E+01 0.  1.
          5    1    4    4  502    0  0.68242801709E+02  0.64296659714E+01 -0.11160377322E+02  0.69606498343E+02  0.47000000000E+01 0. -1.
         -5    1    4    4    0  502 -0.24283277489E+02 -0.42708183058E+02  0.56601903251E+02  0.75096816959E+02  0.47000000000E+01 0. -1.
<mgrwt>
<rscale>  0 0.44865347E+03</rscale>
<asrwt>0</asrwt>
<pdfrwt beam="1">  1       21 0.13963493E+00 0.44865347E+03</pdfrwt>
<pdfrwt beam="2">  1       21 0.85298475E-02 0.44865347E+03</pdfrwt>
<totfact> 0.34990940E+04</totfact>
</mgrwt>
</event>
<event>
 8    1  0.9331162E-006  0.3215502E+03  0.7546771E-02  0.1074938E+00
         21   -1    0    0  504  503  0.00000000000E+00  0.00000000000E+00  0.10335254240E+04  0.10335254240E+04  0.00000000000E+00 0.  1.
         21   -1    0    0  503  504 -0.00000000000E+00 -0.00000000000E+00 -0.25010149463E+02  0.25010149463E+02  0.00000000000E+00 0.  1.
         25    2    1    2    0    0  0.67420189594E+02 -0.45254544946E+02  0.30601423990E+03  0.34039417047E+03  0.12502008024E+03 0.  0.
         25    2    1    2    0    0 -0.67420189594E+02  0.45254544946E+02  0.70250103465E+03  0.71814140301E+03  0.12500366084E+03 0.  0.
          5    1    3    3  501    0  0.10410465596E+03 -0.28434501692E+02  0.21051431943E+03  0.23661079638E+03  0.47000000000E+01 0. -1.
         -5    1    3    3    0  501 -0.36684466364E+02 -0.16820043254E+02  0.95499920471E+02  0.10378337409E+03  0.47000000000E+01 0. -1.
          5    1    4    4  502    0  0.27967727303E+02  0.15068889837E+01  0.32678118377E+03  0.32801295181E+03  0.47000000000E+01 0. -1.
         -5    1    4    4    0  502 -0.95387916897E+02  0.43747655963E+02  0.37571985088E+03  0.39012845120E+03  0.47000000000E+01 0. -1.
<mgrwt>
<rscale>  0 0.32155015E+03</rscale>
<asrwt>0</asrwt>
<pdfrwt beam="1">  1       21 0.15900388E+00 0.32155015E+03</pdfrwt>
<pdfrwt beam="2">  1       21 0.38477161E-02 0.32155015E+03</pdfrwt>
<totfact> 0.10161828E+05</totfact>
</mgrwt>
</event>
<event>
 8    1  0.9331162E-006  0.2933891E+03  0.7546771E-02  0.1088593E+00
         21   -1    0    0  504  503  0.00000000000E+00  0.00000000000E+00  0.23518351448E+04  0.23518351448E+04  0.00000000000E+00 0.  1.
         21   -1    0    0  503  504 -0.00000000000E+00 -0.00000000000E+00 -0.91500002572E+01  0.91500002572E+01  0.00000000000E+00 0.  1.
         25    2    1    2    0    0 -0.44323971683E+02 -0.57127569652E+02  0.96355392003E+03  0.97431439649E+03  0.12499685085E+03 0.  0.
         25    2    1    2    0    0  0.44323971683E+02  0.57127569652E+02  0.13791312245E+04  0.13866707486E+04  0.12499862730E+03 0.  0.
          5    1    3    3  501    0  0.36108280665E+02  0.10847589435E+02  0.20789684678E+03  0.21134016899E+03  0.47000000000E+01 0. -1.
         -5    1    3    3    0  501 -0.80432252348E+02 -0.67975159088E+02  0.75565707326E+03  0.76297422750E+03  0.47000000000E+01 0. -1.
          5    1    4    4  502    0 -0.18854677965E+02  0.29520027064E+02  0.10744432533E+03  0.11310748836E+03  0.47000000000E+01 0. -1.
         -5    1    4    4    0  502  0.63178649648E+02  0.27607542588E+02  0.12716868992E+04  0.12735632602E+04  0.47000000000E+01 0. -1.
<mgrwt>
<rscale>  0 0.29338911E+03</rscale>
<asrwt>0</asrwt>
<pdfrwt beam="1">  1       21 0.36182031E+00 0.29338911E+03</pdfrwt>
<pdfrwt beam="2">  1       21 0.14076942E-02 0.29338911E+03</pdfrwt>
<totfact> 0.29567612E+04</totfact>
</mgrwt>
</event>
<event>
 8    1  0.9331162E-006  0.2903840E+03  0.7546771E-02  0.1090149E+00
         21   -1    0    0  504  503  0.00000000000E+00  0.00000000000E+00  0.12626915583E+03  0.12626915583E+03  0.00000000000E+00 0.  1.
         21   -1    0    0  503  504 -0.00000000000E+00 -0.00000000000E+00 -0.16695068822E+03  0.16695068822E+03  0.00000000000E+00 0.  1.
         25    2    1    2    0    0 -0.21673844212E+02  0.69538642898E+02 -0.32686994135E+02  0.14832273988E+03  0.12500326876E+03 0.  0.
         25    2    1    2    0    0  0.21673844212E+02 -0.69538642898E+02 -0.79945382512E+01  0.14489710418E+03  0.12500351906E+03 0.  0.
          5    1    3    3  501    0 -0.41433658005E+02  0.96222358014E+02 -0.42844238700E+02  0.11328375429E+03  0.47000000000E+01 0. -1.
         -5    1    3    3    0  501  0.19759813793E+02 -0.26683715115E+02  0.10157244565E+02  0.35038985582E+02  0.47000000000E+01 0. -1.
          5    1    4    4  502    0  0.14487558614E+02  0.23845389494E+02 -0.37143988589E+02  0.46693231233E+02  0.47000000000E+01 0.  1.
         -5    1    4    4    0  502  0.71862855976E+01 -0.93384032392E+02  0.29149450337E+02  0.98203872945E+02  0.47000000000E+01 0.  1.
<mgrwt>
<rscale>  0 0.29038404E+03</rscale>
<asrwt>0</asrwt>
<pdfrwt beam="1">  1       21 0.19426024E-01 0.29038404E+03</pdfrwt>
<pdfrwt beam="2">  1       21 0.25684721E-01 0.29038404E+03</pdfrwt>
<totfact> 0.34311159E+05</totfact>
</mgrwt>
</event>
<event>
 8    1  0.9331162E-006  0.2971873E+03  0.7546771E-02  0.1086655E+00
         21   -1    0    0  504  503  0.00000000000E+00  0.00000000000E+00  0.17664848347E+03  0.17664848347E+03  0.00000000000E+00 0.  1.
         21   -1    0    0  503  504 -0.00000000000E+00 -0.00000000000E+00 -0.12499441339E+03  0.12499441339E+03  0.00000000000E+00 0.  1.
         25    2    1    2    0    0  0.24306393211E+02 -0.32030015822E+02  0.96361229895E+02  0.16293360961E+03  0.12508058142E+03 0.  0.
         25    2    1    2    0    0 -0.24306393211E+02  0.32030015822E+02 -0.44707159813E+02  0.13870928726E+03  0.12499925427E+03 0.  0.
          5    1    3    3  501    0 -0.38579649872E+02  0.25039847454E+02  0.30914189317E+02  0.55616188704E+02  0.47000000000E+01 0.  1.
         -5    1    3    3    0  501  0.62886043083E+02 -0.57069863277E+02  0.65447040577E+02  0.10731742090E+03  0.47000000000E+01 0.  1.
          5    1    4    4  502    0  0.40610649727E+02  0.41245934823E+02 -0.44184027551E+02  0.72971023710E+02  0.47000000000E+01 0. -1.
         -5    1    4    4    0  502 -0.64917042938E+02 -0.92159190006E+01 -0.52313226235E+00  0.65738263547E+02  0.47000000000E+01 0. -1.
<mgrwt>
<rscale>  0 0.29718731E+03</rscale>
<asrwt>0</asrwt>
<pdfrwt beam="1">  1       21 0.27176690E-01 0.29718731E+03</pdfrwt>
<pdfrwt beam="2">  1       21 0.19229910E-01 0.29718731E+03</pdfrwt>
<totfact> 0.31304449E+05</totfact>
</mgrwt>
</event>
<event>
 8    1  0.9331162E-006  0.2666629E+03  0.7546771E-02  0.1103205E+00
         21   -1    0    0  504  503  0.00000000000E+00  0.00000000000E+00  0.65885229357E+03  0.65885229357E+03  0.00000000000E+00 0.  1.
         21   -1    0    0  503  504 -0.00000000000E+00 -0.00000000000E+00 -0.26982195813E+02  0.26982195813E+02  0.00000000000E+00 0.  1.
         25    2    1    2    0    0 -0.14421368837E+02  0.20513954083E+02  0.41625902920E+03  0.43535230875E+03  0.12502501811E+03 0.  0.
         25    2    1    2    0    0  0.14421368837E+02 -0.20513954083E+02  0.21561106856E+03  0.25048218063E+03  0.12499756693E+03 0.  0.
          5    1    3    3  501    0  0.42141665157E+02  0.74372745404E+01  0.31970782321E+03  0.32259326592E+03  0.47000000000E+01 0. -1.
         -5    1    3    3    0  501 -0.56563033995E+02  0.13076679542E+02  0.96551205993E+02  0.11275904284E+03  0.47000000000E+01 0. -1.
          5    1    4    4  502    0  0.43362115124E+02  0.39177241353E+02  0.77344309721E+02  0.97053395172E+02  0.47000000000E+01 0.  1.
         -5    1    4    4    0  502 -0.28940746287E+02 -0.59691195436E+02  0.13826675884E+03  0.15342878546E+03  0.47000000000E+01 0.  1.
<mgrwt>
<rscale>  0 0.26666295E+03</rscale>
<asrwt>0</asrwt>
<pdfrwt beam="1">  1       21 0.10136188E+00 0.26666295E+03</pdfrwt>
<pdfrwt beam="2">  1       21 0.41511075E-02 0.26666295E+03</pdfrwt>
<totfact> 0.28661087E+05</totfact>
</mgrwt>
</event>
<event>
 8    1  0.9331162E-006  0.2704991E+03  0.7546771E-02  0.1100994E+00
         21   -1    0    0  504  503  0.00000000000E+00  0.00000000000E+00  0.11595769406E+03  0.11595769406E+03  0.00000000000E+00 0. -1.
         21   -1    0    0  503  504 -0.00000000000E+00 -0.00000000000E+00 -0.15775102527E+03  0.15775102527E+03  0.00000000000E+00 0. -1.
         25    2    1    2    0    0  0.19896392581E+02 -0.45251535023E+02 -0.36017927425E+02  0.13916070980E+03  0.12499937678E+03 0.  0.
         25    2    1    2    0    0 -0.19896392581E+02  0.45251535023E+02 -0.57754037800E+01  0.13454800954E+03  0.12500497479E+03 0.  0.
          5    1    3    3  501    0 -0.31389301939E+02 -0.69875257155E+02 -0.14198181870E+02  0.78048178756E+02  0.47000000000E+01 0.  1.
         -5    1    3    3    0  501  0.51285694520E+02  0.24623722132E+02 -0.21819745555E+02  0.61112531040E+02  0.47000000000E+01 0.  1.
          5    1    4    4  502    0 -0.19636893036E+02  0.56667036955E+02 -0.56386894836E+02  0.82452001520E+02  0.47000000000E+01 0.  1.
         -5    1    4    4    0  502 -0.25949954556E+00 -0.11415501932E+02  0.50611491056E+02  0.52096008017E+02  0.47000000000E+01 0.  1.
<mgrwt>
<rscale>  0 0.27049913E+03</rscale>
<asrwt>0</asrwt>
<pdfrwt beam="1">  1       21 0.17839645E-01 0.27049913E+03</pdfrwt>
<pdfrwt beam="2">  1       21 0.24269388E-01 0.27049913E+03</pdfrwt>
<totfact> 0.45044072E+05</totfact>
</mgrwt>
</event>
<event>
 8    1  0.9331162E-006  0.4691989E+03  0.7546771E-02  0.1022147E+00
         21   -1    0    0  504  503  0.00000000000E+00  0.00000000000E+00  0.17269161205E+03  0.17269161205E+03  0.00000000000E+00 0.  1.
         21   -1    0    0  503  504 -0.00000000000E+00 -0.00000000000E+00 -0.31870047149E+03  0.31870047149E+03  0.00000000000E+00 0.  1.
         25    2    1    2    0    0 -0.90072659567E+02 -0.15983814628E+03 -0.15243529058E+03  0.26929991902E+03  0.12499844625E+03 0.  0.
         25    2    1    2    0    0  0.90072659567E+02  0.15983814628E+03  0.64264311345E+01  0.22209216452E+03  0.12498925360E+03 0.  0.
          5    1    3    3  501    0 -0.41278695358E+02 -0.11524411247E+03 -0.16118646781E+03  0.20245568294E+03  0.47000000000E+01 0. -1.
         -5    1    3    3    0  501 -0.48793964209E+02 -0.44594033812E+02  0.87511772309E+01  0.66844236085E+02  0.47000000000E+01 0. -1.
          5    1    4    4  502    0  0.71090612095E+02  0.40348680825E+02 -0.41595378512E+02  0.91837664855E+02  0.47000000000E+01 0. -1.
         -5    1    4    4    0  502  0.18982047472E+02  0.11948946545E+03  0.48021809647E+02  0.13025449966E+03  0.47000000000E+01 0. -1.
<mgrwt>
<rscale>  0 0.46919888E+03</rscale>
<asrwt>0</asrwt>
<pdfrwt beam="1">  1       21 0.26567941E-01 0.46919888E+03</pdfrwt>
<pdfrwt beam="2">  1       21 0.49030841E-01 0.46919888E+03</pdfrwt>
<totfact> 0.49057433E+04</totfact>
</mgrwt>
</event>
<event>
 8    1  0.9331162E-006  0.3184348E+03  0.7546771E-02  0.1076372E+00
         21   -1    0    0  504  503  0.00000000000E+00  0.00000000000E+00  0.16615232158E+03  0.16615232158E+03  0.00000000000E+00 0. -1.
         21   -1    0    0  503  504 -0.00000000000E+00 -0.00000000000E+00 -0.15257195226E+03  0.15257195226E+03  0.00000000000E+00 0. -1.
         25    2    1    2    0    0 -0.73711589475E+02 -0.34383539809E+02  0.62603840708E+02  0.16173999919E+03  0.12499984094E+03 0.  0.
         25    2    1    2    0    0  0.73711589475E+02  0.34383539809E+02 -0.49023471388E+02  0.15698427464E+03  0.12500054201E+03 0.  0.
          5    1    3    3  501    0 -0.13246554838E+02  0.46004859868E+02  0.15262599815E+02  0.50467368661E+02  0.47000000000E+01 0. -1.
         -5    1    3    3    0  501 -0.60465034637E+02 -0.80388399677E+02  0.47341240893E+02  0.11127263053E+03  0.47000000000E+01 0. -1.
          5    1    4    4  502    0 -0.99623335962E+01  0.39460581351E+02 -0.59640158960E+02  0.72356230775E+02  0.47000000000E+01 0.  1.
         -5    1    4    4    0  502  0.83673923071E+02 -0.50770415412E+01  0.10616687572E+02  0.84628043862E+02  0.47000000000E+01 0.  1.
<mgrwt>
<rscale>  0 0.31843482E+03</rscale>
<asrwt>0</asrwt>
<pdfrwt beam="1">  1       21 0.25561896E-01 0.31843482E+03</pdfrwt>
<pdfrwt beam="2">  1       21 0.23472608E-01 0.31843482E+03</pdfrwt>
<totfact> 0.24044068E+05</totfact>
</mgrwt>
</event>
<event>
 8    1  0.9331162E-006  0.4141589E+03  0.7546771E-02  0.1038984E+00
         21   -1    0    0  504  503  0.00000000000E+00  0.00000000000E+00  0.20797049795E+03  0.20797049795E+03  0.00000000000E+00 0. -1.
         21   -1    0    0  503  504 -0.00000000000E+00 -0.00000000000E+00 -0.20619219202E+03  0.20619219202E+03  0.00000000000E+00 0. -1.
         25    2    1    2    0    0  0.16337411554E+03 -0.19942318979E+02  0.13891879171E+02  0.20713326598E+03  0.12498963099E+03 0.  0.
         25    2    1    2    0    0 -0.16337411554E+03  0.19942318979E+02 -0.12113573242E+02  0.20702942400E+03  0.12500258409E+03 0.  0.
          5    1    3    3  501    0  0.77192728898E+02  0.12966527839E+01  0.68073922367E+02  0.10303663237E+03  0.47000000000E+01 0. -1.
         -5    1    3    3    0  501  0.86181386638E+02 -0.21238971763E+02 -0.54182043196E+02  0.10409663361E+03  0.47000000000E+01 0. -1.
          5    1    4    4  502    0 -0.13420131984E+03 -0.34687787222E+02 -0.30996263208E+02  0.14211296620E+03  0.47000000000E+01 0.  1.
         -5    1    4    4    0  502 -0.29172795694E+02  0.54630106201E+02  0.18882689966E+02  0.64916457794E+02  0.47000000000E+01 0.  1.
<mgrwt>
<rscale>  0 0.41415887E+03</rscale>
<asrwt>0</asrwt>
<pdfrwt beam="1">  1       21 0.31995461E-01 0.41415887E+03</pdfrwt>
<pdfrwt beam="2">  1       21 0.31721876E-01 0.41415887E+03</pdfrwt>
<totfact> 0.84101119E+04</totfact>
</mgrwt>
</event>
<event>
 8    1  0.9331162E-006  0.3581732E+03  0.7546771E-02  0.1059310E+00
         21   -1    0    0  504  503  0.00000000000E+00  0.00000000000E+00  0.64994456013E+02  0.64994456013E+02  0.00000000000E+00 0.  1.
         21   -1    0    0  503  504 -0.00000000000E+00 -0.00000000000E+00 -0.49345752161E+03  0.49345752161E+03  0.00000000000E+00 0.  1.
         25    2    1    2    0    0  0.55072993087E+02  0.11576735993E+03 -0.20909123872E+03  0.27528121789E+03  0.12500194645E+03 0.  0.
         25    2    1    2    0    0 -0.55072993087E+02 -0.11576735993E+03 -0.21937182687E+03  0.28317075974E+03  0.12500625805E+03 0.  0.
          5    1    3    3  501    0 -0.11847876963E+02  0.52187124258E+02 -0.84596626923E+01  0.54383122563E+02  0.47000000000E+01 0.  1.
         -5    1    3    3    0  501  0.66920870050E+02  0.63580235669E+02 -0.20063157603E+03  0.22089809532E+03  0.47000000000E+01 0.  1.
          5    1    4    4  502    0 -0.50583537057E+02 -0.90804177368E+02 -0.56756273594E+02  0.11852197029E+03  0.47000000000E+01 0.  1.
         -5    1    4    4    0  502 -0.44894560296E+01 -0.24963182558E+02 -0.16261555328E+03  0.16464878945E+03  0.47000000000E+01 0.  1.
<mgrwt>
<rscale>  0 0.35817316E+03</rscale>
<asrwt>0</asrwt>
<pdfrwt beam="1">  1       21 0.99991474E-02 0.35817316E+03</pdfrwt>
<pdfrwt beam="2">  1       21 0.75916539E-01 0.35817316E+03</pdfrwt>
<totfact> 0.11948246E+05</totfact>
</mgrwt>
</event>
<event>
 8    1  0.9331162E-006  0.3307577E+03  0.7546771E-02  0.1070802E+00
         21   -1    0    0  504  503  0.00000000000E+00  0.00000000000E+00  0.96887783739E+02  0.96887783739E+02  0.00000000000E+00 0. -1.
         21   -1    0    0  503  504 -0.00000000000E+00 -0.00000000000E+00 -0.28228699145E+03  0.28228699145E+03  0.00000000000E+00 0. -1.
         25    2    1    2    0    0  0.95503307481E+02  0.15931865131E+02 -0.14827758553E+03  0.21676400161E+03  0.12500273580E+03 0.  0.
         25    2    1    2    0    0 -0.95503307481E+02 -0.15931865131E+02 -0.37121622182E+02  0.16241077358E+03  0.12499815389E+03 0.  0.
          5    1    3    3  501    0  0.44070846434E+00 -0.41838859363E+02 -0.19124006150E+02  0.46243940014E+02  0.47000000000E+01 0. -1.
         -5    1    3    3    0  501  0.95062599017E+02  0.57770724494E+02 -0.12915357938E+03  0.17052006160E+03  0.47000000000E+01 0. -1.
          5    1    4    4  502    0  0.17236927733E+02 -0.34806804369E+02 -0.27044819713E+02  0.47561934164E+02  0.47000000000E+01 0.  1.
         -5    1    4    4    0  502 -0.11274023521E+03  0.18874939239E+02 -0.10076802469E+02  0.11484883942E+03  0.47000000000E+01 0.  1.
<mgrwt>
<rscale>  0 0.33075768E+03</rscale>
<asrwt>0</asrwt>
<pdfrwt beam="1">  1       21 0.14905813E-01 0.33075768E+03</pdfrwt>
<pdfrwt beam="2">  1       21 0.43428767E-01 0.33075768E+03</pdfrwt>
<totfact> 0.19510532E+05</totfact>
</mgrwt>
</event>
<event>
 8    1  0.9331162E-006  0.2750151E+03  0.7546771E-02  0.1098443E+00
         21   -1    0    0  504  503  0.00000000000E+00  0.00000000000E+00  0.25873281225E+02  0.25873281225E+02  0.00000000000E+00 0.  1.
         21   -1    0    0  503  504 -0.00000000000E+00 -0.00000000000E+00 -0.73080533352E+03  0.73080533352E+03  0.00000000000E+00 0.  1.
         25    2    1    2    0    0  0.35222738177E+01 -0.39190052108E+02 -0.23785527476E+03  0.27156673789E+03  0.12500037920E+03 0.  0.
         25    2    1    2    0    0 -0.35222738177E+01  0.39190052108E+02 -0.46707677753E+03  0.48511187685E+03  0.12499820141E+03 0.  0.
          5    1    3    3  501    0  0.17953276573E+02 -0.32280944199E+01 -0.23120474998E+03  0.23197083254E+03  0.47000000000E+01 0.  1.
         -5    1    3    3    0  501 -0.14431002756E+02 -0.35961957688E+02 -0.66505247806E+01  0.39595905358E+02  0.47000000000E+01 0.  1.
          5    1    4    4  502    0  0.18384622817E+02  0.80579527018E+02 -0.32807843989E+03  0.33836165157E+03  0.47000000000E+01 0. -1.
         -5    1    4    4    0  502 -0.21906896634E+02 -0.41389474910E+02 -0.13899833765E+03  0.14675022529E+03  0.47000000000E+01 0. -1.
<mgrwt>
<rscale>  0 0.27501514E+03</rscale>
<asrwt>0</asrwt>
<pdfrwt beam="1">  1       21 0.39805049E-02 0.27501514E+03</pdfrwt>
<pdfrwt beam="2">  1       21 0.11243159E+00 0.27501514E+03</pdfrwt>
<totfact> 0.23858992E+05</totfact>
</mgrwt>
</event>
<event>
 8    1  0.9331162E-006  0.5359584E+03  0.7546771E-02  0.1004797E+00
         21   -1    0    0  504  503  0.00000000000E+00  0.00000000000E+00  0.73666073866E+02  0.73666073866E+02  0.00000000000E+00 0.  1.
         21   -1    0    0  503  504 -0.00000000000E+00 -0.00000000000E+00 -0.97484289938E+03  0.97484289938E+03  0.00000000000E+00 0.  1.
         25    2    1    2    0    0  0.19237292202E+03  0.19213128465E+01 -0.72150027415E+03  0.75709876073E+03  0.12499942130E+03 0.  0.
         25    2    1    2    0    0 -0.19237292202E+03 -0.19213128465E+01 -0.17967655136E+03  0.29141021251E+03  0.12500086512E+03 0.  0.
          5    1    3    3  501    0  0.40394617096E+02  0.51533628143E+02 -0.15210485298E+03  0.16566658148E+03  0.47000000000E+01 0. -1.
         -5    1    3    3    0  501  0.15197830492E+03 -0.49612315297E+02 -0.56939542118E+03  0.59143217925E+03  0.47000000000E+01 0. -1.
          5    1    4    4  502    0  0.62857794300E+01  0.27228276194E+02 -0.17896208180E+02  0.33514986420E+02  0.47000000000E+01 0. -1.
         -5    1    4    4    0  502 -0.19865870145E+03 -0.29149589041E+02 -0.16178034318E+03  0.25789522609E+03  0.47000000000E+01 0. -1.
<mgrwt>
<rscale>  0 0.53595839E+03</rscale>
<asrwt>0</asrwt>
<pdfrwt beam="1">  1       21 0.11333242E-01 0.53595839E+03</pdfrwt>
<pdfrwt beam="2">  1       21 0.14997583E+00 0.53595839E+03</pdfrwt>
<totfact> 0.16923422E+04</totfact>
</mgrwt>
</event>
<event>
 8    1  0.9331162E-006  0.2654832E+03  0.7546771E-02  0.1103893E+00
         21   -1    0    0  504  503  0.00000000000E+00  0.00000000000E+00  0.18128241024E+03  0.18128241024E+03  0.00000000000E+00 0.  1.
         21   -1    0    0  503  504 -0.00000000000E+00 -0.00000000000E+00 -0.97198279882E+02  0.97198279882E+02  0.00000000000E+00 0.  1.
         25    2    1    2    0    0  0.15473639970E+02  0.41637800147E+02  0.47011369926E+02  0.14073995026E+03  0.12499809904E+03 0.  0.
         25    2    1    2    0    0 -0.15473639970E+02 -0.41637800147E+02  0.37072760432E+02  0.13774073986E+03  0.12499992766E+03 0.  0.
          5    1    3    3  501    0 -0.19168658772E+02  0.24639899955E+02 -0.36719815309E+02  0.48425168923E+02  0.47000000000E+01 0. -1.
         -5    1    3    3    0  501  0.34642298743E+02  0.16997900193E+02  0.83731185235E+02  0.92314781340E+02  0.47000000000E+01 0. -1.
          5    1    4    4  502    0  0.50671054834E+02  0.11491034074E+01  0.85292007247E+00  0.50908680097E+02  0.47000000000E+01 0. -1.
         -5    1    4    4    0  502 -0.66144694804E+02 -0.42786903555E+02  0.36219840360E+02  0.86832059760E+02  0.47000000000E+01 0. -1.
<mgrwt>
<rscale>  0 0.26548325E+03</rscale>
<asrwt>0</asrwt>
<pdfrwt beam="1">  1       21 0.27889602E-01 0.26548325E+03</pdfrwt>
<pdfrwt beam="2">  1       21 0.14953582E-01 0.26548325E+03</pdfrwt>
<totfact> 0.47746387E+05</totfact>
</mgrwt>
</event>
<event>
 8    1  0.9331162E-006  0.2680814E+03  0.7546771E-02  0.1102383E+00
         21   -1    0    0  504  503  0.00000000000E+00  0.00000000000E+00  0.13122027103E+03  0.13122027103E+03  0.00000000000E+00 0.  1.
         21   -1    0    0  503  504 -0.00000000000E+00 -0.00000000000E+00 -0.13692179491E+03  0.13692179491E+03  0.00000000000E+00 0.  1.
         25    2    1    2    0    0 -0.16788675348E+02 -0.45309476166E+02 -0.56583929203E+01  0.13412778485E+03  0.12499374788E+03 0.  0.
         25    2    1    2    0    0  0.16788675348E+02  0.45309476166E+02 -0.43130954602E-01  0.13401428108E+03  0.12500006969E+03 0.  0.
          5    1    3    3  501    0 -0.17709779064E+02  0.38764530903E+02  0.18235211329E+02  0.46593326377E+02  0.47000000000E+01 0.  1.
         -5    1    3    3    0  501  0.92110371640E+00 -0.84074007069E+02 -0.23893604249E+02  0.87534458477E+02  0.47000000000E+01 0.  1.
          5    1    4    4  502    0  0.54590931347E+02 -0.18936549950E+02  0.93976284360E+01  0.58729618844E+02  0.47000000000E+01 0. -1.
         -5    1    4    4    0  502 -0.37802255999E+02  0.64246026116E+02 -0.94407593906E+01  0.75284662238E+02  0.47000000000E+01 0. -1.
<mgrwt>
<rscale>  0 0.26808144E+03</rscale>
<asrwt>0</asrwt>
<pdfrwt beam="1">  1       21 0.20187734E-01 0.26808144E+03</pdfrwt>
<pdfrwt beam="2">  1       21 0.21064892E-01 0.26808144E+03</pdfrwt>
<totfact> 0.46815428E+05</totfact>
</mgrwt>
</event>
<event>
 8    1  0.9331162E-006  0.3625815E+03  0.7546771E-02  0.1057566E+00
         21   -1    0    0  504  503  0.00000000000E+00  0.00000000000E+00  0.97211348852E+02  0.97211348852E+02  0.00000000000E+00 0.  1.
         21   -1    0    0  503  504 -0.00000000000E+00 -0.00000000000E+00 -0.33809148323E+03  0.33809148323E+03  0.00000000000E+00 0.  1.
         25    2    1    2    0    0  0.23024352765E+02  0.99191619173E+02 -0.20912077327E+02  0.16257260157E+03  0.12499375051E+03 0.  0.
         25    2    1    2    0    0 -0.23024352765E+02 -0.99191619173E+02 -0.21996805705E+03  0.27273023051E+03  0.12500693733E+03 0.  0.
          5    1    3    3  501    0  0.58406059661E+02  0.11408164324E+02 -0.31018421114E+02  0.67272925214E+02  0.47000000000E+01 0. -1.
         -5    1    3    3    0  501 -0.35381706896E+02  0.87783454849E+02  0.10106343787E+02  0.95299676352E+02  0.47000000000E+01 0. -1.
          5    1    4    4  502    0  0.46713073747E+02 -0.72504807053E+02 -0.11494351105E+03  0.14378163665E+03  0.47000000000E+01 0. -1.
         -5    1    4    4    0  502 -0.69737426512E+02 -0.26686812120E+02 -0.10502454599E+03  0.12894859386E+03  0.47000000000E+01 0. -1.
<mgrwt>
<rscale>  0 0.36258146E+03</rscale>
<asrwt>0</asrwt>
<pdfrwt beam="1">  1       21 0.14955592E-01 0.36258146E+03</pdfrwt>
<pdfrwt beam="2">  1       21 0.52014075E-01 0.36258146E+03</pdfrwt>
<totfact> 0.13189367E+05</totfact>
</mgrwt>
</event>
<event>
 8    1  0.9331162E-006  0.3516028E+03  0.7546771E-02  0.1061959E+00
         21   -1    0    0  504  503  0.00000000000E+00  0.00000000000E+00  0.29644877509E+02  0.29644877509E+02  0.00000000000E+00 0.  1.
         21   -1    0    0  503  504 -0.00000000000E+00 -0.00000000000E+00 -0.10425456100E+04  0.10425456100E+04  0.00000000000E+00 0.  1.
         25    2    1    2    0    0 -0.80656612034E+01  0.85150686638E+02 -0.77857977677E+03  0.79317487234E+03  0.12499685992E+03 0.  0.
         25    2    1    2    0    0  0.80656612034E+01 -0.85150686638E+02 -0.23432095569E+03  0.27901561514E+03  0.12501083509E+03 0.  0.
          5    1    3    3  501    0  0.25820928344E+02  0.77391700835E+02 -0.72194773953E+03  0.72655820435E+03  0.47000000000E+01 0. -1.
         -5    1    3    3    0  501 -0.33886589547E+02  0.77589858035E+01 -0.56632037240E+02  0.66616667988E+02  0.47000000000E+01 0. -1.
          5    1    4    4  502    0  0.98904711526E+01 -0.73873618414E+02 -0.40796775545E+02  0.85097589932E+02  0.47000000000E+01 0. -1.
         -5    1    4    4    0  502 -0.18248099492E+01 -0.11277068224E+02 -0.19352418015E+03  0.19391802521E+03  0.47000000000E+01 0. -1.
<mgrwt>
<rscale>  0 0.35160283E+03</rscale>
<asrwt>0</asrwt>
<pdfrwt beam="1">  1       21 0.45607501E-02 0.35160283E+03</pdfrwt>
<pdfrwt beam="2">  1       21 0.16039164E+00 0.35160283E+03</pdfrwt>
<totfact> 0.73608287E+04</totfact>
</mgrwt>
</event>
<event>
 8    1  0.9331162E-006  0.3722766E+03  0.7546771E-02  0.1053826E+00
         21   -1    0    0  504  503  0.00000000000E+00  0.00000000000E+00  0.46514434426E+02  0.46514434426E+02  0.00000000000E+00 0.  1.
         21   -1    0    0  503  504 -0.00000000000E+00 -0.00000000000E+00 -0.74487539641E+03  0.74487539641E+03  0.00000000000E+00 0.  1.
         25    2    1    2    0    0  0.12432782279E+03 -0.17194621977E+02 -0.22761643953E+03  0.28842416001E+03  0.12500475986E+03 0.  0.
         25    2    1    2    0    0 -0.12432782279E+03  0.17194621977E+02 -0.47074452245E+03  0.50296567082E+03  0.12498399124E+03 0.  0.
          5    1    3    3  501    0 -0.14798165798E+02 -0.14448777155E+02  0.45246542618E+00  0.21214325283E+02  0.47000000000E+01 0.  1.
         -5    1    3    3    0  501  0.13912598859E+03 -0.27458448221E+01 -0.22806890496E+03  0.26720983473E+03  0.47000000000E+01 0.  1.
          5    1    4    4  502    0 -0.31003162351E+02  0.32655295311E+02 -0.33140984609E+03  0.33448787792E+03  0.47000000000E+01 0.  1.
         -5    1    4    4    0  502 -0.93324660443E+02 -0.15460673334E+02 -0.13933467635E+03  0.16847779290E+03  0.47000000000E+01 0.  1.
<mgrwt>
<rscale>  0 0.37227655E+03</rscale>
<asrwt>0</asrwt>
<pdfrwt beam="1">  1       21 0.71560668E-02 0.37227655E+03</pdfrwt>
<pdfrwt beam="2">  1       21 0.11459622E+00 0.37227655E+03</pdfrwt>
<totfact> 0.80886673E+04</totfact>
</mgrwt>
</event>
<event>
 8    1  0.9331162E-006  0.3019695E+03  0.7546771E-02  0.1084260E+00
         21   -1    0    0  504  503  0.00000000000E+00  0.00000000000E+00  0.67431815360E+02  0.67431815360E+02  0.00000000000E+00 0.  1.
         21   -1    0    0  503  504 -0.00000000000E+00 -0.00000000000E+00 -0.33806580862E+03  0.33806580862E+03  0.00000000000E+00 0.  1.
         25    2    1    2    0    0  0.23458045794E+02  0.71821444590E+02 -0.18665572205E+03  0.23701125072E+03  0.12500149830E+03 0.  0.
         25    2    1    2    0    0 -0.23458045794E+02 -0.71821444590E+02 -0.83978271214E+02  0.16848637326E+03  0.12500683231E+03 0.  0.
          5    1    3    3  501    0  0.20291622920E+02  0.56553399379E+00  0.13261803495E+02  0.24698891096E+02  0.47000000000E+01 0. -1.
         -5    1    3    3    0  501  0.31664228734E+01  0.71255910596E+02 -0.19991752554E+03  0.21231235962E+03  0.47000000000E+01 0. -1.
          5    1    4    4  502    0 -0.51153376199E+00 -0.79884849392E+02  0.93848914702E+00  0.80030129270E+02  0.47000000000E+01 0. -1.
         -5    1    4    4    0  502 -0.22946512032E+02  0.80634048017E+01 -0.84916760361E+02  0.88456243994E+02  0.47000000000E+01 0. -1.
<mgrwt>
<rscale>  0 0.30196948E+03</rscale>
<asrwt>0</asrwt>
<pdfrwt beam="1">  1       21 0.10374125E-01 0.30196948E+03</pdfrwt>
<pdfrwt beam="2">  1       21 0.52010125E-01 0.30196948E+03</pdfrwt>
<totfact> 0.25966912E+05</totfact>
</mgrwt>
</event>
<event>
 8    1  0.9331162E-006  0.2519101E+03  0.7546771E-02  0.1112104E+00
         21   -1    0    0  504  503  0.00000000000E+00  0.00000000000E+00  0.92663412432E+02  0.92663412432E+02  0.00000000000E+00 0.  1.
         21   -1    0    0  503  504 -0.00000000000E+00 -0.00000000000E+00 -0.17120752998E+03  0.17120752998E+03  0.00000000000E+00 0.  1.
         25    2    1    2    0    0  0.68981368386E+01  0.12547625657E+02 -0.33166574081E+02  0.13012730159E+03  0.12501226253E+03 0.  0.
         25    2    1    2    0    0 -0.68981368386E+01 -0.12547625657E+02 -0.45377543468E+02  0.13374364082E+03  0.12499285102E+03 0.  0.
          5    1    3    3  501    0  0.41656347155E+01 -0.10495266867E+02  0.45947038972E+02  0.47547066465E+02  0.47000000000E+01 0.  1.
         -5    1    3    3    0  501  0.27325021231E+01  0.23042892524E+02 -0.79113613053E+02  0.82580235129E+02  0.47000000000E+01 0.  1.
          5    1    4    4  502    0  0.34418585468E+02  0.20251794319E+02 -0.65690302642E+02  0.77019997792E+02  0.47000000000E+01 0. -1.
         -5    1    4    4    0  502 -0.41316722307E+02 -0.32799419977E+02  0.20312759173E+02  0.56723643027E+02  0.47000000000E+01 0. -1.
<mgrwt>
<rscale>  0 0.25191009E+03</rscale>
<asrwt>0</asrwt>
<pdfrwt beam="1">  1       21 0.14255910E-01 0.25191009E+03</pdfrwt>
<pdfrwt beam="2">  1       21 0.26339620E-01 0.25191009E+03</pdfrwt>
<totfact> 0.58353280E+05</totfact>
</mgrwt>
</event>
<event>
 8    1  0.9331162E-006  0.2978714E+03  0.7546771E-02  0.1086310E+00
         21   -1    0    0  504  503  0.00000000000E+00  0.00000000000E+00  0.63488958990E+03  0.63488958990E+03  0.00000000000E+00 0.  1.
         21   -1    0    0  503  504 -0.00000000000E+00 -0.00000000000E+00 -0.34938114327E+02  0.34938114327E+02  0.00000000000E+00 0.  1.
         25    2    1    2    0    0 -0.49278191354E+02  0.56630681966E+02  0.23180626054E+03  0.27385417096E+03  0.12500636083E+03 0.  0.
         25    2    1    2    0    0  0.49278191354E+02 -0.56630681966E+02  0.36814521503E+03  0.39597353326E+03  0.12501506071E+03 0.  0.
          5    1    3    3  501    0 -0.15218044714E+02  0.67813443751E+02  0.22691837975E+03  0.23736952859E+03  0.47000000000E+01 0. -1.
         -5    1    3    3    0  501 -0.34060146640E+02 -0.11182761785E+02  0.48878807881E+01  0.36484642370E+02  0.47000000000E+01 0. -1.
          5    1    4    4  502    0  0.32496551698E+02  0.35580138075E+02  0.86792784077E+02  0.99383346017E+02  0.47000000000E+01 0.  1.
         -5    1    4    4    0  502  0.16781639657E+02 -0.92210820041E+02  0.28135243096E+03  0.29659018724E+03  0.47000000000E+01 0.  1.
<mgrwt>
<rscale>  0 0.29787142E+03</rscale>
<asrwt>0</asrwt>
<pdfrwt beam="1">  1       21 0.97675313E-01 0.29787142E+03</pdfrwt>
<pdfrwt beam="2">  1       21 0.53750950E-02 0.29787142E+03</pdfrwt>
<totfact> 0.20006964E+05</totfact>
</mgrwt>
</event>
<event>
 8    1  0.9331162E-006  0.2725718E+03  0.7546771E-02  0.1099817E+00
         21   -1    0    0  504  503  0.00000000000E+00  0.00000000000E+00  0.76180109254E+03  0.76180109254E+03  0.00000000000E+00 0. -1.
         21   -1    0    0  503  504 -0.00000000000E+00 -0.00000000000E+00 -0.24381487303E+02  0.24381487303E+02  0.00000000000E+00 0. -1.
         25    2    1    2    0    0 -0.29278965199E+02  0.42433664187E+02  0.31925937304E+03  0.34670499981E+03  0.12497974222E+03 0.  0.
         25    2    1    2    0    0  0.29278965199E+02 -0.42433664187E+02  0.41816023220E+03  0.43947758003E+03  0.12499875957E+03 0.  0.
          5    1    3    3  501    0  0.24710061110E+02  0.59093990463E+02  0.24498965907E+03  0.25326805933E+03  0.47000000000E+01 0. -1.
         -5    1    3    3    0  501 -0.53989026309E+02 -0.16660326276E+02  0.74269713968E+02  0.93436940480E+02  0.47000000000E+01 0. -1.
          5    1    4    4  502    0  0.40323227478E+02  0.36787567969E+02  0.18442252473E+03  0.19238774769E+03  0.47000000000E+01 0.  1.
         -5    1    4    4    0  502 -0.11044262279E+02 -0.79221232157E+02  0.23373770746E+03  0.24708983234E+03  0.47000000000E+01 0.  1.
<mgrwt>
<rscale>  0 0.27257178E+03</rscale>
<asrwt>0</asrwt>
<pdfrwt beam="1">  1       21 0.11720015E+00 0.27257178E+03</pdfrwt>
<pdfrwt beam="2">  1       21 0.37509986E-02 0.27257178E+03</pdfrwt>
<totfact> 0.23821832E+05</totfact>
</mgrwt>
</event>
<event>
 8    1  0.9331162E-006  0.5251626E+03  0.7546771E-02  0.1007412E+00
         21   -1    0    0  504  503  0.00000000000E+00  0.00000000000E+00  0.13621623477E+03  0.13621623477E+03  0.00000000000E+00 0.  1.
         21   -1    0    0  503  504 -0.00000000000E+00 -0.00000000000E+00 -0.50617268552E+03  0.50617268552E+03  0.00000000000E+00 0.  1.
         25    2    1    2    0    0 -0.20670770283E+03 -0.85087471680E+02 -0.11417218668E+03  0.28042361757E+03  0.12503665398E+03 0.  0.
         25    2    1    2    0    0  0.20670770283E+03  0.85087471680E+02 -0.25578426406E+03  0.36196530272E+03  0.12500135352E+03 0.  0.
          5    1    3    3  501    0 -0.14410247809E+03 -0.69730800803E+02 -0.13812944912E+03  0.21149407435E+03  0.47000000000E+01 0. -1.
         -5    1    3    3    0  501 -0.62605224737E+02 -0.15356670877E+02  0.23957262443E+02  0.68929543221E+02  0.47000000000E+01 0. -1.
          5    1    4    4  502    0  0.20106803226E+03  0.53076218786E+02 -0.25504701704E+03  0.32911473607E+03  0.47000000000E+01 0. -1.
         -5    1    4    4    0  502  0.56396705640E+01  0.32011252894E+02 -0.73724702973E+00  0.32850566648E+02  0.47000000000E+01 0. -1.
<mgrwt>
<rscale>  0 0.52516259E+03</rscale>
<asrwt>0</asrwt>
<pdfrwt beam="1">  1       21 0.20956344E-01 0.52516259E+03</pdfrwt>
<pdfrwt beam="2">  1       21 0.77872721E-01 0.52516259E+03</pdfrwt>
<totfact> 0.27632639E+04</totfact>
</mgrwt>
</event>
<event>
 8    1  0.9331162E-006  0.3284233E+03  0.7546771E-02  0.1071837E+00
         21   -1    0    0  504  503  0.00000000000E+00  0.00000000000E+00  0.57672045191E+02  0.57672045191E+02  0.00000000000E+00 0. -1.
         21   -1    0    0  503  504 -0.00000000000E+00 -0.00000000000E+00 -0.46756576498E+03  0.46756576498E+03  0.00000000000E+00 0. -1.
         25    2    1    2    0    0 -0.26870937452E+00  0.29294027282E+02 -0.41205240896E+02  0.13483719853E+03  0.12499994396E+03 0.  0.
         25    2    1    2    0    0  0.26870937452E+00 -0.29294027282E+02 -0.36868847889E+03  0.39040061164E+03  0.12499292325E+03 0.  0.
          5    1    3    3  501    0 -0.18574190433E+02  0.10059928983E+02  0.42067584718E+02  0.47307234175E+02  0.47000000000E+01 0. -1.
         -5    1    3    3    0  501  0.18305481058E+02  0.19234098299E+02 -0.83272825614E+02  0.87529964354E+02  0.47000000000E+01 0. -1.
          5    1    4    4  502    0  0.46470980939E+02 -0.56662129788E+02 -0.18761079318E+03  0.20146972164E+03  0.47000000000E+01 0.  1.
         -5    1    4    4    0  502 -0.46202271564E+02  0.27368102506E+02 -0.18107768571E+03  0.18893089000E+03  0.47000000000E+01 0.  1.
<mgrwt>
<rscale>  0 0.32842335E+03</rscale>
<asrwt>0</asrwt>
<pdfrwt beam="1">  1       21 0.88726223E-02 0.32842335E+03</pdfrwt>
<pdfrwt beam="2">  1       21 0.71933195E-01 0.32842335E+03</pdfrwt>
<totfact> 0.16812942E+05</totfact>
</mgrwt>
</event>
<event>
 8    1  0.9331162E-006  0.3066611E+03  0.7546771E-02  0.1081957E+00
         21   -1    0    0  504  503  0.00000000000E+00  0.00000000000E+00  0.13933390917E+03  0.13933390917E+03  0.00000000000E+00 0.  1.
         21   -1    0    0  503  504 -0.00000000000E+00 -0.00000000000E+00 -0.16873318538E+03  0.16873318538E+03  0.00000000000E+00 0.  1.
         25    2    1    2    0    0  0.55068995069E+02 -0.34458082856E+02  0.46104581966E+02  0.14823282759E+03  0.12500953966E+03 0.  0.
         25    2    1    2    0    0 -0.55068995069E+02  0.34458082856E+02 -0.75503858177E+02  0.15983426695E+03  0.12500482631E+03 0.  0.
          5    1    3    3  501    0  0.75935052685E+01  0.21734308849E+02  0.67503829183E+02  0.71476558799E+02  0.47000000000E+01 0.  1.
         -5    1    3    3    0  501  0.47475489801E+02 -0.56192391705E+02 -0.21399247217E+02  0.76756268792E+02  0.47000000000E+01 0.  1.
          5    1    4    4  502    0 -0.18132334002E+02 -0.15333782069E+02  0.29281238366E+02  0.37991937686E+02  0.47000000000E+01 0.  1.
         -5    1    4    4    0  502 -0.36936661067E+02  0.49791864925E+02 -0.10478509654E+03  0.12184232927E+03  0.47000000000E+01 0.  1.
<mgrwt>
<rscale>  0 0.30666108E+03</rscale>
<asrwt>0</asrwt>
<pdfrwt beam="1">  1       21 0.21435986E-01 0.30666108E+03</pdfrwt>
<pdfrwt beam="2">  1       21 0.25958951E-01 0.30666108E+03</pdfrwt>
<totfact> 0.27817608E+05</totfact>
</mgrwt>
</event>
<event>
 8    1  0.9331162E-006  0.3260346E+03  0.7546771E-02  0.1072905E+00
         21   -1    0    0  504  503  0.00000000000E+00  0.00000000000E+00  0.30158813896E+03  0.30158813896E+03  0.00000000000E+00 0.  1.
         21   -1    0    0  503  504 -0.00000000000E+00 -0.00000000000E+00 -0.88115684182E+02  0.88115684182E+02  0.00000000000E+00 0.  1.
         25    2    1    2    0    0 -0.79955458910E+02 -0.60842115117E+02  0.71764355381E+02  0.17569765043E+03  0.12499961313E+03 0.  0.
         25    2    1    2    0    0  0.79955458910E+02  0.60842115117E+02  0.14170809940E+03  0.21400617271E+03  0.12499127226E+03 0.  0.
          5    1    3    3  501    0 -0.77007677037E+02 -0.76045174222E+02  0.97204100388E+02  0.14554648047E+03  0.47000000000E+01 0. -1.
         -5    1    3    3    0  501 -0.29477818733E+01  0.15203059105E+02 -0.25439745007E+02  0.30151169963E+02  0.47000000000E+01 0. -1.
          5    1    4    4  502    0  0.41307523362E+02  0.39470082792E+02  0.15691752556E+03  0.16706106293E+03  0.47000000000E+01 0. -1.
         -5    1    4    4    0  502  0.38647935548E+02  0.21372032325E+02 -0.15209426158E+02  0.46945109776E+02  0.47000000000E+01 0. -1.
<mgrwt>
<rscale>  0 0.32603463E+03</rscale>
<asrwt>0</asrwt>
<pdfrwt beam="1">  1       21 0.46398175E-01 0.32603463E+03</pdfrwt>
<pdfrwt beam="2">  1       21 0.13556259E-01 0.32603463E+03</pdfrwt>
<totfact> 0.20258136E+05</totfact>
</mgrwt>
</event>
<event>
 8    1  0.9331162E-006  0.2737527E+03  0.7546771E-02  0.1099151E+00
         21   -1    0    0  504  503  0.00000000000E+00  0.00000000000E+00  0.56514871695E+02  0.56514871695E+02  0.00000000000E+00 0. -1.
         21   -1    0    0  503  504 -0.00000000000E+00 -0.00000000000E+00 -0.33150800192E+03  0.33150800192E+03  0.00000000000E+00 0. -1.
         25    2    1    2    0    0  0.33181542651E+02  0.37981103785E+02 -0.17123320794E+03  0.21792027990E+03  0.12499943150E+03 0.  0.
         25    2    1    2    0    0 -0.33181542651E+02 -0.37981103785E+02 -0.10375992229E+03  0.17010259371E+03  0.12500076759E+03 0.  0.
          5    1    3    3  501    0  0.53085402462E+02 -0.25925160105E+02 -0.43093101386E+02  0.73275366038E+02  0.47000000000E+01 0. -1.
         -5    1    3    3    0  501 -0.19903859811E+02  0.63906263890E+02 -0.12814010655E+03  0.14464491386E+03  0.47000000000E+01 0. -1.
          5    1    4    4  502    0  0.21640172761E+02 -0.54294107979E+02 -0.95579475138E+02  0.11213239187E+03  0.47000000000E+01 0.  1.
         -5    1    4    4    0  502 -0.54821715412E+02  0.16313004194E+02 -0.81804471518E+01  0.57970201846E+02  0.47000000000E+01 0.  1.
<mgrwt>
<rscale>  0 0.27375268E+03</rscale>
<asrwt>0</asrwt>
<pdfrwt beam="1">  1       21 0.86945957E-02 0.27375268E+03</pdfrwt>
<pdfrwt beam="2">  1       21 0.51001231E-01 0.27375268E+03</pdfrwt>
<totfact> 0.37251358E+05</totfact>
</mgrwt>
</event>
<event>
 8    1  0.9331162E-006  0.2774737E+03  0.7546771E-02  0.1097077E+00
         21   -1    0    0  504  503  0.00000000000E+00  0.00000000000E+00  0.79871044784E+03  0.79871044784E+03  0.00000000000E+00 0. -1.
         21   -1    0    0  503  504 -0.00000000000E+00 -0.00000000000E+00 -0.24098737535E+02  0.24098737535E+02  0.00000000000E+00 0. -1.
         25    2    1    2    0    0 -0.17467483566E+02  0.30377286914E+01  0.55788055622E+03  0.57198774488E+03  0.12499969802E+03 0.  0.
         25    2    1    2    0    0  0.17467483566E+02 -0.30377286914E+01  0.21673115408E+03  0.25082144049E+03  0.12499864433E+03 0.  0.
          5    1    3    3  501    0  0.49189059430E+02 -0.22706388764E+02  0.25914964375E+03  0.26479382832E+03  0.47000000000E+01 0. -1.
         -5    1    3    3    0  501 -0.66656542996E+02  0.25744117455E+02  0.29873091247E+03  0.30719391656E+03  0.47000000000E+01 0. -1.
          5    1    4    4  502    0  0.36368342289E+02 -0.48816584025E+02  0.17674664107E+03  0.18699513450E+03  0.47000000000E+01 0.  1.
         -5    1    4    4    0  502 -0.18900858723E+02  0.45778855333E+02  0.39984513007E+02  0.63826305991E+02  0.47000000000E+01 0.  1.
<mgrwt>
<rscale>  0 0.27747370E+03</rscale>
<asrwt>0</asrwt>
<pdfrwt beam="1">  1       21 0.12287851E+00 0.27747370E+03</pdfrwt>
<pdfrwt beam="2">  1       21 0.37074987E-02 0.27747370E+03</pdfrwt>
<totfact> 0.21549995E+05</totfact>
</mgrwt>
</event>
<event>
 8    1  0.9331162E-006  0.3921120E+03  0.7546771E-02  0.1046546E+00
         21   -1    0    0  504  503  0.00000000000E+00  0.00000000000E+00  0.17571184133E+04  0.17571184133E+04  0.00000000000E+00 0.  1.
         21   -1    0    0  503  504 -0.00000000000E+00 -0.00000000000E+00 -0.21875561816E+02  0.21875561816E+02  0.00000000000E+00 0.  1.
         25    2    1    2    0    0  0.12161597082E+03  0.89354229457E+02  0.89651783903E+03  0.91768513006E+03  0.12500855796E+03 0.  0.
         25    2    1    2    0    0 -0.12161597082E+03 -0.89354229457E+02  0.83872501247E+03  0.86130884507E+03  0.12497462689E+03 0.  0.
          5    1    3    3  501    0  0.93517794461E+02  0.45283314420E+02  0.27592774424E+03  0.29488025788E+03  0.47000000000E+01 0. -1.
         -5    1    3    3    0  501  0.28098176357E+02  0.44070915037E+02  0.62059009479E+03  0.62280487218E+03  0.47000000000E+01 0. -1.
          5    1    4    4  502    0 -0.36654288389E+02 -0.87236216699E+02  0.26760136958E+03  0.28387722234E+03  0.47000000000E+01 0.  1.
         -5    1    4    4    0  502 -0.84961682430E+02 -0.21180127583E+01  0.57112364289E+03  0.57743162273E+03  0.47000000000E+01 0.  1.
<mgrwt>
<rscale>  0 0.39211199E+03</rscale>
<asrwt>0</asrwt>
<pdfrwt beam="1">  1       21 0.27032580E+00 0.39211199E+03</pdfrwt>
<pdfrwt beam="2">  1       21 0.33654724E-02 0.39211199E+03</pdfrwt>
<totfact> 0.23370020E+04</totfact>
</mgrwt>
</event>
<event>
 8    1  0.9331162E-006  0.6517725E+03  0.7546771E-02  0.9803459E-01
         21   -1    0    0  504  503  0.00000000000E+00  0.00000000000E+00  0.12306322814E+03  0.12306322814E+03  0.00000000000E+00 0.  1.
         21   -1    0    0  503  504 -0.00000000000E+00 -0.00000000000E+00 -0.86298604565E+03  0.86298604565E+03  0.00000000000E+00 0.  1.
         25    2    1    2    0    0  0.19832896995E+03 -0.18659704945E+02 -0.28663180798E+02  0.23691767603E+03  0.12500336945E+03 0.  0.
         25    2    1    2    0    0 -0.19832896995E+03  0.18659704945E+02 -0.71125963671E+03  0.74913159776E+03  0.12500126016E+03 0.  0.
          5    1    3    3  501    0 -0.55530015192E+01  0.46252381178E+01 -0.30451994921E+02  0.31648738493E+02  0.47000000000E+01 0.  1.
         -5    1    3    3    0  501  0.20388197147E+03 -0.23284943063E+02  0.17888141227E+01  0.20526893754E+03  0.47000000000E+01 0.  1.
          5    1    4    4  502    0 -0.47120500773E+02  0.38335455019E+02 -0.85136865282E+02  0.10469156859E+03  0.47000000000E+01 0. -1.
         -5    1    4    4    0  502 -0.15120846918E+03 -0.19675750074E+02 -0.62612277143E+03  0.64444002917E+03  0.47000000000E+01 0. -1.
<mgrwt>
<rscale>  0 0.65177250E+03</rscale>
<asrwt>0</asrwt>
<pdfrwt beam="1">  1       21 0.18932804E-01 0.65177250E+03</pdfrwt>
<pdfrwt beam="2">  1       21 0.13276708E+00 0.65177250E+03</pdfrwt>
<totfact> 0.87925543E+03</totfact>
</mgrwt>
</event>
