<event>
 8    1  0.1821556E-007  0.1253506E+03  0.7546771E-02  0.1234529E+00
         -5   -1    0    0    0  501 -0.00000000000E+00  0.00000000000E+00  0.33270978240E+02  0.33601309395E+02  0.47000000000E+01 0.  1.
          5   -1    0    0  501    0  0.00000000000E+00 -0.00000000000E+00 -0.47400259537E+03  0.47402589635E+03  0.47000000000E+01 0.  1.
         25    2    1    2    0    0  0.88586183417E+01  0.24751643787E+01 -0.19573344517E+03  0.23243141559E+03  0.12501271870E+03 0.  0.
         25    2    1    2    0    0 -0.88586183417E+01 -0.24751643787E+01 -0.24499817196E+03  0.27519579016E+03  0.12499606834E+03 0.  0.
          5    1    4    4  502    0  0.52484819217E+02 -0.19335531950E+02 -0.75411541332E+02  0.94008029499E+02  0.47000000000E+01 0. -1.
         -5    1    4    4    0  502 -0.61343437559E+02  0.16860367572E+02 -0.16958663063E+03  0.18118776066E+03  0.47000000000E+01 0. -1.
          5    1    3    3  503    0 -0.21691182645E+02  0.47158796062E+02 -0.15775313618E+03  0.16614030645E+03  0.47000000000E+01 0. -1.
         -5    1    3    3    0  503  0.30549800986E+02 -0.44683631683E+02 -0.37980308984E+02  0.66291109141E+02  0.47000000000E+01 0. -1.
<mgrwt>
<rscale>  0 0.12534648E+03</rscale>
<asrwt>0</asrwt>
<pdfrwt beam="2">  1        5 0.72950674E-01 0.12535063E+03</pdfrwt>
<pdfrwt beam="1">  1       -5 0.51458149E-02 0.12535063E+03</pdfrwt>
<totfact> 0.28998971E+02</totfact>
</mgrwt>
</event>
<event>
 8    1  0.1821556E-007  0.1398815E+03  0.7546771E-02  0.1213489E+00
         -5   -1    0    0    0  501 -0.00000000000E+00  0.00000000000E+00  0.28800845347E+03  0.28804680048E+03  0.47000000000E+01 0. -1.
          5   -1    0    0  501    0  0.00000000000E+00 -0.00000000000E+00 -0.70589394281E+02  0.70745689515E+02  0.47000000000E+01 0. -1.
         25    2    1    2    0    0  0.56311128243E+02 -0.27733336946E+02  0.14423378622E+03  0.20092256678E+03  0.12500564633E+03 0.  0.
         25    2    1    2    0    0 -0.56311128243E+02  0.27733336946E+02  0.73185272970E+02  0.15786992322E+03  0.12500698914E+03 0.  0.
          5    1    4    4  502    0  0.13287597891E+02 -0.39561771119E+02  0.13841221561E+02  0.44219491247E+02  0.47000000000E+01 0. -1.
         -5    1    4    4    0  502 -0.69598726134E+02  0.67295108065E+02  0.59344051409E+02  0.11365043197E+03  0.47000000000E+01 0. -1.
          5    1    3    3  503    0  0.77081361273E+02 -0.50306415579E+02  0.57080508461E+02  0.10840916082E+03  0.47000000000E+01 0. -1.
         -5    1    3    3    0  503 -0.20770233030E+02  0.22573078633E+02  0.87153277754E+02  0.92513405960E+02  0.47000000000E+01 0. -1.
<mgrwt>
<rscale>  0 0.13988118E+03</rscale>
<asrwt>0</asrwt>
<pdfrwt beam="2">  1        5 0.10874879E-01 0.13988148E+03</pdfrwt>
<pdfrwt beam="1">  1       -5 0.44323967E-01 0.13988148E+03</pdfrwt>
<totfact> 0.24752701E+02</totfact>
</mgrwt>
</event>
<event>
 8    1  0.1821556E-007  0.1417315E+03  0.7546771E-02  0.1211018E+00
         -5   -1    0    0    0  501 -0.00000000000E+00  0.00000000000E+00  0.23345861415E+03  0.23350591967E+03  0.47000000000E+01 0.  1.
          5   -1    0    0  501    0  0.00000000000E+00 -0.00000000000E+00 -0.89609626270E+02  0.89732798464E+02  0.47000000000E+01 0.  1.
         25    2    1    2    0    0 -0.52619468812E+02  0.41159161031E+02  0.10467053411E+03  0.17619193341E+03  0.12499916660E+03 0.  0.
         25    2    1    2    0    0  0.52619468812E+02 -0.41159161031E+02  0.39178453772E+02  0.14704678473E+03  0.12499968250E+03 0.  0.
          5    1    3    3  502    0 -0.81791535808E+02  0.36804622346E+02  0.11378895954E+03  0.14496362602E+03  0.47000000000E+01 0. -1.
         -5    1    3    3    0  502  0.29172066996E+02  0.43545386850E+01 -0.91184254289E+01  0.31228307387E+02  0.47000000000E+01 0. -1.
          5    1    4    4  503    0  0.51907727023E+02 -0.25437356615E+02 -0.37213759332E+02  0.68908817431E+02  0.47000000000E+01 0. -1.
         -5    1    4    4    0  503  0.71174178974E+00 -0.15721804417E+02  0.76392213104E+02  0.78137967297E+02  0.47000000000E+01 0. -1.
<mgrwt>
<rscale>  0 0.14173134E+03</rscale>
<asrwt>0</asrwt>
<pdfrwt beam="2">  1        5 0.13799210E-01 0.14173146E+03</pdfrwt>
<pdfrwt beam="1">  1       -5 0.35929823E-01 0.14173146E+03</pdfrwt>
<totfact> 0.25020543E+02</totfact>
</mgrwt>
</event>
<event>
 8    1  0.1821556E-007  0.1265004E+03  0.7546771E-02  0.1232750E+00
          5   -1    0    0  501    0  0.00000000000E+00  0.00000000000E+00  0.18158438647E+03  0.18164520200E+03  0.47000000000E+01 0. -1.
         -5   -1    0    0    0  501 -0.00000000000E+00 -0.00000000000E+00 -0.88295247187E+02  0.88420250372E+02  0.47000000000E+01 0. -1.
         25    2    1    2    0    0  0.19341483628E+02  0.16807160058E+01  0.38522332854E+02  0.13223582884E+03  0.12500170601E+03 0.  0.
         25    2    1    2    0    0 -0.19341483628E+02 -0.16807160058E+01  0.54766806430E+02  0.13782962353E+03  0.12498273577E+03 0.  0.
          5    1    4    4  502    0 -0.67535492362E+01  0.31964915546E+02  0.84655457842E+02  0.90862548916E+02  0.47000000000E+01 0. -1.
         -5    1    4    4    0  502 -0.12587934392E+02 -0.33645631552E+02 -0.29888651411E+02  0.46967074616E+02  0.47000000000E+01 0. -1.
          5    1    3    3  503    0 -0.43301993978E+02 -0.17160838034E+02 -0.13278509724E+02  0.48661749506E+02  0.47000000000E+01 0.  1.
         -5    1    3    3    0  503  0.62643477606E+02  0.18841554039E+02  0.51800842578E+02  0.83574079337E+02  0.47000000000E+01 0.  1.
<mgrwt>
<rscale>  0 0.12649569E+03</rscale>
<asrwt>0</asrwt>
<pdfrwt beam="1">  1        5 0.27950353E-01 0.12650037E+03</pdfrwt>
<pdfrwt beam="2">  1       -5 0.13598178E-01 0.12650037E+03</pdfrwt>
<totfact> 0.40538873E+02</totfact>
</mgrwt>
</event>
<event>
 8    1  0.1821556E-007  0.1552206E+03  0.7546771E-02  0.1194201E+00
         -5   -1    0    0    0  501 -0.00000000000E+00  0.00000000000E+00  0.15931992392E+03  0.15938923476E+03  0.47000000000E+01 0. -1.
          5   -1    0    0  501    0  0.00000000000E+00 -0.00000000000E+00 -0.15541628829E+03  0.15548733925E+03  0.47000000000E+01 0. -1.
         25    2    1    2    0    0  0.35961948192E+02  0.84705288273E+02  0.28216294745E+02  0.15776338079E+03  0.12499950980E+03 0.  0.
         25    2    1    2    0    0 -0.35961948192E+02 -0.84705288273E+02 -0.24312659115E+02  0.15711319322E+03  0.12500081004E+03 0.  0.
          5    1    4    4  502    0 -0.16160528852E+00  0.67500621897E+01 -0.53828446657E+02  0.54453476706E+02  0.47000000000E+01 0.  1.
         -5    1    4    4    0  502 -0.35800342904E+02 -0.91455350463E+02  0.29515787542E+02  0.10265971651E+03  0.47000000000E+01 0.  1.
          5    1    3    3  503    0 -0.22119839734E+02  0.60702881266E+02 -0.30525863793E+02  0.71610372602E+02  0.47000000000E+01 0. -1.
         -5    1    3    3    0  503  0.58081787926E+02  0.24002407007E+02  0.58742158538E+02  0.86153008192E+02  0.47000000000E+01 0. -1.
<mgrwt>
<rscale>  0 0.15522039E+03</rscale>
<asrwt>0</asrwt>
<pdfrwt beam="2">  1        5 0.23920995E-01 0.15522065E+03</pdfrwt>
<pdfrwt beam="1">  1       -5 0.24521555E-01 0.15522065E+03</pdfrwt>
<totfact> 0.19722937E+02</totfact>
</mgrwt>
</event>
<event>
 8    1  0.1821556E-007  0.1278206E+03  0.7546771E-02  0.1230726E+00
         -5   -1    0    0    0  501 -0.00000000000E+00  0.00000000000E+00  0.71251906742E+02  0.71406751882E+02  0.47000000000E+01 0.  1.
          5   -1    0    0  501    0  0.00000000000E+00 -0.00000000000E+00 -0.23469570852E+03  0.23474276474E+03  0.47000000000E+01 0.  1.
         25    2    1    2    0    0  0.24380115159E+02  0.10863544091E+02 -0.57615876523E+02  0.14020479999E+03  0.12500156042E+03 0.  0.
         25    2    1    2    0    0 -0.24380115159E+02 -0.10863544091E+02 -0.10582792526E+03  0.16594471663E+03  0.12500277040E+03 0.  0.
          5    1    4    4  502    0 -0.21606326029E+02 -0.41179573555E+01 -0.13430488922E+03  0.13617519659E+03  0.47000000000E+01 0. -1.
         -5    1    4    4    0  502 -0.27737891297E+01 -0.67455867359E+01  0.28476963968E+02  0.29769520039E+02  0.47000000000E+01 0. -1.
          5    1    3    3  503    0  0.75135775593E+02  0.51312280203E+01 -0.25328227117E+02  0.79594744574E+02  0.47000000000E+01 0.  1.
         -5    1    3    3    0  503 -0.50755660434E+02  0.57323160711E+01 -0.32287649405E+02  0.60610055418E+02  0.47000000000E+01 0.  1.
<mgrwt>
<rscale>  0 0.12782028E+03</rscale>
<asrwt>0</asrwt>
<pdfrwt beam="2">  1        5 0.36122562E-01 0.12782057E+03</pdfrwt>
<pdfrwt beam="1">  1       -5 0.10977363E-01 0.12782057E+03</pdfrwt>
<totfact> 0.35840706E+02</totfact>
</mgrwt>
</event>
<event>
 8    1  0.1821556E-007  0.1271105E+03  0.7546771E-02  0.1231813E+00
          5   -1    0    0  501    0  0.00000000000E+00  0.00000000000E+00  0.66036787347E+03  0.66038459879E+03  0.47000000000E+01 0.  1.
         -5   -1    0    0    0  501 -0.00000000000E+00 -0.00000000000E+00 -0.24268128683E+02  0.24719062882E+02  0.47000000000E+01 0.  1.
         25    2    1    2    0    0  0.22080693670E+02 -0.65363424770E+01  0.33298194996E+03  0.35641837205E+03  0.12500718431E+03 0.  0.
         25    2    1    2    0    0 -0.22080693670E+02  0.65363424770E+01  0.30311779482E+03  0.32868528962E+03  0.12499336488E+03 0.  0.
          5    1    3    3  502    0  0.28674225815E+02  0.56412558078E+02  0.15681708457E+03  0.16916937060E+03  0.47000000000E+01 0.  1.
         -5    1    3    3    0  502 -0.65935321450E+01 -0.62948900555E+02  0.17616486539E+03  0.18724900145E+03  0.47000000000E+01 0.  1.
          5    1    4    4  503    0 -0.53364692576E+02 -0.36663288151E+02  0.22350679663E+03  0.23274313148E+03  0.47000000000E+01 0. -1.
         -5    1    4    4    0  503  0.31283998906E+02  0.43199630628E+02  0.79610998199E+02  0.95942158138E+02  0.47000000000E+01 0. -1.
<mgrwt>
<rscale>  0 0.12710709E+03</rscale>
<asrwt>0</asrwt>
<pdfrwt beam="1">  1        5 0.10163104E+00 0.12711049E+03</pdfrwt>
<pdfrwt beam="2">  1       -5 0.37695318E-02 0.12711049E+03</pdfrwt>
<totfact> 0.22340164E+02</totfact>
</mgrwt>
</event>
<event>
 8    1  0.1821556E-007  0.1266692E+03  0.7546771E-02  0.1232492E+00
         -5   -1    0    0    0  501 -0.00000000000E+00  0.00000000000E+00  0.54222268067E+02  0.54425585475E+02  0.47000000000E+01 0. -1.
          5   -1    0    0  501    0  0.00000000000E+00 -0.00000000000E+00 -0.29907381662E+03  0.29911074502E+03  0.47000000000E+01 0. -1.
         25    2    1    2    0    0 -0.17825833150E+02  0.10109947865E+02 -0.14282513690E+03  0.19088802554E+03  0.12497698665E+03 0.  0.
         25    2    1    2    0    0  0.17825833150E+02 -0.10109947865E+02 -0.10202641165E+03  0.16264830496E+03  0.12500044423E+03 0.  0.
          5    1    3    3  502    0  0.38423146674E+02  0.44819952595E+02 -0.54606440988E+02  0.80555072766E+02  0.47000000000E+01 0. -1.
         -5    1    3    3    0  502 -0.56248979824E+02 -0.34710004730E+02 -0.88218695907E+02  0.11033295277E+03  0.47000000000E+01 0. -1.
          5    1    4    4  503    0 -0.33158480083E+02 -0.50904084040E+02 -0.54510605550E+02  0.81756997810E+02  0.47000000000E+01 0.  1.
         -5    1    4    4    0  503  0.50984313233E+02  0.40794136176E+02 -0.47515806104E+02  0.80891307147E+02  0.47000000000E+01 0.  1.
<mgrwt>
<rscale>  0 0.12666340E+03</rscale>
<asrwt>0</asrwt>
<pdfrwt beam="2">  1        5 0.46029836E-01 0.12666919E+03</pdfrwt>
<pdfrwt beam="1">  1       -5 0.83603680E-02 0.12666919E+03</pdfrwt>
<totfact> 0.34891066E+02</totfact>
</mgrwt>
</event>
<event>
 8    1  0.1821556E-007  0.1428611E+03  0.7546771E-02  0.1209531E+00
          5   -1    0    0  501    0  0.00000000000E+00  0.00000000000E+00  0.40489341764E+02  0.40761216818E+02  0.47000000000E+01 0.  1.
         -5   -1    0    0    0  501 -0.00000000000E+00 -0.00000000000E+00 -0.50410834275E+03  0.50413025224E+03  0.47000000000E+01 0.  1.
         25    2    1    2    0    0 -0.25660076463E+02 -0.64230992657E+02 -0.21455300304E+03  0.25776226570E+03  0.12499733821E+03 0.  0.
         25    2    1    2    0    0  0.25660076463E+02  0.64230992657E+02 -0.24906599794E+03  0.28712920337E+03  0.12500099261E+03 0.  0.
          5    1    4    4  502    0  0.40109644272E+02  0.57629385305E+01 -0.21278817535E+03  0.21666308544E+03  0.47000000000E+01 0.  1.
         -5    1    4    4    0  502 -0.14449567809E+02  0.58468054127E+02 -0.36277822592E+02  0.70466117924E+02  0.47000000000E+01 0.  1.
          5    1    3    3  503    0 -0.57503459799E+02 -0.75291036169E+02 -0.98190068548E+02  0.13652387182E+03  0.47000000000E+01 0.  1.
         -5    1    3    3    0  503  0.31843383336E+02  0.11060043512E+02 -0.11636293449E+03  0.12123839387E+03  0.47000000000E+01 0.  1.
<mgrwt>
<rscale>  0 0.14286035E+03</rscale>
<asrwt>0</asrwt>
<pdfrwt beam="1">  1        5 0.62517287E-02 0.14286115E+03</pdfrwt>
<pdfrwt beam="2">  1       -5 0.77577724E-01 0.14286115E+03</pdfrwt>
<totfact> 0.19031690E+02</totfact>
</mgrwt>
</event>
<event>
 8    1  0.1821556E-007  0.1371680E+03  0.7546771E-02  0.1217191E+00
         -5   -1    0    0    0  501 -0.00000000000E+00  0.00000000000E+00  0.18654783774E+04  0.18654842981E+04  0.47000000000E+01 0.  1.
          5   -1    0    0  501    0  0.00000000000E+00 -0.00000000000E+00 -0.10831240159E+02  0.11807021783E+02  0.47000000000E+01 0.  1.
         25    2    1    2    0    0  0.55881089566E+02 -0.82145586378E+01  0.12378149426E+04  0.12453917788E+04  0.12499870149E+03 0.  0.
         25    2    1    2    0    0 -0.55881089566E+02  0.82145586378E+01  0.61683219461E+03  0.63189954110E+03  0.12499959436E+03 0.  0.
          5    1    4    4  502    0 -0.13074333742E+02  0.34010716230E+02  0.46029545412E+02  0.58893769383E+02  0.47000000000E+01 0.  1.
         -5    1    4    4    0  502 -0.42806755824E+02 -0.25796157592E+02  0.57080264920E+03  0.57300577172E+03  0.47000000000E+01 0.  1.
          5    1    3    3  503    0 -0.57601594085E+01  0.13190077644E+02  0.16763276545E+02  0.22588825228E+02  0.47000000000E+01 0.  1.
         -5    1    3    3    0  503  0.61641248975E+02 -0.21404636281E+02  0.12210516661E+04  0.12228029535E+04  0.47000000000E+01 0.  1.
<mgrwt>
<rscale>  0 0.13716785E+03</rscale>
<asrwt>0</asrwt>
<pdfrwt beam="2">  1        5 0.17418602E-02 0.13716805E+03</pdfrwt>
<pdfrwt beam="1">  1       -5 0.28707218E+00 0.13716805E+03</pdfrwt>
<totfact> 0.34877293E+01</totfact>
</mgrwt>
</event>
<event>
 8    1  0.1821556E-007  0.1427783E+03  0.7546771E-02  0.1209644E+00
          5   -1    0    0  501    0  0.00000000000E+00  0.00000000000E+00  0.35281556538E+03  0.35284686930E+03  0.47000000000E+01 0. -1.
         -5   -1    0    0    0  501 -0.00000000000E+00 -0.00000000000E+00 -0.57737588289E+02  0.57928568957E+02  0.47000000000E+01 0. -1.
         25    2    1    2    0    0 -0.65338937263E+02 -0.22178045093E+02  0.15583492178E+03  0.21135316904E+03  0.12499838724E+03 0.  0.
         25    2    1    2    0    0  0.65338937263E+02  0.22178045093E+02  0.13924305531E+03  0.19942226922E+03  0.12497828051E+03 0.  0.
          5    1    4    4  502    0  0.59131771417E+02 -0.39144228621E+02  0.11018857078E+03  0.13111997619E+03  0.47000000000E+01 0.  1.
         -5    1    4    4    0  502  0.62071658462E+01  0.61322273715E+02  0.29054484535E+02  0.68302293029E+02  0.47000000000E+01 0.  1.
          5    1    3    3  503    0  0.10137114561E+02 -0.29937254736E+02  0.12550117330E+03  0.12950534665E+03  0.47000000000E+01 0.  1.
         -5    1    3    3    0  503 -0.75476051824E+02  0.77592096423E+01  0.30333748485E+02  0.81847822392E+02  0.47000000000E+01 0.  1.
<mgrwt>
<rscale>  0 0.14277389E+03</rscale>
<asrwt>0</asrwt>
<pdfrwt beam="1">  1        5 0.54296416E-01 0.14277829E+03</pdfrwt>
<pdfrwt beam="2">  1       -5 0.88998048E-02 0.14277829E+03</pdfrwt>
<totfact> 0.23017786E+02</totfact>
</mgrwt>
</event>
<event>
 8    1  0.1821556E-007  0.1443668E+03  0.7546771E-02  0.1207572E+00
         -5   -1    0    0    0  501 -0.00000000000E+00  0.00000000000E+00  0.47437877769E+03  0.47440206020E+03  0.47000000000E+01 0. -1.
          5   -1    0    0  501    0  0.00000000000E+00 -0.00000000000E+00 -0.50238286944E+02  0.50457660222E+02  0.47000000000E+01 0. -1.
         25    2    1    2    0    0  0.34539707328E+01  0.72140039833E+02  0.30589219774E+03  0.33824663466E+03  0.12499853581E+03 0.  0.
         25    2    1    2    0    0 -0.34539707328E+01 -0.72140039833E+02  0.11824829301E+03  0.18661308577E+03  0.12500267885E+03 0.  0.
          5    1    3    3  502    0  0.37878550453E+02 -0.96193878502E+01  0.33347327210E+02  0.51589257012E+02  0.47000000000E+01 0.  1.
         -5    1    3    3    0  502 -0.34424579720E+02  0.81759427684E+02  0.27254487053E+03  0.28665737764E+03  0.47000000000E+01 0.  1.
          5    1    4    4  503    0 -0.62856300711E+02 -0.23803921911E+02  0.49688479758E+02  0.83717239910E+02  0.47000000000E+01 0. -1.
         -5    1    4    4    0  503  0.59402329978E+02 -0.48336117923E+02  0.68559813249E+02  0.10289584586E+03  0.47000000000E+01 0. -1.
<mgrwt>
<rscale>  0 0.14436594E+03</rscale>
<asrwt>0</asrwt>
<pdfrwt beam="2">  1        5 0.77476328E-02 0.14436684E+03</pdfrwt>
<pdfrwt beam="1">  1       -5 0.73000019E-01 0.14436684E+03</pdfrwt>
<totfact> 0.15243435E+02</totfact>
</mgrwt>
</event>
<event>
 8    1  0.1821556E-007  0.1269272E+03  0.7546771E-02  0.1232089E+00
         -5   -1    0    0    0  501 -0.00000000000E+00  0.00000000000E+00  0.12606477321E+02  0.13454117231E+02  0.47000000000E+01 0. -1.
          5   -1    0    0  501    0  0.00000000000E+00 -0.00000000000E+00 -0.12393201988E+04  0.12393291109E+04  0.47000000000E+01 0. -1.
         25    2    1    2    0    0 -0.10499734711E+02  0.19311040214E+02 -0.57859046387E+03  0.59234831537E+03  0.12500576438E+03 0.  0.
         25    2    1    2    0    0  0.10499734711E+02 -0.19311040214E+02 -0.64812325762E+03  0.66043491279E+03  0.12500942470E+03 0.  0.
          5    1    3    3  502    0 -0.94232174281E+01 -0.52995379348E+02 -0.22345154811E+03  0.22989126041E+03  0.47000000000E+01 0.  1.
         -5    1    3    3    0  502 -0.10765172826E+01  0.72306419562E+02 -0.35513891576E+03  0.36245705496E+03  0.47000000000E+01 0.  1.
          5    1    4    4  503    0  0.67180644012E+02 -0.18174535810E+01 -0.33461994152E+03  0.34133434830E+03  0.47000000000E+01 0.  1.
         -5    1    4    4    0  503 -0.56680909302E+02 -0.17493586633E+02 -0.31350331610E+03  0.31910056450E+03  0.47000000000E+01 0.  1.
<mgrwt>
<rscale>  0 0.12692631E+03</rscale>
<asrwt>0</asrwt>
<pdfrwt beam="2">  1        5 0.19073044E+00 0.12692721E+03</pdfrwt>
<pdfrwt beam="1">  1       -5 0.20053476E-02 0.12692721E+03</pdfrwt>
<totfact> 0.11396002E+02</totfact>
</mgrwt>
</event>
<event>
 8    1  0.1821556E-007  0.1674417E+03  0.7546771E-02  0.1180543E+00
          5   -1    0    0  501    0  0.00000000000E+00  0.00000000000E+00  0.67997202107E+03  0.67998826419E+03  0.47000000000E+01 0. -1.
         -5   -1    0    0    0  501 -0.00000000000E+00 -0.00000000000E+00 -0.48498400346E+02  0.48725607601E+02  0.47000000000E+01 0. -1.
         25    2    1    2    0    0  0.57074279182E+01 -0.11125656902E+03  0.17362911222E+03  0.24121175449E+03  0.12500177204E+03 0.  0.
         25    2    1    2    0    0 -0.57074279182E+01  0.11125656902E+03  0.45784450851E+03  0.48750211730E+03  0.12500448599E+03 0.  0.
          5    1    3    3  502    0 -0.51675955136E+02 -0.92119337913E+02  0.97111924914E+02  0.14355902172E+03  0.47000000000E+01 0. -1.
         -5    1    3    3    0  502  0.57383383054E+02 -0.19137231108E+02  0.76517187302E+02  0.97652732772E+02  0.47000000000E+01 0. -1.
          5    1    4    4  503    0  0.40700912555E+02  0.29842973802E+01  0.61206964622E+02  0.73714671755E+02  0.47000000000E+01 0. -1.
         -5    1    4    4    0  503 -0.46408340473E+02  0.10827227164E+03  0.39663754389E+03  0.41378744555E+03  0.47000000000E+01 0. -1.
<mgrwt>
<rscale>  0 0.16744119E+03</rscale>
<asrwt>0</asrwt>
<pdfrwt beam="1">  1        5 0.10462980E+00 0.16744169E+03</pdfrwt>
<pdfrwt beam="2">  1       -5 0.74800198E-02 0.16744169E+03</pdfrwt>
<totfact> 0.72269868E+01</totfact>
</mgrwt>
</event>
<event>
 8    1  0.1821556E-007  0.1994926E+03  0.7546771E-02  0.1150170E+00
          5   -1    0    0  501    0  0.00000000000E+00  0.00000000000E+00  0.38140192691E+03  0.38143088476E+03  0.47000000000E+01 0.  1.
         -5   -1    0    0    0  501 -0.00000000000E+00 -0.00000000000E+00 -0.10459491277E+03  0.10470045739E+03  0.47000000000E+01 0.  1.
         25    2    1    2    0    0 -0.11511211701E+02 -0.15504924693E+03  0.12451075024E+03  0.23516001587E+03  0.12499811668E+03 0.  0.
         25    2    1    2    0    0  0.11511211701E+02  0.15504924693E+03  0.15229626390E+03  0.25097132627E+03  0.12497870877E+03 0.  0.
          5    1    4    4  502    0  0.46877055212E+02  0.75745479048E+01  0.34456526237E+02  0.58857236442E+02  0.47000000000E+01 0.  1.
         -5    1    4    4    0  502 -0.35365843511E+02  0.14747469902E+03  0.11783973766E+03  0.19211408983E+03  0.47000000000E+01 0.  1.
          5    1    3    3  503    0  0.44008614636E+02 -0.13182003604E+03  0.89748981194E+02  0.16549999906E+03  0.47000000000E+01 0.  1.
         -5    1    3    3    0  503 -0.55519826337E+02 -0.23229210881E+02  0.34761769046E+02  0.69660016809E+02  0.47000000000E+01 0.  1.
<mgrwt>
<rscale>  0 0.19948958E+03</rscale>
<asrwt>0</asrwt>
<pdfrwt beam="1">  1        5 0.58687565E-01 0.19949262E+03</pdfrwt>
<pdfrwt beam="2">  1       -5 0.16101872E-01 0.19949262E+03</pdfrwt>
<totfact> 0.74864931E+01</totfact>
</mgrwt>
</event>
<event>
 8    1  0.1821556E-007  0.2349867E+03  0.7546771E-02  0.1123178E+00
          5   -1    0    0  501    0  0.00000000000E+00  0.00000000000E+00  0.18633915473E+03  0.18639841894E+03  0.47000000000E+01 0.  1.
         -5   -1    0    0    0  501 -0.00000000000E+00 -0.00000000000E+00 -0.41885888220E+03  0.41888525063E+03  0.47000000000E+01 0.  1.
         25    2    1    2    0    0 -0.10172712549E+03  0.17101179183E+03 -0.28000966895E+03  0.36554636134E+03  0.12500114632E+03 0.  0.
         25    2    1    2    0    0  0.10172712549E+03 -0.17101179183E+03  0.47489941478E+02  0.23973730823E+03  0.12500096563E+03 0.  0.
          5    1    3    3  502    0  0.26864216226E+02  0.14399787626E+02 -0.52080620704E+02  0.60527027434E+02  0.47000000000E+01 0. -1.
         -5    1    3    3    0  502 -0.12859134172E+03  0.15661200420E+03 -0.22792904824E+03  0.30501933391E+03  0.47000000000E+01 0. -1.
          5    1    4    4  503    0  0.49396897378E+02 -0.11849133702E+03 -0.30494877584E+02  0.13203135225E+03  0.47000000000E+01 0.  1.
         -5    1    4    4    0  503  0.52330228117E+02 -0.52520454811E+02  0.77984819062E+02  0.10770595597E+03  0.47000000000E+01 0.  1.
<mgrwt>
<rscale>  0 0.23498663E+03</rscale>
<asrwt>0</asrwt>
<pdfrwt beam="1">  1        5 0.28674149E-01 0.23498665E+03</pdfrwt>
<pdfrwt beam="2">  1       -5 0.64446415E-01 0.23498665E+03</pdfrwt>
<totfact> 0.21190751E+01</totfact>
</mgrwt>
</event>
<event>
 8    1  0.1821556E-007  0.1308364E+03  0.7546771E-02  0.1226243E+00
          5   -1    0    0  501    0  0.00000000000E+00  0.00000000000E+00  0.42568506915E+03  0.42571101477E+03  0.47000000000E+01 0.  1.
         -5   -1    0    0    0  501 -0.00000000000E+00 -0.00000000000E+00 -0.52411737225E+02  0.52622050501E+02  0.47000000000E+01 0.  1.
         25    2    1    2    0    0  0.29446819253E+02  0.25010736843E+02  0.70719749016E+02  0.14872606101E+03  0.12500202479E+03 0.  0.
         25    2    1    2    0    0 -0.29446819253E+02 -0.25010736843E+02  0.30255358291E+03  0.32960700427E+03  0.12493780295E+03 0.  0.
          5    1    3    3  502    0 -0.30639554312E+02  0.12939645872E+02  0.79810011798E+02  0.86590673325E+02  0.47000000000E+01 0. -1.
         -5    1    3    3    0  502  0.60086373565E+02  0.12071090970E+02 -0.90902627813E+01  0.62135387685E+02  0.47000000000E+01 0. -1.
          5    1    4    4  503    0 -0.61859840385E+02  0.27484815684E+02  0.17892347920E+03  0.19135766605E+03  0.47000000000E+01 0.  1.
         -5    1    4    4    0  503  0.32413021133E+02 -0.52495552526E+02  0.12363010371E+03  0.13824933822E+03  0.47000000000E+01 0.  1.
<mgrwt>
<rscale>  0 0.13082104E+03</rscale>
<asrwt>0</asrwt>
<pdfrwt beam="1">  1        5 0.65508183E-01 0.13083638E+03</pdfrwt>
<pdfrwt beam="2">  1       -5 0.80815181E-02 0.13083638E+03</pdfrwt>
<totfact> 0.17506931E+02</totfact>
</mgrwt>
</event>
<event>
 8    1  0.1821556E-007  0.1253720E+03  0.7546771E-02  0.1234490E+00
          5   -1    0    0  501    0  0.00000000000E+00  0.00000000000E+00  0.82691164165E+02  0.82824625752E+02  0.47000000000E+01 0.  1.
         -5   -1    0    0    0  501 -0.00000000000E+00 -0.00000000000E+00 -0.23661595391E+03  0.23666262833E+03  0.47000000000E+01 0.  1.
         25    2    1    2    0    0  0.72296944204E+01 -0.64089503017E+01 -0.14801683433E+03  0.19397609076E+03  0.12499758964E+03 0.  0.
         25    2    1    2    0    0 -0.72296944204E+01  0.64089503017E+01 -0.59079554172E+01  0.12551116332E+03  0.12499922022E+03 0.  0.
          5    1    3    3  502    0 -0.45520283869E+02  0.24060091776E+02 -0.26807556318E+02  0.58238469550E+02  0.47000000000E+01 0. -1.
         -5    1    3    3    0  502  0.52749978290E+02 -0.30469042078E+02 -0.12120927801E+03  0.13573762121E+03  0.47000000000E+01 0. -1.
          5    1    4    4  503    0  0.62956360484E+01  0.64036829397E+02  0.65162295893E+01  0.64845214169E+02  0.47000000000E+01 0. -1.
         -5    1    4    4    0  503 -0.13525330469E+02 -0.57627879096E+02 -0.12424185006E+02  0.60665949151E+02  0.47000000000E+01 0. -1.
<mgrwt>
<rscale>  0 0.12537163E+03</rscale>
<asrwt>0</asrwt>
<pdfrwt beam="1">  1        5 0.12735574E-01 0.12537204E+03</pdfrwt>
<pdfrwt beam="2">  1       -5 0.36416311E-01 0.12537204E+03</pdfrwt>
<totfact> 0.26926825E+02</totfact>
</mgrwt>
</event>
<event>
 8    1  0.1821556E-007  0.1259505E+03  0.7546771E-02  0.1233592E+00
          5   -1    0    0  501    0  0.00000000000E+00  0.00000000000E+00  0.10072254702E+04  0.10072364359E+04  0.47000000000E+01 0.  1.
         -5   -1    0    0    0  501 -0.00000000000E+00 -0.00000000000E+00 -0.17483516286E+02  0.18104235464E+02  0.47000000000E+01 0.  1.
         25    2    1    2    0    0  0.19086793659E+01 -0.15317712811E+02  0.32067169766E+03  0.34451870684E+03  0.12499810519E+03 0.  0.
         25    2    1    2    0    0 -0.19086793659E+01  0.15317712811E+02  0.66907025625E+03  0.68082196453E+03  0.12500105680E+03 0.  0.
          5    1    4    4  502    0 -0.17262939613E+01  0.37875912041E+02  0.64940567513E+03  0.65052854333E+03  0.47000000000E+01 0.  1.
         -5    1    4    4    0  502 -0.18238540466E+00 -0.22558199230E+02  0.19664581124E+02  0.30293421195E+02  0.47000000000E+01 0.  1.
          5    1    3    3  503    0  0.40912765380E+02  0.20799009795E+02  0.47630782329E+02  0.66311647580E+02  0.47000000000E+01 0.  1.
         -5    1    3    3    0  503 -0.39004086014E+02 -0.36116722606E+02  0.27304091533E+03  0.27820705926E+03  0.47000000000E+01 0.  1.
<mgrwt>
<rscale>  0 0.12594981E+03</rscale>
<asrwt>0</asrwt>
<pdfrwt beam="1">  1        5 0.15500636E+00 0.12595054E+03</pdfrwt>
<pdfrwt beam="2">  1       -5 0.27383627E-02 0.12595054E+03</pdfrwt>
<totfact> 0.12572788E+02</totfact>
</mgrwt>
</event>
<event>
 8    1  0.1821556E-007  0.1412845E+03  0.7546771E-02  0.1211612E+00
          5   -1    0    0  501    0  0.00000000000E+00  0.00000000000E+00  0.31703615165E+02  0.32050104750E+02  0.47000000000E+01 0. -1.
         -5   -1    0    0    0  501 -0.00000000000E+00 -0.00000000000E+00 -0.72047041475E+03  0.72048574485E+03  0.47000000000E+01 0. -1.
         25    2    1    2    0    0  0.16707287944E+02 -0.63692743872E+02 -0.48072301681E+03  0.50105480438E+03  0.12500159604E+03 0.  0.
         25    2    1    2    0    0 -0.16707287944E+02  0.63692743872E+02 -0.20804378278E+03  0.25148104522E+03  0.12499840583E+03 0.  0.
          5    1    3    3  502    0  0.32181984723E+02 -0.76597525429E+02 -0.47081829481E+03  0.47811590412E+03  0.47000000000E+01 0.  1.
         -5    1    3    3    0  502 -0.15474696779E+02  0.12904781557E+02 -0.99047219985E+01  0.22938900264E+02  0.47000000000E+01 0.  1.
          5    1    4    4  503    0 -0.21097801194E+01  0.10002792081E+03 -0.13072882106E+03  0.16468804076E+03  0.47000000000E+01 0. -1.
         -5    1    4    4    0  503 -0.14597507824E+02 -0.36335176935E+02 -0.77314961720E+02  0.86793004461E+02  0.47000000000E+01 0. -1.
<mgrwt>
<rscale>  0 0.14128375E+03</rscale>
<asrwt>0</asrwt>
<pdfrwt beam="1">  1        5 0.49053121E-02 0.14128446E+03</pdfrwt>
<pdfrwt beam="2">  1       -5 0.11086942E+00 0.14128446E+03</pdfrwt>
<totfact> 0.12101888E+02</totfact>
</mgrwt>
</event>
<event>
 8    1  0.1821556E-007  0.1391248E+03  0.7546771E-02  0.1214512E+00
          5   -1    0    0  501    0  0.00000000000E+00  0.00000000000E+00  0.45033024840E+02  0.45277625007E+02  0.47000000000E+01 0.  1.
         -5   -1    0    0    0  501 -0.00000000000E+00 -0.00000000000E+00 -0.46377256699E+03  0.46379638193E+03  0.47000000000E+01 0.  1.
         25    2    1    2    0    0 -0.66205064794E+01  0.60717959904E+02 -0.27965920547E+03  0.31235393121E+03  0.12500082149E+03 0.  0.
         25    2    1    2    0    0  0.66205064794E+01 -0.60717959904E+02 -0.13908033667E+03  0.19672007573E+03  0.12499978554E+03 0.  0.
          5    1    4    4  502    0 -0.41603804822E+02  0.10588794083E+02 -0.15178432462E+02  0.45776347034E+02  0.47000000000E+01 0. -1.
         -5    1    4    4    0  502  0.48224311302E+02 -0.71306753987E+02 -0.12390190421E+03  0.15094372869E+03  0.47000000000E+01 0. -1.
          5    1    3    3  503    0  0.26030307140E+02  0.81195184775E+02 -0.11535088219E+03  0.14352055930E+03  0.47000000000E+01 0.  1.
         -5    1    3    3    0  503 -0.32650813619E+02 -0.20477224871E+02 -0.16430832329E+03  0.16883337191E+03  0.47000000000E+01 0.  1.
<mgrwt>
<rscale>  0 0.13912456E+03</rscale>
<asrwt>0</asrwt>
<pdfrwt beam="1">  1        5 0.69488053E-02 0.13912479E+03</pdfrwt>
<pdfrwt beam="2">  1       -5 0.71370270E-01 0.13912479E+03</pdfrwt>
<totfact> 0.19081878E+02</totfact>
</mgrwt>
</event>
<event>
 8    1  0.1821556E-007  0.1949394E+03  0.7546771E-02  0.1154080E+00
         -5   -1    0    0    0  501 -0.00000000000E+00  0.00000000000E+00  0.27303346275E+03  0.27307391267E+03  0.47000000000E+01 0. -1.
          5   -1    0    0  501    0  0.00000000000E+00 -0.00000000000E+00 -0.13909917110E+03  0.13917855223E+03  0.47000000000E+01 0. -1.
         25    2    1    2    0    0 -0.76778809416E+02  0.12837922012E+03  0.65439117944E+02  0.20562984351E+03  0.12500057860E+03 0.  0.
         25    2    1    2    0    0  0.76778809416E+02 -0.12837922012E+03  0.68495173707E+02  0.20662262140E+03  0.12500043647E+03 0.  0.
          5    1    4    4  502    0  0.24043907078E+02 -0.28015656570E+02  0.84210187109E+02  0.92067540934E+02  0.47000000000E+01 0. -1.
         -5    1    4    4    0  502  0.52734902338E+02 -0.10036356355E+03 -0.15715013403E+02  0.11455508046E+03  0.47000000000E+01 0. -1.
          5    1    3    3  503    0 -0.51776139032E+02  0.14216121750E+03  0.21311347886E+02  0.15286217283E+03  0.47000000000E+01 0. -1.
         -5    1    3    3    0  503 -0.25002670384E+02 -0.13781997381E+02  0.44127770058E+02  0.52767670675E+02  0.47000000000E+01 0. -1.
<mgrwt>
<rscale>  0 0.19493934E+03</rscale>
<asrwt>0</asrwt>
<pdfrwt beam="2">  1        5 0.21409090E-01 0.19493936E+03</pdfrwt>
<pdfrwt beam="1">  1       -5 0.42014365E-01 0.19493936E+03</pdfrwt>
<totfact> 0.89255123E+01</totfact>
</mgrwt>
</event>
<event>
 8    1  0.1821556E-007  0.1269444E+03  0.7546771E-02  0.1232067E+00
          5   -1    0    0  501    0  0.00000000000E+00  0.00000000000E+00  0.10999501477E+03  0.11009538262E+03  0.47000000000E+01 0.  1.
         -5   -1    0    0    0  501 -0.00000000000E+00 -0.00000000000E+00 -0.14671669935E+03  0.14679196119E+03  0.47000000000E+01 0.  1.
         25    2    1    2    0    0 -0.14737281923E+02  0.16545086255E+02 -0.25341794599E+02  0.12943387312E+03  0.12497997279E+03 0.  0.
         25    2    1    2    0    0  0.14737281923E+02 -0.16545086255E+02 -0.11379889983E+02  0.12745347069E+03  0.12499583168E+03 0.  0.
          5    1    3    3  502    0  0.38037643917E+02 -0.29895542067E+02  0.11467730299E+02  0.49942012659E+02  0.47000000000E+01 0.  1.
         -5    1    3    3    0  502 -0.52774925839E+02  0.46440628322E+02 -0.36809524898E+02  0.79491860461E+02  0.47000000000E+01 0.  1.
          5    1    4    4  503    0 -0.50657159550E+02  0.10276094492E+02  0.11215102076E+02  0.53100041866E+02  0.47000000000E+01 0. -1.
         -5    1    4    4    0  503  0.65394441472E+02 -0.26821180746E+02 -0.22594992058E+02  0.74353428826E+02  0.47000000000E+01 0. -1.
<mgrwt>
<rscale>  0 0.12694051E+03</rscale>
<asrwt>0</asrwt>
<pdfrwt beam="1">  1        5 0.16935820E-01 0.12694442E+03</pdfrwt>
<pdfrwt beam="2">  1       -5 0.22585310E-01 0.12694442E+03</pdfrwt>
<totfact> 0.41032871E+02</totfact>
</mgrwt>
</event>
<event>
 8    1  0.1821556E-007  0.1323302E+03  0.7546771E-02  0.1224039E+00
         -5   -1    0    0    0  501 -0.00000000000E+00  0.00000000000E+00  0.13392564081E+03  0.13400808657E+03  0.47000000000E+01 0.  1.
          5   -1    0    0  501    0  0.00000000000E+00 -0.00000000000E+00 -0.16722948543E+03  0.16729551936E+03  0.47000000000E+01 0.  1.
         25    2    1    2    0    0 -0.43313073140E+02 -0.30756232886E+01  0.53833324034E+02  0.14286068745E+03  0.12500266988E+03 0.  0.
         25    2    1    2    0    0  0.43313073140E+02  0.30756232886E+01 -0.87137168660E+02  0.15844291848E+03  0.12500316192E+03 0.  0.
          5    1    4    4  502    0  0.31517922048E+02  0.62089281718E+02 -0.32347134679E+02  0.76921293778E+02  0.47000000000E+01 0. -1.
         -5    1    4    4    0  502  0.11795151092E+02 -0.59013658430E+02 -0.54790033981E+02  0.81521624703E+02  0.47000000000E+01 0. -1.
          5    1    3    3  503    0  0.35490486677E+02  0.13509166195E+01  0.52774655596E+02  0.63786000764E+02  0.47000000000E+01 0.  1.
         -5    1    3    3    0  503 -0.78803559816E+02 -0.44265399081E+01  0.10586684378E+01  0.79074686684E+02  0.47000000000E+01 0.  1.
<mgrwt>
<rscale>  0 0.13233005E+03</rscale>
<asrwt>0</asrwt>
<pdfrwt beam="2">  1        5 0.25739035E-01 0.13233016E+03</pdfrwt>
<pdfrwt beam="1">  1       -5 0.20615366E-01 0.13233016E+03</pdfrwt>
<totfact> 0.22571969E+02</totfact>
</mgrwt>
</event>
<event>
 8    1  0.1821556E-007  0.1373877E+03  0.7546771E-02  0.1216889E+00
          5   -1    0    0  501    0  0.00000000000E+00  0.00000000000E+00  0.80917245986E+03  0.80918610949E+03  0.47000000000E+01 0. -1.
         -5   -1    0    0    0  501 -0.00000000000E+00 -0.00000000000E+00 -0.23075792392E+02  0.23549568882E+02  0.47000000000E+01 0. -1.
         25    2    1    2    0    0  0.47157281241E+02  0.32037042098E+02  0.39190851346E+03  0.41529146823E+03  0.12499815767E+03 0.  0.
         25    2    1    2    0    0 -0.47157281241E+02 -0.32037042098E+02  0.39418815400E+03  0.41744421014E+03  0.12500074634E+03 0.  0.
          5    1    3    3  502    0  0.35072448308E+02  0.57350372682E+02  0.37738913267E+03  0.38335856496E+03  0.47000000000E+01 0.  1.
         -5    1    3    3    0  502  0.12084832932E+02 -0.25313330584E+02  0.14519380796E+02  0.31932903266E+02  0.47000000000E+01 0.  1.
          5    1    4    4  503    0 -0.33696105052E+01 -0.26355665193E+02  0.72135015833E+01  0.27930269741E+02  0.47000000000E+01 0.  1.
         -5    1    4    4    0  503 -0.43787670736E+02 -0.56813769048E+01  0.38697465242E+03  0.38951394040E+03  0.47000000000E+01 0.  1.
<mgrwt>
<rscale>  0 0.13738707E+03</rscale>
<asrwt>0</asrwt>
<pdfrwt beam="1">  1        5 0.12452555E+00 0.13738766E+03</pdfrwt>
<pdfrwt beam="2">  1       -5 0.35876166E-02 0.13738766E+03</pdfrwt>
<totfact> 0.14953786E+02</totfact>
</mgrwt>
</event>
<event>
 8    1  0.1821556E-007  0.1434646E+03  0.7546771E-02  0.1208750E+00
          5   -1    0    0  501    0  0.00000000000E+00  0.00000000000E+00  0.35239086249E+03  0.35242220414E+03  0.47000000000E+01 0. -1.
         -5   -1    0    0    0  501 -0.00000000000E+00 -0.00000000000E+00 -0.71717563160E+02  0.71871405062E+02  0.47000000000E+01 0. -1.
         25    2    1    2    0    0 -0.64746470920E+02 -0.27531017721E+02  0.48587085350E+02  0.15144549108E+03  0.12499987789E+03 0.  0.
         25    2    1    2    0    0  0.64746470920E+02  0.27531017721E+02  0.23208621398E+03  0.27284811812E+03  0.12502808647E+03 0.  0.
          5    1    4    4  502    0  0.51054868449E+02  0.56346856046E+01  0.14354126912E+02  0.53539520297E+02  0.47000000000E+01 0. -1.
         -5    1    4    4    0  502  0.13691602472E+02  0.21896332117E+02  0.21773208707E+03  0.21930859782E+03  0.47000000000E+01 0. -1.
          5    1    3    3  503    0  0.24189269592E+01  0.64463045564E+01 -0.36677641693E+02  0.37613102108E+02  0.47000000000E+01 0.  1.
         -5    1    3    3    0  503 -0.67165397880E+02 -0.33977322278E+02  0.85264727043E+02  0.11383238897E+03  0.47000000000E+01 0.  1.
<mgrwt>
<rscale>  0 0.14345843E+03</rscale>
<asrwt>0</asrwt>
<pdfrwt beam="1">  1        5 0.54228225E-01 0.14346458E+03</pdfrwt>
<pdfrwt beam="2">  1       -5 0.11047716E-01 0.14346458E+03</pdfrwt>
<totfact> 0.15850924E+02</totfact>
</mgrwt>
</event>
<event>
 8    1  0.1821556E-007  0.1369421E+03  0.7546771E-02  0.1217508E+00
         -5   -1    0    0    0  501 -0.00000000000E+00  0.00000000000E+00  0.69837848014E+02  0.69995821413E+02  0.47000000000E+01 0.  1.
          5   -1    0    0  501    0  0.00000000000E+00 -0.00000000000E+00 -0.27135756915E+03  0.27139826885E+03  0.47000000000E+01 0.  1.
         25    2    1    2    0    0  0.23366478444E+02 -0.50814588410E+02 -0.81829845782E+02  0.15951832102E+03  0.12498742484E+03 0.  0.
         25    2    1    2    0    0 -0.23366478444E+02  0.50814588410E+02 -0.11968987535E+03  0.18187576924E+03  0.12500005786E+03 0.  0.
          5    1    4    4  502    0 -0.27547228384E+02 -0.29896915858E+02 -0.83925300906E+02  0.93371416941E+02  0.47000000000E+01 0. -1.
         -5    1    4    4    0  502  0.41807499394E+01  0.80711504268E+02 -0.35764574446E+02  0.88504352303E+02  0.47000000000E+01 0. -1.
          5    1    3    3  503    0 -0.13389313355E+02  0.37309674792E+02 -0.13999212113E+02  0.42300750407E+02  0.47000000000E+01 0.  1.
         -5    1    3    3    0  503  0.36755791799E+02 -0.88124263202E+02 -0.67830633669E+02  0.11721757061E+03  0.47000000000E+01 0.  1.
<mgrwt>
<rscale>  0 0.13693918E+03</rscale>
<asrwt>0</asrwt>
<pdfrwt beam="2">  1        5 0.41762600E-01 0.13694207E+03</pdfrwt>
<pdfrwt beam="1">  1       -5 0.10759567E-01 0.13694207E+03</pdfrwt>
<totfact> 0.28320852E+02</totfact>
</mgrwt>
</event>
<event>
 8    1  0.1821556E-007  0.1522834E+03  0.7546771E-02  0.1197696E+00
         -5   -1    0    0    0  501 -0.00000000000E+00  0.00000000000E+00  0.54950111739E+02  0.55150745962E+02  0.47000000000E+01 0. -1.
          5   -1    0    0  501    0  0.00000000000E+00 -0.00000000000E+00 -0.55359847365E+03  0.55361842457E+03  0.47000000000E+01 0. -1.
         25    2    1    2    0    0 -0.84970339538E+02  0.18534894188E+02 -0.10040447957E+03  0.18240420939E+03  0.12500694054E+03 0.  0.
         25    2    1    2    0    0  0.84970339538E+02 -0.18534894188E+02 -0.39824388234E+03  0.42636496114E+03  0.12500155744E+03 0.  0.
          5    1    3    3  502    0  0.38875576917E+01 -0.43308202082E+02 -0.32998184922E+02  0.54787623425E+02  0.47000000000E+01 0.  1.
         -5    1    3    3    0  502 -0.88857897229E+02  0.61843096270E+02 -0.67406294645E+02  0.12761658597E+03  0.47000000000E+01 0.  1.
          5    1    4    4  503    0  0.30963525997E+01  0.38868975388E+02 -0.47594153629E+02  0.61706386273E+02  0.47000000000E+01 0.  1.
         -5    1    4    4    0  503  0.81873986938E+02 -0.57403869576E+02 -0.35064972871E+03  0.36465857487E+03  0.47000000000E+01 0.  1.
<mgrwt>
<rscale>  0 0.15228230E+03</rscale>
<asrwt>0</asrwt>
<pdfrwt beam="2">  1        5 0.85185960E-01 0.15228341E+03</pdfrwt>
<pdfrwt beam="1">  1       -5 0.84708318E-02 0.15228341E+03</pdfrwt>
<totfact> 0.93097291E+01</totfact>
</mgrwt>
</event>
<event>
 8    1  0.1821556E-007  0.1444398E+03  0.7546771E-02  0.1207480E+00
          5   -1    0    0  501    0  0.00000000000E+00  0.00000000000E+00  0.57896415922E+02  0.58086874392E+02  0.47000000000E+01 0. -1.
         -5   -1    0    0    0  501 -0.00000000000E+00 -0.00000000000E+00 -0.35953764126E+03  0.35956835996E+03  0.47000000000E+01 0. -1.
         25    2    1    2    0    0 -0.46383762118E+02  0.55527564936E+02 -0.14963045321E+03  0.20797147790E+03  0.12501239634E+03 0.  0.
         25    2    1    2    0    0  0.46383762118E+02 -0.55527564936E+02 -0.15201077213E+03  0.20968375645E+03  0.12500095607E+03 0.  0.
          5    1    4    4  502    0  0.72667887282E+01 -0.39989744678E+02 -0.16122985608E+03  0.16634044123E+03  0.47000000000E+01 0. -1.
         -5    1    4    4    0  502  0.39116973390E+02 -0.15537820258E+02  0.92190839417E+01  0.43343315220E+02  0.47000000000E+01 0. -1.
          5    1    3    3  503    0 -0.25008505044E+02  0.31579151617E+02  0.12647798951E+02  0.42482054561E+02  0.47000000000E+01 0.  1.
         -5    1    3    3    0  503 -0.21375257073E+02  0.23948413319E+02 -0.16227825216E+03  0.16548942334E+03  0.47000000000E+01 0.  1.
<mgrwt>
<rscale>  0 0.14443735E+03</rscale>
<asrwt>0</asrwt>
<pdfrwt beam="1">  1        5 0.89241547E-02 0.14443983E+03</pdfrwt>
<pdfrwt beam="2">  1       -5 0.55330496E-01 0.14443983E+03</pdfrwt>
<totfact> 0.22081570E+02</totfact>
</mgrwt>
</event>
<event>
 8    1  0.1821556E-007  0.1521500E+03  0.7546771E-02  0.1197859E+00
         -5   -1    0    0    0  501 -0.00000000000E+00  0.00000000000E+00  0.17016037427E+02  0.17653201684E+02  0.47000000000E+01 0.  1.
          5   -1    0    0  501    0  0.00000000000E+00 -0.00000000000E+00 -0.16408871869E+04  0.16408939180E+04  0.47000000000E+01 0.  1.
         25    2    1    2    0    0  0.86200230412E+02  0.97078785922E+01 -0.45381929331E+03  0.47864557107E+03  0.12499963639E+03 0.  0.
         25    2    1    2    0    0 -0.86200230412E+02 -0.97078785922E+01 -0.11700518562E+04  0.11799015486E+04  0.12498638197E+03 0.  0.
          5    1    3    3  502    0  0.47653407359E+02 -0.52325557669E+02 -0.30046172764E+03  0.30872018235E+03  0.47000000000E+01 0.  1.
         -5    1    3    3    0  502  0.38546823053E+02  0.62033436262E+02 -0.15335756567E+03  0.16992538871E+03  0.47000000000E+01 0.  1.
          5    1    4    4  503    0  0.27474101133E+02  0.12096057886E+02 -0.40393136898E+03  0.40507256349E+03  0.47000000000E+01 0. -1.
         -5    1    4    4    0  503 -0.11367433155E+03 -0.21803936478E+02 -0.76612048721E+03  0.77482898515E+03  0.47000000000E+01 0. -1.
<mgrwt>
<rscale>  0 0.15214731E+03</rscale>
<asrwt>0</asrwt>
<pdfrwt beam="2">  1        5 0.25249359E+00 0.15215003E+03</pdfrwt>
<pdfrwt beam="1">  1       -5 0.26673836E-02 0.15215003E+03</pdfrwt>
<totfact> 0.30007787E+01</totfact>
</mgrwt>
</event>
<event>
 8    1  0.1821556E-007  0.1270347E+03  0.7546771E-02  0.1231926E+00
          5   -1    0    0  501    0  0.00000000000E+00  0.00000000000E+00  0.17475955655E+02  0.18096934162E+02  0.47000000000E+01 0.  1.
         -5   -1    0    0    0  501 -0.00000000000E+00 -0.00000000000E+00 -0.10175302377E+04  0.10175410924E+04  0.47000000000E+01 0.  1.
         25    2    1    2    0    0 -0.21493355895E+02  0.71316644736E+01 -0.67091190322E+03  0.68283140855E+03  0.12499250232E+03 0.  0.
         25    2    1    2    0    0  0.21493355895E+02 -0.71316644736E+01 -0.32914237883E+03  0.35280661797E+03  0.12499991663E+03 0.  0.
          5    1    3    3  502    0  0.10990747878E+02  0.13790887861E+02 -0.95051050602E+01  0.20577224038E+02  0.47000000000E+01 0. -1.
         -5    1    3    3    0  502 -0.32484103773E+02 -0.66592233874E+01 -0.66140679815E+03  0.66225418451E+03  0.47000000000E+01 0. -1.
          5    1    4    4  503    0 -0.61993734307E+00 -0.64731272474E+02 -0.15736727705E+03  0.17022653096E+03  0.47000000000E+01 0.  1.
         -5    1    4    4    0  503  0.22113293238E+02  0.57599608000E+02 -0.17177510178E+03  0.18258008701E+03  0.47000000000E+01 0.  1.
<mgrwt>
<rscale>  0 0.12703283E+03</rscale>
<asrwt>0</asrwt>
<pdfrwt beam="1">  1        5 0.27372119E-02 0.12703466E+03</pdfrwt>
<pdfrwt beam="2">  1       -5 0.15659167E+00 0.12703466E+03</pdfrwt>
<totfact> 0.12267000E+02</totfact>
</mgrwt>
</event>
<event>
 8    1  0.1821556E-007  0.1316307E+03  0.7546771E-02  0.1225058E+00
         -5   -1    0    0    0  501 -0.00000000000E+00  0.00000000000E+00  0.29965965875E+02  0.30332311333E+02  0.47000000000E+01 0. -1.
          5   -1    0    0  501    0  0.00000000000E+00 -0.00000000000E+00 -0.57438836560E+03  0.57440759443E+03  0.47000000000E+01 0. -1.
         25    2    1    2    0    0  0.86798916910E+01  0.40314544194E+02 -0.27612130815E+03  0.30589150254E+03  0.12500412601E+03 0.  0.
         25    2    1    2    0    0 -0.86798916910E+01 -0.40314544194E+02 -0.26830109158E+03  0.29884840322E+03  0.12499715747E+03 0.  0.
          5    1    4    4  502    0 -0.52511126249E+02 -0.15583896636E+02 -0.48504397269E+02  0.73314683173E+02  0.47000000000E+01 0.  1.
         -5    1    4    4    0  502  0.43831234558E+02 -0.24730647558E+02 -0.21979669431E+03  0.22553372005E+03  0.47000000000E+01 0.  1.
          5    1    3    3  503    0 -0.51144903126E+02  0.14567348834E+02 -0.19266461434E+03  0.19992436666E+03  0.47000000000E+01 0. -1.
         -5    1    3    3    0  503  0.59824794817E+02  0.25747195360E+02 -0.83456693814E+02  0.10596713588E+03  0.47000000000E+01 0. -1.
<mgrwt>
<rscale>  0 0.13162902E+03</rscale>
<asrwt>0</asrwt>
<pdfrwt beam="2">  1        5 0.88397092E-01 0.13163067E+03</pdfrwt>
<pdfrwt beam="1">  1       -5 0.46398086E-02 0.13163067E+03</pdfrwt>
<totfact> 0.22470228E+02</totfact>
</mgrwt>
</event>
<event>
 8    1  0.1821556E-007  0.1616276E+03  0.7546771E-02  0.1186872E+00
         -5   -1    0    0    0  501 -0.00000000000E+00  0.00000000000E+00  0.42188242199E+03  0.42190860146E+03  0.47000000000E+01 0.  1.
          5   -1    0    0  501    0  0.00000000000E+00 -0.00000000000E+00 -0.65415195544E+02  0.65583822762E+02  0.47000000000E+01 0.  1.
         25    2    1    2    0    0 -0.46544206591E+02  0.91276315635E+02  0.23542614738E+03  0.28556778963E+03  0.12500305054E+03 0.  0.
         25    2    1    2    0    0  0.46544206591E+02 -0.91276315635E+02  0.12104107907E+03  0.20192463459E+03  0.12499954507E+03 0.  0.
          5    1    4    4  502    0  0.65455087536E+02 -0.60703477971E+02  0.13596350295E+03  0.16271891364E+03  0.47000000000E+01 0.  1.
         -5    1    4    4    0  502 -0.18910880945E+02 -0.30572837664E+02 -0.14922423877E+02  0.39205720951E+02  0.47000000000E+01 0.  1.
          5    1    3    3  503    0 -0.57779738317E+02  0.16501391737E+02  0.18497226941E+03  0.19454465950E+03  0.47000000000E+01 0.  1.
         -5    1    3    3    0  503  0.11235531726E+02  0.74774923899E+02  0.50453877968E+02  0.91023130133E+02  0.47000000000E+01 0.  1.
<mgrwt>
<rscale>  0 0.16162695E+03</rscale>
<asrwt>0</asrwt>
<pdfrwt beam="2">  1        5 0.10078862E-01 0.16162763E+03</pdfrwt>
<pdfrwt beam="1">  1       -5 0.64919971E-01 0.16162763E+03</pdfrwt>
<totfact> 0.13049067E+02</totfact>
</mgrwt>
</event>
<event>
 8    1  0.1821556E-007  0.1421546E+03  0.7546771E-02  0.1210460E+00
          5   -1    0    0  501    0  0.00000000000E+00  0.00000000000E+00  0.24386888076E+03  0.24391416729E+03  0.47000000000E+01 0. -1.
         -5   -1    0    0    0  501 -0.00000000000E+00 -0.00000000000E+00 -0.83163555962E+02  0.83296260662E+02  0.47000000000E+01 0. -1.
         25    2    1    2    0    0 -0.67397039148E+02  0.62609488130E+01  0.91974535160E+02  0.16931405853E+03  0.12500549961E+03 0.  0.
         25    2    1    2    0    0  0.67397039148E+02 -0.62609488130E+01  0.68730789636E+02  0.15789636942E+03  0.12500312662E+03 0.  0.
          5    1    4    4  502    0 -0.34066848956E+00 -0.51752993620E+02  0.13723364103E+01  0.51985206654E+02  0.47000000000E+01 0. -1.
         -5    1    4    4    0  502  0.67737707637E+02  0.45492044807E+02  0.67358453226E+02  0.10591116276E+03  0.47000000000E+01 0. -1.
          5    1    3    3  503    0  0.25948427861E+02  0.11127818259E+02  0.66378727097E+02  0.72286752996E+02  0.47000000000E+01 0.  1.
         -5    1    3    3    0  503 -0.93345467008E+02 -0.48668694458E+01  0.25595808064E+02  0.97027305536E+02  0.47000000000E+01 0.  1.
<mgrwt>
<rscale>  0 0.14215410E+03</rscale>
<asrwt>0</asrwt>
<pdfrwt beam="1">  1        5 0.37531980E-01 0.14215462E+03</pdfrwt>
<pdfrwt beam="2">  1       -5 0.12808085E-01 0.14215462E+03</pdfrwt>
<totfact> 0.26207304E+02</totfact>
</mgrwt>
</event>
<event>
 8    1  0.1821556E-007  0.1737912E+03  0.7546771E-02  0.1173951E+00
         -5   -1    0    0    0  501 -0.00000000000E+00  0.00000000000E+00  0.21097789654E+03  0.21103024150E+03  0.47000000000E+01 0.  1.
          5   -1    0    0  501    0  0.00000000000E+00 -0.00000000000E+00 -0.14682479128E+03  0.14689999773E+03  0.47000000000E+01 0.  1.
         25    2    1    2    0    0  0.50814109130E+02  0.10952657065E+03  0.60760606445E+02  0.18410592831E+03  0.12499999272E+03 0.  0.
         25    2    1    2    0    0 -0.50814109130E+02 -0.10952657065E+03  0.33924988139E+01  0.17382431092E+03  0.12500095461E+03 0.  0.
          5    1    4    4  502    0 -0.80772257345E+02 -0.52445788674E+02  0.34090348217E+02  0.10226905763E+03  0.47000000000E+01 0. -1.
         -5    1    4    4    0  502  0.29958148215E+02 -0.57080781978E+02 -0.30697849403E+02  0.71555253292E+02  0.47000000000E+01 0. -1.
          5    1    3    3  503    0  0.63151640989E+01  0.26735849992E+02  0.82872766050E+02  0.87433816829E+02  0.47000000000E+01 0.  1.
         -5    1    3    3    0  503  0.44498945032E+02  0.82790720660E+02 -0.22112159606E+02  0.96672111484E+02  0.47000000000E+01 0.  1.
<mgrwt>
<rscale>  0 0.17379103E+03</rscale>
<asrwt>0</asrwt>
<pdfrwt beam="2">  1        5 0.22598241E-01 0.17379120E+03</pdfrwt>
<pdfrwt beam="1">  1       -5 0.32467949E-01 0.17379120E+03</pdfrwt>
<totfact> 0.13155387E+02</totfact>
</mgrwt>
</event>
<event>
 8    1  0.1821556E-007  0.1874838E+03  0.7546771E-02  0.1160753E+00
         -5   -1    0    0    0  501 -0.00000000000E+00  0.00000000000E+00  0.22180125566E+03  0.22185104690E+03  0.47000000000E+01 0.  1.
          5   -1    0    0  501    0  0.00000000000E+00 -0.00000000000E+00 -0.17221736741E+03  0.17228148954E+03  0.47000000000E+01 0.  1.
         25    2    1    2    0    0 -0.10556365064E+03 -0.91537720116E+02  0.80664726013E+02  0.20408996264E+03  0.12499230491E+03 0.  0.
         25    2    1    2    0    0  0.10556365064E+03  0.91537720116E+02 -0.31080837766E+02  0.19004257381E+03  0.12500929102E+03 0.  0.
          5    1    3    3  502    0 -0.35910430224E+02 -0.33381383876E+02  0.99748222640E+02  0.11124600536E+03  0.47000000000E+01 0. -1.
         -5    1    3    3    0  502 -0.69653220420E+02 -0.58156336241E+02 -0.19083496627E+02  0.92843957280E+02  0.47000000000E+01 0. -1.
          5    1    4    4  503    0  0.71436949856E+02  0.11579802228E+03  0.24984765555E+01  0.13616443057E+03  0.47000000000E+01 0.  1.
         -5    1    4    4    0  503  0.34126700788E+02 -0.24260302164E+02 -0.33579314321E+02  0.53878143231E+02  0.47000000000E+01 0.  1.
<mgrwt>
<rscale>  0 0.18748093E+03</rscale>
<asrwt>0</asrwt>
<pdfrwt beam="2">  1        5 0.26503742E-01 0.18748376E+03</pdfrwt>
<pdfrwt beam="1">  1       -5 0.34132033E-01 0.18748376E+03</pdfrwt>
<totfact> 0.89608013E+01</totfact>
</mgrwt>
</event>
<event>
 8    1  0.1821556E-007  0.1695268E+03  0.7546771E-02  0.1178343E+00
          5   -1    0    0  501    0  0.00000000000E+00  0.00000000000E+00  0.87004892804E+03  0.87006162264E+03  0.47000000000E+01 0. -1.
         -5   -1    0    0    0  501 -0.00000000000E+00 -0.00000000000E+00 -0.34469578601E+02  0.34788530422E+02  0.47000000000E+01 0. -1.
         25    2    1    2    0    0 -0.11297155414E+03  0.18753436026E+02  0.32023908071E+03  0.36234215227E+03  0.12499801233E+03 0.  0.
         25    2    1    2    0    0  0.11297155414E+03 -0.18753436026E+02  0.51534026873E+03  0.54250800079E+03  0.12500029975E+03 0.  0.
          5    1    4    4  502    0  0.13754052801E+03 -0.41690145428E-01  0.40000689510E+03  0.42301891768E+03  0.47000000000E+01 0.  1.
         -5    1    4    4    0  502 -0.24568973867E+02 -0.18711745880E+02  0.11533337363E+03  0.11948908311E+03  0.47000000000E+01 0.  1.
          5    1    3    3  503    0 -0.10582054957E+03 -0.24290122936E+02  0.14218805477E+03  0.17896237510E+03  0.47000000000E+01 0.  1.
         -5    1    3    3    0  503 -0.71510045746E+01  0.43043558962E+02  0.17805102594E+03  0.18337977716E+03  0.47000000000E+01 0.  1.
<mgrwt>
<rscale>  0 0.16952639E+03</rscale>
<asrwt>0</asrwt>
<pdfrwt beam="1">  1        5 0.13387919E+00 0.16952681E+03</pdfrwt>
<pdfrwt beam="2">  1       -5 0.53285234E-02 0.16952681E+03</pdfrwt>
<totfact> 0.68654108E+01</totfact>
</mgrwt>
</event>
<event>
 8    1  0.1821556E-007  0.1419475E+03  0.7546771E-02  0.1210736E+00
         -5   -1    0    0    0  501 -0.00000000000E+00  0.00000000000E+00  0.26456813424E+03  0.26460987823E+03  0.47000000000E+01 0.  1.
          5   -1    0    0  501    0  0.00000000000E+00 -0.00000000000E+00 -0.10946486197E+03  0.10956571547E+03  0.47000000000E+01 0.  1.
         25    2    1    2    0    0  0.37359182324E+02 -0.55934951217E+02  0.18086981411E+03  0.22991949725E+03  0.12499863315E+03 0.  0.
         25    2    1    2    0    0 -0.37359182324E+02  0.55934951217E+02 -0.25766541831E+02  0.14425609645E+03  0.12498591686E+03 0.  0.
          5    1    3    3  502    0  0.35644268857E+02 -0.89366746954E+02  0.16817790868E+03  0.19381132147E+03  0.47000000000E+01 0.  1.
         -5    1    3    3    0  502  0.17149134669E+01  0.33431795738E+02  0.12691905427E+02  0.36108175775E+02  0.47000000000E+01 0.  1.
          5    1    4    4  503    0 -0.69184909039E+02  0.61614576109E+02 -0.48286109197E+02  0.10457794208E+03  0.47000000000E+01 0.  1.
         -5    1    4    4    0  503  0.31825726715E+02 -0.56796248924E+01  0.22519567367E+02  0.39678154371E+02  0.47000000000E+01 0.  1.
<mgrwt>
<rscale>  0 0.14194468E+03</rscale>
<asrwt>0</asrwt>
<pdfrwt beam="2">  1        5 0.16851717E-01 0.14194747E+03</pdfrwt>
<pdfrwt beam="1">  1       -5 0.40713759E-01 0.14194747E+03</pdfrwt>
<totfact> 0.13511959E+02</totfact>
</mgrwt>
</event>
<event>
 8    1  0.1821556E-007  0.2573855E+03  0.7546771E-02  0.1108725E+00
          5   -1    0    0  501    0  0.00000000000E+00  0.00000000000E+00  0.12459375230E+04  0.12459463878E+04  0.47000000000E+01 0.  1.
         -5   -1    0    0    0  501 -0.00000000000E+00 -0.00000000000E+00 -0.59620561488E+02  0.59805529444E+02  0.47000000000E+01 0.  1.
         25    2    1    2    0    0 -0.25582622166E+02  0.22353020310E+03  0.80940209188E+03  0.84933967049E+03  0.12500362905E+03 0.  0.
         25    2    1    2    0    0  0.25582622166E+02 -0.22353020310E+03  0.37691486963E+03  0.45641224673E+03  0.12500839077E+03 0.  0.
          5    1    4    4  502    0 -0.40954887548E+02 -0.14877722265E+03  0.19479451129E+03  0.24855372945E+03  0.47000000000E+01 0.  1.
         -5    1    4    4    0  502  0.66537509713E+02 -0.74752980444E+02  0.18212035833E+03  0.20785851727E+03  0.47000000000E+01 0.  1.
          5    1    3    3  503    0 -0.42091148826E+02  0.73700286161E+02  0.14537549493E+03  0.16840285483E+03  0.47000000000E+01 0. -1.
         -5    1    3    3    0  503  0.16508526660E+02  0.14982991694E+03  0.66402659695E+03  0.68093681566E+03  0.47000000000E+01 0. -1.
<mgrwt>
<rscale>  0 0.25738497E+03</rscale>
<asrwt>0</asrwt>
<pdfrwt beam="1">  1        5 0.19169758E+00 0.25738555E+03</pdfrwt>
<pdfrwt beam="2">  1       -5 0.91873057E-02 0.25738555E+03</pdfrwt>
<totfact> 0.10719926E+01</totfact>
</mgrwt>
</event>
<event>
 8    1  0.1821556E-007  0.1323637E+03  0.7546771E-02  0.1223993E+00
          5   -1    0    0  501    0  0.00000000000E+00  0.00000000000E+00  0.33093211845E+02  0.33425299853E+02  0.47000000000E+01 0.  1.
         -5   -1    0    0    0  501 -0.00000000000E+00 -0.00000000000E+00 -0.56071361781E+03  0.56073331558E+03  0.47000000000E+01 0.  1.
         25    2    1    2    0    0 -0.15329166346E+02  0.40773883961E+02 -0.33729374360E+03  0.36233578189E+03  0.12499062531E+03 0.  0.
         25    2    1    2    0    0  0.15329166346E+02 -0.40773883961E+02 -0.19032666236E+03  0.23182283353E+03  0.12498037761E+03 0.  0.
          5    1    3    3  502    0 -0.65871580919E+02  0.40621688949E+02 -0.24537030666E+03  0.25732831981E+03  0.47000000000E+01 0.  1.
         -5    1    3    3    0  502  0.50542414573E+02  0.15219501156E+00 -0.91923436940E+02  0.10500746208E+03  0.47000000000E+01 0.  1.
          5    1    4    4  503    0  0.15220179813E+02  0.33384811679E+02 -0.12417384626E+02  0.39018982116E+02  0.47000000000E+01 0. -1.
         -5    1    4    4    0  503  0.10898653264E+00 -0.74158695640E+02 -0.17790927773E+03  0.19280385142E+03  0.47000000000E+01 0. -1.
<mgrwt>
<rscale>  0 0.13236128E+03</rscale>
<asrwt>0</asrwt>
<pdfrwt beam="1">  1        5 0.51183242E-02 0.13236370E+03</pdfrwt>
<pdfrwt beam="2">  1       -5 0.86290687E-01 0.13236370E+03</pdfrwt>
<totfact> 0.20251854E+02</totfact>
</mgrwt>
</event>
<event>
 8    1  0.1821556E-007  0.1379925E+03  0.7546771E-02  0.1216056E+00
         -5   -1    0    0    0  501 -0.00000000000E+00  0.00000000000E+00  0.13133742923E+03  0.13142149869E+03  0.47000000000E+01 0.  1.
          5   -1    0    0  501    0  0.00000000000E+00 -0.00000000000E+00 -0.17816873593E+03  0.17823071695E+03  0.47000000000E+01 0.  1.
         25    2    1    2    0    0  0.55777444493E+02 -0.17478338322E+02  0.43544633443E+02  0.14469843108E+03  0.12499954092E+03 0.  0.
         25    2    1    2    0    0 -0.55777444493E+02  0.17478338322E+02 -0.90375940143E+02  0.16495378455E+03  0.12500129942E+03 0.  0.
          5    1    3    3  502    0 -0.15290023463E+01 -0.44513026368E+02  0.63853508417E+02  0.77994281212E+02  0.47000000000E+01 0. -1.
         -5    1    3    3    0  502  0.57306446840E+02  0.27034688046E+02 -0.20308874974E+02  0.66704149870E+02  0.47000000000E+01 0. -1.
          5    1    4    4  503    0  0.48724229169E+01  0.55510784307E+02 -0.92940504377E+01  0.56689126408E+02  0.47000000000E+01 0.  1.
         -5    1    4    4    0  503 -0.60649867410E+02 -0.38032445985E+02 -0.81081889705E+02  0.10826465814E+03  0.47000000000E+01 0.  1.
<mgrwt>
<rscale>  0 0.13799214E+03</rscale>
<asrwt>0</asrwt>
<pdfrwt beam="2">  1        5 0.27421810E-01 0.13799254E+03</pdfrwt>
<pdfrwt beam="1">  1       -5 0.20216993E-01 0.13799254E+03</pdfrwt>
<totfact> 0.21013261E+02</totfact>
</mgrwt>
</event>
<event>
 8    1  0.1821556E-007  0.1355172E+03  0.7546771E-02  0.1219491E+00
         -5   -1    0    0    0  501 -0.00000000000E+00  0.00000000000E+00  0.26686986764E+03  0.26691125164E+03  0.47000000000E+01 0. -1.
          5   -1    0    0  501    0  0.00000000000E+00 -0.00000000000E+00 -0.73358232678E+02  0.73508641000E+02  0.47000000000E+01 0. -1.
         25    2    1    2    0    0 -0.25824709000E+02 -0.45534987961E+02  0.13964076007E+03  0.19458791893E+03  0.12499826238E+03 0.  0.
         25    2    1    2    0    0  0.25824709000E+02  0.45534987961E+02  0.53870874891E+02  0.14583197371E+03  0.12499817067E+03 0.  0.
          5    1    3    3  502    0  0.14639015139E+02 -0.59234342433E+02  0.15373529978E+02  0.63098680745E+02  0.47000000000E+01 0. -1.
         -5    1    3    3    0  502 -0.40463724139E+02  0.13699354472E+02  0.12426723009E+03  0.13148923819E+03  0.47000000000E+01 0. -1.
          5    1    4    4  503    0 -0.25255858329E-01  0.12570756570E+02  0.89583959348E+02  0.90583664814E+02  0.47000000000E+01 0.  1.
         -5    1    4    4    0  503  0.25849964859E+02  0.32964231392E+02 -0.35713084458E+02  0.55248308896E+02  0.47000000000E+01 0.  1.
<mgrwt>
<rscale>  0 0.13551720E+03</rscale>
<asrwt>0</asrwt>
<pdfrwt beam="2">  1        5 0.11300635E-01 0.13551722E+03</pdfrwt>
<pdfrwt beam="1">  1       -5 0.41071656E-01 0.13551722E+03</pdfrwt>
<totfact> 0.26789799E+02</totfact>
</mgrwt>
</event>
<event>
 8    1  0.1821556E-007  0.1262347E+03  0.7546771E-02  0.1233153E+00
          5   -1    0    0  501    0  0.00000000000E+00  0.00000000000E+00  0.15689460328E+03  0.15696498507E+03  0.47000000000E+01 0. -1.
         -5   -1    0    0    0  501 -0.00000000000E+00 -0.00000000000E+00 -0.10515249065E+03  0.10525747617E+03  0.47000000000E+01 0. -1.
         25    2    1    2    0    0 -0.14887677671E+02  0.94062069970E+01  0.11790491952E+01  0.12623785575E+03  0.12499794555E+03 0.  0.
         25    2    1    2    0    0  0.14887677671E+02 -0.94062069970E+01  0.50563063432E+02  0.13598460549E+03  0.12500027948E+03 0.  0.
          5    1    4    4  502    0 -0.51421922046E+02  0.17467579873E+02  0.23078989788E+02  0.59195102696E+02  0.47000000000E+01 0.  1.
         -5    1    4    4    0  502  0.66309599717E+02 -0.26873786870E+02  0.27484073644E+02  0.76789502795E+02  0.47000000000E+01 0.  1.
          5    1    3    3  503    0  0.43866343372E+02  0.21153322975E+02 -0.31142481721E+02  0.57997097527E+02  0.47000000000E+01 0.  1.
         -5    1    3    3    0  503 -0.58754021044E+02 -0.11747115978E+02  0.32321530916E+02  0.68240758227E+02  0.47000000000E+01 0.  1.
<mgrwt>
<rscale>  0 0.12623408E+03</rscale>
<asrwt>0</asrwt>
<pdfrwt beam="1">  1        5 0.24151121E-01 0.12623466E+03</pdfrwt>
<pdfrwt beam="2">  1       -5 0.16190796E-01 0.12623466E+03</pdfrwt>
<totfact> 0.39143655E+02</totfact>
</mgrwt>
</event>
<event>
 8    1  0.1821556E-007  0.1423675E+03  0.7546771E-02  0.1210179E+00
          5   -1    0    0  501    0  0.00000000000E+00  0.00000000000E+00  0.10183216282E+03  0.10194056790E+03  0.47000000000E+01 0. -1.
         -5   -1    0    0    0  501 -0.00000000000E+00 -0.00000000000E+00 -0.20860831483E+03  0.20866125423E+03  0.47000000000E+01 0. -1.
         25    2    1    2    0    0  0.53363441772E+02 -0.42372831327E+02 -0.87059665132E+02  0.16687554070E+03  0.12499978816E+03 0.  0.
         25    2    1    2    0    0 -0.53363441772E+02  0.42372831327E+02 -0.19716486883E+02  0.14372628143E+03  0.12500156145E+03 0.  0.
          5    1    3    3  502    0  0.32041543266E+02 -0.59824771242E+02  0.73420676679E+01  0.68422654922E+02  0.47000000000E+01 0. -1.
         -5    1    3    3    0  502  0.21321898506E+02  0.17451939914E+02 -0.94401732799E+02  0.98452885779E+02  0.47000000000E+01 0. -1.
          5    1    4    4  503    0 -0.71057302834E+02 -0.18200184525E+02  0.93442009681E+01  0.74093124475E+02  0.47000000000E+01 0. -1.
         -5    1    4    4    0  503  0.17693861061E+02  0.60573015853E+02 -0.29060687851E+02  0.69633156952E+02  0.47000000000E+01 0. -1.
<mgrwt>
<rscale>  0 0.14236711E+03</rscale>
<asrwt>0</asrwt>
<pdfrwt beam="1">  1        5 0.15678898E-01 0.14236750E+03</pdfrwt>
<pdfrwt beam="2">  1       -5 0.32105998E-01 0.14236750E+03</pdfrwt>
<totfact> 0.24905409E+02</totfact>
</mgrwt>
</event>
<event>
 8    1  0.1821556E-007  0.1554141E+03  0.7546771E-02  0.1193980E+00
          5   -1    0    0  501    0  0.00000000000E+00  0.00000000000E+00  0.49237660566E+02  0.49461472057E+02  0.47000000000E+01 0. -1.
         -5   -1    0    0    0  501 -0.00000000000E+00 -0.00000000000E+00 -0.54713325347E+03  0.54715344013E+03  0.47000000000E+01 0. -1.
         25    2    1    2    0    0 -0.91453942304E+02  0.12454611266E+02 -0.34606637186E+03  0.37936194640E+03  0.12503844105E+03 0.  0.
         25    2    1    2    0    0  0.91453942304E+02 -0.12454611266E+02 -0.15182922104E+03  0.21725296579E+03  0.12501119101E+03 0.  0.
          5    1    4    4  502    0  0.88006210277E+02 -0.59963862327E+02 -0.93448428730E+02  0.14175844477E+03  0.47000000000E+01 0.  1.
         -5    1    4    4    0  502  0.34477320268E+01  0.47509251062E+02 -0.58380792308E+02  0.75494521014E+02  0.47000000000E+01 0.  1.
          5    1    3    3  503    0  0.10386809513E+02  0.24981635660E+02 -0.12192861906E+02  0.30045362597E+02  0.47000000000E+01 0. -1.
         -5    1    3    3    0  503 -0.10184075182E+03 -0.12527024394E+02 -0.33387350996E+03  0.34931658380E+03  0.47000000000E+01 0. -1.
<mgrwt>
<rscale>  0 0.15540865E+03</rscale>
<asrwt>0</asrwt>
<pdfrwt beam="1">  1        5 0.75937942E-02 0.15541413E+03</pdfrwt>
<pdfrwt beam="2">  1       -5 0.84193111E-01 0.15541413E+03</pdfrwt>
<totfact> 0.11620134E+02</totfact>
</mgrwt>
</event>
<event>
 8    1  0.1821556E-007  0.1276759E+03  0.7546771E-02  0.1230947E+00
         -5   -1    0    0    0  501 -0.00000000000E+00  0.00000000000E+00  0.76424196607E+02  0.76568582507E+02  0.47000000000E+01 0. -1.
          5   -1    0    0  501    0  0.00000000000E+00 -0.00000000000E+00 -0.21389898753E+03  0.21395061782E+03  0.47000000000E+01 0. -1.
         25    2    1    2    0    0  0.14478529337E+02  0.21584004556E+02 -0.58925644927E+02  0.14061776041E+03  0.12500250337E+03 0.  0.
         25    2    1    2    0    0 -0.14478529337E+02 -0.21584004556E+02 -0.78549145992E+02  0.14990143991E+03  0.12499990515E+03 0.  0.
          5    1    3    3  502    0 -0.51020238519E+02 -0.12881752594E+02 -0.17408016605E+02  0.55624934432E+02  0.47000000000E+01 0.  1.
         -5    1    3    3    0  502  0.65498767856E+02  0.34465757150E+02 -0.41517628322E+02  0.84992825980E+02  0.47000000000E+01 0.  1.
          5    1    4    4  503    0 -0.24717263605E+02  0.23650234364E+02  0.20693008242E+02  0.40256270265E+02  0.47000000000E+01 0.  1.
         -5    1    4    4    0  503  0.10238734268E+02 -0.45234238919E+02 -0.99242154234E+02  0.10964516965E+03  0.47000000000E+01 0.  1.
<mgrwt>
<rscale>  0 0.12767521E+03</rscale>
<asrwt>0</asrwt>
<pdfrwt beam="2">  1        5 0.32922615E-01 0.12767585E+03</pdfrwt>
<pdfrwt beam="1">  1       -5 0.11772647E-01 0.12767585E+03</pdfrwt>
<totfact> 0.38120656E+02</totfact>
</mgrwt>
</event>
<event>
 8    1  0.1821556E-007  0.1295742E+03  0.7546771E-02  0.1228091E+00
          5   -1    0    0  501    0  0.00000000000E+00  0.00000000000E+00  0.43662735917E+02  0.43914969062E+02  0.47000000000E+01 0. -1.
         -5   -1    0    0    0  501 -0.00000000000E+00 -0.00000000000E+00 -0.38794330378E+03  0.38797177339E+03  0.47000000000E+01 0. -1.
         25    2    1    2    0    0 -0.23314270616E+02 -0.24899864291E+02 -0.19616375546E+03  0.23509505893E+03  0.12500363724E+03 0.  0.
         25    2    1    2    0    0  0.23314270616E+02  0.24899864291E+02 -0.14811681241E+03  0.19679168352E+03  0.12499927252E+03 0.  0.
          5    1    4    4  502    0 -0.28405462319E+02 -0.22595173461E+02 -0.45208957908E+01  0.36877373171E+02  0.47000000000E+01 0.  1.
         -5    1    4    4    0  502  0.51719732934E+02  0.47495037752E+02 -0.14359591662E+03  0.15991431035E+03  0.47000000000E+01 0.  1.
          5    1    3    3  503    0 -0.39249037714E+02 -0.51329764816E+02 -0.19315738336E+03  0.20373290471E+03  0.47000000000E+01 0. -1.
         -5    1    3    3    0  503  0.15934767098E+02  0.26429900525E+02 -0.30063721023E+01  0.31362154222E+02  0.47000000000E+01 0. -1.
<mgrwt>
<rscale>  0 0.12957313E+03</rscale>
<asrwt>0</asrwt>
<pdfrwt beam="1">  1        5 0.67389368E-02 0.12957418E+03</pdfrwt>
<pdfrwt beam="2">  1       -5 0.59705175E-01 0.12957418E+03</pdfrwt>
<totfact> 0.29161397E+02</totfact>
</mgrwt>
</event>
<event>
 8    1  0.1821556E-007  0.1277230E+03  0.7546771E-02  0.1230876E+00
         -5   -1    0    0    0  501 -0.00000000000E+00  0.00000000000E+00  0.28539613212E+03  0.28543483009E+03  0.47000000000E+01 0.  1.
          5   -1    0    0  501    0  0.00000000000E+00 -0.00000000000E+00 -0.86912653817E+02  0.87039642655E+02  0.47000000000E+01 0.  1.
         25    2    1    2    0    0  0.22209295721E+02 -0.13936982031E+02  0.20833999908E+03  0.24437173998E+03  0.12499799919E+03 0.  0.
         25    2    1    2    0    0 -0.22209295721E+02  0.13936982031E+02 -0.98565207753E+01  0.12810273276E+03  0.12500266739E+03 0.  0.
          5    1    3    3  502    0  0.13219033447E+02  0.21937192652E+02 -0.60755829307E+01  0.26739221654E+02  0.47000000000E+01 0.  1.
         -5    1    3    3    0  502  0.89902622746E+01 -0.35874174683E+02  0.21441558201E+03  0.21763251832E+03  0.47000000000E+01 0.  1.
          5    1    4    4  503    0 -0.18266397230E+02  0.38869998632E+02  0.48135156471E+02  0.64680919520E+02  0.47000000000E+01 0. -1.
         -5    1    4    4    0  503 -0.39428984913E+01 -0.24933016600E+02 -0.57991677247E+02  0.63421813244E+02  0.47000000000E+01 0. -1.
<mgrwt>
<rscale>  0 0.12772184E+03</rscale>
<asrwt>0</asrwt>
<pdfrwt beam="2">  1        5 0.13383923E-01 0.12772298E+03</pdfrwt>
<pdfrwt beam="1">  1       -5 0.43919841E-01 0.12772298E+03</pdfrwt>
<totfact> 0.16923067E+02</totfact>
</mgrwt>
</event>
<event>
 8    1  0.1821556E-007  0.1303856E+03  0.7546771E-02  0.1226892E+00
          5   -1    0    0  501    0  0.00000000000E+00  0.00000000000E+00  0.14413490510E+04  0.14413567139E+04  0.47000000000E+01 0. -1.
         -5   -1    0    0    0  501 -0.00000000000E+00 -0.00000000000E+00 -0.46004632260E+02  0.46244093562E+02  0.47000000000E+01 0. -1.
         25    2    1    2    0    0  0.32417651625E+02 -0.17833054951E+02  0.55959977820E+02  0.14188702802E+03  0.12502594778E+03 0.  0.
         25    2    1    2    0    0 -0.32417651625E+02  0.17833054951E+02  0.13393844409E+04  0.13457137794E+04  0.12500389479E+03 0.  0.
          5    1    4    4  502    0  0.21539440602E+01 -0.30601051721E+02  0.10385930012E+04  0.10390565798E+04  0.47000000000E+01 0. -1.
         -5    1    4    4    0  502 -0.34571595685E+02  0.48434106672E+02  0.30079143966E+03  0.30665719964E+03  0.47000000000E+01 0. -1.
          5    1    3    3  503    0 -0.18727826999E+02 -0.48450924899E+02 -0.97317995410E+01  0.53056776664E+02  0.47000000000E+01 0.  1.
         -5    1    3    3    0  503  0.51145478623E+02  0.30617869948E+02  0.65691777361E+02  0.88830251360E+02  0.47000000000E+01 0.  1.
<mgrwt>
<rscale>  0 0.13038033E+03</rscale>
<asrwt>0</asrwt>
<pdfrwt beam="1">  1        5 0.22176500E+00 0.13038562E+03</pdfrwt>
<pdfrwt beam="2">  1       -5 0.70966457E-02 0.13038562E+03</pdfrwt>
<totfact> 0.90350230E+00</totfact>
</mgrwt>
</event>
<event>
 8    1  0.1821556E-007  0.1276718E+03  0.7546771E-02  0.1230954E+00
          5   -1    0    0  501    0  0.00000000000E+00  0.00000000000E+00  0.38368607563E+02  0.38655401257E+02  0.47000000000E+01 0.  1.
         -5   -1    0    0    0  501 -0.00000000000E+00 -0.00000000000E+00 -0.48406448903E+03  0.48408730570E+03  0.47000000000E+01 0.  1.
         25    2    1    2    0    0 -0.50659512369E+01 -0.25473722528E+02 -0.31570755427E+03  0.34054565614E+03  0.12500203875E+03 0.  0.
         25    2    1    2    0    0  0.50659512369E+01  0.25473722528E+02 -0.12998832720E+03  0.18219705081E+03  0.12499690283E+03 0.  0.
          5    1    3    3  502    0 -0.53495666082E+02  0.60189944286E+01 -0.71896215260E+02  0.89939815167E+02  0.47000000000E+01 0. -1.
         -5    1    3    3    0  502  0.48429714845E+02 -0.31492716957E+02 -0.24381133901E+03  0.25060584098E+03  0.47000000000E+01 0. -1.
          5    1    4    4  503    0  0.12697422250E+01  0.11862446191E+02 -0.15367987314E+03  0.15421388810E+03  0.47000000000E+01 0. -1.
         -5    1    4    4    0  503  0.37962090120E+01  0.13611276337E+02  0.23691545942E+02  0.27983162714E+02  0.47000000000E+01 0. -1.
<mgrwt>
<rscale>  0 0.12767053E+03</rscale>
<asrwt>0</asrwt>
<pdfrwt beam="1">  1        5 0.59266792E-02 0.12767178E+03</pdfrwt>
<pdfrwt beam="2">  1       -5 0.74495271E-01 0.12767178E+03</pdfrwt>
<totfact> 0.21987969E+02</totfact>
</mgrwt>
</event>
<event>
 8    1  0.1821556E-007  0.1453702E+03  0.7546771E-02  0.1206287E+00
         -5   -1    0    0    0  501 -0.00000000000E+00  0.00000000000E+00  0.63443436403E+02  0.63617290280E+02  0.47000000000E+01 0.  1.
          5   -1    0    0  501    0  0.00000000000E+00 -0.00000000000E+00 -0.33840164846E+03  0.33843428562E+03  0.47000000000E+01 0.  1.
         25    2    1    2    0    0  0.74108596535E+02 -0.34579610280E+01 -0.11072433640E+03  0.18273577115E+03  0.12501376648E+03 0.  0.
         25    2    1    2    0    0 -0.74108596535E+02  0.34579610280E+01 -0.16423387566E+03  0.21931580475E+03  0.12499045854E+03 0.  0.
          5    1    3    3  502    0  0.90522379145E+02  0.39568154895E+02 -0.79567350836E+02  0.12693696596E+03  0.47000000000E+01 0.  1.
         -5    1    3    3    0  502 -0.16413782610E+02 -0.43026115923E+02 -0.31156985568E+02  0.55798805190E+02  0.47000000000E+01 0.  1.
          5    1    4    4  503    0  0.35351507370E+02  0.20384432121E+00 -0.43448846510E+02  0.56210878742E+02  0.47000000000E+01 0.  1.
         -5    1    4    4    0  503 -0.10946010391E+03  0.32541167068E+01 -0.12078502915E+03  0.16310492601E+03  0.47000000000E+01 0.  1.
<mgrwt>
<rscale>  0 0.14536515E+03</rscale>
<asrwt>0</asrwt>
<pdfrwt beam="2">  1        5 0.52077675E-01 0.14537016E+03</pdfrwt>
<pdfrwt beam="1">  1       -5 0.97764128E-02 0.14537016E+03</pdfrwt>
<totfact> 0.21510223E+02</totfact>
</mgrwt>
</event>
<event>
 8    1  0.1821556E-007  0.1336738E+03  0.7546771E-02  0.1222111E+00
          5   -1    0    0  501    0  0.00000000000E+00  0.00000000000E+00  0.27617998574E+03  0.27621997488E+03  0.47000000000E+01 0.  1.
         -5   -1    0    0    0  501 -0.00000000000E+00 -0.00000000000E+00 -0.82913367903E+02  0.83046472393E+02  0.47000000000E+01 0.  1.
         25    2    1    2    0    0 -0.44059196713E+02 -0.17369706065E+02  0.12220794975E+02  0.13423122529E+03  0.12500301800E+03 0.  0.
         25    2    1    2    0    0  0.44059196713E+02  0.17369706065E+02  0.18104582286E+03  0.22503522198E+03  0.12498136522E+03 0.  0.
          5    1    4    4  502    0  0.76663010169E+02  0.15349469315E+02  0.17466262627E+03  0.19142086185E+03  0.47000000000E+01 0. -1.
         -5    1    4    4    0  502 -0.32603813456E+02  0.20202367504E+01  0.63831965938E+01  0.33614360133E+02  0.47000000000E+01 0. -1.
          5    1    3    3  503    0  0.22141797067E+02  0.10033704490E+02 -0.38884897522E+02  0.46098369368E+02  0.47000000000E+01 0.  1.
         -5    1    3    3    0  503 -0.66200993780E+02 -0.27403410555E+02  0.51105692496E+02  0.88132855922E+02  0.47000000000E+01 0.  1.
<mgrwt>
<rscale>  0 0.13366870E+03</rscale>
<asrwt>0</asrwt>
<pdfrwt beam="1">  1        5 0.42502544E-01 0.13367376E+03</pdfrwt>
<pdfrwt beam="2">  1       -5 0.12769217E-01 0.13367376E+03</pdfrwt>
<totfact> 0.20013708E+02</totfact>
</mgrwt>
</event>
<event>
 8    1  0.1821556E-007  0.1802020E+03  0.7546771E-02  0.1167609E+00
          5   -1    0    0  501    0  0.00000000000E+00  0.00000000000E+00  0.37432357272E+02  0.37726268977E+02  0.47000000000E+01 0. -1.
         -5   -1    0    0    0  501 -0.00000000000E+00 -0.00000000000E+00 -0.89754932779E+03  0.89756163344E+03  0.47000000000E+01 0. -1.
         25    2    1    2    0    0 -0.10935710173E+03 -0.69911077385E+02 -0.52072823326E+03  0.55102566953E+03  0.12499944450E+03 0.  0.
         25    2    1    2    0    0  0.10935710173E+03  0.69911077385E+02 -0.33938873726E+03  0.38426223289E+03  0.12500485673E+03 0.  0.
          5    1    3    3  502    0 -0.78835418459E+02  0.18665010164E+02 -0.30842062370E+03  0.31891813516E+03  0.47000000000E+01 0. -1.
         -5    1    3    3    0  502 -0.30521683269E+02 -0.88576087549E+02 -0.21230760956E+03  0.23210753437E+03  0.47000000000E+01 0. -1.
          5    1    4    4  503    0 -0.13857526528E+02  0.36078357239E+01  0.20745014257E+01  0.15213187577E+02  0.47000000000E+01 0.  1.
         -5    1    4    4    0  503  0.12321462826E+03  0.66303241661E+02 -0.34146323869E+03  0.36904904531E+03  0.47000000000E+01 0.  1.
<mgrwt>
<rscale>  0 0.18020103E+03</rscale>
<asrwt>0</asrwt>
<pdfrwt beam="1">  1        5 0.57823801E-02 0.18020197E+03</pdfrwt>
<pdfrwt beam="2">  1       -5 0.13810805E+00 0.18020197E+03</pdfrwt>
<totfact> 0.56035134E+01</totfact>
</mgrwt>
</event>
<event>
 8    1  0.1821556E-007  0.1387573E+03  0.7546771E-02  0.1215011E+00
         -5   -1    0    0    0  501 -0.00000000000E+00  0.00000000000E+00  0.30640198907E+03  0.30643803437E+03  0.47000000000E+01 0.  1.
          5   -1    0    0  501    0  0.00000000000E+00 -0.00000000000E+00 -0.85990925885E+02  0.86119273886E+02  0.47000000000E+01 0.  1.
         25    2    1    2    0    0 -0.57658212818E+02 -0.17451971488E+02  0.21222412198E+03  0.25355996621E+03  0.12499815079E+03 0.  0.
         25    2    1    2    0    0  0.57658212818E+02  0.17451971488E+02  0.81869412088E+01  0.13899734204E+03  0.12499677706E+03 0.  0.
          5    1    3    3  502    0  0.32500140724E+02  0.22661981350E+02  0.57529196491E+02  0.70010877688E+02  0.47000000000E+01 0. -1.
         -5    1    3    3    0  502 -0.90158353541E+02 -0.40113952837E+02  0.15469492549E+03  0.18354908852E+03  0.47000000000E+01 0. -1.
          5    1    4    4  503    0  0.80785588024E+02  0.33426856846E+02  0.40023696511E+02  0.96268646367E+02  0.47000000000E+01 0. -1.
         -5    1    4    4    0  503 -0.23127375206E+02 -0.15974885358E+02 -0.31836755302E+02  0.42728695678E+02  0.47000000000E+01 0. -1.
<mgrwt>
<rscale>  0 0.13875696E+03</rscale>
<asrwt>0</asrwt>
<pdfrwt beam="2">  1        5 0.13242019E-01 0.13875726E+03</pdfrwt>
<pdfrwt beam="1">  1       -5 0.47151413E-01 0.13875726E+03</pdfrwt>
<totfact> 0.15300590E+02</totfact>
</mgrwt>
</event>
<event>
 8    1  0.1821556E-007  0.1396742E+03  0.7546771E-02  0.1213769E+00
          5   -1    0    0  501    0  0.00000000000E+00  0.00000000000E+00  0.19523827929E+03  0.19529484299E+03  0.47000000000E+01 0. -1.
         -5   -1    0    0    0  501 -0.00000000000E+00 -0.00000000000E+00 -0.99931882941E+02  0.10004234717E+03  0.47000000000E+01 0. -1.
         25    2    1    2    0    0 -0.57268025679E+02 -0.24562084372E+02  0.42172289291E+02  0.14589785708E+03  0.12499903984E+03 0.  0.
         25    2    1    2    0    0  0.57268025679E+02  0.24562084372E+02  0.53134107057E+02  0.14943933309E+03  0.12500383269E+03 0.  0.
          5    1    4    4  502    0  0.94842817563E+02  0.32589224548E+02  0.44299496084E+02  0.10973492130E+03  0.47000000000E+01 0. -1.
         -5    1    4    4    0  502 -0.37574791883E+02 -0.80271401754E+01  0.88346109734E+01  0.39704411789E+02  0.47000000000E+01 0. -1.
          5    1    3    3  503    0  0.46107805739E+01  0.29578737715E+02  0.54761411222E+02  0.62586445668E+02  0.47000000000E+01 0.  1.
         -5    1    3    3    0  503 -0.61878806253E+02 -0.54140822088E+02 -0.12589121932E+02  0.83311411407E+02  0.47000000000E+01 0.  1.
<mgrwt>
<rscale>  0 0.13967312E+03</rscale>
<asrwt>0</asrwt>
<pdfrwt beam="1">  1        5 0.30049506E-01 0.13967420E+03</pdfrwt>
<pdfrwt beam="2">  1       -5 0.15386984E-01 0.13967420E+03</pdfrwt>
<totfact> 0.29175846E+02</totfact>
</mgrwt>
</event>
<event>
 8    1  0.1821556E-007  0.2226576E+03  0.7546771E-02  0.1131917E+00
          5   -1    0    0  501    0  0.00000000000E+00  0.00000000000E+00  0.49491625188E+03  0.49493856829E+03  0.47000000000E+01 0. -1.
         -5   -1    0    0    0  501 -0.00000000000E+00 -0.00000000000E+00 -0.10703215432E+03  0.10713529792E+03  0.47000000000E+01 0. -1.
         25    2    1    2    0    0  0.12136840413E+03 -0.13863919287E+03  0.11732626963E+03  0.25167701516E+03  0.12499900437E+03 0.  0.
         25    2    1    2    0    0 -0.12136840413E+03  0.13863919287E+03  0.27055782792E+03  0.35039685104E+03  0.12500119858E+03 0.  0.
          5    1    4    4  502    0 -0.13911024704E+02 -0.19381740418E+02  0.66428033562E+02  0.70738547574E+02  0.47000000000E+01 0. -1.
         -5    1    4    4    0  502 -0.10745737942E+03  0.15802093329E+03  0.20412979436E+03  0.27965830346E+03  0.47000000000E+01 0. -1.
          5    1    3    3  503    0 -0.76622405503E+01 -0.79957797635E+02  0.49486512680E+02  0.94461443299E+02  0.47000000000E+01 0. -1.
         -5    1    3    3    0  503  0.12903064468E+03 -0.58681395240E+02  0.67839756955E+02  0.15721557186E+03  0.47000000000E+01 0. -1.
<mgrwt>
<rscale>  0 0.22265731E+03</rscale>
<asrwt>0</asrwt>
<pdfrwt beam="1">  1        5 0.76150612E-01 0.22265762E+03</pdfrwt>
<pdfrwt beam="2">  1       -5 0.16476136E-01 0.22265762E+03</pdfrwt>
<totfact> 0.41055332E+01</totfact>
</mgrwt>
</event>
<event>
 8    1  0.1821556E-007  0.1880140E+03  0.7546771E-02  0.1160267E+00
          5   -1    0    0  501    0  0.00000000000E+00  0.00000000000E+00  0.71526546347E+02  0.71680798212E+02  0.47000000000E+01 0.  1.
         -5   -1    0    0    0  501 -0.00000000000E+00 -0.00000000000E+00 -0.49476984652E+03  0.49479216953E+03  0.47000000000E+01 0.  1.
         25    2    1    2    0    0  0.13549973707E+03  0.36910012907E+02 -0.22603686364E+03  0.29400345929E+03  0.12499136990E+03 0.  0.
         25    2    1    2    0    0 -0.13549973707E+03 -0.36910012907E+02 -0.19720643653E+03  0.27246950845E+03  0.12500690631E+03 0.  0.
          5    1    4    4  502    0 -0.21133820012E+02 -0.63337415263E+02 -0.98179399940E+02  0.11882571731E+03  0.47000000000E+01 0. -1.
         -5    1    4    4    0  502 -0.11436591706E+03  0.26427402356E+02 -0.99027036594E+02  0.15364379114E+03  0.47000000000E+01 0. -1.
          5    1    3    3  503    0  0.10877017199E+03  0.81167143783E+02 -0.17066642924E+03  0.21810129668E+03  0.47000000000E+01 0.  1.
         -5    1    3    3    0  503  0.26729565083E+02 -0.44257130877E+02 -0.55370434399E+02  0.75902162608E+02  0.47000000000E+01 0.  1.
<mgrwt>
<rscale>  0 0.18801139E+03</rscale>
<asrwt>0</asrwt>
<pdfrwt beam="1">  1        5 0.11017667E-01 0.18801397E+03</pdfrwt>
<pdfrwt beam="2">  1       -5 0.76132018E-01 0.18801397E+03</pdfrwt>
<totfact> 0.81257036E+01</totfact>
</mgrwt>
</event>
<event>
 8    1  0.1821556E-007  0.1362110E+03  0.7546771E-02  0.1218525E+00
         -5   -1    0    0    0  501 -0.00000000000E+00  0.00000000000E+00  0.16326959265E+03  0.16333722749E+03  0.47000000000E+01 0. -1.
          5   -1    0    0  501    0  0.00000000000E+00 -0.00000000000E+00 -0.11579840679E+03  0.11589374882E+03  0.47000000000E+01 0. -1.
         25    2    1    2    0    0  0.10457502460E+02 -0.53061206306E+02  0.43447370917E+02  0.14296055064E+03  0.12500077610E+03 0.  0.
         25    2    1    2    0    0 -0.10457502460E+02  0.53061206306E+02  0.40238149395E+01  0.13627042567E+03  0.12501434659E+03 0.  0.
          5    1    4    4  502    0  0.21633515826E+02  0.83863585376E+02 -0.14348072067E+02  0.87915113212E+02  0.47000000000E+01 0.  1.
         -5    1    4    4    0  502 -0.32091018285E+02 -0.30802379070E+02  0.18371887007E+02  0.48355312461E+02  0.47000000000E+01 0.  1.
          5    1    3    3  503    0 -0.42533035367E+02 -0.64340944797E+02  0.72003405670E+01  0.77606386201E+02  0.47000000000E+01 0. -1.
         -5    1    3    3    0  503  0.52990537827E+02  0.11279738492E+02  0.36247030350E+02  0.65354164434E+02  0.47000000000E+01 0. -1.
<mgrwt>
<rscale>  0 0.13620789E+03</rscale>
<asrwt>0</asrwt>
<pdfrwt beam="2">  1        5 0.17827676E-01 0.13621100E+03</pdfrwt>
<pdfrwt beam="1">  1       -5 0.25130936E-01 0.13621100E+03</pdfrwt>
<totfact> 0.31257233E+02</totfact>
</mgrwt>
</event>
<event>
 8    1  0.1821556E-007  0.1345607E+03  0.7546771E-02  0.1220846E+00
         -5   -1    0    0    0  501 -0.00000000000E+00  0.00000000000E+00  0.23721785321E+03  0.23726440921E+03  0.47000000000E+01 0.  1.
          5   -1    0    0  501    0  0.00000000000E+00 -0.00000000000E+00 -0.78406638559E+02  0.78547380415E+02  0.47000000000E+01 0.  1.
         25    2    1    2    0    0 -0.31049965638E+02  0.38955922405E+02  0.10589208393E+03  0.17121916010E+03  0.12498481144E+03 0.  0.
         25    2    1    2    0    0  0.31049965638E+02 -0.38955922405E+02  0.52919130720E+02  0.14459262953E+03  0.12499971944E+03 0.  0.
          5    1    3    3  502    0  0.32857819467E+02  0.28136772341E+02  0.96107918114E+02  0.10549946058E+03  0.47000000000E+01 0. -1.
         -5    1    3    3    0  502 -0.63907785105E+02  0.10819150063E+02  0.97841658141E+01  0.65719699526E+02  0.47000000000E+01 0. -1.
          5    1    4    4  503    0 -0.84420149027E+01  0.29595902250E+02 -0.19912619662E+02  0.36956561899E+02  0.47000000000E+01 0.  1.
         -5    1    4    4    0  503  0.39491980541E+02 -0.68551824654E+02  0.72831750382E+02  0.10763606763E+03  0.47000000000E+01 0.  1.
<mgrwt>
<rscale>  0 0.13455728E+03</rscale>
<asrwt>0</asrwt>
<pdfrwt beam="2">  1        5 0.12076967E-01 0.13456075E+03</pdfrwt>
<pdfrwt beam="1">  1       -5 0.36509462E-01 0.13456075E+03</pdfrwt>
<totfact> 0.30195111E+02</totfact>
</mgrwt>
</event>
<event>
 8    1  0.1821556E-007  0.1335074E+03  0.7546771E-02  0.1222343E+00
         -5   -1    0    0    0  501 -0.00000000000E+00  0.00000000000E+00  0.34826880182E+03  0.34830051438E+03  0.47000000000E+01 0.  1.
          5   -1    0    0  501    0  0.00000000000E+00 -0.00000000000E+00 -0.56188530894E+02  0.56384758615E+02  0.47000000000E+01 0.  1.
         25    2    1    2    0    0  0.46879498722E+02  0.93702466526E+00  0.20718189156E+03  0.24647224391E+03  0.12500266163E+03 0.  0.
         25    2    1    2    0    0 -0.46879498722E+02 -0.93702466526E+00  0.84898379365E+02  0.15821302908E+03  0.12500024935E+03 0.  0.
          5    1    4    4  502    0  0.10439787155E+02  0.35104561204E+02 -0.12950047559E+02  0.39129440386E+02  0.47000000000E+01 0.  1.
         -5    1    4    4    0  502 -0.57319285877E+02 -0.36041585869E+02  0.97848426924E+02  0.11908358870E+03  0.47000000000E+01 0.  1.
          5    1    3    3  503    0 -0.19265550981E+02  0.17425530004E+00 -0.79390891449E+01  0.21361436187E+02  0.47000000000E+01 0. -1.
         -5    1    3    3    0  503  0.66145049703E+02  0.76276936523E+00  0.21512098070E+03  0.22511080773E+03  0.47000000000E+01 0. -1.
<mgrwt>
<rscale>  0 0.13350685E+03</rscale>
<asrwt>0</asrwt>
<pdfrwt beam="2">  1        5 0.86619234E-02 0.13350742E+03</pdfrwt>
<pdfrwt beam="1">  1       -5 0.53597349E-01 0.13350742E+03</pdfrwt>
<totfact> 0.24246383E+02</totfact>
</mgrwt>
</event>
<event>
 8    1  0.1821556E-007  0.1414703E+03  0.7546771E-02  0.1211364E+00
          5   -1    0    0  501    0  0.00000000000E+00  0.00000000000E+00  0.36641422391E+03  0.36644436615E+03  0.47000000000E+01 0. -1.
         -5   -1    0    0    0  501 -0.00000000000E+00 -0.00000000000E+00 -0.63166838267E+02  0.63341451331E+02  0.47000000000E+01 0. -1.
         25    2    1    2    0    0 -0.51340475991E+02  0.41872848486E+02  0.72102550548E+02  0.15878437305E+03  0.12499807765E+03 0.  0.
         25    2    1    2    0    0  0.51340475991E+02 -0.41872848486E+02  0.23114483509E+03  0.27100144442E+03  0.12499867270E+03 0.  0.
          5    1    4    4  502    0  0.63236938177E+02 -0.69278276239E+02  0.10322916772E+03  0.13955909493E+03  0.47000000000E+01 0. -1.
         -5    1    4    4    0  502 -0.11896462186E+02  0.27405427752E+02  0.12791566737E+03  0.13144234949E+03  0.47000000000E+01 0. -1.
          5    1    3    3  503    0 -0.48782283445E+02 -0.29242005400E+02 -0.42123173032E+00  0.57070776183E+02  0.47000000000E+01 0. -1.
         -5    1    3    3    0  503 -0.25581925460E+01  0.71114853886E+02  0.72523782278E+02  0.10171359687E+03  0.47000000000E+01 0. -1.
<mgrwt>
<rscale>  0 0.14147018E+03</rscale>
<asrwt>0</asrwt>
<pdfrwt beam="1">  1        5 0.56387170E-01 0.14147031E+03</pdfrwt>
<pdfrwt beam="2">  1       -5 0.97337254E-02 0.14147031E+03</pdfrwt>
<totfact> 0.18104789E+02</totfact>
</mgrwt>
</event>
<event>
 8    1  0.1821556E-007  0.1876388E+03  0.7546771E-02  0.1160609E+00
          5   -1    0    0  501    0  0.00000000000E+00  0.00000000000E+00  0.14639853846E+03  0.14647396377E+03  0.47000000000E+01 0.  1.
         -5   -1    0    0    0  501 -0.00000000000E+00 -0.00000000000E+00 -0.26960023871E+03  0.26964120366E+03  0.47000000000E+01 0.  1.
         25    2    1    2    0    0  0.13444137590E+03  0.38849910317E+02 -0.13013614182E+03  0.22834824930E+03  0.12499483375E+03 0.  0.
         25    2    1    2    0    0 -0.13444137590E+03 -0.38849910317E+02  0.69344415677E+01  0.18776691813E+03  0.12499811991E+03 0.  0.
          5    1    4    4  502    0 -0.86299478601E+02 -0.54325461661E+02  0.56607104649E+02  0.11672750356E+03  0.47000000000E+01 0. -1.
         -5    1    4    4    0  502 -0.48141897297E+02  0.15475551345E+02 -0.49672663081E+02  0.71039414570E+02  0.47000000000E+01 0. -1.
          5    1    3    3  503    0  0.76477056252E+02  0.42589920136E+02 -0.21153130241E+01  0.87688117663E+02  0.47000000000E+01 0.  1.
         -5    1    3    3    0  503  0.57964319646E+02 -0.37400098192E+01 -0.12802082880E+03  0.14066013163E+03  0.47000000000E+01 0.  1.
<mgrwt>
<rscale>  0 0.18763828E+03</rscale>
<asrwt>0</asrwt>
<pdfrwt beam="1">  1        5 0.22531805E-01 0.18763883E+03</pdfrwt>
<pdfrwt beam="2">  1       -5 0.41485913E-01 0.18763883E+03</pdfrwt>
<totfact> 0.82268652E+01</totfact>
</mgrwt>
</event>
<event>
 8    1  0.1821556E-007  0.1299693E+03  0.7546771E-02  0.1227504E+00
         -5   -1    0    0    0  501 -0.00000000000E+00  0.00000000000E+00  0.19235068220E+03  0.19240809479E+03  0.47000000000E+01 0. -1.
          5   -1    0    0  501    0  0.00000000000E+00 -0.00000000000E+00 -0.10516490146E+03  0.10526987461E+03  0.47000000000E+01 0. -1.
         25    2    1    2    0    0  0.16197155742E+01 -0.35505727381E+02  0.10422954551E+03  0.16659593304E+03  0.12500850608E+03 0.  0.
         25    2    1    2    0    0 -0.16197155742E+01  0.35505727381E+02 -0.17043764777E+02  0.13108203636E+03  0.12501491984E+03 0.  0.
          5    1    4    4  502    0 -0.41876990859E+02  0.30538353533E+02  0.36630363833E+02  0.63640764879E+02  0.47000000000E+01 0. -1.
         -5    1    4    4    0  502  0.40257275285E+02  0.49673738478E+01 -0.53674128610E+02  0.67441271476E+02  0.47000000000E+01 0. -1.
          5    1    3    3  503    0 -0.55495873164E+02  0.84346721675E+01  0.57994550168E+02  0.80847965231E+02  0.47000000000E+01 0. -1.
         -5    1    3    3    0  503  0.57115588738E+02 -0.43940399548E+02  0.46234995347E+02  0.85747967813E+02  0.47000000000E+01 0. -1.
<mgrwt>
<rscale>  0 0.12996772E+03</rscale>
<asrwt>0</asrwt>
<pdfrwt beam="2">  1        5 0.16191707E-01 0.12996927E+03</pdfrwt>
<pdfrwt beam="1">  1       -5 0.29604904E-01 0.12996927E+03</pdfrwt>
<totfact> 0.26704209E+02</totfact>
</mgrwt>
</event>
<event>
 8    1  0.1821556E-007  0.1455084E+03  0.7546771E-02  0.1206105E+00
          5   -1    0    0  501    0  0.00000000000E+00  0.00000000000E+00  0.56033334092E+02  0.56230103409E+02  0.47000000000E+01 0.  1.
         -5   -1    0    0    0  501 -0.00000000000E+00 -0.00000000000E+00 -0.40586480934E+03  0.40589202192E+03  0.47000000000E+01 0.  1.
         25    2    1    2    0    0  0.69795532685E+02  0.25996418770E+02 -0.23655418079E+03  0.27772389490E+03  0.12500180470E+03 0.  0.
         25    2    1    2    0    0 -0.69795532685E+02 -0.25996418770E+02 -0.11327729446E+03  0.18439823044E+03  0.12499492700E+03 0.  0.
          5    1    3    3  502    0 -0.34458273922E+02 -0.76175374889E+01 -0.50968057759E+02  0.62170993484E+02  0.47000000000E+01 0.  1.
         -5    1    3    3    0  502  0.10425380661E+03  0.33613956259E+02 -0.18558612303E+03  0.21555290141E+03  0.47000000000E+01 0.  1.
          5    1    4    4  503    0 -0.68715762269E+02  0.39470628049E+02 -0.69369883560E+02  0.10542322898E+03  0.47000000000E+01 0. -1.
         -5    1    4    4    0  503 -0.10797704154E+01 -0.65467046819E+02 -0.43907410905E+02  0.78975001461E+02  0.47000000000E+01 0. -1.
<mgrwt>
<rscale>  0 0.14550688E+03</rscale>
<asrwt>0</asrwt>
<pdfrwt beam="1">  1        5 0.86377426E-02 0.14550835E+03</pdfrwt>
<pdfrwt beam="2">  1       -5 0.62457967E-01 0.14550835E+03</pdfrwt>
<totfact> 0.17976878E+02</totfact>
</mgrwt>
</event>
<event>
 8    1  0.1821556E-007  0.1256116E+03  0.7546771E-02  0.1234117E+00
         -5   -1    0    0    0  501 -0.00000000000E+00  0.00000000000E+00  0.21125680769E+03  0.21130908356E+03  0.47000000000E+01 0. -1.
          5   -1    0    0  501    0  0.00000000000E+00 -0.00000000000E+00 -0.24933566420E+03  0.24937995798E+03  0.47000000000E+01 0. -1.
         25    2    1    2    0    0 -0.78199378142E+01 -0.95975839368E+01  0.17376057096E+03  0.21440825744E+03  0.12499959916E+03 0.  0.
         25    2    1    2    0    0  0.78199378142E+01  0.95975839368E+01 -0.21183942747E+03  0.24628078410E+03  0.12500006618E+03 0.  0.
          5    1    3    3  502    0  0.25032761998E+02 -0.14503922125E+02  0.17817628868E+03  0.18057099096E+03  0.47000000000E+01 0. -1.
         -5    1    3    3    0  502 -0.32852699812E+02  0.49063381881E+01 -0.44157177177E+01  0.33837266473E+02  0.47000000000E+01 0. -1.
          5    1    4    4  503    0  0.65645988088E+02 -0.72133364477E+00 -0.12610638331E+03  0.14224916867E+03  0.47000000000E+01 0. -1.
         -5    1    4    4    0  503 -0.57826050274E+02  0.10318917582E+02 -0.85733044155E+02  0.10403161544E+03  0.47000000000E+01 0. -1.
<mgrwt>
<rscale>  0 0.12561151E+03</rscale>
<asrwt>0</asrwt>
<pdfrwt beam="2">  1        5 0.38366761E-01 0.12561163E+03</pdfrwt>
<pdfrwt beam="1">  1       -5 0.32508476E-01 0.12561163E+03</pdfrwt>
<totfact> 0.41997825E+01</totfact>
</mgrwt>
</event>
<event>
 8    1  0.1821556E-007  0.1541150E+03  0.7546771E-02  0.1195507E+00
         -5   -1    0    0    0  501 -0.00000000000E+00  0.00000000000E+00  0.23026733680E+03  0.23031529780E+03  0.47000000000E+01 0. -1.
          5   -1    0    0  501    0  0.00000000000E+00 -0.00000000000E+00 -0.10609379655E+03  0.10619785151E+03  0.47000000000E+01 0. -1.
         25    2    1    2    0    0  0.10743785604E+02  0.89497233333E+02  0.33522803497E+02  0.15771872778E+03  0.12500494004E+03 0.  0.
         25    2    1    2    0    0 -0.10743785604E+02 -0.89497233333E+02  0.90650736761E+02  0.17879442153E+03  0.12499882156E+03 0.  0.
          5    1    4    4  502    0  0.39626091641E+02 -0.58597313990E+02  0.49473773607E+00  0.70895748187E+02  0.47000000000E+01 0.  1.
         -5    1    4    4    0  502 -0.50369877246E+02 -0.30899919343E+02  0.90155999025E+02  0.10789867334E+03  0.47000000000E+01 0.  1.
          5    1    3    3  503    0 -0.48454050791E+02  0.10023237413E+02 -0.76812114525E+01  0.50292656876E+02  0.47000000000E+01 0.  1.
         -5    1    3    3    0  503  0.59197836395E+02  0.79473995920E+02  0.41204014950E+02  0.10742607090E+03  0.47000000000E+01 0.  1.
<mgrwt>
<rscale>  0 0.15411371E+03</rscale>
<asrwt>0</asrwt>
<pdfrwt beam="2">  1        5 0.16333816E-01 0.15411495E+03</pdfrwt>
<pdfrwt beam="1">  1       -5 0.35437438E-01 0.15411495E+03</pdfrwt>
<totfact> 0.19484079E+02</totfact>
</mgrwt>
</event>
<event>
 8    1  0.1821556E-007  0.2036495E+03  0.7546771E-02  0.1146697E+00
         -5   -1    0    0    0  501 -0.00000000000E+00  0.00000000000E+00  0.31234515762E+03  0.31238051714E+03  0.47000000000E+01 0. -1.
          5   -1    0    0  501    0  0.00000000000E+00 -0.00000000000E+00 -0.15648911117E+03  0.15655967525E+03  0.47000000000E+01 0. -1.
         25    2    1    2    0    0  0.31185923771E+02  0.15771822841E+03  0.16932684196E+03  0.26484568522E+03  0.12499622459E+03 0.  0.
         25    2    1    2    0    0 -0.31185923771E+02 -0.15771822841E+03 -0.13470795503E+02  0.20409450717E+03  0.12500201642E+03 0.  0.
          5    1    4    4  502    0  0.39221911010E+02 -0.10486609351E+03 -0.26025786508E+02  0.11504211157E+03  0.47000000000E+01 0.  1.
         -5    1    4    4    0  502 -0.70407834781E+02 -0.52852134895E+02  0.12554991006E+02  0.89052395592E+02  0.47000000000E+01 0.  1.
          5    1    3    3  503    0  0.42099662389E+02  0.22428897376E+01  0.13789014632E+02  0.44605370216E+02  0.47000000000E+01 0.  1.
         -5    1    3    3    0  503 -0.10913738618E+02  0.15547533867E+03  0.15553782733E+03  0.22024031501E+03  0.47000000000E+01 0.  1.
<mgrwt>
<rscale>  0 0.20364858E+03</rscale>
<asrwt>0</asrwt>
<pdfrwt beam="2">  1        5 0.24083396E-01 0.20364947E+03</pdfrwt>
<pdfrwt beam="1">  1       -5 0.48061249E-01 0.20364947E+03</pdfrwt>
<totfact> 0.54414183E+01</totfact>
</mgrwt>
</event>
<event>
 8    1  0.1821556E-007  0.1847876E+03  0.7546771E-02  0.1163249E+00
          5   -1    0    0  501    0  0.00000000000E+00  0.00000000000E+00  0.31136778247E+02  0.31489505547E+02  0.47000000000E+01 0.  1.
         -5   -1    0    0    0  501 -0.00000000000E+00 -0.00000000000E+00 -0.11231340998E+04  0.11231439338E+04  0.47000000000E+01 0.  1.
         25    2    1    2    0    0 -0.13545591102E+03  0.13200202889E+02 -0.64498207634E+03  0.67093094986E+03  0.12499564593E+03 0.  0.
         25    2    1    2    0    0  0.13545591102E+03 -0.13200202889E+02 -0.44701524519E+03  0.48370248950E+03  0.12499167865E+03 0.  0.
          5    1    3    3  502    0 -0.15763847508E+03  0.68745014892E+01 -0.59652105438E+03  0.61705478356E+03  0.47000000000E+01 0.  1.
         -5    1    3    3    0  502  0.22182564056E+02  0.63257014000E+01 -0.48461021954E+02  0.53876166300E+02  0.47000000000E+01 0.  1.
          5    1    4    4  503    0  0.89178127260E+02 -0.60881138000E+02 -0.34774948717E+03  0.36415799754E+03  0.47000000000E+01 0.  1.
         -5    1    4    4    0  503  0.46277783762E+02  0.47680935111E+02 -0.99265758013E+02  0.11954449196E+03  0.47000000000E+01 0.  1.
<mgrwt>
<rscale>  0 0.18478694E+03</rscale>
<asrwt>0</asrwt>
<pdfrwt beam="1">  1        5 0.48181638E-02 0.18478761E+03</pdfrwt>
<pdfrwt beam="2">  1       -5 0.17281772E+00 0.18478761E+03</pdfrwt>
<totfact> 0.40978366E+01</totfact>
</mgrwt>
</event>
<event>
 8    1  0.1821556E-007  0.1697079E+03  0.7546771E-02  0.1178155E+00
          5   -1    0    0  501    0  0.00000000000E+00  0.00000000000E+00  0.17009979627E+04  0.17010044559E+04  0.47000000000E+01 0. -1.
         -5   -1    0    0    0  501 -0.00000000000E+00 -0.00000000000E+00 -0.18145332900E+02  0.18744148581E+02  0.47000000000E+01 0. -1.
         25    2    1    2    0    0 -0.11474512649E+03  0.31354114683E+01  0.59461867757E+03  0.61836245885E+03  0.12499793578E+03 0.  0.
         25    2    1    2    0    0  0.11474512649E+03 -0.31354114683E+01  0.10882339522E+04  0.11013861457E+04  0.12498812826E+03 0.  0.
          5    1    3    3  502    0 -0.48815816089E+02 -0.56054571738E+02  0.35777648501E+03  0.36544657905E+03  0.47000000000E+01 0. -1.
         -5    1    3    3    0  502 -0.65929310398E+02  0.59189983206E+02  0.23684219256E+03  0.25291587981E+03  0.47000000000E+01 0. -1.
          5    1    4    4  503    0  0.58386677800E+02 -0.53755382555E+02  0.77589312070E+03  0.77995568467E+03  0.47000000000E+01 0. -1.
         -5    1    4    4    0  503  0.56358448688E+02  0.50619971087E+02  0.31234083152E+03  0.32143046098E+03  0.47000000000E+01 0. -1.
<mgrwt>
<rscale>  0 0.16970606E+03</rscale>
<asrwt>0</asrwt>
<pdfrwt beam="1">  1        5 0.26173851E+00 0.16970786E+03</pdfrwt>
<pdfrwt beam="2">  1       -5 0.28381524E-02 0.16970786E+03</pdfrwt>
<totfact> 0.24342227E+01</totfact>
</mgrwt>
</event>
<event>
 8    1  0.1821556E-007  0.1530008E+03  0.7546771E-02  0.1196837E+00
          5   -1    0    0  501    0  0.00000000000E+00  0.00000000000E+00  0.61308301697E+02  0.61488192826E+02  0.47000000000E+01 0.  1.
         -5   -1    0    0    0  501 -0.00000000000E+00 -0.00000000000E+00 -0.45056085433E+03  0.45058536756E+03  0.47000000000E+01 0.  1.
         25    2    1    2    0    0 -0.54701139306E+02 -0.69216418692E+02 -0.29516689482E+03  0.33245912168E+03  0.12498977771E+03 0.  0.
         25    2    1    2    0    0  0.54701139306E+02  0.69216418692E+02 -0.94085657818E+02  0.17961443871E+03  0.12500443323E+03 0.  0.
          5    1    4    4  502    0 -0.33089682677E+02  0.27678980747E+02  0.12863110553E+01  0.43414256541E+02  0.47000000000E+01 0.  1.
         -5    1    4    4    0  502  0.87790821983E+02  0.41537437944E+02 -0.95371968873E+02  0.13620018217E+03  0.47000000000E+01 0.  1.
          5    1    3    3  503    0  0.35129060340E+02 -0.72219525866E+01 -0.12595206803E+03  0.13104282094E+03  0.47000000000E+01 0. -1.
         -5    1    3    3    0  503 -0.89830199646E+02 -0.61994466105E+02 -0.16921482679E+03  0.20141630073E+03  0.47000000000E+01 0. -1.
<mgrwt>
<rscale>  0 0.15299778E+03</rscale>
<asrwt>0</asrwt>
<pdfrwt beam="1">  1        5 0.94477701E-02 0.15300077E+03</pdfrwt>
<pdfrwt beam="2">  1       -5 0.69332776E-01 0.15300077E+03</pdfrwt>
<totfact> 0.12392116E+02</totfact>
</mgrwt>
</event>
<event>
 8    1  0.1821556E-007  0.1290528E+03  0.7546771E-02  0.1228889E+00
          5   -1    0    0  501    0  0.00000000000E+00  0.00000000000E+00  0.66050984167E+03  0.66052656339E+03  0.47000000000E+01 0. -1.
         -5   -1    0    0    0  501 -0.00000000000E+00 -0.00000000000E+00 -0.25351161726E+02  0.25783161189E+02  0.47000000000E+01 0. -1.
         25    2    1    2    0    0 -0.21076532076E+02  0.23913586754E+02  0.27566046903E+03  0.30434952106E+03  0.12499542772E+03 0.  0.
         25    2    1    2    0    0  0.21076532076E+02 -0.23913586754E+02  0.35949821091E+03  0.38196020351E+03  0.12505420258E+03 0.  0.
          5    1    3    3  502    0 -0.68095733524E+01 -0.65220924049E+01 -0.11264793874E+02  0.15423798482E+02  0.47000000000E+01 0. -1.
         -5    1    3    3    0  502 -0.14266958723E+02  0.30435679159E+02  0.28692526290E+03  0.28892572258E+03  0.47000000000E+01 0. -1.
          5    1    4    4  503    0  0.22078742199E+02 -0.33045674325E+02  0.36701685693E+03  0.36919229505E+03  0.47000000000E+01 0.  1.
         -5    1    4    4    0  503 -0.10022101234E+01  0.91320875709E+01 -0.75186460225E+01  0.12767908464E+02  0.47000000000E+01 0.  1.
<mgrwt>
<rscale>  0 0.12903859E+03</rscale>
<asrwt>0</asrwt>
<pdfrwt beam="1">  1        5 0.10165141E+00 0.12905283E+03</pdfrwt>
<pdfrwt beam="2">  1       -5 0.39346958E-02 0.12905283E+03</pdfrwt>
<totfact> 0.20929765E+02</totfact>
</mgrwt>
</event>
<event>
 8    1  0.1821556E-007  0.1562863E+03  0.7546771E-02  0.1192957E+00
          5   -1    0    0  501    0  0.00000000000E+00  0.00000000000E+00  0.61092105779E+02  0.61272631643E+02  0.47000000000E+01 0.  1.
         -5   -1    0    0    0  501 -0.00000000000E+00 -0.00000000000E+00 -0.40590425313E+03  0.40593146307E+03  0.47000000000E+01 0.  1.
         25    2    1    2    0    0  0.57650454946E+02  0.74000885035E+02 -0.20284228317E+03  0.25606230172E+03  0.12499281811E+03 0.  0.
         25    2    1    2    0    0 -0.57650454946E+02 -0.74000885035E+02 -0.14196986418E+03  0.21114179299E+03  0.12500283385E+03 0.  0.
          5    1    4    4  502    0 -0.22257042061E+02  0.34489564745E+02 -0.47208425283E+02  0.62734610984E+02  0.47000000000E+01 0.  1.
         -5    1    4    4    0  502 -0.35393412885E+02 -0.10849044978E+03 -0.94761438900E+02  0.14840718201E+03  0.47000000000E+01 0.  1.
          5    1    3    3  503    0  0.48217469974E+02  0.10807925927E+01 -0.16745782209E+03  0.17432815235E+03  0.47000000000E+01 0.  1.
         -5    1    3    3    0  503  0.94329849725E+01  0.72920092442E+02 -0.35384461080E+02  0.81734149370E+02  0.47000000000E+01 0.  1.
<mgrwt>
<rscale>  0 0.15628432E+03</rscale>
<asrwt>0</asrwt>
<pdfrwt beam="1">  1        5 0.94147654E-02 0.15628632E+03</pdfrwt>
<pdfrwt beam="2">  1       -5 0.62462786E-01 0.15628632E+03</pdfrwt>
<totfact> 0.15844063E+02</totfact>
</mgrwt>
</event>
<event>
 8    1  0.1821556E-007  0.2188104E+03  0.7546771E-02  0.1134775E+00
          5   -1    0    0  501    0  0.00000000000E+00  0.00000000000E+00  0.21638620510E+03  0.21643724208E+03  0.47000000000E+01 0. -1.
         -5   -1    0    0    0  501 -0.00000000000E+00 -0.00000000000E+00 -0.23362599544E+03  0.23367326707E+03  0.47000000000E+01 0. -1.
         25    2    1    2    0    0 -0.17092986776E+03  0.55097550178E+02 -0.60619440823E+02  0.22705222125E+03  0.12500093936E+03 0.  0.
         25    2    1    2    0    0  0.17092986776E+03 -0.55097550178E+02  0.43379650487E+02  0.22305828790E+03  0.12498178265E+03 0.  0.
          5    1    4    4  502    0  0.16542109612E+03 -0.86364937734E+02  0.38442250499E+02  0.19058577632E+03  0.47000000000E+01 0.  1.
         -5    1    4    4    0  502  0.55087716439E+01  0.31267387556E+02  0.49373999881E+01  0.32472511579E+02  0.47000000000E+01 0.  1.
          5    1    3    3  503    0 -0.17086403201E+03  0.11980807290E+02 -0.65426989939E+02  0.18341438927E+03  0.47000000000E+01 0. -1.
         -5    1    3    3    0  503 -0.65835748754E-01  0.43116742888E+02  0.48075491151E+01  0.43637831982E+02  0.47000000000E+01 0. -1.
<mgrwt>
<rscale>  0 0.21880767E+03</rscale>
<asrwt>0</asrwt>
<pdfrwt beam="1">  1        5 0.33297748E-01 0.21881041E+03</pdfrwt>
<pdfrwt beam="2">  1       -5 0.35950023E-01 0.21881041E+03</pdfrwt>
<totfact> 0.53596347E+01</totfact>
</mgrwt>
</event>
<event>
 8    1  0.1821556E-007  0.1265926E+03  0.7546771E-02  0.1232602E+00
         -5   -1    0    0    0  501 -0.00000000000E+00  0.00000000000E+00  0.11320660862E+02  0.12257543080E+02  0.47000000000E+01 0.  1.
          5   -1    0    0  501    0  0.00000000000E+00 -0.00000000000E+00 -0.14865309793E+04  0.14865384093E+04  0.47000000000E+01 0.  1.
         25    2    1    2    0    0  0.21155843405E+01 -0.19914881810E+02 -0.51766056258E+03  0.53291437138E+03  0.12499676378E+03 0.  0.
         25    2    1    2    0    0 -0.21155843405E+01  0.19914881810E+02 -0.95754975584E+03  0.96588158102E+03  0.12499846169E+03 0.  0.
          5    1    4    4  502    0  0.36995085784E+01  0.72730025266E+02 -0.58431557558E+03  0.58885492679E+03  0.47000000000E+01 0. -1.
         -5    1    4    4    0  502 -0.58150929190E+01 -0.52815143456E+02 -0.37323418026E+03  0.37702665423E+03  0.47000000000E+01 0. -1.
          5    1    3    3  503    0 -0.31586138346E+02  0.30419973700E+02 -0.82649202208E+02  0.93680518579E+02  0.47000000000E+01 0.  1.
         -5    1    3    3    0  503  0.33701722687E+02 -0.50334855510E+02 -0.43501136038E+03  0.43923385280E+03  0.47000000000E+01 0.  1.
<mgrwt>
<rscale>  0 0.12659221E+03</rscale>
<asrwt>0</asrwt>
<pdfrwt beam="2">  1        5 0.22876956E+00 0.12659263E+03</pdfrwt>
<pdfrwt beam="1">  1       -5 0.18142807E-02 0.12659263E+03</pdfrwt>
<totfact> 0.74686028E+01</totfact>
</mgrwt>
</event>
<event>
 8    1  0.1821556E-007  0.1267110E+03  0.7546771E-02  0.1232420E+00
          5   -1    0    0  501    0  0.00000000000E+00  0.00000000000E+00  0.53708245533E+02  0.53913501447E+02  0.47000000000E+01 0.  1.
         -5   -1    0    0    0  501 -0.00000000000E+00 -0.00000000000E+00 -0.33086387401E+03  0.33089725464E+03  0.47000000000E+01 0.  1.
         25    2    1    2    0    0 -0.20748511608E+02 -0.75537558987E+00 -0.19906056317E+03  0.23596678603E+03  0.12499657985E+03 0.  0.
         25    2    1    2    0    0  0.20748511608E+02  0.75537558987E+00 -0.78095065308E+02  0.14884397005E+03  0.12499846747E+03 0.  0.
          5    1    4    4  502    0 -0.36085867190E+01 -0.25450146571E+01  0.33685062254E+02  0.34296828086E+02  0.47000000000E+01 0.  1.
         -5    1    4    4    0  502  0.24357098327E+02  0.33003902470E+01 -0.11178012756E+03  0.11454714197E+03  0.47000000000E+01 0.  1.
          5    1    3    3  503    0 -0.38848079282E+02 -0.33159878861E+02 -0.19090468098E+03  0.19767508201E+03  0.47000000000E+01 0. -1.
         -5    1    3    3    0  503  0.18099567674E+02  0.32404503271E+02 -0.81558821922E+01  0.38291704018E+02  0.47000000000E+01 0. -1.
<mgrwt>
<rscale>  0 0.12671058E+03</rscale>
<asrwt>0</asrwt>
<pdfrwt beam="1">  1        5 0.82811638E-02 0.12671104E+03</pdfrwt>
<pdfrwt beam="2">  1       -5 0.50920490E-01 0.12671104E+03</pdfrwt>
<totfact> 0.28678750E+02</totfact>
</mgrwt>
</event>
<event>
 8    1  0.1821556E-007  0.1272947E+03  0.7546771E-02  0.1231528E+00
          5   -1    0    0  501    0  0.00000000000E+00  0.00000000000E+00  0.41263597024E+03  0.41266273631E+03  0.47000000000E+01 0.  1.
         -5   -1    0    0    0  501 -0.00000000000E+00 -0.00000000000E+00 -0.44453751971E+02  0.44701521947E+02  0.47000000000E+01 0.  1.
         25    2    1    2    0    0  0.20406677674E+02  0.12722571888E+02  0.10498628882E+03  0.16500322862E+03  0.12500259312E+03 0.  0.
         25    2    1    2    0    0 -0.20406677674E+02 -0.12722571888E+02  0.26319592945E+03  0.29236102963E+03  0.12499831215E+03 0.  0.
          5    1    3    3  502    0  0.30638547048E+02 -0.36345413559E+02 -0.88016327757E+00  0.47776294743E+02  0.47000000000E+01 0. -1.
         -5    1    3    3    0  502 -0.10231869374E+02  0.49067985446E+02  0.10586645210E+03  0.11722693388E+03  0.47000000000E+01 0. -1.
          5    1    4    4  503    0 -0.67343134582E+02  0.18055618095E+02  0.16444248152E+03  0.17867434860E+03  0.47000000000E+01 0.  1.
         -5    1    4    4    0  503  0.46936456909E+02 -0.30778189982E+02  0.98753447927E+02  0.11368668103E+03  0.47000000000E+01 0.  1.
<mgrwt>
<rscale>  0 0.12729366E+03</rscale>
<asrwt>0</asrwt>
<pdfrwt beam="1">  1        5 0.63503578E-01 0.12729472E+03</pdfrwt>
<pdfrwt beam="2">  1       -5 0.68601566E-02 0.12729472E+03</pdfrwt>
<totfact> 0.24552914E+02</totfact>
</mgrwt>
</event>
<event>
 8    1  0.1821556E-007  0.1450646E+03  0.7546771E-02  0.1206672E+00
          5   -1    0    0  501    0  0.00000000000E+00  0.00000000000E+00  0.14595568899E+03  0.14603134303E+03  0.47000000000E+01 0. -1.
         -5   -1    0    0    0  501 -0.00000000000E+00 -0.00000000000E+00 -0.14450982058E+03  0.14458623117E+03  0.47000000000E+01 0. -1.
         25    2    1    2    0    0 -0.23328063814E+02 -0.69820300451E+02 -0.76734048669E+01  0.14526664492E+03  0.12499777625E+03 0.  0.
         25    2    1    2    0    0  0.23328063814E+02  0.69820300451E+02  0.91192732765E+01  0.14535092929E+03  0.12499863432E+03 0.  0.
          5    1    3    3  502    0  0.25268274325E+02  0.19748125881E+02  0.21826160067E+02  0.39076149073E+02  0.47000000000E+01 0. -1.
         -5    1    3    3    0  502 -0.48596338138E+02 -0.89568426332E+02 -0.29499564934E+02  0.10619049584E+03  0.47000000000E+01 0. -1.
          5    1    4    4  503    0  0.66338216330E+02  0.44687796497E+01  0.26187941691E+01  0.66705899442E+02  0.47000000000E+01 0. -1.
         -5    1    4    4    0  503 -0.43010152517E+02  0.65351520801E+02  0.65004791074E+01  0.78645029844E+02  0.47000000000E+01 0. -1.
<mgrwt>
<rscale>  0 0.14506439E+03</rscale>
<asrwt>0</asrwt>
<pdfrwt beam="1">  1        5 0.22466419E-01 0.14506458E+03</pdfrwt>
<pdfrwt beam="2">  1       -5 0.22243977E-01 0.14506458E+03</pdfrwt>
<totfact> 0.26157600E+02</totfact>
</mgrwt>
</event>
<event>
 8    1  0.1821556E-007  0.1617541E+03  0.7546771E-02  0.1186738E+00
         -5   -1    0    0    0  501 -0.00000000000E+00  0.00000000000E+00  0.25356631298E+02  0.25788539136E+02  0.47000000000E+01 0.  1.
          5   -1    0    0  501    0  0.00000000000E+00 -0.00000000000E+00 -0.12709123425E+04  0.12709210330E+04  0.47000000000E+01 0.  1.
         25    2    1    2    0    0 -0.44156850680E+02 -0.92632573205E+02 -0.33616396072E+03  0.37304419515E+03  0.12500056786E+03 0.  0.
         25    2    1    2    0    0  0.44156850680E+02  0.92632573205E+02 -0.90939175044E+03  0.92366537702E+03  0.12503500255E+03 0.  0.
          5    1    3    3  502    0 -0.21677777777E+02 -0.11403245157E+03 -0.31348719958E+03  0.33431966793E+03  0.47000000000E+01 0.  1.
         -5    1    3    3    0  502 -0.22479072903E+02  0.21399878370E+02 -0.22676761140E+02  0.38724527223E+02  0.47000000000E+01 0.  1.
          5    1    4    4  503    0 -0.24293694659E+02  0.38214386294E+02 -0.61086429580E+03  0.61255840603E+03  0.47000000000E+01 0.  1.
         -5    1    4    4    0  503  0.68450545339E+02  0.54418186911E+02 -0.29852745464E+03  0.31110697099E+03  0.47000000000E+01 0.  1.
<mgrwt>
<rscale>  0 0.16174740E+03</rscale>
<asrwt>0</asrwt>
<pdfrwt beam="2">  1        5 0.19555882E+00 0.16175405E+03</pdfrwt>
<pdfrwt beam="1">  1       -5 0.39349134E-02 0.16175405E+03</pdfrwt>
<totfact> 0.38213758E+01</totfact>
</mgrwt>
</event>
<event>
 8    1  0.1821556E-007  0.1252621E+03  0.7546771E-02  0.1234664E+00
          5   -1    0    0  501    0  0.00000000000E+00  0.00000000000E+00  0.19998060551E+03  0.20003582824E+03  0.47000000000E+01 0. -1.
         -5   -1    0    0    0  501 -0.00000000000E+00 -0.00000000000E+00 -0.78355353205E+02  0.78496187015E+02  0.47000000000E+01 0. -1.
         25    2    1    2    0    0  0.75488375522E+01 -0.26700916364E+01  0.57768285337E+02  0.13793221703E+03  0.12499602941E+03 0.  0.
         25    2    1    2    0    0 -0.75488375522E+01  0.26700916364E+01  0.63856966966E+02  0.14059979822E+03  0.12500590663E+03 0.  0.
          5    1    4    4  502    0  0.40217905364E+02 -0.26706135317E+02  0.68722361451E+02  0.84116291757E+02  0.47000000000E+01 0. -1.
         -5    1    4    4    0  502 -0.47766742916E+02  0.29376226954E+02 -0.48653944854E+01  0.56483506463E+02  0.47000000000E+01 0. -1.
          5    1    3    3  503    0 -0.33971833898E+02 -0.47792810798E+02  0.47443637622E+02  0.75572660488E+02  0.47000000000E+01 0.  1.
         -5    1    3    3    0  503  0.41520671450E+02  0.45122719161E+02  0.10324647714E+02  0.62359556546E+02  0.47000000000E+01 0.  1.
<mgrwt>
<rscale>  0 0.12525963E+03</rscale>
<asrwt>0</asrwt>
<pdfrwt beam="1">  1        5 0.30781328E-01 0.12526209E+03</pdfrwt>
<pdfrwt beam="2">  1       -5 0.12069751E-01 0.12526209E+03</pdfrwt>
<totfact> 0.41364358E+02</totfact>
</mgrwt>
</event>
<event>
 8    1  0.1821556E-007  0.1250311E+03  0.7546771E-02  0.1235027E+00
         -5   -1    0    0    0  501 -0.00000000000E+00  0.00000000000E+00  0.81743543099E+02  0.81878549317E+02  0.47000000000E+01 0. -1.
          5   -1    0    0  501    0  0.00000000000E+00 -0.00000000000E+00 -0.21330995078E+03  0.21336172361E+03  0.47000000000E+01 0. -1.
         25    2    1    2    0    0  0.23006701845E+01  0.13047843434E+01 -0.17953907548E+02  0.12631359738E+03  0.12500314612E+03 0.  0.
         25    2    1    2    0    0 -0.23006701845E+01 -0.13047843434E+01 -0.11361250013E+03  0.16892667555E+03  0.12498570310E+03 0.  0.
          5    1    4    4  502    0 -0.29495097108E+02  0.54317782495E+02 -0.46457020351E+02  0.77464359473E+02  0.47000000000E+01 0. -1.
         -5    1    4    4    0  502  0.27194426923E+02 -0.55622566838E+02 -0.67155479778E+02  0.91462316074E+02  0.47000000000E+01 0. -1.
          5    1    3    3  503    0 -0.42827846803E+02  0.15522602448E+02  0.33131774070E+02  0.56524155027E+02  0.47000000000E+01 0. -1.
         -5    1    3    3    0  503  0.45128516987E+02 -0.14217818105E+02 -0.51085681618E+02  0.69789442350E+02  0.47000000000E+01 0. -1.
<mgrwt>
<rscale>  0 0.12502676E+03</rscale>
<asrwt>0</asrwt>
<pdfrwt beam="2">  1        5 0.32831283E-01 0.12503112E+03</pdfrwt>
<pdfrwt beam="1">  1       -5 0.12590297E-01 0.12503112E+03</pdfrwt>
<totfact> 0.33769448E+02</totfact>
</mgrwt>
</event>
<event>
 8    1  0.1821556E-007  0.1523194E+03  0.7546771E-02  0.1197654E+00
         -5   -1    0    0    0  501 -0.00000000000E+00  0.00000000000E+00  0.15717980513E+03  0.15725005927E+03  0.47000000000E+01 0.  1.
          5   -1    0    0  501    0  0.00000000000E+00 -0.00000000000E+00 -0.14816521408E+03  0.14823974050E+03  0.47000000000E+01 0.  1.
         25    2    1    2    0    0  0.83681916512E+02  0.23926874942E+02  0.15040247358E+02  0.15305123868E+03  0.12499325632E+03 0.  0.
         25    2    1    2    0    0 -0.83681916512E+02 -0.23926874942E+02 -0.60256563052E+01  0.15243856109E+03  0.12500419144E+03 0.  0.
          5    1    3    3  502    0  0.68180164681E+02 -0.23218955111E+02 -0.36895661759E+02  0.81061918241E+02  0.47000000000E+01 0.  1.
         -5    1    3    3    0  502  0.15501751832E+02  0.47145830053E+02  0.51935909118E+02  0.71989320438E+02  0.47000000000E+01 0.  1.
          5    1    4    4  503    0  0.99663929456E+01 -0.50635454138E+02 -0.16494321572E+02  0.54382265935E+02  0.47000000000E+01 0.  1.
         -5    1    4    4    0  503 -0.93648309458E+02  0.26708579196E+02  0.10468665267E+02  0.98056295155E+02  0.47000000000E+01 0.  1.
<mgrwt>
<rscale>  0 0.15231718E+03</rscale>
<asrwt>0</asrwt>
<pdfrwt beam="2">  1        5 0.22805785E-01 0.15231942E+03</pdfrwt>
<pdfrwt beam="1">  1       -5 0.24192645E-01 0.15231942E+03</pdfrwt>
<totfact> 0.22028182E+02</totfact>
</mgrwt>
</event>
<event>
 8    1  0.1821556E-007  0.1293116E+03  0.7546771E-02  0.1228485E+00
          5   -1    0    0  501    0  0.00000000000E+00  0.00000000000E+00  0.15762222705E+03  0.15769228408E+03  0.47000000000E+01 0.  1.
         -5   -1    0    0    0  501 -0.00000000000E+00 -0.00000000000E+00 -0.14337863463E+03  0.14345564774E+03  0.47000000000E+01 0.  1.
         25    2    1    2    0    0 -0.69316993323E+01 -0.32334157191E+02 -0.69786615959E+02  0.14694098737E+03  0.12501174275E+03 0.  0.
         25    2    1    2    0    0  0.69316993323E+01  0.32334157191E+02  0.84030208376E+02  0.15420694445E+03  0.12500063848E+03 0.  0.
          5    1    4    4  502    0 -0.50390338670E+02 -0.39055172773E+01  0.66273660022E+01  0.51190343587E+02  0.47000000000E+01 0. -1.
         -5    1    4    4    0  502  0.57322038002E+02  0.36239674468E+02  0.77402842374E+02  0.10301660087E+03  0.47000000000E+01 0. -1.
          5    1    3    3  503    0 -0.59931168092E+02  0.82259035559E+01 -0.45206292281E+02  0.75664451759E+02  0.47000000000E+01 0. -1.
         -5    1    3    3    0  503  0.52999468760E+02 -0.40560060747E+02 -0.24580323679E+02  0.71276535612E+02  0.47000000000E+01 0. -1.
<mgrwt>
<rscale>  0 0.12930889E+03</rscale>
<asrwt>0</asrwt>
<pdfrwt beam="1">  1        5 0.24260887E-01 0.12931157E+03</pdfrwt>
<pdfrwt beam="2">  1       -5 0.22069564E-01 0.12931157E+03</pdfrwt>
<totfact> 0.22056527E+02</totfact>
</mgrwt>
</event>
<event>
 8    1  0.1821556E-007  0.1279018E+03  0.7546771E-02  0.1230609E+00
         -5   -1    0    0    0  501 -0.00000000000E+00  0.00000000000E+00  0.13087620460E+03  0.13096057014E+03  0.47000000000E+01 0. -1.
          5   -1    0    0  501    0  0.00000000000E+00 -0.00000000000E+00 -0.12611646842E+03  0.12620401581E+03  0.47000000000E+01 0. -1.
         25    2    1    2    0    0 -0.27065993703E+02 -0.14814533988E+01  0.15464194496E+02  0.12883329472E+03  0.12499645514E+03 0.  0.
         25    2    1    2    0    0  0.27065993703E+02  0.14814533988E+01 -0.10704458314E+02  0.12833129123E+03  0.12497828676E+03 0.  0.
          5    1    3    3  502    0 -0.61661442571E+02 -0.41673069041E+02  0.66064653228E+01  0.74863299201E+02  0.47000000000E+01 0. -1.
         -5    1    3    3    0  502  0.34595448869E+02  0.40191615642E+02  0.88577291733E+01  0.53969995520E+02  0.47000000000E+01 0. -1.
          5    1    4    4  503    0 -0.30966016122E+02 -0.67713154412E+01 -0.48716821846E+02  0.58310921773E+02  0.47000000000E+01 0. -1.
         -5    1    4    4    0  503  0.58032009824E+02  0.82527688401E+01  0.38012363532E+02  0.70020369458E+02  0.47000000000E+01 0. -1.
<mgrwt>
<rscale>  0 0.12789738E+03</rscale>
<asrwt>0</asrwt>
<pdfrwt beam="2">  1        5 0.19415758E-01 0.12790182E+03</pdfrwt>
<pdfrwt beam="1">  1       -5 0.20148025E-01 0.12790182E+03</pdfrwt>
<totfact> 0.39632652E+02</totfact>
</mgrwt>
</event>
<event>
 8    1  0.1821556E-007  0.1321281E+03  0.7546771E-02  0.1224333E+00
          5   -1    0    0  501    0  0.00000000000E+00  0.00000000000E+00  0.38049764337E+02  0.38338943206E+02  0.47000000000E+01 0. -1.
         -5   -1    0    0    0  501 -0.00000000000E+00 -0.00000000000E+00 -0.49430920009E+03  0.49433154390E+03  0.47000000000E+01 0. -1.
         25    2    1    2    0    0  0.71267039370E+01 -0.42210481889E+02 -0.30150673584E+03  0.32918711140E+03  0.12500131145E+03 0.  0.
         25    2    1    2    0    0 -0.71267039370E+01  0.42210481889E+02 -0.15475269992E+03  0.20348337571E+03  0.12499828546E+03 0.  0.
          5    1    3    3  502    0  0.60587335553E+02 -0.43133204492E+02 -0.13447315192E+03  0.15374139698E+03  0.47000000000E+01 0. -1.
         -5    1    3    3    0  502 -0.53460631616E+02  0.92272260364E+00 -0.16703358392E+03  0.17544571442E+03  0.47000000000E+01 0. -1.
          5    1    4    4  503    0 -0.38559673998E+02  0.69301379877E+02 -0.58806235818E+02  0.98842263647E+02  0.47000000000E+01 0.  1.
         -5    1    4    4    0  503  0.31432970061E+02 -0.27090897988E+02 -0.95946464097E+02  0.10464111206E+03  0.47000000000E+01 0.  1.
<mgrwt>
<rscale>  0 0.13212741E+03</rscale>
<asrwt>0</asrwt>
<pdfrwt beam="1">  1        5 0.58777735E-02 0.13212813E+03</pdfrwt>
<pdfrwt beam="2">  1       -5 0.76071528E-01 0.13212813E+03</pdfrwt>
<totfact> 0.21515740E+02</totfact>
</mgrwt>
</event>
<event>
 8    1  0.1821556E-007  0.1356152E+03  0.7546771E-02  0.1219355E+00
          5   -1    0    0  501    0  0.00000000000E+00  0.00000000000E+00  0.27394101003E+02  0.27794365791E+02  0.47000000000E+01 0. -1.
         -5   -1    0    0    0  501 -0.00000000000E+00 -0.00000000000E+00 -0.69316012294E+03  0.69317605703E+03  0.47000000000E+01 0. -1.
         25    2    1    2    0    0  0.14868061756E+02  0.50447004854E+02 -0.40413180878E+03  0.42627924674E+03  0.12500207106E+03 0.  0.
         25    2    1    2    0    0 -0.14868061756E+02 -0.50447004854E+02 -0.26163421316E+03  0.29469117608E+03  0.12499787281E+03 0.  0.
          5    1    4    4  502    0  0.18239456485E+02 -0.79388133601E+02 -0.11140653139E+03  0.13808931445E+03  0.47000000000E+01 0. -1.
         -5    1    4    4    0  502 -0.33107518240E+02  0.28941128748E+02 -0.15022768176E+03  0.15660186163E+03  0.47000000000E+01 0. -1.
          5    1    3    3  503    0 -0.23389004386E+02  0.36118933724E+02 -0.37087508199E+03  0.37339260751E+03  0.47000000000E+01 0. -1.
         -5    1    3    3    0  503  0.38257066141E+02  0.14328071130E+02 -0.33256726791E+02  0.52886639229E+02  0.47000000000E+01 0. -1.
<mgrwt>
<rscale>  0 0.13561421E+03</rscale>
<asrwt>0</asrwt>
<pdfrwt beam="1">  1        5 0.42464929E-02 0.13561518E+03</pdfrwt>
<pdfrwt beam="2">  1       -5 0.10667202E+00 0.13561518E+03</pdfrwt>
<totfact> 0.16681982E+02</totfact>
</mgrwt>
</event>
<event>
 8    1  0.1821556E-007  0.1428894E+03  0.7546771E-02  0.1209496E+00
         -5   -1    0    0    0  501 -0.00000000000E+00  0.00000000000E+00  0.25466679359E+02  0.25896751873E+02  0.47000000000E+01 0.  1.
          5   -1    0    0  501    0  0.00000000000E+00 -0.00000000000E+00 -0.10085113063E+04  0.10085222581E+04  0.47000000000E+01 0.  1.
         25    2    1    2    0    0 -0.66773763160E+02 -0.18215125661E+02 -0.25334951627E+03  0.29086656293E+03  0.12500741493E+03 0.  0.
         25    2    1    2    0    0  0.66773763160E+02  0.18215125661E+02 -0.72969511070E+03  0.74355244700E+03  0.12499904242E+03 0.  0.
          5    1    3    3  502    0 -0.32071813776E+02 -0.25257770404E+02 -0.66900837297E+01  0.41634161754E+02  0.47000000000E+01 0. -1.
         -5    1    3    3    0  502 -0.34701949384E+02  0.70426447432E+01 -0.24665943254E+03  0.24923240118E+03  0.47000000000E+01 0. -1.
          5    1    4    4  503    0  0.86236011987E+02 -0.17864412087E+02 -0.32480592274E+03  0.33656613679E+03  0.47000000000E+01 0. -1.
         -5    1    4    4    0  503 -0.19462248827E+02  0.36079537748E+02 -0.40488918796E+03  0.40698631021E+03  0.47000000000E+01 0. -1.
<mgrwt>
<rscale>  0 0.14288757E+03</rscale>
<asrwt>0</asrwt>
<pdfrwt beam="2">  1        5 0.15518948E+00 0.14288940E+03</pdfrwt>
<pdfrwt beam="1">  1       -5 0.39518764E-02 0.14288940E+03</pdfrwt>
<totfact> 0.71915249E+01</totfact>
</mgrwt>
</event>
<event>
 8    1  0.1821556E-007  0.1303054E+03  0.7546771E-02  0.1227003E+00
          5   -1    0    0  501    0  0.00000000000E+00  0.00000000000E+00  0.14875445476E+03  0.14882868612E+03  0.47000000000E+01 0.  1.
         -5   -1    0    0    0  501 -0.00000000000E+00 -0.00000000000E+00 -0.11496695875E+03  0.11506298973E+03  0.47000000000E+01 0.  1.
         25    2    1    2    0    0  0.70628416853E+00 -0.36797400716E+02  0.47574128915E+01  0.13039225109E+03  0.12499983452E+03 0.  0.
         25    2    1    2    0    0 -0.70628416853E+00  0.36797400716E+02  0.29030083121E+02  0.13349942476E+03  0.12499921259E+03 0.  0.
          5    1    3    3  502    0  0.41274250170E+02  0.16684153287E+02  0.34797676931E+02  0.56700026612E+02  0.47000000000E+01 0.  1.
         -5    1    3    3    0  502 -0.40567966002E+02 -0.53481554003E+02 -0.30040264040E+02  0.73692224473E+02  0.47000000000E+01 0.  1.
          5    1    4    4  503    0  0.26844715379E+02  0.42361651049E+02 -0.36390781590E+02  0.62141187694E+02  0.47000000000E+01 0. -1.
         -5    1    4    4    0  503 -0.27550999547E+02 -0.55642503324E+01  0.65420864711E+02  0.71358237067E+02  0.47000000000E+01 0. -1.
<mgrwt>
<rscale>  0 0.13030528E+03</rscale>
<asrwt>0</asrwt>
<pdfrwt beam="1">  1        5 0.22898398E-01 0.13030543E+03</pdfrwt>
<pdfrwt beam="2">  1       -5 0.17700322E-01 0.13030543E+03</pdfrwt>
<totfact> 0.37225799E+02</totfact>
</mgrwt>
</event>
<event>
 8    1  0.1821556E-007  0.1517205E+03  0.7546771E-02  0.1198384E+00
         -5   -1    0    0    0  501 -0.00000000000E+00  0.00000000000E+00  0.33770869487E+03  0.33774139899E+03  0.47000000000E+01 0.  1.
          5   -1    0    0  501    0  0.00000000000E+00 -0.00000000000E+00 -0.71874704178E+02  0.72028210450E+02  0.47000000000E+01 0.  1.
         25    2    1    2    0    0 -0.21034186023E+02  0.83316234617E+02  0.18022036308E+03  0.23556052221E+03  0.12500139368E+03 0.  0.
         25    2    1    2    0    0  0.21034186023E+02 -0.83316234617E+02  0.85613627616E+02  0.17420908723E+03  0.12504031713E+03 0.  0.
          5    1    4    4  502    0  0.69863933041E+02 -0.43951945783E+02  0.23819640237E+02  0.86036085099E+02  0.47000000000E+01 0.  1.
         -5    1    4    4    0  502 -0.48829747018E+02 -0.39364288834E+02  0.61793987378E+02  0.88173002135E+02  0.47000000000E+01 0.  1.
          5    1    3    3  503    0  0.40699476311E+02  0.70039490182E+02  0.64522153966E+02  0.10366858690E+03  0.47000000000E+01 0.  1.
         -5    1    3    3    0  503 -0.61733662334E+02  0.13276744435E+02  0.11569820911E+03  0.13189193531E+03  0.47000000000E+01 0.  1.
<mgrwt>
<rscale>  0 0.15171249E+03</rscale>
<asrwt>0</asrwt>
<pdfrwt beam="2">  1        5 0.11071971E-01 0.15172051E+03</pdfrwt>
<pdfrwt beam="1">  1       -5 0.51969508E-01 0.15172051E+03</pdfrwt>
<totfact> 0.17616622E+02</totfact>
</mgrwt>
</event>
<event>
 8    1  0.1821556E-007  0.2078914E+03  0.7546771E-02  0.1143248E+00
          5   -1    0    0  501    0  0.00000000000E+00  0.00000000000E+00  0.39009456484E+03  0.39012287746E+03  0.47000000000E+01 0. -1.
         -5   -1    0    0    0  501 -0.00000000000E+00 -0.00000000000E+00 -0.11342286776E+03  0.11352020494E+03  0.47000000000E+01 0. -1.
         25    2    1    2    0    0  0.13629640597E+03 -0.94948660844E+02  0.99381514043E+02  0.23042462009E+03  0.12500744670E+03 0.  0.
         25    2    1    2    0    0 -0.13629640597E+03  0.94948660844E+02  0.17729018304E+03  0.27321846232E+03  0.12499824268E+03 0.  0.
          5    1    3    3  502    0  0.40388443276E+02 -0.45995309430E+01 -0.25998478443E+02  0.48480851029E+02  0.47000000000E+01 0.  1.
         -5    1    3    3    0  502  0.95907962698E+02 -0.90349129901E+02  0.12537999249E+03  0.18194376906E+03  0.47000000000E+01 0.  1.
          5    1    4    4  503    0 -0.15140498270E+03  0.60543914212E+02  0.16812012037E+03  0.23425520102E+03  0.47000000000E+01 0.  1.
         -5    1    4    4    0  503  0.15108576723E+02  0.34404746632E+02  0.91700626675E+01  0.38963261295E+02  0.47000000000E+01 0.  1.
<mgrwt>
<rscale>  0 0.20788998E+03</rscale>
<asrwt>0</asrwt>
<pdfrwt beam="1">  1        5 0.60024214E-01 0.20789137E+03</pdfrwt>
<pdfrwt beam="2">  1       -5 0.17459337E-01 0.20789137E+03</pdfrwt>
<totfact> 0.62037849E+01</totfact>
</mgrwt>
</event>
<event>
 8    1  0.1821556E-007  0.1667995E+03  0.7546771E-02  0.1181235E+00
         -5   -1    0    0    0  501 -0.00000000000E+00  0.00000000000E+00  0.12446392987E+03  0.12455263882E+03  0.47000000000E+01 0.  1.
          5   -1    0    0  501    0  0.00000000000E+00 -0.00000000000E+00 -0.22330048806E+03  0.22334994508E+03  0.47000000000E+01 0.  1.
         25    2    1    2    0    0 -0.68581348648E+02 -0.86514251703E+02 -0.49473784446E+02  0.17398199106E+03  0.12503583781E+03 0.  0.
         25    2    1    2    0    0  0.68581348648E+02  0.86514251703E+02 -0.49362773747E+02  0.17392059284E+03  0.12499428808E+03 0.  0.
          5    1    3    3  502    0  0.12842934167E+02 -0.53168696506E+02 -0.64388208548E+02  0.84615498853E+02  0.47000000000E+01 0.  1.
         -5    1    3    3    0  502 -0.81424282816E+02 -0.33345555197E+02  0.14914424101E+02  0.89366492209E+02  0.47000000000E+01 0.  1.
          5    1    4    4  503    0  0.97093484591E+02  0.36702006332E+02 -0.10472746953E+02  0.10443155868E+03  0.47000000000E+01 0.  1.
         -5    1    4    4    0  503 -0.28512135943E+02  0.49812245370E+02 -0.38890026794E+02  0.69489034163E+02  0.47000000000E+01 0.  1.
<mgrwt>
<rscale>  0 0.16679173E+03</rscale>
<asrwt>0</asrwt>
<pdfrwt beam="2">  1        5 0.34364549E-01 0.16679951E+03</pdfrwt>
<pdfrwt beam="1">  1       -5 0.19158925E-01 0.16679951E+03</pdfrwt>
<totfact> 0.15827393E+02</totfact>
</mgrwt>
</event>
<event>
 8    1  0.1821556E-007  0.1294172E+03  0.7546771E-02  0.1228326E+00
          5   -1    0    0  501    0  0.00000000000E+00  0.00000000000E+00  0.32588152392E+03  0.32591541484E+03  0.47000000000E+01 0. -1.
         -5   -1    0    0    0  501 -0.00000000000E+00 -0.00000000000E+00 -0.57283332310E+02  0.57475822400E+02  0.47000000000E+01 0. -1.
         25    2    1    2    0    0 -0.31904602227E+02  0.10272073530E+02  0.72209270245E+02  0.14819917221E+03  0.12500158717E+03 0.  0.
         25    2    1    2    0    0  0.31904602227E+02 -0.10272073530E+02  0.19638892136E+03  0.23519206503E+03  0.12499311935E+03 0.  0.
          5    1    3    3  502    0 -0.61992582344E+02 -0.36607593739E+02  0.29931675856E+02  0.78110123573E+02  0.47000000000E+01 0. -1.
         -5    1    3    3    0  502  0.30087980117E+02  0.46879667269E+02  0.42277594389E+02  0.70089048632E+02  0.47000000000E+01 0. -1.
          5    1    4    4  503    0 -0.27800066658E+02 -0.10606826291E+02  0.16470525289E+03  0.16743732798E+03  0.47000000000E+01 0.  1.
         -5    1    4    4    0  503  0.59704668885E+02  0.33475276054E+00  0.31683668470E+02  0.67754737058E+02  0.47000000000E+01 0.  1.
<mgrwt>
<rscale>  0 0.12941517E+03</rscale>
<asrwt>0</asrwt>
<pdfrwt beam="1">  1        5 0.50153033E-01 0.12941722E+03</pdfrwt>
<pdfrwt beam="2">  1       -5 0.88302343E-02 0.12941722E+03</pdfrwt>
<totfact> 0.26723416E+02</totfact>
</mgrwt>
</event>
<event>
 8    1  0.1821556E-007  0.1257787E+03  0.7546771E-02  0.1233871E+00
         -5   -1    0    0    0  501 -0.00000000000E+00  0.00000000000E+00  0.77370212390E+02  0.77512836132E+02  0.47000000000E+01 0. -1.
          5   -1    0    0  501    0  0.00000000000E+00 -0.00000000000E+00 -0.22744774484E+03  0.22749630026E+03  0.47000000000E+01 0. -1.
         25    2    1    2    0    0  0.41150121931E+00 -0.13954307356E+02 -0.26145032358E+02  0.12843179873E+03  0.12496508384E+03 0.  0.
         25    2    1    2    0    0 -0.41150121931E+00  0.13954307356E+02 -0.12393250009E+03  0.17657733767E+03  0.12500159828E+03 0.  0.
          5    1    3    3  502    0 -0.44127805962E+02  0.26913033924E+01  0.30808691561E+02  0.54090404405E+02  0.47000000000E+01 0. -1.
         -5    1    3    3    0  502  0.44539307181E+02 -0.16645610748E+02 -0.56953723919E+02  0.74341394321E+02  0.47000000000E+01 0. -1.
          5    1    4    4  503    0  0.25984143558E+02 -0.25875498189E+02 -0.12312710667E+03  0.12855773614E+03  0.47000000000E+01 0. -1.
         -5    1    4    4    0  503 -0.26395644778E+02  0.39829805545E+02 -0.80539342204E+00  0.48019601534E+02  0.47000000000E+01 0. -1.
<mgrwt>
<rscale>  0 0.12576967E+03</rscale>
<asrwt>0</asrwt>
<pdfrwt beam="2">  1        5 0.35006666E-01 0.12577874E+03</pdfrwt>
<pdfrwt beam="1">  1       -5 0.11917816E-01 0.12577874E+03</pdfrwt>
<totfact> 0.32826778E+02</totfact>
</mgrwt>
</event>
<event>
 8    1  0.1821556E-007  0.1420987E+03  0.7546771E-02  0.1210533E+00
         -5   -1    0    0    0  501 -0.00000000000E+00  0.00000000000E+00  0.14428442780E+03  0.14436095769E+03  0.47000000000E+01 0.  1.
          5   -1    0    0  501    0  0.00000000000E+00 -0.00000000000E+00 -0.14233440597E+03  0.14241198378E+03  0.47000000000E+01 0.  1.
         25    2    1    2    0    0 -0.34435867026E+02 -0.58143547210E+02  0.20127871018E+02  0.14351714383E+03  0.12500215343E+03 0.  0.
         25    2    1    2    0    0  0.34435867026E+02  0.58143547210E+02 -0.18177849189E+02  0.14325579764E+03  0.12500115334E+03 0.  0.
          5    1    3    3  502    0 -0.72144747730E+02 -0.63772120733E+02  0.34658897328E+02  0.10244548390E+03  0.47000000000E+01 0.  1.
         -5    1    3    3    0  502  0.37708880703E+02  0.56285735227E+01 -0.14531026310E+02  0.41071659930E+02  0.47000000000E+01 0.  1.
          5    1    4    4  503    0  0.24925457978E+02  0.91283481357E+02 -0.39278534617E+02  0.10256142406E+03  0.47000000000E+01 0. -1.
         -5    1    4    4    0  503  0.95104090487E+01 -0.33139934147E+02  0.21100685429E+02  0.40694373580E+02  0.47000000000E+01 0. -1.
<mgrwt>
<rscale>  0 0.14209848E+03</rscale>
<asrwt>0</asrwt>
<pdfrwt beam="2">  1        5 0.21909455E-01 0.14209870E+03</pdfrwt>
<pdfrwt beam="1">  1       -5 0.22209459E-01 0.14209870E+03</pdfrwt>
<totfact> 0.27318091E+02</totfact>
</mgrwt>
</event>
<event>
 8    1  0.1821556E-007  0.1460345E+03  0.7546771E-02  0.1205433E+00
          5   -1    0    0  501    0  0.00000000000E+00  0.00000000000E+00  0.97710730660E+02  0.97823703089E+02  0.47000000000E+01 0.  1.
         -5   -1    0    0    0  501 -0.00000000000E+00 -0.00000000000E+00 -0.25402209811E+03  0.25406557486E+03  0.47000000000E+01 0.  1.
         25    2    1    2    0    0  0.16681435648E+02 -0.73635129141E+02 -0.14440254484E+03  0.20537324775E+03  0.12500269355E+03 0.  0.
         25    2    1    2    0    0 -0.16681435648E+02  0.73635129141E+02 -0.11908822615E+02  0.14651603020E+03  0.12499889804E+03 0.  0.
          5    1    4    4  502    0  0.34806453831E+02 -0.18797886874E+02  0.81202720038E+00  0.39844688070E+02  0.47000000000E+01 0. -1.
         -5    1    4    4    0  502 -0.51487889479E+02  0.92433016015E+02 -0.12720849816E+02  0.10667134213E+03  0.47000000000E+01 0. -1.
          5    1    3    3  503    0 -0.50618539549E+02 -0.17859974579E+02 -0.81019087055E+02  0.97300553469E+02  0.47000000000E+01 0.  1.
         -5    1    3    3    0  503  0.67299975197E+02 -0.55775154562E+02 -0.63383457783E+02  0.10807269428E+03  0.47000000000E+01 0.  1.
<mgrwt>
<rscale>  0 0.14603369E+03</rscale>
<asrwt>0</asrwt>
<pdfrwt beam="1">  1        5 0.15044455E-01 0.14603450E+03</pdfrwt>
<pdfrwt beam="2">  1       -5 0.39092357E-01 0.14603450E+03</pdfrwt>
<totfact> 0.18224792E+02</totfact>
</mgrwt>
</event>
<event>
 8    1  0.1821556E-007  0.1313158E+03  0.7546771E-02  0.1225518E+00
         -5   -1    0    0    0  501 -0.00000000000E+00  0.00000000000E+00  0.20531681064E+03  0.20537059851E+03  0.47000000000E+01 0.  1.
          5   -1    0    0  501    0  0.00000000000E+00 -0.00000000000E+00 -0.89510015105E+02  0.89633324183E+02  0.47000000000E+01 0.  1.
         25    2    1    2    0    0  0.20887172910E+02 -0.34371390809E+02  0.94950799020E+02  0.16204781713E+03  0.12500469713E+03 0.  0.
         25    2    1    2    0    0 -0.20887172910E+02  0.34371390809E+02  0.20855996515E+02  0.13295610556E+03  0.12499874766E+03 0.  0.
          5    1    4    4  502    0 -0.19884663306E+02  0.77520659031E+02 -0.83935469285E+01  0.80606414394E+02  0.47000000000E+01 0.  1.
         -5    1    4    4    0  502 -0.10025096048E+01 -0.43149268223E+02  0.29249543444E+02  0.52349691167E+02  0.47000000000E+01 0.  1.
          5    1    3    3  503    0 -0.36127026897E+02 -0.31842595260E+01 -0.10538519460E+02  0.38058533518E+02  0.47000000000E+01 0.  1.
         -5    1    3    3    0  503  0.57014199807E+02 -0.31187131283E+02  0.10548931848E+03  0.12398928361E+03  0.47000000000E+01 0.  1.
<mgrwt>
<rscale>  0 0.13131439E+03</rscale>
<asrwt>0</asrwt>
<pdfrwt beam="2">  1        5 0.13784395E-01 0.13131581E+03</pdfrwt>
<pdfrwt beam="1">  1       -5 0.31600824E-01 0.13131581E+03</pdfrwt>
<totfact> 0.31542526E+02</totfact>
</mgrwt>
</event>
<event>
 8    1  0.1821556E-007  0.1376407E+03  0.7546771E-02  0.1216542E+00
         -5   -1    0    0    0  501 -0.00000000000E+00  0.00000000000E+00  0.95479039982E+01  0.10642014413E+02  0.47000000000E+01 0.  1.
          5   -1    0    0  501    0  0.00000000000E+00 -0.00000000000E+00 -0.18777774052E+04  0.18777832872E+04  0.47000000000E+01 0.  1.
         25    2    1    2    0    0 -0.55831060236E+02  0.14229849918E+02 -0.90115876756E+03  0.91160961369E+03  0.12500147002E+03 0.  0.
         25    2    1    2    0    0  0.55831060236E+02 -0.14229849918E+02 -0.96707073367E+03  0.97681568789E+03  0.12499395298E+03 0.  0.
          5    1    4    4  502    0  0.11632888104E+02 -0.69225893974E+01 -0.74726037168E+01  0.16160944772E+02  0.47000000000E+01 0. -1.
         -5    1    4    4    0  502  0.44198172132E+02 -0.73072605208E+01 -0.95959812995E+03  0.96065474312E+03  0.47000000000E+01 0. -1.
          5    1    3    3  503    0 -0.50027655294E+01  0.48242059544E+02 -0.14503289546E+03  0.15299985208E+03  0.47000000000E+01 0. -1.
         -5    1    3    3    0  503 -0.50828294707E+02 -0.34012209626E+02 -0.75612587210E+03  0.75860976161E+03  0.47000000000E+01 0. -1.
<mgrwt>
<rscale>  0 0.13763900E+03</rscale>
<asrwt>0</asrwt>
<pdfrwt beam="2">  1        5 0.28897317E+00 0.13764070E+03</pdfrwt>
<pdfrwt beam="1">  1       -5 0.15535246E-02 0.13764070E+03</pdfrwt>
<totfact> 0.40651684E+01</totfact>
</mgrwt>
</event>
<event>
 8    1  0.1821556E-007  0.1343727E+03  0.7546771E-02  0.1221121E+00
          5   -1    0    0  501    0  0.00000000000E+00  0.00000000000E+00  0.48279161512E+02  0.48507395687E+02  0.47000000000E+01 0.  1.
         -5   -1    0    0    0  501 -0.00000000000E+00 -0.00000000000E+00 -0.41284462697E+03  0.41287137951E+03  0.47000000000E+01 0.  1.
         25    2    1    2    0    0  0.48684261982E+02 -0.77962488317E+01 -0.25411621223E+03  0.28743895229E+03  0.12496064627E+03 0.  0.
         25    2    1    2    0    0 -0.48684261982E+02  0.77962488317E+01 -0.11044925323E+03  0.17393982290E+03  0.12500034237E+03 0.  0.
          5    1    4    4  502    0  0.15929522894E+02 -0.35827344336E+02 -0.81647010909E+02  0.90695494332E+02  0.47000000000E+01 0.  1.
         -5    1    4    4    0  502 -0.64613784877E+02  0.43623593167E+02 -0.28802242319E+02  0.83244328572E+02  0.47000000000E+01 0.  1.
          5    1    3    3  503    0  0.68195906511E+02  0.40968240463E+02 -0.12854745534E+03  0.15124687325E+03  0.47000000000E+01 0.  1.
         -5    1    3    3    0  503 -0.19511644529E+02 -0.48764489294E+02 -0.12556875688E+03  0.13619207904E+03  0.47000000000E+01 0.  1.
<mgrwt>
<rscale>  0 0.13436347E+03</rscale>
<asrwt>0</asrwt>
<pdfrwt beam="1">  1        5 0.74471779E-02 0.13437271E+03</pdfrwt>
<pdfrwt beam="2">  1       -5 0.63534170E-01 0.13437271E+03</pdfrwt>
<totfact> 0.21743774E+02</totfact>
</mgrwt>
</event>
<event>
 8    1  0.1821556E-007  0.1665792E+03  0.7546771E-02  0.1181464E+00
          5   -1    0    0  501    0  0.00000000000E+00  0.00000000000E+00  0.23478886116E+03  0.23483589871E+03  0.47000000000E+01 0. -1.
         -5   -1    0    0    0  501 -0.00000000000E+00 -0.00000000000E+00 -0.16111991306E+03  0.16118844991E+03  0.47000000000E+01 0. -1.
         25    2    1    2    0    0  0.96402836046E+02 -0.53196891017E+02 -0.65469516518E+02  0.17898295597E+03  0.12500089969E+03 0.  0.
         25    2    1    2    0    0 -0.96402836046E+02  0.53196891017E+02  0.13913846461E+03  0.21704139266E+03  0.12499615106E+03 0.  0.
          5    1    4    4  502    0 -0.37004651414E+02  0.88687976560E+02  0.68947079429E+02  0.11836676550E+03  0.47000000000E+01 0.  1.
         -5    1    4    4    0  502 -0.59398184632E+02 -0.35491085544E+02  0.70191385183E+02  0.98674627157E+02  0.47000000000E+01 0.  1.
          5    1    3    3  503    0  0.74050554714E+02 -0.63276515737E+02 -0.97816619702E+02  0.13812162462E+03  0.47000000000E+01 0.  1.
         -5    1    3    3    0  503  0.22352281332E+02  0.10079624721E+02  0.32347103184E+02  0.40861331349E+02  0.47000000000E+01 0.  1.
<mgrwt>
<rscale>  0 0.16657834E+03</rscale>
<asrwt>0</asrwt>
<pdfrwt beam="1">  1        5 0.36130254E-01 0.16657923E+03</pdfrwt>
<pdfrwt beam="2">  1       -5 0.24796569E-01 0.16657923E+03</pdfrwt>
<totfact> 0.87803513E+01</totfact>
</mgrwt>
</event>
<event>
 8    1  0.1821556E-007  0.1964072E+03  0.7546771E-02  0.1152810E+00
          5   -1    0    0  501    0  0.00000000000E+00  0.00000000000E+00  0.86953817412E+02  0.87080746221E+02  0.47000000000E+01 0.  1.
         -5   -1    0    0    0  501 -0.00000000000E+00 -0.00000000000E+00 -0.44399456623E+03  0.44401944196E+03  0.47000000000E+01 0.  1.
         25    2    1    2    0    0 -0.11418537141E+03 -0.99540528749E+02 -0.19020801382E+03  0.27341336417E+03  0.12501665200E+03 0.  0.
         25    2    1    2    0    0  0.11418537141E+03  0.99540528749E+02 -0.16683273500E+03  0.25768682402E+03  0.12499088727E+03 0.  0.
          5    1    3    3  502    0 -0.97943087609E+02 -0.10609199755E+02 -0.13566332622E+03  0.16772606121E+03  0.47000000000E+01 0.  1.
         -5    1    3    3    0  502 -0.16242283796E+02 -0.88931328995E+02 -0.54544687603E+02  0.10568730295E+03  0.47000000000E+01 0.  1.
          5    1    4    4  503    0  0.10624574110E+03  0.12724110010E+03 -0.15192722002E+03  0.22490536952E+03  0.47000000000E+01 0.  1.
         -5    1    4    4    0  503  0.79396303089E+01 -0.27700571347E+02 -0.14905514975E+02  0.32781454499E+02  0.47000000000E+01 0.  1.
<mgrwt>
<rscale>  0 0.19640308E+03</rscale>
<asrwt>0</asrwt>
<pdfrwt beam="1">  1        5 0.13389188E-01 0.19640718E+03</pdfrwt>
<pdfrwt beam="2">  1       -5 0.68318532E-01 0.19640718E+03</pdfrwt>
<totfact> 0.74345112E+01</totfact>
</mgrwt>
</event>
<event>
 8    1  0.1821556E-007  0.1730607E+03  0.7546771E-02  0.1174708E+00
          5   -1    0    0  501    0  0.00000000000E+00  0.00000000000E+00  0.52925620843E+02  0.53133900117E+02  0.47000000000E+01 0.  1.
         -5   -1    0    0    0  501 -0.00000000000E+00 -0.00000000000E+00 -0.56805537888E+03  0.56807482207E+03  0.47000000000E+01 0.  1.
         25    2    1    2    0    0  0.11043684554E+03  0.46135939105E+02 -0.28261279682E+03  0.33139101999E+03  0.12500077390E+03 0.  0.
         25    2    1    2    0    0 -0.11043684554E+03 -0.46135939105E+02 -0.23251696121E+03  0.28981770219E+03  0.12492134135E+03 0.  0.
          5    1    4    4  502    0  0.14494298873E+02 -0.17497301914E+02 -0.11009174367E+03  0.11251009865E+03  0.47000000000E+01 0.  1.
         -5    1    4    4    0  502 -0.12493114441E+03 -0.28638637192E+02 -0.12242521754E+03  0.17730760354E+03  0.47000000000E+01 0.  1.
          5    1    3    3  503    0  0.22064312012E+02  0.59310026397E+02 -0.45851328726E+02  0.78287594431E+02  0.47000000000E+01 0. -1.
         -5    1    3    3    0  503  0.88372533524E+02 -0.13174087292E+02 -0.23676146810E+03  0.25310342556E+03  0.47000000000E+01 0. -1.
<mgrwt>
<rscale>  0 0.17304638E+03</rscale>
<asrwt>0</asrwt>
<pdfrwt beam="1">  1        5 0.81599207E-02 0.17306073E+03</pdfrwt>
<pdfrwt beam="2">  1       -5 0.87410648E-01 0.17306073E+03</pdfrwt>
<totfact> 0.97070983E+01</totfact>
</mgrwt>
</event>
<event>
 8    1  0.1821556E-007  0.1289180E+03  0.7546771E-02  0.1229083E+00
         -5   -1    0    0    0  501 -0.00000000000E+00  0.00000000000E+00  0.94823493607E+02  0.94939901727E+02  0.47000000000E+01 0. -1.
          5   -1    0    0  501    0  0.00000000000E+00 -0.00000000000E+00 -0.18247549218E+03  0.18253601082E+03  0.47000000000E+01 0. -1.
         25    2    1    2    0    0  0.22649298918E+02 -0.21945246493E+02 -0.15705585983E+02  0.12987113776E+03  0.12500104962E+03 0.  0.
         25    2    1    2    0    0 -0.22649298918E+02  0.21945246493E+02 -0.71946412590E+02  0.14760477479E+03  0.12496518984E+03 0.  0.
          5    1    4    4  502    0 -0.13814215988E+01 -0.37666796387E+02  0.14245213913E+02  0.40567375994E+02  0.47000000000E+01 0.  1.
         -5    1    4    4    0  502 -0.21267877319E+02  0.59612042880E+02 -0.86191626503E+02  0.10703739880E+03  0.47000000000E+01 0.  1.
          5    1    3    3  503    0 -0.11365336074E+02  0.42105054030E+02 -0.33329740390E+02  0.55090543956E+02  0.47000000000E+01 0.  1.
         -5    1    3    3    0  503  0.34014634991E+02 -0.64050300523E+02  0.17624154407E+02  0.74780593801E+02  0.47000000000E+01 0.  1.
<mgrwt>
<rscale>  0 0.12890929E+03</rscale>
<asrwt>0</asrwt>
<pdfrwt beam="2">  1        5 0.28086762E-01 0.12891799E+03</pdfrwt>
<pdfrwt beam="1">  1       -5 0.14601840E-01 0.12891799E+03</pdfrwt>
<totfact> 0.35582169E+02</totfact>
</mgrwt>
</event>
<event>
 8    1  0.1821556E-007  0.1313011E+03  0.7546771E-02  0.1225539E+00
         -5   -1    0    0    0  501 -0.00000000000E+00  0.00000000000E+00  0.65998104063E+01  0.81023143236E+01  0.47000000000E+01 0. -1.
          5   -1    0    0  501    0  0.00000000000E+00 -0.00000000000E+00 -0.26277309346E+04  0.26277351378E+04  0.47000000000E+01 0. -1.
         25    2    1    2    0    0  0.79658844488E+01 -0.39382029788E+02 -0.87736468774E+03  0.88713468504E+03  0.12499901814E+03 0.  0.
         25    2    1    2    0    0 -0.79658844488E+01  0.39382029788E+02 -0.17437664365E+04  0.17487027671E+04  0.12500233295E+03 0.  0.
          5    1    3    3  502    0  0.56861828596E+02 -0.33417730293E+02 -0.27903237695E+03  0.28675977688E+03  0.47000000000E+01 0.  1.
         -5    1    3    3    0  502 -0.48895944148E+02 -0.59642994946E+01 -0.59833231079E+03  0.60037490817E+03  0.47000000000E+01 0.  1.
          5    1    4    4  503    0  0.32175872155E+02 -0.91116385671E+01 -0.13031140380E+04  0.13035515313E+04  0.47000000000E+01 0. -1.
         -5    1    4    4    0  503 -0.40141756603E+02  0.48493668355E+02 -0.44065239844E+03  0.44515123581E+03  0.47000000000E+01 0. -1.
<mgrwt>
<rscale>  0 0.13130033E+03</rscale>
<asrwt>0</asrwt>
<pdfrwt beam="2">  1        5 0.40438145E+00 0.13130112E+03</pdfrwt>
<pdfrwt beam="1">  1       -5 0.11312581E-02 0.13130112E+03</pdfrwt>
<totfact> 0.11438031E+01</totfact>
</mgrwt>
</event>
<event>
 8    1  0.1821556E-007  0.1496030E+03  0.7546771E-02  0.1200965E+00
          5   -1    0    0  501    0  0.00000000000E+00  0.00000000000E+00  0.38145822369E+03  0.38148717726E+03  0.47000000000E+01 0.  1.
         -5   -1    0    0    0  501 -0.00000000000E+00 -0.00000000000E+00 -0.62478561319E+02  0.62655092566E+02  0.47000000000E+01 0.  1.
         25    2    1    2    0    0  0.63242534748E+02  0.52464758479E+02  0.10384958969E+03  0.18211477841E+03  0.12501554365E+03 0.  0.
         25    2    1    2    0    0 -0.63242534748E+02 -0.52464758479E+02  0.21513007268E+03  0.26202749142E+03  0.12500115601E+03 0.  0.
          5    1    3    3  502    0 -0.16841799861E+02  0.65679360923E+02  0.53351916980E+02  0.86405681059E+02  0.47000000000E+01 0.  1.
         -5    1    3    3    0  502  0.80084334609E+02 -0.13214602443E+02  0.50497672707E+02  0.95709097354E+02  0.47000000000E+01 0.  1.
          5    1    4    4  503    0  0.10944287366E+02  0.22584240497E+02  0.38614077088E+01  0.25822970671E+02  0.47000000000E+01 0. -1.
         -5    1    4    4    0  503 -0.74186822114E+02 -0.75048998976E+02  0.21126866497E+03  0.23620452075E+03  0.47000000000E+01 0. -1.
<mgrwt>
<rscale>  0 0.14959999E+03</rscale>
<asrwt>0</asrwt>
<pdfrwt beam="1">  1        5 0.58701688E-01 0.14960299E+03</pdfrwt>
<pdfrwt beam="2">  1       -5 0.96278927E-02 0.14960299E+03</pdfrwt>
<totfact> 0.17220395E+02</totfact>
</mgrwt>
</event>
<event>
 8    1  0.1821556E-007  0.1642937E+03  0.7546771E-02  0.1183933E+00
          5   -1    0    0  501    0  0.00000000000E+00  0.00000000000E+00  0.19897001802E+03  0.19902552115E+03  0.47000000000E+01 0.  1.
         -5   -1    0    0    0  501 -0.00000000000E+00 -0.00000000000E+00 -0.13571354711E+03  0.13579490737E+03  0.47000000000E+01 0.  1.
         25    2    1    2    0    0  0.35297563404E+02  0.10060302090E+03  0.37532362082E+02  0.16852506752E+03  0.12500053752E+03 0.  0.
         25    2    1    2    0    0 -0.35297563404E+02 -0.10060302090E+03  0.25724108829E+02  0.16629536101E+03  0.12500212607E+03 0.  0.
          5    1    4    4  502    0  0.90826554107E+01 -0.11470484001E+03  0.30827464810E+02  0.11921458610E+03  0.47000000000E+01 0. -1.
         -5    1    4    4    0  502 -0.44380218815E+02  0.14101819109E+02 -0.51033559811E+01  0.47080774914E+02  0.47000000000E+01 0. -1.
          5    1    3    3  503    0  0.76208597953E+02  0.48839153418E+02  0.46338024601E+02  0.10179546077E+03  0.47000000000E+01 0.  1.
         -5    1    3    3    0  503 -0.40911034549E+02  0.51763867485E+02 -0.88056625191E+01  0.66729606752E+02  0.47000000000E+01 0.  1.
<mgrwt>
<rscale>  0 0.16429339E+03</rscale>
<asrwt>0</asrwt>
<pdfrwt beam="1">  1        5 0.30621300E-01 0.16429369E+03</pdfrwt>
<pdfrwt beam="2">  1       -5 0.20889535E-01 0.16429369E+03</pdfrwt>
<totfact> 0.16856256E+02</totfact>
</mgrwt>
</event>
<event>
 8    1  0.1821556E-007  0.1267540E+03  0.7546771E-02  0.1232355E+00
         -5   -1    0    0    0  501 -0.00000000000E+00  0.00000000000E+00  0.17046933411E+03  0.17053411352E+03  0.47000000000E+01 0.  1.
          5   -1    0    0  501    0  0.00000000000E+00 -0.00000000000E+00 -0.98366467202E+02  0.98478687389E+02  0.47000000000E+01 0.  1.
         25    2    1    2    0    0  0.99881007662E+01 -0.18491045998E+02  0.64023181690E+02  0.14200542168E+03  0.12499956421E+03 0.  0.
         25    2    1    2    0    0 -0.99881007662E+01  0.18491045998E+02  0.80796852205E+01  0.12700737923E+03  0.12499564843E+03 0.  0.
          5    1    3    3  502    0  0.45632818765E+02 -0.54876021794E+02  0.19359857452E+02  0.74098758404E+02  0.47000000000E+01 0. -1.
         -5    1    3    3    0  502 -0.35644717999E+02  0.36384975796E+02  0.44663324238E+02  0.67906663273E+02  0.47000000000E+01 0. -1.
          5    1    4    4  503    0 -0.10767594520E+00 -0.36897938244E+02  0.45878963400E+02  0.59063006387E+02  0.47000000000E+01 0. -1.
         -5    1    4    4    0  503 -0.98804248210E+01  0.55388984242E+02 -0.37799278179E+02  0.67944372842E+02  0.47000000000E+01 0. -1.
<mgrwt>
<rscale>  0 0.12675302E+03</rscale>
<asrwt>0</asrwt>
<pdfrwt beam="2">  1        5 0.15146918E-01 0.12675398E+03</pdfrwt>
<pdfrwt beam="1">  1       -5 0.26239666E-01 0.12675398E+03</pdfrwt>
<totfact> 0.37748072E+02</totfact>
</mgrwt>
</event>
<event>
 8    1  0.1821556E-007  0.1267385E+03  0.7546771E-02  0.1232381E+00
         -5   -1    0    0    0  501 -0.00000000000E+00  0.00000000000E+00  0.28595538264E+02  0.28979213388E+02  0.47000000000E+01 0. -1.
          5   -1    0    0  501    0  0.00000000000E+00 -0.00000000000E+00 -0.69123563203E+03  0.69125161048E+03  0.47000000000E+01 0. -1.
         25    2    1    2    0    0  0.15543162256E+02 -0.14106389247E+02 -0.17297727377E+03  0.21443212806E+03  0.12497767877E+03 0.  0.
         25    2    1    2    0    0 -0.15543162256E+02  0.14106389247E+02 -0.48966282000E+03  0.50579869581E+03  0.12498825259E+03 0.  0.
          5    1    4    4  502    0 -0.62918461399E+02  0.19192709049E+01 -0.38539607051E+03  0.39053122481E+03  0.47000000000E+01 0. -1.
         -5    1    4    4    0  502  0.47375299143E+02  0.12187118342E+02 -0.10426674949E+03  0.11526747100E+03  0.47000000000E+01 0. -1.
          5    1    3    3  503    0  0.23366801198E+02 -0.55665030189E+02 -0.34775194575E+02  0.69828412140E+02  0.47000000000E+01 0. -1.
         -5    1    3    3    0  503 -0.78236389428E+01  0.41558640943E+02 -0.13820207920E+03  0.14460371592E+03  0.47000000000E+01 0. -1.
<mgrwt>
<rscale>  0 0.12673588E+03</rscale>
<asrwt>0</asrwt>
<pdfrwt beam="2">  1        5 0.10637467E+00 0.12673848E+03</pdfrwt>
<pdfrwt beam="1">  1       -5 0.44300567E-02 0.12673848E+03</pdfrwt>
<totfact> 0.15311895E+02</totfact>
</mgrwt>
</event>
<event>
 8    1  0.1821556E-007  0.1251379E+03  0.7546771E-02  0.1234859E+00
          5   -1    0    0  501    0  0.00000000000E+00  0.00000000000E+00  0.12279843963E+03  0.12288835085E+03  0.47000000000E+01 0.  1.
         -5   -1    0    0    0  501 -0.00000000000E+00 -0.00000000000E+00 -0.15769335434E+03  0.15776337979E+03  0.47000000000E+01 0.  1.
         25    2    1    2    0    0  0.54327023165E+01 -0.13360337976E+01 -0.78989322518E+02  0.14797233923E+03  0.12500080345E+03 0.  0.
         25    2    1    2    0    0 -0.54327023165E+01  0.13360337976E+01  0.44094407805E+02  0.13267939142E+03  0.12501281881E+03 0.  0.
          5    1    3    3  502    0  0.61990700811E+02 -0.20058272499E+02 -0.43124108701E+02  0.78274900408E+02  0.47000000000E+01 0. -1.
         -5    1    3    3    0  502 -0.56557998495E+02  0.18722238701E+02 -0.35865213816E+02  0.69697438818E+02  0.47000000000E+01 0. -1.
          5    1    4    4  503    0 -0.31505507899E+02 -0.54302652087E+02  0.28536434658E+02  0.69121582408E+02  0.47000000000E+01 0. -1.
         -5    1    4    4    0  503  0.26072805583E+02  0.55638685884E+02  0.15557973147E+02  0.63557809012E+02  0.47000000000E+01 0. -1.
<mgrwt>
<rscale>  0 0.12513494E+03</rscale>
<asrwt>0</asrwt>
<pdfrwt beam="1">  1        5 0.18904370E-01 0.12513794E+03</pdfrwt>
<pdfrwt beam="2">  1       -5 0.24272819E-01 0.12513794E+03</pdfrwt>
<totfact> 0.29077960E+02</totfact>
</mgrwt>
</event>
<event>
 8    1  0.1821556E-007  0.1327116E+03  0.7546771E-02  0.1223487E+00
         -5   -1    0    0    0  501 -0.00000000000E+00  0.00000000000E+00  0.32917331308E+02  0.33251175925E+02  0.47000000000E+01 0. -1.
          5   -1    0    0  501    0  0.00000000000E+00 -0.00000000000E+00 -0.58224325315E+03  0.58226222257E+03  0.47000000000E+01 0. -1.
         25    2    1    2    0    0  0.26103927970E+00 -0.44567456146E+02 -0.18428213563E+03  0.22709437462E+03  0.12500249270E+03 0.  0.
         25    2    1    2    0    0 -0.26103927970E+00  0.44567456146E+02 -0.36504378620E+03  0.38841902388E+03  0.12500418384E+03 0.  0.
          5    1    4    4  502    0  0.25424198607E+02  0.69150772084E+02 -0.33042877607E+03  0.33857567132E+03  0.47000000000E+01 0. -1.
         -5    1    4    4    0  502 -0.25685237886E+02 -0.24583315939E+02 -0.34615010134E+02  0.49843352559E+02  0.47000000000E+01 0. -1.
          5    1    3    3  503    0 -0.15426324980E+02 -0.24965086612E+02 -0.19653162493E+03  0.19876618588E+03  0.47000000000E+01 0. -1.
         -5    1    3    3    0  503  0.15687364260E+02 -0.19602369533E+02  0.12249489300E+02  0.28328188732E+02  0.47000000000E+01 0. -1.
<mgrwt>
<rscale>  0 0.13271121E+03</rscale>
<asrwt>0</asrwt>
<pdfrwt beam="2">  1        5 0.89603017E-01 0.13271161E+03</pdfrwt>
<pdfrwt beam="1">  1       -5 0.50913448E-02 0.13271161E+03</pdfrwt>
<totfact> 0.18711189E+02</totfact>
</mgrwt>
</event>
<event>
 8    1  0.1821556E-007  0.1306991E+03  0.7546771E-02  0.1226423E+00
         -5   -1    0    0    0  501 -0.00000000000E+00  0.00000000000E+00  0.53851846077E+02  0.54056556733E+02  0.47000000000E+01 0.  1.
          5   -1    0    0  501    0  0.00000000000E+00 -0.00000000000E+00 -0.38823040581E+03  0.38825885437E+03  0.47000000000E+01 0.  1.
         25    2    1    2    0    0  0.33817321654E+02  0.17697907039E+02 -0.72076510337E+02  0.14925462551E+03  0.12500037094E+03 0.  0.
         25    2    1    2    0    0 -0.33817321654E+02 -0.17697907039E+02 -0.26230204940E+03  0.29306078560E+03  0.12500172710E+03 0.  0.
          5    1    4    4  502    0 -0.15148398962E+02 -0.70411317258E+02 -0.11920001706E+03  0.13934834644E+03  0.47000000000E+01 0.  1.
         -5    1    4    4    0  502 -0.18668922693E+02  0.52713410218E+02 -0.14310203234E+03  0.15371243916E+03  0.47000000000E+01 0.  1.
          5    1    3    3  503    0 -0.38069858938E+02 -0.25155884864E+02 -0.34483931334E+02  0.57387840377E+02  0.47000000000E+01 0. -1.
         -5    1    3    3    0  503  0.71887180593E+02  0.42853791903E+02 -0.37592579003E+02  0.91866785130E+02  0.47000000000E+01 0. -1.
<mgrwt>
<rscale>  0 0.13069879E+03</rscale>
<asrwt>0</asrwt>
<pdfrwt beam="2">  1        5 0.59745688E-01 0.13069912E+03</pdfrwt>
<pdfrwt beam="1">  1       -5 0.83028350E-02 0.13069912E+03</pdfrwt>
<totfact> 0.20464999E+02</totfact>
</mgrwt>
</event>
<event>
 8    1  0.1821556E-007  0.1313663E+03  0.7546771E-02  0.1225454E+00
         -5   -1    0    0    0  501 -0.00000000000E+00  0.00000000000E+00  0.17746167209E+03  0.17752389997E+03  0.47000000000E+01 0.  1.
          5   -1    0    0  501    0  0.00000000000E+00 -0.00000000000E+00 -0.97890882160E+02  0.98003646922E+02  0.47000000000E+01 0.  1.
         25    2    1    2    0    0  0.16162289739E+02  0.36832577827E+02  0.27292972933E+02  0.13414131508E+03  0.12502450816E+03 0.  0.
         25    2    1    2    0    0 -0.16162289739E+02 -0.36832577827E+02  0.52277816994E+02  0.14138623181E+03  0.12505693902E+03 0.  0.
          5    1    3    3  502    0  0.27349156076E+02  0.78701657038E+02  0.33858295717E+02  0.90057766724E+02  0.47000000000E+01 0. -1.
         -5    1    3    3    0  502 -0.11186866337E+02 -0.41869079210E+02 -0.65653227840E+01  0.44083548356E+02  0.47000000000E+01 0. -1.
          5    1    4    4  503    0 -0.32210206860E+02 -0.75355587356E+02  0.55780308715E+02  0.99244621074E+02  0.47000000000E+01 0.  1.
         -5    1    4    4    0  503  0.16047917122E+02  0.38523009529E+02 -0.35024917214E+01  0.42141610735E+02  0.47000000000E+01 0.  1.
<mgrwt>
<rscale>  0 0.13135855E+03</rscale>
<asrwt>0</asrwt>
<pdfrwt beam="2">  1        5 0.15073597E-01 0.13136627E+03</pdfrwt>
<pdfrwt beam="1">  1       -5 0.27315256E-01 0.13136627E+03</pdfrwt>
<totfact> 0.35706766E+02</totfact>
</mgrwt>
</event>
<event>
 8    1  0.1821556E-007  0.2002527E+03  0.7546771E-02  0.1149526E+00
         -5   -1    0    0    0  501 -0.00000000000E+00  0.00000000000E+00  0.10220020317E+03  0.10230821828E+03  0.47000000000E+01 0. -1.
          5   -1    0    0  501    0  0.00000000000E+00 -0.00000000000E+00 -0.48091146495E+03  0.48093443121E+03  0.47000000000E+01 0. -1.
         25    2    1    2    0    0 -0.70385430140E+02 -0.13971677311E+03 -0.64013113272E+02  0.21023317465E+03  0.12500169434E+03 0.  0.
         25    2    1    2    0    0  0.70385430140E+02  0.13971677311E+03 -0.31469814851E+03  0.37300947484E+03  0.12500503261E+03 0.  0.
          5    1    3    3  502    0 -0.65057446136E+02 -0.18092989721E+02  0.88655392547E+01  0.68267967314E+02  0.47000000000E+01 0. -1.
         -5    1    3    3    0  502 -0.53279840036E+01 -0.12162378339E+03 -0.72878652527E+02  0.14196520733E+03  0.47000000000E+01 0. -1.
          5    1    4    4  503    0  0.60930725110E+02  0.11923456567E+03 -0.12934734489E+03  0.18623173882E+03  0.47000000000E+01 0. -1.
         -5    1    4    4    0  503  0.94547050301E+01  0.20482207435E+02 -0.18535080363E+03  0.18677773602E+03  0.47000000000E+01 0. -1.
<mgrwt>
<rscale>  0 0.20025218E+03</rscale>
<asrwt>0</asrwt>
<pdfrwt beam="2">  1        5 0.73996453E-01 0.20025270E+03</pdfrwt>
<pdfrwt beam="1">  1       -5 0.15733184E-01 0.20025270E+03</pdfrwt>
<totfact> 0.46480628E+01</totfact>
</mgrwt>
</event>
<event>
 8    1  0.1821556E-007  0.1391462E+03  0.7546771E-02  0.1214503E+00
          5   -1    0    0  501    0  0.00000000000E+00  0.00000000000E+00  0.21224354076E+02  0.21738518946E+02  0.47000000000E+01 0. -1.
         -5   -1    0    0    0  501 -0.00000000000E+00 -0.00000000000E+00 -0.92725411589E+03  0.92726602733E+03  0.47000000000E+01 0. -1.
         25    2    1    2    0    0  0.35224294786E+02 -0.49793073046E+02 -0.53363625037E+03  0.55146387050E+03  0.12499860673E+03 0.  0.
         25    2    1    2    0    0 -0.35224294786E+02  0.49793073046E+02 -0.37239351144E+03  0.39754067577E+03  0.12506622433E+03 0.  0.
          5    1    4    4  502    0 -0.75158428883E+02  0.30780587320E+02 -0.14900185028E+03  0.16976417577E+03  0.47000000000E+01 0.  1.
         -5    1    4    4    0  502  0.39934134097E+02  0.19012485726E+02 -0.22339166116E+03  0.22777650000E+03  0.47000000000E+01 0.  1.
          5    1    3    3  503    0  0.64326226804E+01  0.28346922567E+02 -0.34281432772E+02  0.45191075297E+02  0.47000000000E+01 0.  1.
         -5    1    3    3    0  503  0.28791672105E+02 -0.78139995613E+02 -0.49935481760E+03  0.50627279520E+03  0.47000000000E+01 0.  1.
<mgrwt>
<rscale>  0 0.13913099E+03</rscale>
<asrwt>0</asrwt>
<pdfrwt beam="1">  1        5 0.33057534E-02 0.13914619E+03</pdfrwt>
<pdfrwt beam="2">  1       -5 0.14269492E+00 0.13914619E+03</pdfrwt>
<totfact> 0.11995519E+02</totfact>
</mgrwt>
</event>
<event>
 8    1  0.1821556E-007  0.1287186E+03  0.7546771E-02  0.1229389E+00
         -5   -1    0    0    0  501 -0.00000000000E+00  0.00000000000E+00  0.26318917019E+02  0.26735283672E+02  0.47000000000E+01 0. -1.
          5   -1    0    0  501    0  0.00000000000E+00 -0.00000000000E+00 -0.14517336378E+04  0.14517412460E+04  0.47000000000E+01 0. -1.
         25    2    1    2    0    0  0.30297308035E+02 -0.34431118028E+01 -0.15462616252E+03  0.20119080440E+03  0.12505481897E+03 0.  0.
         25    2    1    2    0    0 -0.30297308035E+02  0.34431118028E+01 -0.12707885583E+04  0.12772857252E+04  0.12500192834E+03 0.  0.
          5    1    3    3  502    0  0.19837469299E+02  0.60202173332E+02 -0.85401905353E+02  0.10645845340E+03  0.47000000000E+01 0. -1.
         -5    1    3    3    0  502  0.10459838736E+02 -0.63645285135E+02 -0.69224257168E+02  0.94732351004E+02  0.47000000000E+01 0. -1.
          5    1    4    4  503    0 -0.59251768516E+02  0.59299696341E+00 -0.28873030592E+03  0.29478535119E+03  0.47000000000E+01 0.  1.
         -5    1    4    4    0  503  0.28954460481E+02  0.28501148394E+01 -0.98205825237E+03  0.98250037403E+03  0.47000000000E+01 0.  1.
<mgrwt>
<rscale>  0 0.12870580E+03</rscale>
<asrwt>0</asrwt>
<pdfrwt beam="2">  1        5 0.22337619E+00 0.12871865E+03</pdfrwt>
<pdfrwt beam="1">  1       -5 0.40816787E-02 0.12871865E+03</pdfrwt>
<totfact> 0.22107474E+01</totfact>
</mgrwt>
</event>
<event>
 8    1  0.1821556E-007  0.1290635E+03  0.7546771E-02  0.1228856E+00
         -5   -1    0    0    0  501 -0.00000000000E+00  0.00000000000E+00  0.89267443128E+02  0.89391086819E+02  0.47000000000E+01 0. -1.
          5   -1    0    0  501    0  0.00000000000E+00 -0.00000000000E+00 -0.19161063516E+03  0.19166826944E+03  0.47000000000E+01 0. -1.
         25    2    1    2    0    0 -0.17614548576E+02 -0.26841004054E+02 -0.27793246320E+02  0.13201206739E+03  0.12499603824E+03 0.  0.
         25    2    1    2    0    0  0.17614548576E+02  0.26841004054E+02 -0.74549945716E+02  0.14904728886E+03  0.12500675218E+03 0.  0.
          5    1    3    3  502    0 -0.63088617402E+02 -0.45587832875E+02 -0.27238676741E+02  0.82598181956E+02  0.47000000000E+01 0.  1.
         -5    1    3    3    0  502  0.45474068826E+02  0.18746828821E+02 -0.55456957913E+00  0.49413885435E+02  0.47000000000E+01 0.  1.
          5    1    4    4  503    0  0.63018766267E+02  0.12848079749E+02 -0.77969127540E+02  0.10118158382E+03  0.47000000000E+01 0. -1.
         -5    1    4    4    0  503 -0.45404217692E+02  0.13992924305E+02  0.34191818238E+01  0.47865705041E+02  0.47000000000E+01 0. -1.
<mgrwt>
<rscale>  0 0.12906096E+03</rscale>
<asrwt>0</asrwt>
<pdfrwt beam="2">  1        5 0.29492504E-01 0.12906355E+03</pdfrwt>
<pdfrwt beam="1">  1       -5 0.13747397E-01 0.12906355E+03</pdfrwt>
<totfact> 0.36071218E+02</totfact>
</mgrwt>
</event>
<event>
 8    1  0.1821556E-007  0.1936639E+03  0.7546771E-02  0.1155201E+00
          5   -1    0    0  501    0  0.00000000000E+00  0.00000000000E+00  0.50518675932E+02  0.50736836893E+02  0.47000000000E+01 0. -1.
         -5   -1    0    0    0  501 -0.00000000000E+00 -0.00000000000E+00 -0.75950917450E+03  0.75952371665E+03  0.47000000000E+01 0. -1.
         25    2    1    2    0    0  0.11668900750E+03 -0.90908070721E+02 -0.29047653956E+03  0.34911647091E+03  0.12500035372E+03 0.  0.
         25    2    1    2    0    0 -0.11668900750E+03  0.90908070721E+02 -0.41851395901E+03  0.46114408263E+03  0.12497731503E+03 0.  0.
          5    1    4    4  502    0 -0.38304977860E+02  0.61268668701E+02 -0.63391182967E+02  0.96237483192E+02  0.47000000000E+01 0. -1.
         -5    1    4    4    0  502 -0.78384029639E+02  0.29639402020E+02 -0.35512277604E+03  0.36490659944E+03  0.47000000000E+01 0. -1.
          5    1    3    3  503    0  0.13682773711E+00 -0.70267315839E+02 -0.72763622032E+02  0.10126277247E+03  0.47000000000E+01 0. -1.
         -5    1    3    3    0  503  0.11655217976E+03 -0.20640754881E+02 -0.21771291753E+03  0.24785369844E+03  0.47000000000E+01 0. -1.
<mgrwt>
<rscale>  0 0.19366014E+03</rscale>
<asrwt>0</asrwt>
<pdfrwt beam="1">  1        5 0.77900048E-02 0.19366386E+03</pdfrwt>
<pdfrwt beam="2">  1       -5 0.11686546E+00 0.19366386E+03</pdfrwt>
<totfact> 0.53178016E+01</totfact>
</mgrwt>
</event>
<event>
 8    1  0.1821556E-007  0.1306522E+03  0.7546771E-02  0.1226493E+00
         -5   -1    0    0    0  501 -0.00000000000E+00  0.00000000000E+00  0.84671352985E+03  0.84672657430E+03  0.47000000000E+01 0.  1.
          5   -1    0    0  501    0  0.00000000000E+00 -0.00000000000E+00 -0.22943664855E+02  0.23420114368E+02  0.47000000000E+01 0.  1.
         25    2    1    2    0    0  0.37117178150E+02 -0.82348461142E+01  0.56927389189E+03  0.58407291399E+03  0.12499162874E+03 0.  0.
         25    2    1    2    0    0 -0.37117178150E+02  0.82348461142E+01  0.25449597310E+03  0.28607377468E+03  0.12499802652E+03 0.  0.
          5    1    3    3  502    0 -0.15160359544E+02  0.48350566005E+02  0.28500741189E+03  0.28951498851E+03  0.47000000000E+01 0.  1.
         -5    1    3    3    0  502  0.52277537694E+02 -0.56585412120E+02  0.28426648000E+03  0.29455792548E+03  0.47000000000E+01 0.  1.
          5    1    4    4  503    0 -0.42065233830E+02 -0.98861653411E+01  0.15277508195E+02  0.46072903306E+02  0.47000000000E+01 0.  1.
         -5    1    4    4    0  503  0.49480556806E+01  0.18121011455E+02  0.23921846490E+03  0.24000087138E+03  0.47000000000E+01 0.  1.
<mgrwt>
<rscale>  0 0.13065070E+03</rscale>
<asrwt>0</asrwt>
<pdfrwt beam="2">  1        5 0.35674475E-02 0.13065223E+03</pdfrwt>
<pdfrwt beam="1">  1       -5 0.13030129E+00 0.13065223E+03</pdfrwt>
<totfact> 0.13203631E+02</totfact>
</mgrwt>
</event>
<event>
 8    1  0.1821556E-007  0.2055289E+03  0.7546771E-02  0.1145164E+00
         -5   -1    0    0    0  501 -0.00000000000E+00  0.00000000000E+00  0.61891282680E+03  0.61893067235E+03  0.47000000000E+01 0. -1.
          5   -1    0    0  501    0  0.00000000000E+00 -0.00000000000E+00 -0.71103186273E+02  0.71258354585E+02  0.47000000000E+01 0. -1.
         25    2    1    2    0    0  0.15965207598E+03  0.33620293894E+02  0.34428624565E+03  0.40096776457E+03  0.12499207877E+03 0.  0.
         25    2    1    2    0    0 -0.15965207598E+03 -0.33620293894E+02  0.20352339488E+03  0.28922126237E+03  0.12493220888E+03 0.  0.
          5    1    3    3  502    0  0.97379577267E+02 -0.17204204431E+02  0.88436565924E+02  0.13274744032E+03  0.47000000000E+01 0.  1.
         -5    1    3    3    0  502  0.62272498713E+02  0.50824498325E+02  0.25584967972E+03  0.26822032425E+03  0.47000000000E+01 0.  1.
          5    1    4    4  503    0 -0.86499559470E+02 -0.53748198095E+02  0.18460781077E+03  0.21088664345E+03  0.47000000000E+01 0.  1.
         -5    1    4    4    0  503 -0.73152516509E+02  0.20127904201E+02  0.18915584108E+02  0.78334618920E+02  0.47000000000E+01 0.  1.
<mgrwt>
<rscale>  0 0.20551980E+03</rscale>
<asrwt>0</asrwt>
<pdfrwt beam="2">  1        5 0.10952261E-01 0.20552890E+03</pdfrwt>
<pdfrwt beam="1">  1       -5 0.95230667E-01 0.20552890E+03</pdfrwt>
<totfact> 0.49547627E+01</totfact>
</mgrwt>
</event>
<event>
 8    1  0.1821556E-007  0.1305218E+03  0.7546771E-02  0.1226684E+00
          5   -1    0    0  501    0  0.00000000000E+00  0.00000000000E+00  0.71008748177E+02  0.71164122405E+02  0.47000000000E+01 0.  1.
         -5   -1    0    0    0  501 -0.00000000000E+00 -0.00000000000E+00 -0.25106320521E+03  0.25110719426E+03  0.47000000000E+01 0.  1.
         25    2    1    2    0    0  0.37342269125E+02 -0.40529163230E+01 -0.12464114012E+03  0.18047364912E+03  0.12499781206E+03 0.  0.
         25    2    1    2    0    0 -0.37342269125E+02  0.40529163230E+01 -0.55413316908E+02  0.14179766755E+03  0.12500028655E+03 0.  0.
          5    1    4    4  502    0  0.36574372180E+02  0.27202531497E+02  0.10418732871E+01  0.45834898497E+02  0.47000000000E+01 0. -1.
         -5    1    4    4    0  502 -0.73916641305E+02 -0.23149615174E+02 -0.56455190195E+02  0.95962769054E+02  0.47000000000E+01 0. -1.
          5    1    3    3  503    0  0.70143716116E+02 -0.40242364323E+02 -0.70282805995E+02  0.10724435470E+03  0.47000000000E+01 0.  1.
         -5    1    3    3    0  503 -0.32801446991E+02  0.36189448000E+02 -0.54358334130E+02  0.73229294415E+02  0.47000000000E+01 0.  1.
<mgrwt>
<rscale>  0 0.13052122E+03</rscale>
<asrwt>0</asrwt>
<pdfrwt beam="1">  1        5 0.10939759E-01 0.13052181E+03</pdfrwt>
<pdfrwt beam="2">  1       -5 0.38640444E-01 0.13052181E+03</pdfrwt>
<totfact> 0.31707976E+02</totfact>
</mgrwt>
</event>
<event>
 8    1  0.1821556E-007  0.1285501E+03  0.7546771E-02  0.1229626E+00
          5   -1    0    0  501    0  0.00000000000E+00  0.00000000000E+00  0.95962569031E+03  0.95963719993E+03  0.47000000000E+01 0.  1.
         -5   -1    0    0    0  501 -0.00000000000E+00 -0.00000000000E+00 -0.18524616958E+02  0.19111552356E+02  0.47000000000E+01 0.  1.
         25    2    1    2    0    0  0.22112001591E+02  0.20214243732E+02  0.32745315858E+03  0.35178215989E+03  0.12501024234E+03 0.  0.
         25    2    1    2    0    0 -0.22112001591E+02 -0.20214243732E+02  0.61364791477E+03  0.62696659240E+03  0.12500315364E+03 0.  0.
          5    1    3    3  502    0  0.13837537001E+02  0.40554008434E+02  0.32647132865E+03  0.32930490956E+03  0.47000000000E+01 0.  1.
         -5    1    3    3    0  502  0.82744645903E+01 -0.20339764702E+02  0.98182992977E+00  0.22477250330E+02  0.47000000000E+01 0.  1.
          5    1    4    4  503    0  0.24425082309E+02  0.27842219394E+02  0.42714274065E+03  0.42877124987E+03  0.47000000000E+01 0.  1.
         -5    1    4    4    0  503 -0.46537083901E+02 -0.48056463126E+02  0.18650517412E+03  0.19819534252E+03  0.47000000000E+01 0.  1.
<mgrwt>
<rscale>  0 0.12854833E+03</rscale>
<asrwt>0</asrwt>
<pdfrwt beam="1">  1        5 0.14768076E+00 0.12855006E+03</pdfrwt>
<pdfrwt beam="2">  1       -5 0.28959752E-02 0.12855006E+03</pdfrwt>
<totfact> 0.13202805E+02</totfact>
</mgrwt>
</event>
<event>
 8    1  0.1821556E-007  0.2186995E+03  0.7546771E-02  0.1134857E+00
          5   -1    0    0  501    0  0.00000000000E+00  0.00000000000E+00  0.65749775280E+03  0.65751455113E+03  0.47000000000E+01 0. -1.
         -5   -1    0    0    0  501 -0.00000000000E+00 -0.00000000000E+00 -0.79107487120E+02  0.79246984286E+02  0.47000000000E+01 0. -1.
         25    2    1    2    0    0 -0.14828066181E+03  0.10108016404E+03  0.18405853042E+03  0.28584358697E+03  0.12499863744E+03 0.  0.
         25    2    1    2    0    0  0.14828066181E+03 -0.10108016404E+03  0.39433173527E+03  0.45091794844E+03  0.12500049825E+03 0.  0.
          5    1    4    4  502    0  0.10783676650E+02 -0.43805472035E+02  0.20508014109E+03  0.21003609531E+03  0.47000000000E+01 0. -1.
         -5    1    4    4    0  502  0.13749698516E+03 -0.57274692007E+02  0.18925159417E+03  0.24088185313E+03  0.47000000000E+01 0. -1.
          5    1    3    3  503    0 -0.76660999632E+02 -0.12687141921E+02  0.10186246603E+03  0.12820266932E+03  0.47000000000E+01 0. -1.
         -5    1    3    3    0  503 -0.71619662175E+02  0.11376730596E+03  0.82196064383E+02  0.15764091765E+03  0.47000000000E+01 0. -1.
<mgrwt>
<rscale>  0 0.21869925E+03</rscale>
<asrwt>0</asrwt>
<pdfrwt beam="1">  1        5 0.10116552E+00 0.21869952E+03</pdfrwt>
<pdfrwt beam="2">  1       -5 0.12182406E-01 0.21869952E+03</pdfrwt>
<totfact> 0.35913513E+01</totfact>
</mgrwt>
</event>
<event>
 8    1  0.1821556E-007  0.1251122E+03  0.7546771E-02  0.1234899E+00
         -5   -1    0    0    0  501 -0.00000000000E+00  0.00000000000E+00  0.22366237818E+02  0.22854728048E+02  0.47000000000E+01 0. -1.
          5   -1    0    0  501    0  0.00000000000E+00 -0.00000000000E+00 -0.70233656039E+03  0.70235228629E+03  0.47000000000E+01 0. -1.
         25    2    1    2    0    0 -0.30030597527E+01 -0.40888360889E+01 -0.29542495914E+03  0.32082082072E+03  0.12499742229E+03 0.  0.
         25    2    1    2    0    0  0.30030597527E+01  0.40888360889E+01 -0.38454536344E+03  0.40438619362E+03  0.12500928006E+03 0.  0.
          5    1    4    4  502    0  0.44872806108E+02  0.10034731445E+02 -0.53856021641E+02  0.70970596942E+02  0.47000000000E+01 0. -1.
         -5    1    4    4    0  502 -0.41869746356E+02 -0.59458953560E+01 -0.33068934179E+03  0.33341559668E+03  0.47000000000E+01 0. -1.
          5    1    3    3  503    0  0.45342803051E+02  0.22923665281E+02 -0.22701580108E+03  0.23267945366E+03  0.47000000000E+01 0.  1.
         -5    1    3    3    0  503 -0.48345862804E+02 -0.27012501370E+02 -0.68409158063E+02  0.88141367061E+02  0.47000000000E+01 0.  1.
<mgrwt>
<rscale>  0 0.12510922E+03</rscale>
<asrwt>0</asrwt>
<pdfrwt beam="2">  1        5 0.10809055E+00 0.12511218E+03</pdfrwt>
<pdfrwt beam="1">  1       -5 0.34797461E-02 0.12511218E+03</pdfrwt>
<totfact> 0.21746331E+02</totfact>
</mgrwt>
</event>
<event>
 8    1  0.1821556E-007  0.1529046E+03  0.7546771E-02  0.1196950E+00
         -5   -1    0    0    0  501 -0.00000000000E+00  0.00000000000E+00  0.66018701065E+02  0.66185790698E+02  0.47000000000E+01 0.  1.
          5   -1    0    0  501    0  0.00000000000E+00 -0.00000000000E+00 -0.36121985952E+03  0.36125043517E+03  0.47000000000E+01 0.  1.
         25    2    1    2    0    0  0.11864097670E+02 -0.87248248005E+02 -0.11636202293E+03  0.19214225901E+03  0.12500205488E+03 0.  0.
         25    2    1    2    0    0 -0.11864097670E+02  0.87248248005E+02 -0.17883913552E+03  0.23529396686E+03  0.12500720319E+03 0.  0.
          5    1    4    4  502    0 -0.28618568793E+02 -0.22817948516E+02 -0.72060377782E+02  0.80959677002E+02  0.47000000000E+01 0.  1.
         -5    1    4    4    0  502  0.16754471123E+02  0.11006619652E+03 -0.10677875774E+03  0.15433428985E+03  0.47000000000E+01 0.  1.
          5    1    3    3  503    0  0.28715487535E+02 -0.15023498894E+02 -0.11311301035E+03  0.11775792056E+03  0.47000000000E+01 0.  1.
         -5    1    3    3    0  503 -0.16851389865E+02 -0.72224749111E+02 -0.32490125770E+01  0.74384338454E+02  0.47000000000E+01 0.  1.
<mgrwt>
<rscale>  0 0.15290354E+03</rscale>
<asrwt>0</asrwt>
<pdfrwt beam="2">  1        5 0.55587490E-01 0.15290459E+03</pdfrwt>
<pdfrwt beam="1">  1       -5 0.10171929E-01 0.15290459E+03</pdfrwt>
<totfact> 0.17736781E+02</totfact>
</mgrwt>
</event>
<event>
 8    1  0.1821556E-007  0.1273372E+03  0.7546771E-02  0.1231462E+00
         -5   -1    0    0    0  501 -0.00000000000E+00  0.00000000000E+00  0.22513742287E+02  0.22999099803E+02  0.47000000000E+01 0. -1.
          5   -1    0    0  501    0  0.00000000000E+00 -0.00000000000E+00 -0.84572674020E+03  0.84573979987E+03  0.47000000000E+01 0. -1.
         25    2    1    2    0    0  0.23864628858E+02  0.44710519242E+01 -0.23895697436E+03  0.27076778718E+03  0.12500099264E+03 0.  0.
         25    2    1    2    0    0 -0.23864628858E+02 -0.44710519242E+01 -0.58425602355E+03  0.59797111250E+03  0.12499935805E+03 0.  0.
          5    1    3    3  502    0 -0.22420523995E+02 -0.24916371794E+02 -0.20121267638E+03  0.20403954670E+03  0.47000000000E+01 0.  1.
         -5    1    3    3    0  502  0.46285152853E+02  0.29387423719E+02 -0.37744297980E+02  0.66728240479E+02  0.47000000000E+01 0.  1.
          5    1    4    4  503    0 -0.71799346599E+02  0.77714607170E+01 -0.25824858395E+03  0.26819761909E+03  0.47000000000E+01 0.  1.
         -5    1    4    4    0  503  0.47934717741E+02 -0.12242512641E+02 -0.32600743960E+03  0.32977349341E+03  0.47000000000E+01 0.  1.
<mgrwt>
<rscale>  0 0.12733678E+03</rscale>
<asrwt>0</asrwt>
<pdfrwt beam="2">  1        5 0.13015012E+00 0.12733719E+03</pdfrwt>
<pdfrwt beam="1">  1       -5 0.35019931E-02 0.12733719E+03</pdfrwt>
<totfact> 0.13530368E+02</totfact>
</mgrwt>
</event>
<event>
 8    1  0.1821556E-007  0.1631836E+03  0.7546771E-02  0.1185150E+00
         -5   -1    0    0    0  501 -0.00000000000E+00  0.00000000000E+00  0.20723803765E+02  0.21250083353E+02  0.47000000000E+01 0.  1.
          5   -1    0    0  501    0  0.00000000000E+00 -0.00000000000E+00 -0.12706192549E+04  0.12706279475E+04  0.47000000000E+01 0.  1.
         25    2    1    2    0    0 -0.82159091354E+02  0.65222533576E+02 -0.59720012842E+03  0.61909358963E+03  0.12499913662E+03 0.  0.
         25    2    1    2    0    0  0.82159091354E+02 -0.65222533576E+02 -0.65269532272E+03  0.67278444121E+03  0.12499449932E+03 0.  0.
          5    1    3    3  502    0 -0.47377566863E+02  0.51209006014E+02 -0.10942927860E+03  0.12986089925E+03  0.47000000000E+01 0. -1.
         -5    1    3    3    0  502 -0.34781524491E+02  0.14013527562E+02 -0.48777084982E+03  0.48923269038E+03  0.47000000000E+01 0. -1.
          5    1    4    4  503    0  0.81975805143E+02 -0.29534677539E+02 -0.61307513821E+03  0.61925402292E+03  0.47000000000E+01 0.  1.
         -5    1    4    4    0  503  0.18328621093E+00 -0.35687856037E+02 -0.39620184505E+02  0.53530418292E+02  0.47000000000E+01 0.  1.
<mgrwt>
<rscale>  0 0.16318269E+03</rscale>
<asrwt>0</asrwt>
<pdfrwt beam="2">  1        5 0.19552098E+00 0.16318358E+03</pdfrwt>
<pdfrwt beam="1">  1       -5 0.32294302E-02 0.16318358E+03</pdfrwt>
<totfact> 0.52926063E+01</totfact>
</mgrwt>
</event>
<event>
 8    1  0.1821556E-007  0.1253008E+03  0.7546771E-02  0.1234602E+00
         -5   -1    0    0    0  501 -0.00000000000E+00  0.00000000000E+00  0.13546434360E+04  0.13546515894E+04  0.47000000000E+01 0.  1.
          5   -1    0    0  501    0  0.00000000000E+00 -0.00000000000E+00 -0.11968653731E+02  0.12858408616E+02  0.47000000000E+01 0.  1.
         25    2    1    2    0    0 -0.28474990400E+01  0.81350861446E+01  0.84834701222E+03  0.85755055504E+03  0.12500405369E+03 0.  0.
         25    2    1    2    0    0  0.28474990400E+01 -0.81350861446E+01  0.49432777003E+03  0.50995944297E+03  0.12499760545E+03 0.  0.
          5    1    3    3  502    0 -0.74435386868E+00 -0.33229463537E+02  0.74979046746E+03  0.75054152877E+03  0.47000000000E+01 0. -1.
         -5    1    3    3    0  502 -0.21031451713E+01  0.41364549682E+02  0.98556544755E+02  0.10700902627E+03  0.47000000000E+01 0. -1.
          5    1    4    4  503    0  0.62589349072E+02 -0.10027215015E+02  0.21140598346E+03  0.22075450505E+03  0.47000000000E+01 0.  1.
         -5    1    4    4    0  503 -0.59741850032E+02  0.18921288704E+01  0.28292178657E+03  0.28920493792E+03  0.47000000000E+01 0.  1.
<mgrwt>
<rscale>  0 0.12529923E+03</rscale>
<asrwt>0</asrwt>
<pdfrwt beam="2">  1        5 0.19104017E-02 0.12530084E+03</pdfrwt>
<pdfrwt beam="1">  1       -5 0.20847570E+00 0.12530084E+03</pdfrwt>
<totfact> 0.93032034E+01</totfact>
</mgrwt>
</event>
<event>
 8    1  0.1821556E-007  0.1284129E+03  0.7546771E-02  0.1229834E+00
         -5   -1    0    0    0  501 -0.00000000000E+00  0.00000000000E+00  0.35261713547E+02  0.35573563812E+02  0.47000000000E+01 0.  1.
          5   -1    0    0  501    0  0.00000000000E+00 -0.00000000000E+00 -0.46794820323E+03  0.46797180567E+03  0.47000000000E+01 0.  1.
         25    2    1    2    0    0  0.13779928025E+02 -0.25981531230E+02 -0.19711584194E+03  0.23524813821E+03  0.12498841950E+03 0.  0.
         25    2    1    2    0    0 -0.13779928025E+02  0.25981531230E+02 -0.23557064774E+03  0.26829723127E+03  0.12499979140E+03 0.  0.
          5    1    3    3  502    0 -0.21490923107E+02  0.95194857072E+01  0.70504942114E+01  0.24985592903E+02  0.47000000000E+01 0. -1.
         -5    1    3    3    0  502  0.35270851132E+02 -0.35501016937E+02 -0.20416633615E+03  0.21026254531E+03  0.47000000000E+01 0. -1.
          5    1    4    4  503    0  0.52159978619E+02  0.25063081781E+02 -0.76522641436E+02  0.96055328276E+02  0.47000000000E+01 0. -1.
         -5    1    4    4    0  503 -0.65939906644E+02  0.91844944890E+00 -0.15904800631E+03  0.17224190300E+03  0.47000000000E+01 0. -1.
<mgrwt>
<rscale>  0 0.12841014E+03</rscale>
<asrwt>0</asrwt>
<pdfrwt beam="2">  1        5 0.72017831E-01 0.12841291E+03</pdfrwt>
<pdfrwt beam="1">  1       -5 0.54506834E-02 0.12841291E+03</pdfrwt>
<totfact> 0.27366605E+02</totfact>
</mgrwt>
</event>
<event>
 8    1  0.1821556E-007  0.1652657E+03  0.7546771E-02  0.1182881E+00
         -5   -1    0    0    0  501 -0.00000000000E+00  0.00000000000E+00  0.15504042771E+03  0.15511165083E+03  0.47000000000E+01 0. -1.
          5   -1    0    0  501    0  0.00000000000E+00 -0.00000000000E+00 -0.19373605617E+03  0.19379305834E+03  0.47000000000E+01 0. -1.
         25    2    1    2    0    0  0.71748722372E+02 -0.80844797140E+02  0.33408335881E+02  0.16859458010E+03  0.12499702054E+03 0.  0.
         25    2    1    2    0    0 -0.71748722372E+02  0.80844797140E+02 -0.72103964345E+02  0.18031012908E+03  0.12501600133E+03 0.  0.
          5    1    4    4  502    0 -0.20945882573E+02 -0.33287633682E+02 -0.24276837571E+02  0.46456984355E+02  0.47000000000E+01 0.  1.
         -5    1    4    4    0  502 -0.50802839799E+02  0.11413243082E+03 -0.47827126775E+02  0.13385314472E+03  0.47000000000E+01 0.  1.
          5    1    3    3  503    0  0.27094063865E+01 -0.78320363902E+02  0.55234042328E+02  0.95991196037E+02  0.47000000000E+01 0. -1.
         -5    1    3    3    0  503  0.69039315986E+02 -0.25244332380E+01 -0.21825706447E+02  0.72603384059E+02  0.47000000000E+01 0. -1.
<mgrwt>
<rscale>  0 0.16526214E+03</rscale>
<asrwt>0</asrwt>
<pdfrwt beam="2">  1        5 0.29815411E-01 0.16526573E+03</pdfrwt>
<pdfrwt beam="1">  1       -5 0.23862237E-01 0.16526573E+03</pdfrwt>
<totfact> 0.13828910E+02</totfact>
</mgrwt>
</event>
<event>
 8    1  0.1821556E-007  0.1294791E+03  0.7546771E-02  0.1228233E+00
         -5   -1    0    0    0  501 -0.00000000000E+00  0.00000000000E+00  0.63866230883E+03  0.63867960256E+03  0.47000000000E+01 0.  1.
          5   -1    0    0  501    0  0.00000000000E+00 -0.00000000000E+00 -0.40670568258E+02  0.40941239874E+02  0.47000000000E+01 0.  1.
         25    2    1    2    0    0 -0.32098816214E+02  0.10353163776E+02  0.50204363861E+03  0.51847145188E+03  0.12500923702E+03 0.  0.
         25    2    1    2    0    0  0.32098816214E+02 -0.10353163776E+02  0.95948101960E+02  0.16114939055E+03  0.12500226319E+03 0.  0.
          5    1    4    4  502    0 -0.41148044282E+02 -0.31071809217E+02  0.27268651630E+02  0.58517418245E+02  0.47000000000E+01 0.  1.
         -5    1    4    4    0  502  0.73246860497E+02  0.20718645441E+02  0.68679450330E+02  0.10263197230E+03  0.47000000000E+01 0.  1.
          5    1    3    3  503    0  0.28236453590E+02  0.30057857591E+02  0.67132440165E+02  0.78927983864E+02  0.47000000000E+01 0.  1.
         -5    1    3    3    0  503 -0.60335269805E+02 -0.19704693816E+02  0.43491119845E+03  0.43954346802E+03  0.47000000000E+01 0.  1.
<mgrwt>
<rscale>  0 0.12947739E+03</rscale>
<asrwt>0</asrwt>
<pdfrwt beam="2">  1        5 0.62791621E-02 0.12947908E+03</pdfrwt>
<pdfrwt beam="1">  1       -5 0.98277885E-01 0.12947908E+03</pdfrwt>
<totfact> 0.10474338E+02</totfact>
</mgrwt>
</event>
<event>
 8    1  0.1821556E-007  0.1326760E+03  0.7546771E-02  0.1223538E+00
          5   -1    0    0  501    0  0.00000000000E+00  0.00000000000E+00  0.81969831087E+03  0.81971178523E+03  0.47000000000E+01 0.  1.
         -5   -1    0    0    0  501 -0.00000000000E+00 -0.00000000000E+00 -0.21312645502E+02  0.21824730428E+02  0.47000000000E+01 0.  1.
         25    2    1    2    0    0  0.36669677765E+02 -0.25180726005E+02  0.36948677984E+03  0.39258531972E+03  0.12499607415E+03 0.  0.
         25    2    1    2    0    0 -0.36669677765E+02  0.25180726005E+02  0.42889888552E+03  0.44895119593E+03  0.12499675234E+03 0.  0.
          5    1    4    4  502    0 -0.20591499474E+02  0.70932400649E+02  0.33596323250E+03  0.34401860255E+03  0.47000000000E+01 0.  1.
         -5    1    4    4    0  502 -0.16078178291E+02 -0.45751674644E+02  0.92935653028E+02  0.10493259338E+03  0.47000000000E+01 0.  1.
          5    1    3    3  503    0  0.82766475152E+02 -0.22277971488E+02  0.22477501198E+03  0.24060858969E+03  0.47000000000E+01 0.  1.
         -5    1    3    3    0  503 -0.46096797387E+02 -0.29027545166E+01  0.14471176786E+03  0.15197673003E+03  0.47000000000E+01 0.  1.
<mgrwt>
<rscale>  0 0.13267585E+03</rscale>
<asrwt>0</asrwt>
<pdfrwt beam="1">  1        5 0.12614787E+00 0.13267601E+03</pdfrwt>
<pdfrwt beam="2">  1       -5 0.33192959E-02 0.13267601E+03</pdfrwt>
<totfact> 0.16228328E+02</totfact>
</mgrwt>
</event>
<event>
 8    1  0.1821556E-007  0.1339699E+03  0.7546771E-02  0.1221682E+00
          5   -1    0    0  501    0  0.00000000000E+00  0.00000000000E+00  0.92493122607E+02  0.92612459905E+02  0.47000000000E+01 0.  1.
         -5   -1    0    0    0  501 -0.00000000000E+00 -0.00000000000E+00 -0.20330182045E+03  0.20335614128E+03  0.47000000000E+01 0.  1.
         25    2    1    2    0    0  0.45324257022E+02  0.16408626361E+02 -0.87433308185E+02  0.15997662038E+03  0.12499761756E+03 0.  0.
         25    2    1    2    0    0 -0.45324257022E+02 -0.16408626361E+02 -0.23375389653E+02  0.13599198080E+03  0.12499551475E+03 0.  0.
          5    1    3    3  502    0  0.36022060321E+02 -0.46323716706E+02 -0.74722873182E+02  0.95126617389E+02  0.47000000000E+01 0. -1.
         -5    1    3    3    0  502  0.93021967013E+01  0.62732343067E+02 -0.12710435002E+02  0.64850002993E+02  0.47000000000E+01 0. -1.
          5    1    4    4  503    0 -0.45286255378E+02 -0.30749923393E+02  0.41836585502E+02  0.69056445038E+02  0.47000000000E+01 0. -1.
         -5    1    4    4    0  503 -0.38001644085E-01  0.14341297032E+02 -0.65211975155E+02  0.66935535766E+02  0.47000000000E+01 0. -1.
<mgrwt>
<rscale>  0 0.13396942E+03</rscale>
<asrwt>0</asrwt>
<pdfrwt beam="1">  1        5 0.14243070E-01 0.13396991E+03</pdfrwt>
<pdfrwt beam="2">  1       -5 0.31290561E-01 0.13396991E+03</pdfrwt>
<totfact> 0.30540772E+02</totfact>
</mgrwt>
</event>
<event>
 8    1  0.1821556E-007  0.1358080E+03  0.7546771E-02  0.1219085E+00
         -5   -1    0    0    0  501 -0.00000000000E+00  0.00000000000E+00  0.47751484552E+02  0.47982228761E+02  0.47000000000E+01 0. -1.
          5   -1    0    0  501    0  0.00000000000E+00 -0.00000000000E+00 -0.40013239131E+03  0.40015999372E+03  0.47000000000E+01 0. -1.
         25    2    1    2    0    0 -0.19473621527E+02  0.49391094475E+02 -0.13271605951E+03  0.18988566316E+03  0.12499724186E+03 0.  0.
         25    2    1    2    0    0  0.19473621527E+02 -0.49391094475E+02 -0.21966484725E+03  0.25825655932E+03  0.12500041267E+03 0.  0.
          5    1    4    4  502    0 -0.35776690804E+02  0.23075396770E+02 -0.90365916335E+02  0.10000267184E+03  0.47000000000E+01 0. -1.
         -5    1    4    4    0  502  0.55250312331E+02 -0.72466491246E+02 -0.12929893092E+03  0.15825388748E+03  0.47000000000E+01 0. -1.
          5    1    3    3  503    0  0.10840186087E+02  0.83031371794E+02 -0.11186113219E+03  0.13980958920E+03  0.47000000000E+01 0. -1.
         -5    1    3    3    0  503 -0.30313807614E+02 -0.33640277319E+02 -0.20854927318E+02  0.50076073963E+02  0.47000000000E+01 0. -1.
<mgrwt>
<rscale>  0 0.13580724E+03</rscale>
<asrwt>0</asrwt>
<pdfrwt beam="2">  1        5 0.61578700E-01 0.13580797E+03</pdfrwt>
<pdfrwt beam="1">  1       -5 0.73662553E-02 0.13580797E+03</pdfrwt>
<totfact> 0.23817971E+02</totfact>
</mgrwt>
</event>
<event>
 8    1  0.1821556E-007  0.1278951E+03  0.7546771E-02  0.1230615E+00
         -5   -1    0    0    0  501 -0.00000000000E+00  0.00000000000E+00  0.26178038307E+03  0.26182257153E+03  0.47000000000E+01 0. -1.
          5   -1    0    0  501    0  0.00000000000E+00 -0.00000000000E+00 -0.65145889246E+02  0.65315211747E+02  0.47000000000E+01 0. -1.
         25    2    1    2    0    0 -0.19292252362E+02 -0.18924311081E+02  0.13217723540E+03  0.18392385738E+03  0.12500737260E+03 0.  0.
         25    2    1    2    0    0  0.19292252362E+02  0.18924311081E+02  0.64457258432E+02  0.14321392590E+03  0.12500067942E+03 0.  0.
          5    1    3    3  502    0  0.17912117073E+02 -0.50856480527E+02  0.14016419655E+02  0.55908635912E+02  0.47000000000E+01 0.  1.
         -5    1    3    3    0  502 -0.37204369435E+02  0.31932169446E+02  0.11816081574E+03  0.12801522147E+03  0.47000000000E+01 0.  1.
          5    1    4    4  503    0  0.41676140583E+02 -0.24430343328E+02 -0.14166108080E+02  0.50561951971E+02  0.47000000000E+01 0.  1.
         -5    1    4    4    0  503 -0.22383888221E+02  0.43354654408E+02  0.78623366512E+02  0.92651973926E+02  0.47000000000E+01 0.  1.
<mgrwt>
<rscale>  0 0.12789349E+03</rscale>
<asrwt>0</asrwt>
<pdfrwt beam="2">  1        5 0.10038714E-01 0.12789513E+03</pdfrwt>
<pdfrwt beam="1">  1       -5 0.40290176E-01 0.12789513E+03</pdfrwt>
<totfact> 0.33593423E+02</totfact>
</mgrwt>
</event>
<event>
 8    1  0.1821556E-007  0.1371955E+03  0.7546771E-02  0.1217155E+00
         -5   -1    0    0    0  501 -0.00000000000E+00  0.00000000000E+00  0.16880618209E+03  0.16887159948E+03  0.47000000000E+01 0. -1.
          5   -1    0    0  501    0  0.00000000000E+00 -0.00000000000E+00 -0.11157638683E+03  0.11167533344E+03  0.47000000000E+01 0. -1.
         25    2    1    2    0    0  0.28505005508E+02  0.48825340587E+02  0.34748792316E+02  0.14152765555E+03  0.12500459790E+03 0.  0.
         25    2    1    2    0    0 -0.28505005508E+02 -0.48825340587E+02  0.22481002942E+02  0.13901927737E+03  0.12499805904E+03 0.  0.
          5    1    3    3  502    0  0.26196743465E+02  0.80242788229E+02  0.57625127400E+02  0.10231285227E+03  0.47000000000E+01 0. -1.
         -5    1    3    3    0  502  0.23082620423E+01 -0.31417447642E+02 -0.22876335084E+02  0.39214803287E+02  0.47000000000E+01 0. -1.
          5    1    4    4  503    0 -0.47759628090E+02  0.13311788869E+02 -0.27461998413E+02  0.56872112279E+02  0.47000000000E+01 0. -1.
         -5    1    4    4    0  503  0.19254622582E+02 -0.62137129457E+02  0.49943001355E+02  0.82147165089E+02  0.47000000000E+01 0. -1.
<mgrwt>
<rscale>  0 0.13719399E+03</rscale>
<asrwt>0</asrwt>
<pdfrwt beam="2">  1        5 0.17178241E-01 0.13719548E+03</pdfrwt>
<pdfrwt beam="1">  1       -5 0.25982825E-01 0.13719548E+03</pdfrwt>
<totfact> 0.31466267E+02</totfact>
</mgrwt>
</event>
<event>
 8    1  0.1821556E-007  0.1350920E+03  0.7546771E-02  0.1220093E+00
         -5   -1    0    0    0  501 -0.00000000000E+00  0.00000000000E+00  0.30548321389E+03  0.30551936758E+03  0.47000000000E+01 0.  1.
          5   -1    0    0  501    0  0.00000000000E+00 -0.00000000000E+00 -0.66224037967E+02  0.66390610817E+02  0.47000000000E+01 0.  1.
         25    2    1    2    0    0 -0.50913950856E+02 -0.56994102721E+01  0.17833175057E+03  0.22372315692E+03  0.12500049605E+03 0.  0.
         25    2    1    2    0    0  0.50913950856E+02  0.56994102721E+01  0.60927425355E+02  0.14818682148E+03  0.12498987651E+03 0.  0.
          5    1    3    3  502    0 -0.90673190527E+02  0.11077312713E+02  0.11494390448E+03  0.14689630872E+03  0.47000000000E+01 0. -1.
         -5    1    3    3    0  502  0.39759239672E+02 -0.16776722985E+02  0.63387846088E+02  0.76826848204E+02  0.47000000000E+01 0. -1.
          5    1    4    4  503    0  0.52717415124E+02  0.94177355614E+00 -0.27387866708E+02  0.59600319107E+02  0.47000000000E+01 0.  1.
         -5    1    4    4    0  503 -0.18034642687E+01  0.47576367160E+01  0.88315292064E+02  0.88586502374E+02  0.47000000000E+01 0.  1.
<mgrwt>
<rscale>  0 0.13508950E+03</rscale>
<asrwt>0</asrwt>
<pdfrwt beam="2">  1        5 0.10203908E-01 0.13509196E+03</pdfrwt>
<pdfrwt beam="1">  1       -5 0.47013011E-01 0.13509196E+03</pdfrwt>
<totfact> 0.24186285E+02</totfact>
</mgrwt>
</event>
<event>
 8    1  0.1821556E-007  0.1282130E+03  0.7546771E-02  0.1230132E+00
         -5   -1    0    0    0  501 -0.00000000000E+00  0.00000000000E+00  0.22543148639E+02  0.23027886368E+02  0.47000000000E+01 0. -1.
          5   -1    0    0  501    0  0.00000000000E+00 -0.00000000000E+00 -0.99007889215E+03  0.99009004776E+03  0.47000000000E+01 0. -1.
         25    2    1    2    0    0  0.28473745762E+02 -0.15214089491E+01 -0.21973176137E+03  0.25440247082E+03  0.12500200527E+03 0.  0.
         25    2    1    2    0    0 -0.28473745762E+02  0.15214089491E+01 -0.74780398214E+03  0.75871546331E+03  0.12500115871E+03 0.  0.
          5    1    3    3  502    0  0.70511973911E+02 -0.28035047277E+02 -0.10853870448E+03  0.13251657523E+03  0.47000000000E+01 0.  1.
         -5    1    3    3    0  502 -0.42038228148E+02  0.26513638328E+02 -0.11119305688E+03  0.12188589558E+03  0.47000000000E+01 0.  1.
          5    1    4    4  503    0  0.13707683029E+02 -0.51224709083E+02 -0.20893749140E+03  0.21561270071E+03  0.47000000000E+01 0.  1.
         -5    1    4    4    0  503 -0.42181428791E+02  0.52746118032E+02 -0.53886649074E+03  0.54310276260E+03  0.47000000000E+01 0.  1.
<mgrwt>
<rscale>  0 0.12821278E+03</rscale>
<asrwt>0</asrwt>
<pdfrwt beam="2">  1        5 0.15235794E+00 0.12821299E+03</pdfrwt>
<pdfrwt beam="1">  1       -5 0.35063231E-02 0.12821299E+03</pdfrwt>
<totfact> 0.88932939E+01</totfact>
</mgrwt>
</event>
<event>
 8    1  0.1821556E-007  0.1300429E+03  0.7546771E-02  0.1227392E+00
          5   -1    0    0  501    0  0.00000000000E+00  0.00000000000E+00  0.30604979859E+03  0.30608588536E+03  0.47000000000E+01 0. -1.
         -5   -1    0    0    0  501 -0.00000000000E+00 -0.00000000000E+00 -0.57147035870E+02  0.57339983508E+02  0.47000000000E+01 0. -1.
         25    2    1    2    0    0 -0.35544552952E+02 -0.48505438879E+01  0.90269296172E+02  0.15830257213E+03  0.12499686192E+03 0.  0.
         25    2    1    2    0    0  0.35544552952E+02  0.48505438879E+01  0.15863346655E+03  0.20512329674E+03  0.12499618848E+03 0.  0.
          5    1    4    4  502    0  0.69448156226E+02 -0.29782448706E+02  0.65859764368E+02  0.10034759198E+03  0.47000000000E+01 0. -1.
         -5    1    4    4    0  502 -0.33903603274E+02  0.34632992594E+02  0.92773702184E+02  0.10477570476E+03  0.47000000000E+01 0. -1.
          5    1    3    3  503    0 -0.68560590704E+02  0.33035892598E+02  0.71271327390E+02  0.10437249113E+03  0.47000000000E+01 0.  1.
         -5    1    3    3    0  503  0.33016037752E+02 -0.37886436486E+02  0.18997968782E+02  0.53930080997E+02  0.47000000000E+01 0.  1.
<mgrwt>
<rscale>  0 0.13004275E+03</rscale>
<asrwt>0</asrwt>
<pdfrwt beam="1">  1        5 0.47102202E-01 0.13004291E+03</pdfrwt>
<pdfrwt beam="2">  1       -5 0.88094698E-02 0.13004291E+03</pdfrwt>
<totfact> 0.30679458E+02</totfact>
</mgrwt>
</event>
<event>
 8    1  0.1821556E-007  0.1348451E+03  0.7546771E-02  0.1220440E+00
         -5   -1    0    0    0  501 -0.00000000000E+00  0.00000000000E+00  0.68290258535E+03  0.68291875877E+03  0.47000000000E+01 0.  1.
          5   -1    0    0  501    0  0.00000000000E+00 -0.00000000000E+00 -0.29781267200E+02  0.30149856982E+02  0.47000000000E+01 0.  1.
         25    2    1    2    0    0  0.61621348191E+01  0.50165547408E+02  0.44586521493E+03  0.46581004509E+03  0.12501461583E+03 0.  0.
         25    2    1    2    0    0 -0.61621348191E+01 -0.50165547408E+02  0.20725610322E+03  0.24725857066E+03  0.12500861726E+03 0.  0.
          5    1    4    4  502    0  0.53419230024E+02 -0.51095000061E+02  0.12944563010E+03  0.14913944589E+03  0.47000000000E+01 0. -1.
         -5    1    4    4    0  502 -0.59581364844E+02  0.92945265350E+00  0.77810473121E+02  0.98119124773E+02  0.47000000000E+01 0. -1.
          5    1    3    3  503    0  0.62348701017E+02  0.47099060555E+02  0.26777169771E+03  0.27897930769E+03  0.47000000000E+01 0.  1.
         -5    1    3    3    0  503 -0.56186566198E+02  0.30664868525E+01  0.17809351722E+03  0.18683073740E+03  0.47000000000E+01 0.  1.
<mgrwt>
<rscale>  0 0.13484374E+03</rscale>
<asrwt>0</asrwt>
<pdfrwt beam="2">  1        5 0.46113310E-02 0.13484513E+03</pdfrwt>
<pdfrwt beam="1">  1       -5 0.10509152E+00 0.13484513E+03</pdfrwt>
<totfact> 0.15081124E+02</totfact>
</mgrwt>
</event>
<event>
 8    1  0.1821556E-007  0.1350893E+03  0.7546771E-02  0.1220095E+00
         -5   -1    0    0    0  501 -0.00000000000E+00  0.00000000000E+00  0.78948585678E+02  0.79088363117E+02  0.47000000000E+01 0. -1.
          5   -1    0    0  501    0  0.00000000000E+00 -0.00000000000E+00 -0.25456671534E+03  0.25461009909E+03  0.47000000000E+01 0. -1.
         25    2    1    2    0    0  0.29859839140E+02 -0.41617674587E+02 -0.36823789284E+02  0.14001824098E+03  0.12500190206E+03 0.  0.
         25    2    1    2    0    0 -0.29859839140E+02  0.41617674587E+02 -0.13879434038E+03  0.19368022123E+03  0.12499807336E+03 0.  0.
          5    1    4    4  502    0 -0.36331097078E+02  0.33945537231E+02 -0.16115886558E+03  0.16872023609E+03  0.47000000000E+01 0. -1.
         -5    1    4    4    0  502  0.64712579387E+01  0.76721373567E+01  0.22364525195E+02  0.24959985139E+02  0.47000000000E+01 0. -1.
          5    1    3    3  503    0  0.60157152346E+02 -0.15347807947E+02  0.24239753051E+02  0.66813874421E+02  0.47000000000E+01 0. -1.
         -5    1    3    3    0  503 -0.30297313207E+02 -0.26269866640E+02 -0.61063542335E+02  0.73204366559E+02  0.47000000000E+01 0. -1.
<mgrwt>
<rscale>  0 0.13508840E+03</rscale>
<asrwt>0</asrwt>
<pdfrwt beam="2">  1        5 0.39178199E-01 0.13508929E+03</pdfrwt>
<pdfrwt beam="1">  1       -5 0.12160026E-01 0.13508929E+03</pdfrwt>
<totfact> 0.25890726E+02</totfact>
</mgrwt>
</event>
<event>
 8    1  0.1821556E-007  0.1517074E+03  0.7546771E-02  0.1198391E+00
         -5   -1    0    0    0  501 -0.00000000000E+00  0.00000000000E+00  0.84384866221E+02  0.84515653267E+02  0.47000000000E+01 0.  1.
          5   -1    0    0  501    0  0.00000000000E+00 -0.00000000000E+00 -0.30078805643E+03  0.30082477439E+03  0.47000000000E+01 0.  1.
         25    2    1    2    0    0  0.85421386781E+02  0.96474484071E+01 -0.49002254958E+02  0.15942504096E+03  0.12500094445E+03 0.  0.
         25    2    1    2    0    0 -0.85421386781E+02 -0.96474484071E+01 -0.16740093525E+03  0.22591538670E+03  0.12499920898E+03 0.  0.
          5    1    3    3  502    0  0.54312106423E+02  0.64261601584E+02 -0.89424309533E+01  0.84743232258E+02  0.47000000000E+01 0. -1.
         -5    1    3    3    0  502  0.31109280359E+02 -0.54614153177E+02 -0.40059824005E+02  0.74681808702E+02  0.47000000000E+01 0. -1.
          5    1    4    4  503    0 -0.62080281721E+02  0.44520995567E+02 -0.42116755368E+02  0.87361270066E+02  0.47000000000E+01 0. -1.
         -5    1    4    4    0  503 -0.23341105060E+02 -0.54168443974E+02 -0.12528417988E+03  0.13855411663E+03  0.47000000000E+01 0. -1.
<mgrwt>
<rscale>  0 0.15170700E+03</rscale>
<asrwt>0</asrwt>
<pdfrwt beam="2">  1        5 0.46287970E-01 0.15170736E+03</pdfrwt>
<pdfrwt beam="1">  1       -5 0.12995172E-01 0.15170736E+03</pdfrwt>
<totfact> 0.16937350E+02</totfact>
</mgrwt>
</event>
<event>
 8    1  0.1821556E-007  0.1636768E+03  0.7546771E-02  0.1184608E+00
          5   -1    0    0  501    0  0.00000000000E+00  0.00000000000E+00  0.19083898106E+03  0.19089684831E+03  0.47000000000E+01 0. -1.
         -5   -1    0    0    0  501 -0.00000000000E+00 -0.00000000000E+00 -0.16113363664E+03  0.16120216766E+03  0.47000000000E+01 0. -1.
         25    2    1    2    0    0 -0.58632029773E+02 -0.87891990945E+02 -0.48484579985E+02  0.17070506548E+03  0.12500699140E+03 0.  0.
         25    2    1    2    0    0  0.58632029773E+02  0.87891990945E+02  0.78189924410E+02  0.18139395048E+03  0.12500953565E+03 0.  0.
          5    1    4    4  502    0 -0.50996267480E+01 -0.13721933261E+02  0.57582263634E+02  0.59599536329E+02  0.47000000000E+01 0.  1.
         -5    1    4    4    0  502  0.63731656521E+02  0.10161392421E+03  0.20607660776E+02  0.12179441415E+03  0.47000000000E+01 0.  1.
          5    1    3    3  503    0  0.74372763211E+01 -0.66363267345E+02  0.23111880864E+02  0.70821221176E+02  0.47000000000E+01 0. -1.
         -5    1    3    3    0  503 -0.66069306094E+02 -0.21528723600E+02 -0.71596460848E+02  0.99883844307E+02  0.47000000000E+01 0. -1.
<mgrwt>
<rscale>  0 0.16367633E+03</rscale>
<asrwt>0</asrwt>
<pdfrwt beam="1">  1        5 0.29369566E-01 0.16367682E+03</pdfrwt>
<pdfrwt beam="2">  1       -5 0.24799513E-01 0.16367682E+03</pdfrwt>
<totfact> 0.13192587E+02</totfact>
</mgrwt>
</event>
<event>
 8    1  0.1821556E-007  0.1428224E+03  0.7546771E-02  0.1209582E+00
          5   -1    0    0  501    0  0.00000000000E+00  0.00000000000E+00  0.66697688777E+02  0.66863081653E+02  0.47000000000E+01 0. -1.
         -5   -1    0    0    0  501 -0.00000000000E+00 -0.00000000000E+00 -0.30802580768E+03  0.30806166298E+03  0.47000000000E+01 0. -1.
         25    2    1    2    0    0  0.66130438590E+02  0.20006973377E+02 -0.13840941826E+03  0.19888358140E+03  0.12499599193E+03 0.  0.
         25    2    1    2    0    0 -0.66130438590E+02 -0.20006973377E+02 -0.10291870065E+03  0.17604116323E+03  0.12499887326E+03 0.  0.
          5    1    4    4  502    0  0.30968577654E+02 -0.16759473597E+02 -0.59995621237E+02  0.69724438505E+02  0.47000000000E+01 0.  1.
         -5    1    4    4    0  502 -0.97099016244E+02 -0.32474997799E+01 -0.42923079413E+02  0.10631672473E+03  0.47000000000E+01 0.  1.
          5    1    3    3  503    0  0.89373092734E+02  0.39687637971E+02 -0.13653872747E+03  0.16801063184E+03  0.47000000000E+01 0. -1.
         -5    1    3    3    0  503 -0.23242654144E+02 -0.19680664594E+02 -0.18706907847E+01  0.30872949560E+02  0.47000000000E+01 0. -1.
<mgrwt>
<rscale>  0 0.14282175E+03</rscale>
<asrwt>0</asrwt>
<pdfrwt beam="1">  1        5 0.10276664E-01 0.14282238E+03</pdfrwt>
<pdfrwt beam="2">  1       -5 0.47404066E-01 0.14282238E+03</pdfrwt>
<totfact> 0.23920167E+02</totfact>
</mgrwt>
</event>
<event>
 8    1  0.1821556E-007  0.1294330E+03  0.7546771E-02  0.1228305E+00
          5   -1    0    0  501    0  0.00000000000E+00  0.00000000000E+00  0.31144152418E+03  0.31147698628E+03  0.47000000000E+01 0. -1.
         -5   -1    0    0    0  501 -0.00000000000E+00 -0.00000000000E+00 -0.59146735961E+02  0.59333181061E+02  0.47000000000E+01 0. -1.
         25    2    1    2    0    0 -0.32394758374E+02  0.86099108335E+01  0.69699077958E+02  0.14699307376E+03  0.12500180531E+03 0.  0.
         25    2    1    2    0    0  0.32394758374E+02 -0.86099108335E+01  0.18259571026E+03  0.22381709358E+03  0.12501738695E+03 0.  0.
          5    1    3    3  502    0  0.30466391713E+02  0.46554377347E+02  0.30811558593E+02  0.63772668261E+02  0.47000000000E+01 0. -1.
         -5    1    3    3    0  502 -0.62861150087E+02 -0.37944466513E+02  0.38887519364E+02  0.83220405500E+02  0.47000000000E+01 0. -1.
          5    1    4    4  503    0  0.50844423644E+00  0.54673496540E+02  0.10600389518E+03  0.11936651764E+03  0.47000000000E+01 0. -1.
         -5    1    4    4    0  503  0.31886314137E+02 -0.63283407373E+02  0.76591815080E+02  0.10445057595E+03  0.47000000000E+01 0. -1.
<mgrwt>
<rscale>  0 0.12942922E+03</rscale>
<asrwt>0</asrwt>
<pdfrwt beam="1">  1        5 0.47931150E-01 0.12943299E+03</pdfrwt>
<pdfrwt beam="2">  1       -5 0.91165678E-02 0.12943299E+03</pdfrwt>
<totfact> 0.27828310E+02</totfact>
</mgrwt>
</event>
<event>
 8    1  0.1821556E-007  0.1827370E+03  0.7546771E-02  0.1165181E+00
          5   -1    0    0  501    0  0.00000000000E+00  0.00000000000E+00  0.78360201661E+02  0.78501026772E+02  0.47000000000E+01 0. -1.
         -5   -1    0    0    0  501 -0.00000000000E+00 -0.00000000000E+00 -0.43737488484E+03  0.43740013704E+03  0.47000000000E+01 0. -1.
         25    2    1    2    0    0 -0.13067027182E+03  0.26308929329E+02 -0.22182702892E+03  0.28739894268E+03  0.12499616712E+03 0.  0.
         25    2    1    2    0    0  0.13067027182E+03 -0.26308929329E+02 -0.13718765426E+03  0.22850222114E+03  0.12500373147E+03 0.  0.
          5    1    4    4  502    0  0.97852510743E+02  0.39210524996E+02 -0.57612131174E+02  0.12022406909E+03  0.47000000000E+01 0.  1.
         -5    1    4    4    0  502  0.32817761080E+02 -0.65519454325E+02 -0.79575523084E+02  0.10827815205E+03  0.47000000000E+01 0.  1.
          5    1    3    3  503    0 -0.10004927220E+03  0.73697237931E+02 -0.17013207908E+03  0.21073242294E+03  0.47000000000E+01 0.  1.
         -5    1    3    3    0  503 -0.30620999620E+02 -0.47388308602E+02 -0.51694949836E+02  0.76666519737E+02  0.47000000000E+01 0.  1.
<mgrwt>
<rscale>  0 0.18273571E+03</rscale>
<asrwt>0</asrwt>
<pdfrwt beam="1">  1        5 0.12068191E-01 0.18273700E+03</pdfrwt>
<pdfrwt beam="2">  1       -5 0.67301217E-01 0.18273700E+03</pdfrwt>
<totfact> 0.90782204E+01</totfact>
</mgrwt>
</event>
<event>
 8    1  0.1821556E-007  0.1518540E+03  0.7546771E-02  0.1198236E+00
         -5   -1    0    0    0  501 -0.00000000000E+00  0.00000000000E+00  0.10044877065E+03  0.10055866708E+03  0.47000000000E+01 0. -1.
          5   -1    0    0  501    0  0.00000000000E+00 -0.00000000000E+00 -0.23070757060E+03  0.23075544010E+03  0.47000000000E+01 0. -1.
         25    2    1    2    0    0  0.34708356040E+02  0.78891067973E+02 -0.51730069642E+02  0.16042332727E+03  0.12502469053E+03 0.  0.
         25    2    1    2    0    0 -0.34708356040E+02 -0.78891067973E+02 -0.78528730314E+02  0.17089077991E+03  0.12493368876E+03 0.  0.
          5    1    3    3  502    0 -0.35866237541E+02  0.42760438673E+02 -0.58154048832E+02  0.80739243906E+02  0.47000000000E+01 0.  1.
         -5    1    3    3    0  502  0.70574593581E+02  0.36130629300E+02  0.64239791900E+01  0.79684083363E+02  0.47000000000E+01 0.  1.
          5    1    4    4  503    0  0.46576645606E+02 -0.24745881578E+02 -0.37320567615E+02  0.64781612654E+02  0.47000000000E+01 0.  1.
         -5    1    4    4    0  503 -0.81285001646E+02 -0.54145186395E+02 -0.41208162699E+02  0.10610916725E+03  0.47000000000E+01 0.  1.
<mgrwt>
<rscale>  0 0.15183529E+03</rscale>
<asrwt>0</asrwt>
<pdfrwt beam="2">  1        5 0.35505608E-01 0.15185402E+03</pdfrwt>
<pdfrwt beam="1">  1       -5 0.15465793E-01 0.15185402E+03</pdfrwt>
<totfact> 0.21337934E+02</totfact>
</mgrwt>
</event>
<event>
 8    1  0.1821556E-007  0.1727389E+03  0.7546771E-02  0.1175025E+00
          5   -1    0    0  501    0  0.00000000000E+00  0.00000000000E+00  0.38186904409E+03  0.38189796652E+03  0.47000000000E+01 0.  1.
         -5   -1    0    0    0  501 -0.00000000000E+00 -0.00000000000E+00 -0.78062844080E+02  0.78204204656E+02  0.47000000000E+01 0.  1.
         25    2    1    2    0    0 -0.59273329518E+02  0.10343110858E+03  0.15665629418E+03  0.23318406549E+03  0.12498916783E+03 0.  0.
         25    2    1    2    0    0  0.59273329518E+02 -0.10343110858E+03  0.14714990583E+03  0.22691810569E+03  0.12500963999E+03 0.  0.
          5    1    3    3  502    0 -0.94621549178E+02  0.88384068504E+02  0.14084506949E+03  0.19137503686E+03  0.47000000000E+01 0. -1.
         -5    1    3    3    0  502  0.35348219659E+02  0.15047040075E+02  0.15811224685E+02  0.41809028620E+02  0.47000000000E+01 0. -1.
          5    1    4    4  503    0  0.42640149499E+02 -0.60996602269E+02  0.16233845259E+03  0.17864666531E+03  0.47000000000E+01 0. -1.
         -5    1    4    4    0  503  0.16633180019E+02 -0.42434506310E+02 -0.15188546764E+02  0.48271440377E+02  0.47000000000E+01 0. -1.
<mgrwt>
<rscale>  0 0.17273521E+03</rscale>
<asrwt>0</asrwt>
<pdfrwt beam="1">  1        5 0.58762183E-01 0.17273891E+03</pdfrwt>
<pdfrwt beam="2">  1       -5 0.12022767E-01 0.17273891E+03</pdfrwt>
<totfact> 0.12149133E+02</totfact>
</mgrwt>
</event>
<event>
 8    1  0.1821556E-007  0.2898162E+03  0.7546771E-02  0.1090445E+00
         -5   -1    0    0    0  501 -0.00000000000E+00  0.00000000000E+00  0.62027089830E+03  0.62028870478E+03  0.47000000000E+01 0. -1.
          5   -1    0    0  501    0  0.00000000000E+00 -0.00000000000E+00 -0.18571185099E+03  0.18577131532E+03  0.47000000000E+01 0. -1.
         25    2    1    2    0    0 -0.60360121814E+02 -0.25441194869E+03  0.42710254116E+03  0.51614791807E+03  0.12499323469E+03 0.  0.
         25    2    1    2    0    0  0.60360121814E+02  0.25441194869E+03  0.74565061508E+01  0.28991210203E+03  0.12499857390E+03 0.  0.
          5    1    4    4  502    0  0.67229668973E+01  0.20289551987E+03 -0.32040550973E+02  0.20557353228E+03  0.47000000000E+01 0. -1.
         -5    1    4    4    0  502  0.53637154917E+02  0.51516428821E+02  0.39497057123E+02  0.84338569750E+02  0.47000000000E+01 0. -1.
          5    1    3    3  503    0 -0.79516682736E+02 -0.18475660122E+03  0.37941142810E+03  0.42945666406E+03  0.47000000000E+01 0.  1.
         -5    1    3    3    0  503  0.19156560922E+02 -0.69655347470E+02  0.47691113059E+02  0.86691254013E+02  0.47000000000E+01 0.  1.
<mgrwt>
<rscale>  0 0.28981562E+03</rscale>
<asrwt>0</asrwt>
<pdfrwt beam="2">  1        5 0.28576998E-01 0.28981620E+03</pdfrwt>
<pdfrwt beam="1">  1       -5 0.95432235E-01 0.28981620E+03</pdfrwt>
<totfact> 0.89073835E+00</totfact>
</mgrwt>
</event>
<event>
 8    1  0.1821556E-007  0.1356483E+03  0.7546771E-02  0.1219309E+00
          5   -1    0    0  501    0  0.00000000000E+00  0.00000000000E+00  0.16488443959E+03  0.16495141230E+03  0.47000000000E+01 0.  1.
         -5   -1    0    0    0  501 -0.00000000000E+00 -0.00000000000E+00 -0.12226940953E+03  0.12235970950E+03  0.47000000000E+01 0.  1.
         25    2    1    2    0    0  0.42380805896E+01 -0.52515029910E+02 -0.21392368340E+02  0.13731979341E+03  0.12499321000E+03 0.  0.
         25    2    1    2    0    0 -0.42380805896E+01  0.52515029910E+02  0.64007398394E+02  0.14999132838E+03  0.12499864738E+03 0.  0.
          5    1    4    4  502    0  0.15476084960E+02 -0.65079829888E+01 -0.31441761797E+02  0.35951876629E+02  0.47000000000E+01 0.  1.
         -5    1    4    4    0  502 -0.19714165549E+02  0.59023012899E+02  0.95449160191E+02  0.11403945175E+03  0.47000000000E+01 0.  1.
          5    1    3    3  503    0 -0.25309310437E+02  0.58140487710E+00  0.42075007147E+02  0.49328444662E+02  0.47000000000E+01 0. -1.
         -5    1    3    3    0  503  0.29547391026E+02 -0.53096434787E+02 -0.63467375487E+02  0.87991348749E+02  0.47000000000E+01 0. -1.
<mgrwt>
<rscale>  0 0.13564701E+03</rscale>
<asrwt>0</asrwt>
<pdfrwt beam="1">  1        5 0.25378935E-01 0.13564826E+03</pdfrwt>
<pdfrwt beam="2">  1       -5 0.18822776E-01 0.13564826E+03</pdfrwt>
<totfact> 0.27706170E+02</totfact>
</mgrwt>
</event>
<event>
 8    1  0.1821556E-007  0.1282776E+03  0.7546771E-02  0.1230034E+00
          5   -1    0    0  501    0  0.00000000000E+00  0.00000000000E+00  0.13075277058E+03  0.13083721571E+03  0.47000000000E+01 0. -1.
         -5   -1    0    0    0  501 -0.00000000000E+00 -0.00000000000E+00 -0.12573178854E+03  0.12581960359E+03  0.47000000000E+01 0. -1.
         25    2    1    2    0    0 -0.95111770881E+01 -0.27259393844E+02 -0.11010319486E+00  0.12827667468E+03  0.12498542356E+03 0.  0.
         25    2    1    2    0    0  0.95111770881E+01  0.27259393844E+02  0.51310852394E+01  0.12838014462E+03  0.12498638508E+03 0.  0.
          5    1    4    4  502    0  0.12320513404E+02  0.34355971694E+02  0.61301583235E+02  0.71498964669E+02  0.47000000000E+01 0.  1.
         -5    1    4    4    0  502 -0.28093363159E+01 -0.70965778501E+01 -0.56170497996E+02  0.56881179953E+02  0.47000000000E+01 0.  1.
          5    1    3    3  503    0 -0.35249911618E+02  0.38726633205E+02  0.17003874075E+02  0.55258756066E+02  0.47000000000E+01 0. -1.
         -5    1    3    3    0  503  0.25738734530E+02 -0.65986027048E+02 -0.17113977269E+02  0.73017918615E+02  0.47000000000E+01 0. -1.
<mgrwt>
<rscale>  0 0.12827733E+03</rscale>
<asrwt>0</asrwt>
<pdfrwt beam="1">  1        5 0.20129062E-01 0.12827756E+03</pdfrwt>
<pdfrwt beam="2">  1       -5 0.19356603E-01 0.12827756E+03</pdfrwt>
<totfact> 0.39971431E+02</totfact>
</mgrwt>
</event>
<event>
 8    1  0.1821556E-007  0.1791121E+03  0.7546771E-02  0.1168666E+00
          5   -1    0    0  501    0  0.00000000000E+00  0.00000000000E+00  0.11317065578E+03  0.11326820971E+03  0.47000000000E+01 0. -1.
         -5   -1    0    0    0  501 -0.00000000000E+00 -0.00000000000E+00 -0.33923618837E+03  0.33926874524E+03  0.47000000000E+01 0. -1.
         25    2    1    2    0    0  0.95070007299E+02 -0.86126208803E+02 -0.20495465648E+03  0.27219028404E+03  0.12500043752E+03 0.  0.
         25    2    1    2    0    0 -0.95070007299E+02  0.86126208803E+02 -0.21110876100E+02  0.18034667091E+03  0.12499288975E+03 0.  0.
          5    1    3    3  502    0  0.10874710744E+03 -0.92164981511E+02 -0.12175626894E+03  0.18752865440E+03  0.47000000000E+01 0.  1.
         -5    1    3    3    0  502 -0.13677100139E+02  0.60387727082E+01 -0.83198387541E+02  0.84661629641E+02  0.47000000000E+01 0.  1.
          5    1    4    4  503    0 -0.12447300166E+03  0.58085619706E+02 -0.92014213894E+01  0.13774695465E+03  0.47000000000E+01 0. -1.
         -5    1    4    4    0  503  0.29402994362E+02  0.28040589097E+02 -0.11909454711E+02  0.42599716265E+02  0.47000000000E+01 0. -1.
<mgrwt>
<rscale>  0 0.17911077E+03</rscale>
<asrwt>0</asrwt>
<pdfrwt beam="1">  1        5 0.17420879E-01 0.17911209E+03</pdfrwt>
<pdfrwt beam="2">  1       -5 0.52200191E-01 0.17911209E+03</pdfrwt>
<totfact> 0.81037784E+01</totfact>
</mgrwt>
</event>
<event>
 8    1  0.1821556E-007  0.1262161E+03  0.7546771E-02  0.1233181E+00
         -5   -1    0    0    0  501 -0.00000000000E+00  0.00000000000E+00  0.14774683342E+03  0.14782157078E+03  0.47000000000E+01 0.  1.
          5   -1    0    0  501    0  0.00000000000E+00 -0.00000000000E+00 -0.12051190105E+03  0.12060351693E+03  0.47000000000E+01 0.  1.
         25    2    1    2    0    0 -0.71698564303E+00  0.17461402324E+02  0.57398771432E+02  0.13865463422E+03  0.12500029596E+03 0.  0.
         25    2    1    2    0    0  0.71698564303E+00 -0.17461402324E+02 -0.30163839061E+02  0.12977045349E+03  0.12500039509E+03 0.  0.
          5    1    3    3  502    0 -0.25025748078E+02 -0.87161393406E+01  0.87599197308E+02  0.91640430602E+02  0.47000000000E+01 0.  1.
         -5    1    3    3    0  502  0.24308762435E+02  0.26177541665E+02 -0.30200425876E+02  0.47014203618E+02  0.47000000000E+01 0.  1.
          5    1    4    4  503    0  0.44314300456E+02  0.18125633286E+01 -0.58924607385E+02  0.73900216279E+02  0.47000000000E+01 0. -1.
         -5    1    4    4    0  503 -0.43597314813E+02 -0.19273965653E+02  0.28760768324E+02  0.55870237206E+02  0.47000000000E+01 0. -1.
<mgrwt>
<rscale>  0 0.12621611E+03</rscale>
<asrwt>0</asrwt>
<pdfrwt beam="2">  1        5 0.18553089E-01 0.12621614E+03</pdfrwt>
<pdfrwt beam="1">  1       -5 0.22743078E-01 0.12621614E+03</pdfrwt>
<totfact> 0.34171856E+02</totfact>
</mgrwt>
</event>
<event>
 8    1  0.1821556E-007  0.1443533E+03  0.7546771E-02  0.1207590E+00
          5   -1    0    0  501    0  0.00000000000E+00  0.00000000000E+00  0.14183183864E+03  0.14190969119E+03  0.47000000000E+01 0. -1.
         -5   -1    0    0    0  501 -0.00000000000E+00 -0.00000000000E+00 -0.17428535903E+03  0.17434872059E+03  0.47000000000E+01 0. -1.
         25    2    1    2    0    0 -0.40696999768E+02  0.59638487500E+02  0.46590194773E+02  0.15168563268E+03  0.12499955972E+03 0.  0.
         25    2    1    2    0    0  0.40696999768E+02 -0.59638487500E+02 -0.79043715161E+02  0.16457277911E+03  0.12499318275E+03 0.  0.
          5    1    3    3  502    0  0.29133010108E+00  0.89336581662E+02  0.12146545137E+02  0.90281439151E+02  0.47000000000E+01 0. -1.
         -5    1    3    3    0  502 -0.40988329869E+02 -0.29698094162E+02  0.34443649636E+02  0.61404193526E+02  0.47000000000E+01 0. -1.
          5    1    4    4  503    0  0.24799717033E+02  0.35004294539E+02 -0.53571839983E+01  0.43486963811E+02  0.47000000000E+01 0.  1.
         -5    1    4    4    0  503  0.15897282734E+02 -0.94642782040E+02 -0.73686531163E+02  0.12108581529E+03  0.47000000000E+01 0.  1.
<mgrwt>
<rscale>  0 0.14435195E+03</rscale>
<asrwt>0</asrwt>
<pdfrwt beam="1">  1        5 0.21831146E-01 0.14435333E+03</pdfrwt>
<pdfrwt beam="2">  1       -5 0.26823995E-01 0.14435333E+03</pdfrwt>
<totfact> 0.19271805E+02</totfact>
</mgrwt>
</event>
<event>
 8    1  0.1821556E-007  0.1305508E+03  0.7546771E-02  0.1226643E+00
          5   -1    0    0  501    0  0.00000000000E+00  0.00000000000E+00  0.12148457589E+03  0.12157545879E+03  0.47000000000E+01 0.  1.
         -5   -1    0    0    0  501 -0.00000000000E+00 -0.00000000000E+00 -0.16107845338E+03  0.16114700786E+03  0.47000000000E+01 0.  1.
         25    2    1    2    0    0 -0.33231209174E+02  0.17656384876E+02 -0.70779705553E+02  0.14849850919E+03  0.12500391723E+03 0.  0.
         25    2    1    2    0    0  0.33231209174E+02 -0.17656384876E+02  0.31185828065E+02  0.13422395746E+03  0.12500981439E+03 0.  0.
          5    1    3    3  502    0 -0.18180295582E+02  0.71030430667E+02 -0.50987184040E+02  0.89429459153E+02  0.47000000000E+01 0.  1.
         -5    1    3    3    0  502 -0.15050913593E+02 -0.53374045791E+02 -0.19792521513E+02  0.59069050034E+02  0.47000000000E+01 0.  1.
          5    1    4    4  503    0  0.16277944699E+02 -0.31508991858E+02  0.76070961840E+02  0.84063483670E+02  0.47000000000E+01 0. -1.
         -5    1    4    4    0  503  0.16953264476E+02  0.13852606982E+02 -0.44885133775E+02  0.50160473788E+02  0.47000000000E+01 0. -1.
<mgrwt>
<rscale>  0 0.13054940E+03</rscale>
<asrwt>0</asrwt>
<pdfrwt beam="1">  1        5 0.18702199E-01 0.13055081E+03</pdfrwt>
<pdfrwt beam="2">  1       -5 0.24793565E-01 0.13055081E+03</pdfrwt>
<totfact> 0.28928202E+02</totfact>
</mgrwt>
</event>
<event>
 8    1  0.1821556E-007  0.1938475E+03  0.7546771E-02  0.1155039E+00
          5   -1    0    0  501    0  0.00000000000E+00  0.00000000000E+00  0.38362347430E+03  0.38365226447E+03  0.47000000000E+01 0.  1.
         -5   -1    0    0    0  501 -0.00000000000E+00 -0.00000000000E+00 -0.99353353752E+02  0.99464460496E+02  0.47000000000E+01 0.  1.
         25    2    1    2    0    0  0.11946451101E+03 -0.87634919476E+02  0.17176126441E+03  0.25898482854E+03  0.12497824194E+03 0.  0.
         25    2    1    2    0    0 -0.11946451101E+03  0.87634919476E+02  0.11250885614E+03  0.22413189643E+03  0.12500086313E+03 0.  0.
          5    1    3    3  502    0  0.14530284330E+03 -0.79107410366E+02  0.15454905509E+03  0.22644734283E+03  0.47000000000E+01 0.  1.
         -5    1    3    3    0  502 -0.25838332281E+02 -0.85275091104E+01  0.17212209321E+02  0.32537485711E+02  0.47000000000E+01 0.  1.
          5    1    4    4  503    0 -0.14092369189E+03  0.61460110963E+02  0.11144341420E+03  0.18994356200E+03  0.47000000000E+01 0.  1.
         -5    1    4    4    0  503  0.21459180879E+02  0.26174808513E+02  0.10654419414E+01  0.34188334432E+02  0.47000000000E+01 0.  1.
<mgrwt>
<rscale>  0 0.19384388E+03</rscale>
<asrwt>0</asrwt>
<pdfrwt beam="1">  1        5 0.59029757E-01 0.19384753E+03</pdfrwt>
<pdfrwt beam="2">  1       -5 0.15295893E-01 0.19384753E+03</pdfrwt>
<totfact> 0.80579987E+01</totfact>
</mgrwt>
</event>
<event>
 8    1  0.1821556E-007  0.1753491E+03  0.7546771E-02  0.1172385E+00
          5   -1    0    0  501    0  0.00000000000E+00  0.00000000000E+00  0.10300554952E+03  0.10311272100E+03  0.47000000000E+01 0. -1.
         -5   -1    0    0    0  501 -0.00000000000E+00 -0.00000000000E+00 -0.31957720757E+03  0.31961176699E+03  0.47000000000E+01 0. -1.
         25    2    1    2    0    0 -0.54589495563E+02  0.11019198086E+03 -0.16293809030E+03  0.23935633632E+03  0.12498139381E+03 0.  0.
         25    2    1    2    0    0  0.54589495563E+02 -0.11019198086E+03 -0.53633567757E+02  0.18336815167E+03  0.12500013514E+03 0.  0.
          5    1    4    4  502    0  0.34113169295E+02 -0.75108362549E+02 -0.94518783401E+02  0.12554228316E+03  0.47000000000E+01 0. -1.
         -5    1    4    4    0  502  0.20476326267E+02 -0.35083618306E+02  0.40885215644E+02  0.57825868511E+02  0.47000000000E+01 0. -1.
          5    1    3    3  503    0 -0.12070965700E+02  0.64705348750E+02 -0.12182686316E+01  0.66000489000E+02  0.47000000000E+01 0. -1.
         -5    1    3    3    0  503 -0.42518529863E+02  0.45486632105E+02 -0.16171982166E+03  0.17335584732E+03  0.47000000000E+01 0. -1.
<mgrwt>
<rscale>  0 0.17534580E+03</rscale>
<asrwt>0</asrwt>
<pdfrwt beam="1">  1        5 0.15857910E-01 0.17534914E+03</pdfrwt>
<pdfrwt beam="2">  1       -5 0.49176626E-01 0.17534914E+03</pdfrwt>
<totfact> 0.10872526E+02</totfact>
</mgrwt>
</event>
<event>
 8    1  0.1821556E-007  0.1278055E+03  0.7546771E-02  0.1230749E+00
         -5   -1    0    0    0  501 -0.00000000000E+00  0.00000000000E+00  0.28523842653E+03  0.28527714589E+03  0.47000000000E+01 0.  1.
          5   -1    0    0  501    0  0.00000000000E+00 -0.00000000000E+00 -0.82013695660E+02  0.82148257899E+02  0.47000000000E+01 0.  1.
         25    2    1    2    0    0  0.49531237877E+01  0.26180903220E+02  0.20269079743E+03  0.23962013786E+03  0.12499711186E+03 0.  0.
         25    2    1    2    0    0 -0.49531237877E+01 -0.26180903220E+02  0.53393343653E+00  0.12780526594E+03  0.12499571108E+03 0.  0.
          5    1    4    4  502    0  0.66437654765E+01  0.48896917245E+02 -0.11128917149E+02  0.50803453945E+02  0.47000000000E+01 0. -1.
         -5    1    4    4    0  502 -0.11596889264E+02 -0.75077820465E+02  0.11662850586E+02  0.77001811993E+02  0.47000000000E+01 0. -1.
          5    1    3    3  503    0 -0.41825625425E+02 -0.23115911720E+02  0.37474550040E+02  0.60911084521E+02  0.47000000000E+01 0.  1.
         -5    1    3    3    0  503  0.46778749212E+02  0.49296814939E+02  0.16521624739E+03  0.17870905333E+03  0.47000000000E+01 0.  1.
<mgrwt>
<rscale>  0 0.12780518E+03</rscale>
<asrwt>0</asrwt>
<pdfrwt beam="2">  1        5 0.12630821E-01 0.12780552E+03</pdfrwt>
<pdfrwt beam="1">  1       -5 0.43896165E-01 0.12780552E+03</pdfrwt>
<totfact> 0.18789491E+02</totfact>
</mgrwt>
</event>
<event>
 8    1  0.1821556E-007  0.1250670E+03  0.7546771E-02  0.1234966E+00
          5   -1    0    0  501    0  0.00000000000E+00  0.00000000000E+00  0.16965356367E+02  0.17604355048E+02  0.47000000000E+01 0.  1.
         -5   -1    0    0    0  501 -0.00000000000E+00 -0.00000000000E+00 -0.91724501474E+03  0.91725705615E+03  0.47000000000E+01 0.  1.
         25    2    1    2    0    0 -0.34680061390E+01  0.19018981474E+01 -0.50571408070E+03  0.52094868882E+03  0.12500064270E+03 0.  0.
         25    2    1    2    0    0  0.34680061390E+01 -0.19018981474E+01 -0.39456557767E+03  0.41391272238E+03  0.12500440947E+03 0.  0.
          5    1    3    3  502    0  0.25229425208E+01  0.33839348182E+02 -0.34593345352E+02  0.48685277723E+02  0.47000000000E+01 0.  1.
         -5    1    3    3    0  502 -0.59909486598E+01 -0.31937450035E+02 -0.47112073535E+03  0.47226341110E+03  0.47000000000E+01 0.  1.
          5    1    4    4  503    0  0.39409133094E+00  0.53138480446E+02 -0.29699037130E+03  0.30174363963E+03  0.47000000000E+01 0. -1.
         -5    1    4    4    0  503  0.30739148080E+01 -0.55040378593E+02 -0.97575206369E+02  0.11216908275E+03  0.47000000000E+01 0. -1.
<mgrwt>
<rscale>  0 0.12506603E+03</rscale>
<asrwt>0</asrwt>
<pdfrwt beam="1">  1        5 0.26601356E-02 0.12506697E+03</pdfrwt>
<pdfrwt beam="2">  1       -5 0.14116466E+00 0.12506697E+03</pdfrwt>
<totfact> 0.16927298E+02</totfact>
</mgrwt>
</event>
<event>
 8    1  0.1821556E-007  0.1421278E+03  0.7546771E-02  0.1210496E+00
          5   -1    0    0  501    0  0.00000000000E+00  0.00000000000E+00  0.28897683930E+03  0.28901505783E+03  0.47000000000E+01 0.  1.
         -5   -1    0    0    0  501 -0.00000000000E+00 -0.00000000000E+00 -0.70418566152E+02  0.70575239701E+02  0.47000000000E+01 0.  1.
         25    2    1    2    0    0  0.49044560825E+02  0.46576341195E+02  0.92158895279E+02  0.16939177007E+03  0.12500234111E+03 0.  0.
         25    2    1    2    0    0 -0.49044560825E+02 -0.46576341195E+02  0.12639937787E+03  0.19019852746E+03  0.12499581039E+03 0.  0.
          5    1    4    4  502    0  0.10708350642E+02 -0.15847240193E+02 -0.20601510314E+02  0.28501158264E+02  0.47000000000E+01 0.  1.
         -5    1    4    4    0  502 -0.59752911467E+02 -0.30729101002E+02  0.14700088818E+03  0.16169736919E+03  0.47000000000E+01 0.  1.
          5    1    3    3  503    0  0.48063287163E+02 -0.31146847386E+02  0.14180591678E+02  0.59189398167E+02  0.47000000000E+01 0. -1.
         -5    1    3    3    0  503  0.98127366138E+00  0.77723188581E+02  0.77978303601E+02  0.11020237191E+03  0.47000000000E+01 0. -1.
<mgrwt>
<rscale>  0 0.14212636E+03</rscale>
<asrwt>0</asrwt>
<pdfrwt beam="1">  1        5 0.44472967E-01 0.14212779E+03</pdfrwt>
<pdfrwt beam="2">  1       -5 0.10848617E-01 0.14212779E+03</pdfrwt>
<totfact> 0.24818038E+02</totfact>
</mgrwt>
</event>
<event>
 8    1  0.1821556E-007  0.1548344E+03  0.7546771E-02  0.1194656E+00
          5   -1    0    0  501    0  0.00000000000E+00  0.00000000000E+00  0.37127532172E+03  0.37130506934E+03  0.47000000000E+01 0. -1.
         -5   -1    0    0    0  501 -0.00000000000E+00 -0.00000000000E+00 -0.66671896690E+02  0.66837353390E+02  0.47000000000E+01 0. -1.
         25    2    1    2    0    0 -0.86105248534E+02 -0.30549106703E+02  0.19221587784E+03  0.24681899230E+03  0.12500123807E+03 0.  0.
         25    2    1    2    0    0  0.86105248534E+02  0.30549106703E+02  0.11238754719E+03  0.19132343044E+03  0.12500532998E+03 0.  0.
          5    1    3    3  502    0  0.14469721606E+02  0.26470873630E+02  0.80018374920E+02  0.85645258590E+02  0.47000000000E+01 0. -1.
         -5    1    3    3    0  502 -0.10057497014E+03 -0.57019980333E+02  0.11219750292E+03  0.16117373371E+03  0.47000000000E+01 0. -1.
          5    1    4    4  503    0 -0.35679923842E+01 -0.39268014544E+02  0.18367501178E+02  0.43751144390E+02  0.47000000000E+01 0.  1.
         -5    1    4    4    0  503  0.89673240918E+02  0.69817121247E+02  0.94020046015E+02  0.14757228605E+03  0.47000000000E+01 0.  1.
<mgrwt>
<rscale>  0 0.15483358E+03</rscale>
<asrwt>0</asrwt>
<pdfrwt beam="1">  1        5 0.57134295E-01 0.15483441E+03</pdfrwt>
<pdfrwt beam="2">  1       -5 0.10272231E-01 0.15483441E+03</pdfrwt>
<totfact> 0.16494165E+02</totfact>
</mgrwt>
</event>
<event>
 8    1  0.1821556E-007  0.1294219E+03  0.7546771E-02  0.1228320E+00
         -5   -1    0    0    0  501 -0.00000000000E+00  0.00000000000E+00  0.44457617964E+02  0.44705366513E+02  0.47000000000E+01 0. -1.
          5   -1    0    0  501    0  0.00000000000E+00 -0.00000000000E+00 -0.46360466452E+03  0.46362848809E+03  0.47000000000E+01 0. -1.
         25    2    1    2    0    0 -0.10912969902E+02  0.31702067337E+02 -0.98753773262E+02  0.16278810021E+03  0.12499417527E+03 0.  0.
         25    2    1    2    0    0  0.10912969902E+02 -0.31702067337E+02 -0.32039327329E+03  0.34554575439E+03  0.12500361922E+03 0.  0.
          5    1    4    4  502    0 -0.14794977791E+02 -0.57519758170E+02 -0.29483308884E+03  0.30079237726E+03  0.47000000000E+01 0. -1.
         -5    1    4    4    0  502  0.25707947693E+02  0.25817690832E+02 -0.25560184459E+02  0.44753377125E+02  0.47000000000E+01 0. -1.
          5    1    3    3  503    0 -0.44691487139E+02 -0.28516362569E+02 -0.69786041350E+02  0.87764990310E+02  0.47000000000E+01 0. -1.
         -5    1    3    3    0  503  0.33778517237E+02  0.60218429906E+02 -0.28967731912E+02  0.75023109901E+02  0.47000000000E+01 0. -1.
<mgrwt>
<rscale>  0 0.12941958E+03</rscale>
<asrwt>0</asrwt>
<pdfrwt beam="2">  1        5 0.71344681E-01 0.12942186E+03</pdfrwt>
<pdfrwt beam="1">  1       -5 0.68605240E-02 0.12942186E+03</pdfrwt>
<totfact> 0.19043196E+02</totfact>
</mgrwt>
</event>
<event>
 8    1  0.1821556E-007  0.1367105E+03  0.7546771E-02  0.1217828E+00
         -5   -1    0    0    0  501 -0.00000000000E+00  0.00000000000E+00  0.18989780806E+03  0.18995596202E+03  0.47000000000E+01 0.  1.
          5   -1    0    0  501    0  0.00000000000E+00 -0.00000000000E+00 -0.12174827870E+03  0.12183896490E+03  0.47000000000E+01 0.  1.
         25    2    1    2    0    0  0.34228049640E+02 -0.43493469370E+02  0.10247087783E+03  0.17085094698E+03  0.12500609594E+03 0.  0.
         25    2    1    2    0    0 -0.34228049640E+02  0.43493469370E+02 -0.34321348470E+02  0.14094397993E+03  0.12499603697E+03 0.  0.
          5    1    3    3  502    0 -0.10548358219E+01  0.33268432974E+02 -0.50895410972E+01  0.33998452020E+02  0.47000000000E+01 0. -1.
         -5    1    3    3    0  502  0.35282885462E+02 -0.76761902344E+02  0.10756041893E+03  0.13685249496E+03  0.47000000000E+01 0. -1.
          5    1    4    4  503    0 -0.16520277497E+02  0.11702556547E+02  0.47184939793E+02  0.51559460253E+02  0.47000000000E+01 0. -1.
         -5    1    4    4    0  503 -0.17707772143E+02  0.31790912823E+02 -0.81506288263E+02  0.89384519682E+02  0.47000000000E+01 0. -1.
<mgrwt>
<rscale>  0 0.13670822E+03</rscale>
<asrwt>0</asrwt>
<pdfrwt beam="2">  1        5 0.18741954E-01 0.13671052E+03</pdfrwt>
<pdfrwt beam="1">  1       -5 0.29226496E-01 0.13671052E+03</pdfrwt>
<totfact> 0.21303490E+02</totfact>
</mgrwt>
</event>
<event>
 8    1  0.1821556E-007  0.1439142E+03  0.7546771E-02  0.1208157E+00
          5   -1    0    0  501    0  0.00000000000E+00  0.00000000000E+00  0.21623157605E+03  0.21628264951E+03  0.47000000000E+01 0. -1.
         -5   -1    0    0    0  501 -0.00000000000E+00 -0.00000000000E+00 -0.10819178107E+03  0.10829382019E+03  0.47000000000E+01 0. -1.
         25    2    1    2    0    0 -0.40238820068E+02 -0.58872571479E+02 -0.11676341212E+01  0.14391780442E+03  0.12500331494E+03 0.  0.
         25    2    1    2    0    0  0.40238820068E+02  0.58872571479E+02  0.10920742910E+03  0.18065866528E+03  0.12500459375E+03 0.  0.
          5    1    4    4  502    0  0.30501807936E+02  0.54999365308E+02 -0.73891024432E+01  0.63497868520E+02  0.47000000000E+01 0. -1.
         -5    1    4    4    0  502  0.97370121318E+01  0.38732061711E+01  0.11659653154E+03  0.11716079676E+03  0.47000000000E+01 0. -1.
          5    1    3    3  503    0  0.35370671690E+02 -0.46472427809E+02  0.23735515807E+02  0.63215786580E+02  0.47000000000E+01 0. -1.
         -5    1    3    3    0  503 -0.75609491758E+02 -0.12400143670E+02 -0.24903149928E+02  0.80702017839E+02  0.47000000000E+01 0. -1.
<mgrwt>
<rscale>  0 0.14391390E+03</rscale>
<asrwt>0</asrwt>
<pdfrwt beam="1">  1        5 0.33278174E-01 0.14391418E+03</pdfrwt>
<pdfrwt beam="2">  1       -5 0.16656667E-01 0.14391418E+03</pdfrwt>
<totfact> 0.20843552E+02</totfact>
</mgrwt>
</event>
<event>
 8    1  0.1821556E-007  0.1388929E+03  0.7546771E-02  0.1214827E+00
         -5   -1    0    0    0  501 -0.00000000000E+00  0.00000000000E+00  0.86610166781E+03  0.86611442026E+03  0.47000000000E+01 0. -1.
          5   -1    0    0  501    0  0.00000000000E+00 -0.00000000000E+00 -0.23209073433E+02  0.23680183479E+02  0.47000000000E+01 0. -1.
         25    2    1    2    0    0  0.56930805713E+02  0.20634712890E+02  0.52140044821E+03  0.53958260383E+03  0.12499620372E+03 0.  0.
         25    2    1    2    0    0 -0.56930805713E+02 -0.20634712890E+02  0.32149214617E+03  0.35021199992E+03  0.12499734725E+03 0.  0.
          5    1    4    4  502    0 -0.35899966884E+02  0.18178800346E+02  0.29652202372E+03  0.29927692353E+03  0.47000000000E+01 0.  1.
         -5    1    4    4    0  502 -0.21030838829E+02 -0.38813513237E+02  0.24970122452E+02  0.50935076390E+02  0.47000000000E+01 0.  1.
          5    1    3    3  503    0  0.15754634305E+02  0.24058048109E+02  0.48006641191E+03  0.48094994337E+03  0.47000000000E+01 0.  1.
         -5    1    3    3    0  503  0.41176171408E+02 -0.34233352182E+01  0.41334036299E+02  0.58632660461E+02  0.47000000000E+01 0.  1.
<mgrwt>
<rscale>  0 0.13889267E+03</rscale>
<asrwt>0</asrwt>
<pdfrwt beam="2">  1        5 0.36078472E-02 0.13889293E+03</pdfrwt>
<pdfrwt beam="1">  1       -5 0.13328362E+00 0.13889293E+03</pdfrwt>
<totfact> 0.12462978E+02</totfact>
</mgrwt>
</event>
<event>
 8    1  0.1821556E-007  0.1321652E+03  0.7546771E-02  0.1224281E+00
          5   -1    0    0  501    0  0.00000000000E+00  0.00000000000E+00  0.18675183779E+03  0.18681097109E+03  0.47000000000E+01 0. -1.
         -5   -1    0    0    0  501 -0.00000000000E+00 -0.00000000000E+00 -0.93500635794E+02  0.93618688807E+02  0.47000000000E+01 0. -1.
         25    2    1    2    0    0 -0.41425376663E+02 -0.11194676573E+02  0.51336452098E+02  0.14178530698E+03  0.12500503729E+03 0.  0.
         25    2    1    2    0    0  0.41425376663E+02  0.11194676573E+02  0.41914749901E+02  0.13864435291E+03  0.12499611082E+03 0.  0.
          5    1    3    3  502    0 -0.71580827430E+02  0.90206510775E+01 -0.72918842660E+01  0.72666695106E+02  0.47000000000E+01 0.  1.
         -5    1    3    3    0  502  0.30155450767E+02 -0.20215327651E+02  0.58628336364E+02  0.69118611877E+02  0.47000000000E+01 0.  1.
          5    1    4    4  503    0  0.60892812519E+02  0.28731459899E+01 -0.26675502130E+02  0.66707285946E+02  0.47000000000E+01 0.  1.
         -5    1    4    4    0  503 -0.19467435857E+02  0.83215305834E+01  0.68590252031E+02  0.71937066967E+02  0.47000000000E+01 0.  1.
<mgrwt>
<rscale>  0 0.13216310E+03</rscale>
<asrwt>0</asrwt>
<pdfrwt beam="1">  1        5 0.28744681E-01 0.13216521E+03</pdfrwt>
<pdfrwt beam="2">  1       -5 0.14398343E-01 0.13216521E+03</pdfrwt>
<totfact> 0.35205605E+02</totfact>
</mgrwt>
</event>
<event>
 8    1  0.1821556E-007  0.1444044E+03  0.7546771E-02  0.1207527E+00
          5   -1    0    0  501    0  0.00000000000E+00  0.00000000000E+00  0.41023324733E+02  0.41291684055E+02  0.47000000000E+01 0.  1.
         -5   -1    0    0    0  501 -0.00000000000E+00 -0.00000000000E+00 -0.61463411211E+03  0.61465208189E+03  0.47000000000E+01 0.  1.
         25    2    1    2    0    0  0.11208727834E+02  0.71426614062E+02 -0.42445807920E+03  0.44834952492E+03  0.12500095491E+03 0.  0.
         25    2    1    2    0    0 -0.11208727834E+02 -0.71426614062E+02 -0.14915270818E+03  0.20759424102E+03  0.12498576627E+03 0.  0.
          5    1    4    4  502    0  0.15987807203E+02 -0.10173132846E+03 -0.10039409175E+03  0.14389557612E+03  0.47000000000E+01 0. -1.
         -5    1    4    4    0  502 -0.27196535037E+02  0.30304714403E+02 -0.48758616438E+02  0.63698664900E+02  0.47000000000E+01 0. -1.
          5    1    3    3  503    0 -0.35248905271E+02  0.70197523634E+02 -0.14464757538E+03  0.16466690229E+03  0.47000000000E+01 0.  1.
         -5    1    3    3    0  503  0.46457633105E+02  0.12290904275E+01 -0.27981050382E+03  0.28368262264E+03  0.47000000000E+01 0.  1.
<mgrwt>
<rscale>  0 0.14440113E+03</rscale>
<asrwt>0</asrwt>
<pdfrwt beam="1">  1        5 0.63333065E-02 0.14440442E+03</pdfrwt>
<pdfrwt beam="2">  1       -5 0.94581113E-01 0.14440442E+03</pdfrwt>
<totfact> 0.11729208E+02</totfact>
</mgrwt>
</event>
<event>
 8    1  0.1821556E-007  0.1314171E+03  0.7546771E-02  0.1225369E+00
         -5   -1    0    0    0  501 -0.00000000000E+00  0.00000000000E+00  0.46052716091E+02  0.46291928663E+02  0.47000000000E+01 0.  1.
          5   -1    0    0  501    0  0.00000000000E+00 -0.00000000000E+00 -0.37629260915E+03  0.37632196016E+03  0.47000000000E+01 0.  1.
         25    2    1    2    0    0  0.39900315530E+02  0.72813273155E+01 -0.14787043737E+03  0.19782718700E+03  0.12499950704E+03 0.  0.
         25    2    1    2    0    0 -0.39900315530E+02 -0.72813273155E+01 -0.18236945568E+03  0.22478670182E+03  0.12500156017E+03 0.  0.
          5    1    3    3  502    0 -0.17097234375E+02 -0.46064469660E+02 -0.81358464505E+02  0.95160603902E+02  0.47000000000E+01 0. -1.
         -5    1    3    3    0  502  0.56997549905E+02  0.53345796976E+02 -0.66511972869E+02  0.10266658310E+03  0.47000000000E+01 0. -1.
          5    1    4    4  503    0 -0.53476996034E+02 -0.10214770917E+02 -0.19678035223E+03  0.20422714725E+03  0.47000000000E+01 0. -1.
         -5    1    4    4    0  503  0.13576680505E+02  0.29334436018E+01  0.14410896549E+02  0.20559554573E+02  0.47000000000E+01 0. -1.
<mgrwt>
<rscale>  0 0.13141657E+03</rscale>
<asrwt>0</asrwt>
<pdfrwt beam="2">  1        5 0.57911827E-01 0.13141706E+03</pdfrwt>
<pdfrwt beam="1">  1       -5 0.71056922E-02 0.13141706E+03</pdfrwt>
<totfact> 0.28632317E+02</totfact>
</mgrwt>
</event>
<event>
 8    1  0.1821556E-007  0.1602618E+03  0.7546771E-02  0.1188401E+00
          5   -1    0    0  501    0  0.00000000000E+00  0.00000000000E+00  0.40145845761E+02  0.40420031320E+02  0.47000000000E+01 0. -1.
         -5   -1    0    0    0  501 -0.00000000000E+00 -0.00000000000E+00 -0.70050133061E+03  0.70051709771E+03  0.47000000000E+01 0. -1.
         25    2    1    2    0    0  0.28655291635E+02  0.96112738730E+02 -0.21892561137E+03  0.27131581226E+03  0.12500024954E+03 0.  0.
         25    2    1    2    0    0 -0.28655291635E+02 -0.96112738730E+02 -0.44142987347E+03  0.46962131676E+03  0.12500025473E+03 0.  0.
          5    1    3    3  502    0  0.16338555952E+02  0.10789376712E+03 -0.22697593934E+03  0.25188922254E+03  0.47000000000E+01 0. -1.
         -5    1    3    3    0  502  0.12316735682E+02 -0.11781028390E+02  0.80503279667E+01  0.19426589720E+02  0.47000000000E+01 0. -1.
          5    1    4    4  503    0  0.24289271300E+02 -0.25613503849E+02 -0.30527702723E+03  0.30734699223E+03  0.47000000000E+01 0.  1.
         -5    1    4    4    0  503 -0.52944562934E+02 -0.70499234881E+02 -0.13615284624E+03  0.16227432454E+03  0.47000000000E+01 0.  1.
<mgrwt>
<rscale>  0 0.16026181E+03</rscale>
<asrwt>0</asrwt>
<pdfrwt beam="1">  1        5 0.61985885E-02 0.16026181E+03</pdfrwt>
<pdfrwt beam="2">  1       -5 0.10779173E+00 0.16026181E+03</pdfrwt>
<totfact> 0.91239716E+01</totfact>
</mgrwt>
</event>
<event>
 8    1  0.1821556E-007  0.1287132E+03  0.7546771E-02  0.1229378E+00
         -5   -1    0    0    0  501 -0.00000000000E+00  0.00000000000E+00  0.14114651716E+02  0.14876605563E+02  0.47000000000E+01 0.  1.
          5   -1    0    0  501    0  0.00000000000E+00 -0.00000000000E+00 -0.11651584911E+04  0.11651679705E+04  0.47000000000E+01 0.  1.
         25    2    1    2    0    0 -0.14443939526E+02 -0.27081190986E+02 -0.65846951187E+03  0.67093158780E+03  0.12500031660E+03 0.  0.
         25    2    1    2    0    0  0.14443939526E+02  0.27081190986E+02 -0.49257432751E+03  0.50911298822E+03  0.12499819341E+03 0.  0.
          5    1    4    4  502    0 -0.50333091538E+02  0.82482030553E+01 -0.12035516975E+03  0.13080103151E+03  0.47000000000E+01 0. -1.
         -5    1    4    4    0  502  0.64777031064E+02  0.18832987931E+02 -0.37221915776E+03  0.37831195671E+03  0.47000000000E+01 0. -1.
          5    1    3    3  503    0  0.40188195217E+02  0.25542323202E+01 -0.85983270625E+02  0.95062232063E+02  0.47000000000E+01 0.  1.
         -5    1    3    3    0  503 -0.54632134744E+02 -0.29635423306E+02 -0.57248624124E+03  0.57586935573E+03  0.47000000000E+01 0.  1.
<mgrwt>
<rscale>  0 0.12871272E+03</rscale>
<asrwt>0</asrwt>
<pdfrwt beam="2">  1        5 0.17931442E+00 0.12871324E+03</pdfrwt>
<pdfrwt beam="1">  1       -5 0.22308268E-02 0.12871324E+03</pdfrwt>
<totfact> 0.11615166E+02</totfact>
</mgrwt>
</event>
<event>
 8    1  0.1821556E-007  0.1476248E+03  0.7546771E-02  0.1203422E+00
          5   -1    0    0  501    0  0.00000000000E+00  0.00000000000E+00  0.42216778994E+02  0.42477599139E+02  0.47000000000E+01 0. -1.
         -5   -1    0    0    0  501 -0.00000000000E+00 -0.00000000000E+00 -0.70179494191E+03  0.70181067995E+03  0.47000000000E+01 0. -1.
         25    2    1    2    0    0  0.17937361089E+02  0.76467731450E+02 -0.52207624828E+03  0.54254649459E+03  0.12499610752E+03 0.  0.
         25    2    1    2    0    0 -0.17937361089E+02 -0.76467731450E+02 -0.13750191463E+03  0.20174178450E+03  0.12499563276E+03 0.  0.
          5    1    4    4  502    0 -0.66738173747E+02 -0.16275166600E+02 -0.52217875328E+02  0.86415631611E+02  0.47000000000E+01 0.  1.
         -5    1    4    4    0  502  0.48800812659E+02 -0.60192564850E+02 -0.85284039304E+02  0.11532615289E+03  0.47000000000E+01 0.  1.
          5    1    3    3  503    0 -0.25398418560E+02 -0.21594462175E+02 -0.66936988458E+02  0.74926970350E+02  0.47000000000E+01 0. -1.
         -5    1    3    3    0  503  0.43335779648E+02  0.98062193626E+02 -0.45513925983E+03  0.46761952424E+03  0.47000000000E+01 0. -1.
<mgrwt>
<rscale>  0 0.14762473E+03</rscale>
<asrwt>0</asrwt>
<pdfrwt beam="1">  1        5 0.65161633E-02 0.14762483E+03</pdfrwt>
<pdfrwt beam="2">  1       -5 0.10798972E+00 0.14762483E+03</pdfrwt>
<totfact> 0.81397423E+01</totfact>
</mgrwt>
</event>
<event>
 8    1  0.1821556E-007  0.1428207E+03  0.7546771E-02  0.1209587E+00
          5   -1    0    0  501    0  0.00000000000E+00  0.00000000000E+00  0.19503275433E+03  0.19508937762E+03  0.47000000000E+01 0.  1.
         -5   -1    0    0    0  501 -0.00000000000E+00 -0.00000000000E+00 -0.10521820008E+03  0.10532312010E+03  0.47000000000E+01 0.  1.
         25    2    1    2    0    0 -0.69011243414E+02 -0.31260069501E+01  0.32112660355E+02  0.14637596082E+03  0.12498950082E+03 0.  0.
         25    2    1    2    0    0  0.69011243414E+02  0.31260069501E+01  0.57701893893E+02  0.15403653690E+03  0.12500169001E+03 0.  0.
          5    1    3    3  502    0 -0.63684406159E+02  0.34828907033E+02 -0.25449548169E+02  0.77061831375E+02  0.47000000000E+01 0. -1.
         -5    1    3    3    0  502 -0.53268372552E+01 -0.37954913983E+02  0.57562208525E+02  0.69314129446E+02  0.47000000000E+01 0. -1.
          5    1    4    4  503    0  0.53311005462E+02 -0.34238856788E+02  0.84129785784E+02  0.10542425467E+03  0.47000000000E+01 0.  1.
         -5    1    4    4    0  503  0.15700237952E+02  0.37364863738E+02 -0.26427891891E+02  0.48612282231E+02  0.47000000000E+01 0.  1.
<mgrwt>
<rscale>  0 0.14281801E+03</rscale>
<asrwt>0</asrwt>
<pdfrwt beam="1">  1        5 0.30017466E-01 0.14282068E+03</pdfrwt>
<pdfrwt beam="2">  1       -5 0.16199842E-01 0.14282068E+03</pdfrwt>
<totfact> 0.26823736E+02</totfact>
</mgrwt>
</event>
<event>
 8    1  0.1821556E-007  0.1710410E+03  0.7546771E-02  0.1176768E+00
          5   -1    0    0  501    0  0.00000000000E+00  0.00000000000E+00  0.18575387375E+03  0.18581332463E+03  0.47000000000E+01 0.  1.
         -5   -1    0    0    0  501 -0.00000000000E+00 -0.00000000000E+00 -0.15758323591E+03  0.15765331027E+03  0.47000000000E+01 0.  1.
         25    2    1    2    0    0 -0.11639432567E+03  0.89722200247E+01  0.77348795778E+01  0.17120911150E+03  0.12499836686E+03 0.  0.
         25    2    1    2    0    0  0.11639432567E+03 -0.89722200247E+01  0.20435758262E+02  0.17225752340E+03  0.12500757726E+03 0.  0.
          5    1    3    3  502    0 -0.10008859097E+02  0.53631804011E+02  0.10230701248E+02  0.55707314690E+02  0.47000000000E+01 0. -1.
         -5    1    3    3    0  502 -0.10638546658E+03 -0.44659583986E+02 -0.24958216698E+01  0.11550179681E+03  0.47000000000E+01 0. -1.
          5    1    4    4  503    0  0.87479998619E+02  0.52608703743E+02  0.48382325059E+01  0.10230310045E+03  0.47000000000E+01 0. -1.
         -5    1    4    4    0  503  0.28914327054E+02 -0.61580923768E+02  0.15597525756E+02  0.69954422954E+02  0.47000000000E+01 0. -1.
<mgrwt>
<rscale>  0 0.17103935E+03</rscale>
<asrwt>0</asrwt>
<pdfrwt beam="1">  1        5 0.28587483E-01 0.17104103E+03</pdfrwt>
<pdfrwt beam="2">  1       -5 0.24253538E-01 0.17104103E+03</pdfrwt>
<totfact> 0.14709463E+02</totfact>
</mgrwt>
</event>
<event>
 8    1  0.1821556E-007  0.1276209E+03  0.7546771E-02  0.1231030E+00
          5   -1    0    0  501    0  0.00000000000E+00  0.00000000000E+00  0.14052198807E+03  0.14060056590E+03  0.47000000000E+01 0. -1.
         -5   -1    0    0    0  501 -0.00000000000E+00 -0.00000000000E+00 -0.11688607382E+03  0.11698052938E+03  0.47000000000E+01 0. -1.
         25    2    1    2    0    0 -0.11446395099E+02 -0.23020338462E+02 -0.91163022342E+00  0.12762415758E+03  0.12500455426E+03 0.  0.
         25    2    1    2    0    0  0.11446395099E+02  0.23020338462E+02  0.24547544474E+02  0.12995693770E+03  0.12500107108E+03 0.  0.
          5    1    3    3  502    0  0.54474581558E+01  0.49768815802E+02  0.11873195409E+02  0.51668874537E+02  0.47000000000E+01 0.  1.
         -5    1    3    3    0  502 -0.16893853255E+02 -0.72789154264E+02 -0.12784825632E+02  0.75955283047E+02  0.47000000000E+01 0.  1.
          5    1    4    4  503    0  0.34506231421E+02 -0.44272061058E+02  0.11098544182E+02  0.57410478835E+02  0.47000000000E+01 0.  1.
         -5    1    4    4    0  503 -0.23059836321E+02  0.67292399520E+02  0.13449000292E+02  0.72546458860E+02  0.47000000000E+01 0.  1.
<mgrwt>
<rscale>  0 0.12762005E+03</rscale>
<asrwt>0</asrwt>
<pdfrwt beam="1">  1        5 0.21632077E-01 0.12762090E+03</pdfrwt>
<pdfrwt beam="2">  1       -5 0.17995783E-01 0.12762090E+03</pdfrwt>
<totfact> 0.39892992E+02</totfact>
</mgrwt>
</event>
<event>
 8    1  0.1821556E-007  0.1517106E+03  0.7546771E-02  0.1198389E+00
          5   -1    0    0  501    0  0.00000000000E+00  0.00000000000E+00  0.45490848891E+02  0.45733000479E+02  0.47000000000E+01 0.  1.
         -5   -1    0    0    0  501 -0.00000000000E+00 -0.00000000000E+00 -0.10286314542E+04  0.10286421917E+04  0.47000000000E+01 0.  1.
         25    2    1    2    0    0  0.15005212178E+02  0.84635804601E+02 -0.87504617123E+03  0.88810016839E+03  0.12501092552E+03 0.  0.
         25    2    1    2    0    0 -0.15005212178E+02 -0.84635804601E+02 -0.10809443410E+03  0.18627502383E+03  0.12500240799E+03 0.  0.
          5    1    4    4  502    0 -0.17100747593E+02 -0.96836391210E+02 -0.24247713488E+02  0.10138917023E+03  0.47000000000E+01 0. -1.
         -5    1    4    4    0  502  0.20955354154E+01  0.12200586609E+02 -0.83846720617E+02  0.84885853595E+02  0.47000000000E+01 0. -1.
          5    1    3    3  503    0 -0.34054928959E+02  0.66860596848E+02 -0.73037821541E+03  0.73423736294E+03  0.47000000000E+01 0. -1.
         -5    1    3    3    0  503  0.49060141136E+02  0.17775207753E+02 -0.14466795583E+03  0.15386280546E+03  0.47000000000E+01 0. -1.
<mgrwt>
<rscale>  0 0.15170885E+03</rscale>
<asrwt>0</asrwt>
<pdfrwt beam="1">  1        5 0.70180459E-02 0.15171060E+03</pdfrwt>
<pdfrwt beam="2">  1       -5 0.15827043E+00 0.15171060E+03</pdfrwt>
<totfact> 0.26559289E+01</totfact>
</mgrwt>
</event>
<event>
 8    1  0.1821556E-007  0.1470934E+03  0.7546771E-02  0.1204092E+00
         -5   -1    0    0    0  501 -0.00000000000E+00  0.00000000000E+00  0.40187932428E+02  0.40461832791E+02  0.47000000000E+01 0. -1.
          5   -1    0    0  501    0  0.00000000000E+00 -0.00000000000E+00 -0.55911060981E+03  0.55913036405E+03  0.47000000000E+01 0. -1.
         25    2    1    2    0    0 -0.50271638418E+02 -0.59021524157E+02 -0.19886765887E+03  0.24735566110E+03  0.12500279753E+03 0.  0.
         25    2    1    2    0    0  0.50271638418E+02  0.59021524157E+02 -0.32005501852E+03  0.35223653574E+03  0.12499833716E+03 0.  0.
          5    1    4    4  502    0  0.91625052278E+02  0.38416866980E+02 -0.23805886462E+03  0.25800216840E+03  0.47000000000E+01 0. -1.
         -5    1    4    4    0  502 -0.41353413860E+02  0.20604657177E+02 -0.81996153893E+02  0.94234367342E+02  0.47000000000E+01 0. -1.
          5    1    3    3  503    0  0.40078577064E+02 -0.77603474966E+01 -0.39057279182E+02  0.56692824853E+02  0.47000000000E+01 0.  1.
         -5    1    3    3    0  503 -0.90350215481E+02 -0.51261176661E+02 -0.15981037969E+03  0.19066283625E+03  0.47000000000E+01 0.  1.
<mgrwt>
<rscale>  0 0.14709248E+03</rscale>
<asrwt>0</asrwt>
<pdfrwt beam="2">  1        5 0.86039600E-01 0.14709343E+03</pdfrwt>
<pdfrwt beam="1">  1       -5 0.62053481E-02 0.14709343E+03</pdfrwt>
<totfact> 0.15292074E+02</totfact>
</mgrwt>
</event>
<event>
 8    1  0.1821556E-007  0.1677936E+03  0.7546771E-02  0.1180170E+00
          5   -1    0    0  501    0  0.00000000000E+00  0.00000000000E+00  0.16226081556E+03  0.16232887071E+03  0.47000000000E+01 0. -1.
         -5   -1    0    0    0  501 -0.00000000000E+00 -0.00000000000E+00 -0.18196611572E+03  0.18202680371E+03  0.47000000000E+01 0. -1.
         25    2    1    2    0    0 -0.91445054567E+02 -0.64541679420E+02 -0.47253597167E+02  0.17432033633E+03  0.12500740308E+03 0.  0.
         25    2    1    2    0    0  0.91445054567E+02  0.64541679420E+02  0.27548297013E+02  0.17003533809E+03  0.12500112458E+03 0.  0.
          5    1    3    3  502    0 -0.78207716110E+02  0.18425620496E+02 -0.62910398467E+01  0.80731762845E+02  0.47000000000E+01 0. -1.
         -5    1    3    3    0  502 -0.13237338457E+02 -0.82967299916E+02 -0.40962557320E+02  0.93588573485E+02  0.47000000000E+01 0. -1.
          5    1    4    4  503    0  0.91491076935E+02  0.27542736509E+02  0.66191304633E+02  0.11632969656E+03  0.47000000000E+01 0.  1.
         -5    1    4    4    0  503 -0.46022368427E-01  0.36998942911E+02 -0.38643007620E+02  0.53705641533E+02  0.47000000000E+01 0.  1.
<mgrwt>
<rscale>  0 0.16779239E+03</rscale>
<asrwt>0</asrwt>
<pdfrwt beam="1">  1        5 0.24973106E-01 0.16779356E+03</pdfrwt>
<pdfrwt beam="2">  1       -5 0.28004690E-01 0.16779356E+03</pdfrwt>
<totfact> 0.14394784E+02</totfact>
</mgrwt>
</event>
<event>
 8    1  0.1821556E-007  0.1408505E+03  0.7546771E-02  0.1212193E+00
          5   -1    0    0  501    0  0.00000000000E+00  0.00000000000E+00  0.18906241417E+03  0.18912082501E+03  0.47000000000E+01 0. -1.
         -5   -1    0    0    0  501 -0.00000000000E+00 -0.00000000000E+00 -0.10500534673E+03  0.10511047922E+03  0.47000000000E+01 0. -1.
         25    2    1    2    0    0  0.45629704103E+02 -0.46144955701E+02  0.35494165323E+02  0.14524403702E+03  0.12499827073E+03 0.  0.
         25    2    1    2    0    0 -0.45629704103E+02  0.46144955701E+02  0.48562902110E+02  0.14898726721E+03  0.12500969361E+03 0.  0.
          5    1    4    4  502    0 -0.39160415781E+02  0.42038211714E+01 -0.36440732245E+02  0.53863041533E+02  0.47000000000E+01 0. -1.
         -5    1    4    4    0  502 -0.64692883224E+01  0.41941134529E+02  0.85003634356E+02  0.95124225677E+02  0.47000000000E+01 0. -1.
          5    1    3    3  503    0 -0.41319398730E+02 -0.10674067165E+01  0.19319297911E+02  0.45866734572E+02  0.47000000000E+01 0.  1.
         -5    1    3    3    0  503  0.86949102833E+02 -0.45077548984E+02  0.16174867412E+02  0.99377302447E+02  0.47000000000E+01 0.  1.
<mgrwt>
<rscale>  0 0.14084792E+03</rscale>
<asrwt>0</asrwt>
<pdfrwt beam="1">  1        5 0.29099105E-01 0.14085045E+03</pdfrwt>
<pdfrwt beam="2">  1       -5 0.16167249E-01 0.14085045E+03</pdfrwt>
<totfact> 0.28478232E+02</totfact>
</mgrwt>
</event>
<event>
 8    1  0.1821556E-007  0.1778531E+03  0.7546771E-02  0.1169898E+00
         -5   -1    0    0    0  501 -0.00000000000E+00  0.00000000000E+00  0.10928039521E+03  0.10938141879E+03  0.47000000000E+01 0.  1.
          5   -1    0    0  501    0  0.00000000000E+00 -0.00000000000E+00 -0.29152030148E+03  0.29155818660E+03  0.47000000000E+01 0.  1.
         25    2    1    2    0    0  0.33094416001E+02  0.12211577379E+03 -0.73224659907E+02  0.19233711837E+03  0.12499685477E+03 0.  0.
         25    2    1    2    0    0 -0.33094416001E+02 -0.12211577379E+03 -0.10901524637E+03  0.20860248703E+03  0.12499268409E+03 0.  0.
          5    1    4    4  502    0 -0.37258236815E+02 -0.13378831912E+03 -0.12564293175E+03  0.18733853539E+03  0.47000000000E+01 0. -1.
         -5    1    4    4    0  502  0.41638208138E+01  0.11672545324E+02  0.16627685386E+02  0.21263951641E+02  0.47000000000E+01 0. -1.
          5    1    3    3  503    0  0.54845059298E+02  0.13665076653E+03 -0.75719884876E+02  0.16564118899E+03  0.47000000000E+01 0. -1.
         -5    1    3    3    0  503 -0.21750643297E+02 -0.14534992740E+02  0.24952249689E+01  0.26695929379E+02  0.47000000000E+01 0. -1.
<mgrwt>
<rscale>  0 0.17785234E+03</rscale>
<asrwt>0</asrwt>
<pdfrwt beam="2">  1        5 0.44859962E-01 0.17785307E+03</pdfrwt>
<pdfrwt beam="1">  1       -5 0.16823054E-01 0.17785307E+03</pdfrwt>
<totfact> 0.11889990E+02</totfact>
</mgrwt>
</event>
<event>
 8    1  0.1821556E-007  0.1333031E+03  0.7546771E-02  0.1222636E+00
          5   -1    0    0  501    0  0.00000000000E+00  0.00000000000E+00  0.18541246441E+03  0.18547202473E+03  0.47000000000E+01 0.  1.
         -5   -1    0    0    0  501 -0.00000000000E+00 -0.00000000000E+00 -0.10592766351E+03  0.10603188151E+03  0.47000000000E+01 0.  1.
         25    2    1    2    0    0  0.43672756994E+02  0.15390773971E+02 -0.54984951849E+01  0.13341648729E+03  0.12500216000E+03 0.  0.
         25    2    1    2    0    0 -0.43672756994E+02 -0.15390773971E+02  0.84983296085E+02  0.15808741895E+03  0.12500114315E+03 0.  0.
          5    1    3    3  502    0 -0.20697152109E+02  0.51044639132E+02 -0.19001608682E+02  0.58455781767E+02  0.47000000000E+01 0. -1.
         -5    1    3    3    0  502  0.64369909102E+02 -0.35653865161E+02  0.13503113497E+02  0.74960705525E+02  0.47000000000E+01 0. -1.
          5    1    4    4  503    0 -0.69139931738E+02  0.11051426336E+02  0.96506650237E+02  0.11932345840E+03  0.47000000000E+01 0. -1.
         -5    1    4    4    0  503  0.25467174744E+02 -0.26442200307E+02 -0.11523354152E+02  0.38763960549E+02  0.47000000000E+01 0. -1.
<mgrwt>
<rscale>  0 0.13330290E+03</rscale>
<asrwt>0</asrwt>
<pdfrwt beam="1">  1        5 0.28537593E-01 0.13330313E+03</pdfrwt>
<pdfrwt beam="2">  1       -5 0.16309162E-01 0.13330313E+03</pdfrwt>
<totfact> 0.28571165E+02</totfact>
</mgrwt>
</event>
<event>
 8    1  0.1821556E-007  0.1602411E+03  0.7546771E-02  0.1188427E+00
         -5   -1    0    0    0  501 -0.00000000000E+00  0.00000000000E+00  0.52930781247E+03  0.52932867893E+03  0.47000000000E+01 0.  1.
          5   -1    0    0  501    0  0.00000000000E+00 -0.00000000000E+00 -0.51989725475E+02  0.52201739003E+02  0.47000000000E+01 0.  1.
         25    2    1    2    0    0 -0.98745138344E+02 -0.17257300428E+02  0.31517123830E+03  0.35356372338E+03  0.12500392102E+03 0.  0.
         25    2    1    2    0    0  0.98745138344E+02  0.17257300428E+02  0.16214684869E+03  0.22796669456E+03  0.12501518517E+03 0.  0.
          5    1    3    3  502    0 -0.15688562564E+02 -0.31840572171E+02  0.10369317912E+02  0.37276880039E+02  0.47000000000E+01 0.  1.
         -5    1    3    3    0  502 -0.83056575780E+02  0.14583271743E+02  0.30480192039E+03  0.31628684334E+03  0.47000000000E+01 0.  1.
          5    1    4    4  503    0 -0.31875398120E+01  0.40430510509E+02  0.79134588158E+01  0.41587250697E+02  0.47000000000E+01 0.  1.
         -5    1    4    4    0  503  0.10193267816E+03 -0.23173210081E+02  0.15423338988E+03  0.18637944386E+03  0.47000000000E+01 0.  1.
<mgrwt>
<rscale>  0 0.16023891E+03</rscale>
<asrwt>0</asrwt>
<pdfrwt beam="2">  1        5 0.80163331E-02 0.16024111E+03</pdfrwt>
<pdfrwt beam="1">  1       -5 0.81449885E-01 0.16024111E+03</pdfrwt>
<totfact> 0.11551444E+02</totfact>
</mgrwt>
</event>
<event>
 8    1  0.1821556E-007  0.1253455E+03  0.7546771E-02  0.1234536E+00
          5   -1    0    0  501    0  0.00000000000E+00  0.00000000000E+00  0.37841771536E+03  0.37844690155E+03  0.47000000000E+01 0. -1.
         -5   -1    0    0    0  501 -0.00000000000E+00 -0.00000000000E+00 -0.57929035158E+02  0.58119386734E+02  0.47000000000E+01 0. -1.
         25    2    1    2    0    0  0.90500727165E+01  0.20823925260E+01  0.43735357516E+02  0.13275647395E+03  0.12500103882E+03 0.  0.
         25    2    1    2    0    0 -0.90500727165E+01 -0.20823925260E+01  0.27675332268E+03  0.30380981433E+03  0.12498704530E+03 0.  0.
          5    1    4    4  502    0 -0.28935438860E+02  0.18055433525E+02  0.10470241841E+02  0.35985750874E+02  0.47000000000E+01 0. -1.
         -5    1    4    4    0  502  0.19885366143E+02 -0.20137826051E+02  0.26628308084E+03  0.26782406346E+03  0.47000000000E+01 0. -1.
          5    1    3    3  503    0 -0.45658085073E+02  0.26958284453E+01  0.59901713478E+02  0.75513134627E+02  0.47000000000E+01 0.  1.
         -5    1    3    3    0  503  0.54708157790E+02 -0.61343591932E+00 -0.16166355962E+02  0.57243339328E+02  0.47000000000E+01 0.  1.
<mgrwt>
<rscale>  0 0.12534203E+03</rscale>
<asrwt>0</asrwt>
<pdfrwt beam="1">  1        5 0.58234999E-01 0.12534552E+03</pdfrwt>
<pdfrwt beam="2">  1       -5 0.89290466E-02 0.12534552E+03</pdfrwt>
<totfact> 0.18810635E+02</totfact>
</mgrwt>
</event>
<event>
 8    1  0.1821556E-007  0.1496409E+03  0.7546771E-02  0.1200915E+00
          5   -1    0    0  501    0  0.00000000000E+00  0.00000000000E+00  0.85285534728E+02  0.85414942685E+02  0.47000000000E+01 0. -1.
         -5   -1    0    0    0  501 -0.00000000000E+00 -0.00000000000E+00 -0.26568590573E+03  0.26572747413E+03  0.47000000000E+01 0. -1.
         25    2    1    2    0    0  0.21467814440E+02  0.79412407939E+02 -0.11028529260E+03  0.18589044626E+03  0.12500085861E+03 0.  0.
         25    2    1    2    0    0 -0.21467814440E+02 -0.79412407939E+02 -0.70115078404E+02  0.16525197056E+03  0.12499956784E+03 0.  0.
          5    1    4    4  502    0 -0.17397848267E+02 -0.76164431470E+02  0.15131959205E+02  0.79716823411E+02  0.47000000000E+01 0. -1.
         -5    1    4    4    0  502 -0.40699661728E+01 -0.32479764695E+01 -0.85247037609E+02  0.85535147144E+02  0.47000000000E+01 0. -1.
          5    1    3    3  503    0 -0.98832067256E+01  0.97919695213E+01 -0.10837805233E+03  0.10936842629E+03  0.47000000000E+01 0.  1.
         -5    1    3    3    0  503  0.31351021166E+02  0.69620438418E+02 -0.19072402679E+01  0.76522019962E+02  0.47000000000E+01 0.  1.
<mgrwt>
<rscale>  0 0.14964067E+03</rscale>
<asrwt>0</asrwt>
<pdfrwt beam="1">  1        5 0.13134004E-01 0.14964094E+03</pdfrwt>
<pdfrwt beam="2">  1       -5 0.40887906E-01 0.14964094E+03</pdfrwt>
<totfact> 0.21402503E+02</totfact>
</mgrwt>
</event>
<event>
 8    1  0.1821556E-007  0.1559017E+03  0.7546771E-02  0.1193407E+00
         -5   -1    0    0    0  501 -0.00000000000E+00  0.00000000000E+00  0.58767600539E+03  0.58769479946E+03  0.47000000000E+01 0.  1.
          5   -1    0    0  501    0  0.00000000000E+00 -0.00000000000E+00 -0.10362296786E+03  0.10372950144E+03  0.47000000000E+01 0.  1.
         25    2    1    2    0    0 -0.92428319836E+02 -0.11755315076E+02  0.51007653269E+03  0.53336556416E+03  0.12497829450E+03 0.  0.
         25    2    1    2    0    0  0.92428319836E+02  0.11755315076E+02 -0.26023495162E+02  0.15805873673E+03  0.12499664082E+03 0.  0.
          5    1    3    3  502    0 -0.13632765601E+02 -0.61110166217E+02  0.20713935844E+03  0.21644654890E+03  0.47000000000E+01 0.  1.
         -5    1    3    3    0  502 -0.78795554235E+02  0.49354851141E+02  0.30293717424E+03  0.31691901527E+03  0.47000000000E+01 0.  1.
          5    1    4    4  503    0  0.68657674001E+02 -0.53143843225E+01 -0.74297511498E+02  0.10141168125E+03  0.47000000000E+01 0.  1.
         -5    1    4    4    0  503  0.23770645835E+02  0.17069699399E+02  0.48274016336E+02  0.56647055477E+02  0.47000000000E+01 0.  1.
<mgrwt>
<rscale>  0 0.15589803E+03</rscale>
<asrwt>0</asrwt>
<pdfrwt beam="2">  1        5 0.15951636E-01 0.15590171E+03</pdfrwt>
<pdfrwt beam="1">  1       -5 0.90421332E-01 0.15590171E+03</pdfrwt>
<totfact> 0.26515282E+01</totfact>
</mgrwt>
</event>
<event>
 8    1  0.1821556E-007  0.1516470E+03  0.7546771E-02  0.1198473E+00
         -5   -1    0    0    0  501 -0.00000000000E+00  0.00000000000E+00  0.15410382858E+04  0.15410454531E+04  0.47000000000E+01 0. -1.
          5   -1    0    0  501    0  0.00000000000E+00 -0.00000000000E+00 -0.19475019220E+02  0.20034130219E+02  0.47000000000E+01 0. -1.
         25    2    1    2    0    0 -0.84507545577E+02 -0.14774636364E+02  0.11472045945E+04  0.11571841716E+04  0.12504803147E+03 0.  0.
         25    2    1    2    0    0  0.84507545577E+02  0.14774636364E+02  0.37435867209E+03  0.40389541168E+03  0.12500909194E+03 0.  0.
          5    1    3    3  502    0 -0.23404100086E+02  0.12718089135E+02  0.42098621177E+02  0.50038840885E+02  0.47000000000E+01 0.  1.
         -5    1    3    3    0  502 -0.61103445490E+02 -0.27492725499E+02  0.11051059733E+04  0.11071453307E+04  0.47000000000E+01 0.  1.
          5    1    4    4  503    0  0.97913797413E+02  0.49814865458E+02  0.23423513226E+03  0.25876015870E+03  0.47000000000E+01 0.  1.
         -5    1    4    4    0  503 -0.13406251836E+02 -0.35040229095E+02  0.14012353983E+03  0.14513525298E+03  0.47000000000E+01 0.  1.
<mgrwt>
<rscale>  0 0.15163901E+03</rscale>
<asrwt>0</asrwt>
<pdfrwt beam="2">  1        5 0.30397175E-02 0.15164704E+03</pdfrwt>
<pdfrwt beam="1">  1       -5 0.23712630E+00 0.15164704E+03</pdfrwt>
<totfact> 0.30427532E+01</totfact>
</mgrwt>
</event>
<event>
 8    1  0.1821556E-007  0.1366990E+03  0.7546771E-02  0.1217843E+00
          5   -1    0    0  501    0  0.00000000000E+00  0.00000000000E+00  0.51528204561E+03  0.51530348003E+03  0.47000000000E+01 0.  1.
         -5   -1    0    0    0  501 -0.00000000000E+00 -0.00000000000E+00 -0.46333764754E+02  0.46571533755E+02  0.47000000000E+01 0.  1.
         25    2    1    2    0    0 -0.40958452940E+02  0.37191151781E+02  0.10278382729E+03  0.17102589703E+03  0.12499826264E+03 0.  0.
         25    2    1    2    0    0  0.40958452940E+02 -0.37191151781E+02  0.36616445357E+03  0.39084911676E+03  0.12500339346E+03 0.  0.
          5    1    3    3  502    0  0.23315373279E+02  0.62725217544E+02  0.56134824979E+02  0.87471527496E+02  0.47000000000E+01 0. -1.
         -5    1    3    3    0  502 -0.64273826219E+02 -0.25534065763E+02  0.46649002314E+02  0.83554369533E+02  0.47000000000E+01 0. -1.
          5    1    4    4  503    0 -0.16033212756E+02  0.29175578896E+02  0.35993054276E+02  0.49253104179E+02  0.47000000000E+01 0. -1.
         -5    1    4    4    0  503  0.56991665695E+02 -0.66366730677E+02  0.33017139929E+03  0.34159601258E+03  0.47000000000E+01 0. -1.
<mgrwt>
<rscale>  0 0.13669786E+03</rscale>
<asrwt>0</asrwt>
<pdfrwt beam="1">  1        5 0.79294094E-01 0.13669903E+03</pdfrwt>
<pdfrwt beam="2">  1       -5 0.71482107E-02 0.13669903E+03</pdfrwt>
<totfact> 0.14215220E+02</totfact>
</mgrwt>
</event>
<event>
 8    1  0.1821556E-007  0.1335612E+03  0.7546771E-02  0.1222266E+00
          5   -1    0    0  501    0  0.00000000000E+00  0.00000000000E+00  0.51250950601E+02  0.51466007593E+02  0.47000000000E+01 0.  1.
         -5   -1    0    0    0  501 -0.00000000000E+00 -0.00000000000E+00 -0.34943642215E+03  0.34946802876E+03  0.47000000000E+01 0.  1.
         25    2    1    2    0    0  0.47002920608E+02 -0.18929398179E+01 -0.16549821823E+03  0.21266935808E+03  0.12500295141E+03 0.  0.
         25    2    1    2    0    0 -0.47002920608E+02  0.18929398179E+01 -0.13268725332E+03  0.18826467827E+03  0.12499929650E+03 0.  0.
          5    1    4    4  502    0 -0.11616415909E+02  0.58692758015E+02 -0.34128467027E+02  0.69040735972E+02  0.47000000000E+01 0.  1.
         -5    1    4    4    0  502 -0.35386504698E+02 -0.56799818197E+02 -0.98558786291E+02  0.11922394230E+03  0.47000000000E+01 0.  1.
          5    1    3    3  503    0 -0.14720226565E+02 -0.14037571834E+02  0.12149167770E+02  0.24154311636E+02  0.47000000000E+01 0. -1.
         -5    1    3    3    0  503  0.61723147172E+02  0.12144632016E+02 -0.17764738600E+03  0.18851504644E+03  0.47000000000E+01 0. -1.
<mgrwt>
<rscale>  0 0.13356035E+03</rscale>
<asrwt>0</asrwt>
<pdfrwt beam="1">  1        5 0.79037359E-02 0.13356121E+03</pdfrwt>
<pdfrwt beam="2">  1       -5 0.53778422E-01 0.13356121E+03</pdfrwt>
<totfact> 0.28177967E+02</totfact>
</mgrwt>
</event>
<event>
 8    1  0.1821556E-007  0.1289840E+03  0.7546771E-02  0.1228977E+00
         -5   -1    0    0    0  501 -0.00000000000E+00  0.00000000000E+00  0.93818283289E+03  0.93819460557E+03  0.47000000000E+01 0.  1.
          5   -1    0    0  501    0  0.00000000000E+00 -0.00000000000E+00 -0.20058720353E+02  0.20601996559E+02  0.47000000000E+01 0.  1.
         25    2    1    2    0    0 -0.21584616538E+02 -0.23369841303E+02  0.63084233557E+03  0.64389356870E+03  0.12499932126E+03 0.  0.
         25    2    1    2    0    0  0.21584616538E+02  0.23369841303E+02  0.28728177696E+03  0.31490303343E+03  0.12498422273E+03 0.  0.
          5    1    3    3  502    0  0.25480373132E+02  0.30178200822E+02  0.40668419658E+03  0.40862464313E+03  0.47000000000E+01 0. -1.
         -5    1    3    3    0  502 -0.47064989670E+02 -0.53548042125E+02  0.22415813898E+03  0.23526892557E+03  0.47000000000E+01 0. -1.
          5    1    4    4  503    0  0.58830391042E+02  0.51174619577E+02  0.13911629819E+03  0.15954714356E+03  0.47000000000E+01 0. -1.
         -5    1    4    4    0  503 -0.37245774504E+02 -0.27804778274E+02  0.14816547878E+03  0.15535588986E+03  0.47000000000E+01 0. -1.
<mgrwt>
<rscale>  0 0.12898035E+03</rscale>
<asrwt>0</asrwt>
<pdfrwt beam="2">  1        5 0.31286535E-02 0.12898401E+03</pdfrwt>
<pdfrwt beam="1">  1       -5 0.14437850E+00 0.12898401E+03</pdfrwt>
<totfact> 0.12402580E+02</totfact>
</mgrwt>
</event>
<event>
 8    1  0.1821556E-007  0.1373766E+03  0.7546771E-02  0.1216920E+00
         -5   -1    0    0    0  501 -0.00000000000E+00  0.00000000000E+00  0.17691468874E+03  0.17697710895E+03  0.47000000000E+01 0. -1.
          5   -1    0    0  501    0  0.00000000000E+00 -0.00000000000E+00 -0.11131820974E+03  0.11141738562E+03  0.47000000000E+01 0. -1.
         25    2    1    2    0    0 -0.53917733804E+02 -0.18427734305E+02  0.62768919360E+02  0.15103729768E+03  0.12500249855E+03 0.  0.
         25    2    1    2    0    0  0.53917733804E+02  0.18427734305E+02  0.28275596471E+01  0.13735719690E+03  0.12494919382E+03 0.  0.
          5    1    4    4  502    0 -0.25434880838E+01  0.45845013762E+02  0.42676259526E+02  0.62861655606E+02  0.47000000000E+01 0. -1.
         -5    1    4    4    0  502  0.56461221888E+02 -0.27417279456E+02 -0.39848699879E+02  0.74495541289E+02  0.47000000000E+01 0. -1.
          5    1    3    3  503    0  0.30823283010E+02  0.24494290270E+02  0.55297307200E+01  0.40033897552E+02  0.47000000000E+01 0. -1.
         -5    1    3    3    0  503 -0.84741016815E+02 -0.42922024575E+02  0.57239188640E+02  0.11100340013E+03  0.47000000000E+01 0. -1.
<mgrwt>
<rscale>  0 0.13736447E+03</rscale>
<asrwt>0</asrwt>
<pdfrwt beam="2">  1        5 0.17138309E-01 0.13737659E+03</pdfrwt>
<pdfrwt beam="1">  1       -5 0.27230075E-01 0.13737659E+03</pdfrwt>
<totfact> 0.28878803E+02</totfact>
</mgrwt>
</event>
<event>
 8    1  0.1821556E-007  0.1443790E+03  0.7546771E-02  0.1207556E+00
          5   -1    0    0  501    0  0.00000000000E+00  0.00000000000E+00  0.37620071978E+03  0.37623007796E+03  0.47000000000E+01 0. -1.
         -5   -1    0    0    0  501 -0.00000000000E+00 -0.00000000000E+00 -0.55796427674E+02  0.55994029514E+02  0.47000000000E+01 0. -1.
         25    2    1    2    0    0  0.25880598503E+02  0.67454829487E+02  0.13941199450E+03  0.20070129399E+03  0.12500138319E+03 0.  0.
         25    2    1    2    0    0 -0.25880598503E+02 -0.67454829487E+02  0.18099229760E+03  0.23152281348E+03  0.12499856787E+03 0.  0.
          5    1    3    3  502    0  0.16221332374E+01  0.61878054055E+02  0.32064190030E+01  0.62160244632E+02  0.47000000000E+01 0. -1.
         -5    1    3    3    0  502  0.24258465266E+02  0.55767754319E+01  0.13620557550E+03  0.13854104936E+03  0.47000000000E+01 0. -1.
          5    1    4    4  503    0  0.24097136920E+02 -0.59391132343E+02  0.16677775931E+03  0.17873133359E+03  0.47000000000E+01 0. -1.
         -5    1    4    4    0  503 -0.49977735423E+02 -0.80636971435E+01  0.14214538295E+02  0.52791479887E+02  0.47000000000E+01 0. -1.
<mgrwt>
<rscale>  0 0.14437842E+03</rscale>
<asrwt>0</asrwt>
<pdfrwt beam="1">  1        5 0.57894491E-01 0.14437903E+03</pdfrwt>
<pdfrwt beam="2">  1       -5 0.86015244E-02 0.14437903E+03</pdfrwt>
<totfact> 0.21328662E+02</totfact>
</mgrwt>
</event>
<event>
 8    1  0.1821556E-007  0.1309521E+03  0.7546771E-02  0.1226052E+00
         -5   -1    0    0    0  501 -0.00000000000E+00  0.00000000000E+00  0.48425636175E+03  0.48427916938E+03  0.47000000000E+01 0. -1.
          5   -1    0    0  501    0  0.00000000000E+00 -0.00000000000E+00 -0.35246655607E+02  0.35558637931E+02  0.47000000000E+01 0. -1.
         25    2    1    2    0    0  0.61902802242E+01 -0.38537648325E+02  0.21899405651E+03  0.25516046147E+03  0.12499997761E+03 0.  0.
         25    2    1    2    0    0 -0.61902802242E+01  0.38537648325E+02  0.23001564964E+03  0.26467734585E+03  0.12499371351E+03 0.  0.
          5    1    4    4  502    0 -0.21584582330E+02  0.68330814283E+01  0.22788723871E+03  0.22905734820E+03  0.47000000000E+01 0.  1.
         -5    1    4    4    0  502  0.15394302106E+02  0.31704566896E+02  0.21284109278E+01  0.35619997649E+02  0.47000000000E+01 0.  1.
          5    1    3    3  503    0  0.32444571637E+02  0.20378551039E+01  0.20054493482E+03  0.20321703660E+03  0.47000000000E+01 0. -1.
         -5    1    3    3    0  503 -0.26254291413E+02 -0.40575503429E+02  0.18449121688E+02  0.51943424869E+02  0.47000000000E+01 0. -1.
<mgrwt>
<rscale>  0 0.13095065E+03</rscale>
<asrwt>0</asrwt>
<pdfrwt beam="2">  1        5 0.54483155E-02 0.13095215E+03</pdfrwt>
<pdfrwt beam="1">  1       -5 0.74526732E-01 0.13095215E+03</pdfrwt>
<totfact> 0.25516935E+02</totfact>
</mgrwt>
</event>
<event>
 8    1  0.1821556E-007  0.1461598E+03  0.7546771E-02  0.1205274E+00
          5   -1    0    0  501    0  0.00000000000E+00  0.00000000000E+00  0.92936153973E+03  0.92937342416E+03  0.47000000000E+01 0.  1.
         -5   -1    0    0    0  501 -0.00000000000E+00 -0.00000000000E+00 -0.30511666789E+02  0.30871537218E+02  0.47000000000E+01 0.  1.
         25    2    1    2    0    0  0.75333577787E+01 -0.75373376371E+02  0.20871477144E+03  0.25480296183E+03  0.12499918477E+03 0.  0.
         25    2    1    2    0    0 -0.75333577787E+01  0.75373376371E+02  0.69013510150E+03  0.70544199955E+03  0.12499623618E+03 0.  0.
          5    1    3    3  502    0  0.59959343510E+02 -0.10696501538E+02  0.69559142267E+02  0.92574846974E+02  0.47000000000E+01 0.  1.
         -5    1    3    3    0  502 -0.52425985732E+02 -0.64676874833E+02  0.13915562917E+03  0.16222811485E+03  0.47000000000E+01 0.  1.
          5    1    4    4  503    0 -0.61472493196E+01 -0.24898806037E+02  0.40990539644E+02  0.48580382425E+02  0.47000000000E+01 0. -1.
         -5    1    4    4    0  503 -0.13861084590E+01  0.10027218241E+03  0.64914456186E+03  0.65686161712E+03  0.47000000000E+01 0. -1.
<mgrwt>
<rscale>  0 0.14615919E+03</rscale>
<asrwt>0</asrwt>
<pdfrwt beam="1">  1        5 0.14300731E+00 0.14615982E+03</pdfrwt>
<pdfrwt beam="2">  1       -5 0.47226985E-02 0.14615982E+03</pdfrwt>
<totfact> 0.67445845E+01</totfact>
</mgrwt>
</event>
<event>
 8    1  0.1821556E-007  0.1897899E+03  0.7546771E-02  0.1158651E+00
         -5   -1    0    0    0  501 -0.00000000000E+00  0.00000000000E+00  0.21038818180E+03  0.21044067345E+03  0.47000000000E+01 0. -1.
          5   -1    0    0  501    0  0.00000000000E+00 -0.00000000000E+00 -0.17668443277E+03  0.17674693429E+03  0.47000000000E+01 0. -1.
         25    2    1    2    0    0  0.66087295242E+02  0.12659984883E+03  0.51252946670E+02  0.19658855804E+03  0.12500057718E+03 0.  0.
         25    2    1    2    0    0 -0.66087295242E+02 -0.12659984883E+03 -0.17549197634E+02  0.19059904970E+03  0.12499988437E+03 0.  0.
          5    1    4    4  502    0 -0.72106025562E+01  0.30575005687E+01 -0.44644161049E+02  0.45568983034E+02  0.47000000000E+01 0. -1.
         -5    1    4    4    0  502 -0.58876692686E+02 -0.12965734940E+03  0.27094963415E+02  0.14503006666E+03  0.47000000000E+01 0. -1.
          5    1    3    3  503    0  0.68783330495E+02  0.88921273596E+01  0.39846971204E+01  0.69628904157E+02  0.47000000000E+01 0. -1.
         -5    1    3    3    0  503 -0.26960352529E+01  0.11770772147E+03  0.47268249549E+02  0.12695965389E+03  0.47000000000E+01 0. -1.
<mgrwt>
<rscale>  0 0.18978976E+03</rscale>
<asrwt>0</asrwt>
<pdfrwt beam="2">  1        5 0.27191066E-01 0.18978987E+03</pdfrwt>
<pdfrwt beam="1">  1       -5 0.32376258E-01 0.18978987E+03</pdfrwt>
<totfact> 0.95096371E+01</totfact>
</mgrwt>
</event>
<event>
 8    1  0.1821556E-007  0.1289293E+03  0.7546771E-02  0.1229057E+00
          5   -1    0    0  501    0  0.00000000000E+00  0.00000000000E+00  0.93919338764E+03  0.93920514766E+03  0.47000000000E+01 0.  1.
         -5   -1    0    0    0  501 -0.00000000000E+00 -0.00000000000E+00 -0.28170921021E+02  0.28560300964E+02  0.47000000000E+01 0.  1.
         25    2    1    2    0    0  0.12541551386E+02  0.28938933409E+02  0.15864773617E+03  0.20442378327E+03  0.12500090639E+03 0.  0.
         25    2    1    2    0    0 -0.12541551386E+02 -0.28938933409E+02  0.75237473045E+03  0.76334166535E+03  0.12501204207E+03 0.  0.
          5    1    4    4  502    0 -0.56650696906E+02  0.17975184027E+02  0.46480165791E+03  0.46860973090E+03  0.47000000000E+01 0. -1.
         -5    1    4    4    0  502  0.44109145520E+02 -0.46914117435E+02  0.28757307254E+03  0.29473193445E+03  0.47000000000E+01 0. -1.
          5    1    3    3  503    0  0.59935752686E+02  0.35526226424E+01  0.35353441726E+02  0.69834600447E+02  0.47000000000E+01 0.  1.
         -5    1    3    3    0  503 -0.47394201300E+02  0.25386310766E+02  0.12329429444E+03  0.13458918282E+03  0.47000000000E+01 0.  1.
<mgrwt>
<rscale>  0 0.12892660E+03</rscale>
<asrwt>0</asrwt>
<pdfrwt beam="1">  1        5 0.14452216E+00 0.12892929E+03</pdfrwt>
<pdfrwt beam="2">  1       -5 0.43648444E-02 0.12892929E+03</pdfrwt>
<totfact> 0.71855998E+01</totfact>
</mgrwt>
</event>
<event>
 8    1  0.1821556E-007  0.1831224E+03  0.7546771E-02  0.1164816E+00
         -5   -1    0    0    0  501 -0.00000000000E+00  0.00000000000E+00  0.60124560540E+03  0.60126397532E+03  0.47000000000E+01 0.  1.
          5   -1    0    0  501    0  0.00000000000E+00 -0.00000000000E+00 -0.68727848092E+02  0.68888366967E+02  0.47000000000E+01 0.  1.
         25    2    1    2    0    0 -0.13153516969E+03 -0.24606950286E+02  0.41219358267E+03  0.45104030373E+03  0.12500721229E+03 0.  0.
         25    2    1    2    0    0  0.13153516969E+03  0.24606950286E+02  0.12032417464E+03  0.21911203855E+03  0.12500070227E+03 0.  0.
          5    1    4    4  502    0  0.27328687847E+02 -0.48070178149E+02  0.29324899356E+02  0.62766543069E+02  0.47000000000E+01 0.  1.
         -5    1    4    4    0  502  0.10420648185E+03  0.72677128435E+02  0.90999275283E+02  0.15634549549E+03  0.47000000000E+01 0.  1.
          5    1    3    3  503    0  0.83064124478E+01 -0.68540827176E+01 -0.33456498637E+01  0.12217131851E+02  0.47000000000E+01 0. -1.
         -5    1    3    3    0  503 -0.13984158214E+03 -0.17752867569E+02  0.41553923253E+03  0.43882317188E+03  0.47000000000E+01 0. -1.
<mgrwt>
<rscale>  0 0.18312127E+03</rscale>
<asrwt>0</asrwt>
<pdfrwt beam="2">  1        5 0.10587275E-01 0.18312238E+03</pdfrwt>
<pdfrwt beam="1">  1       -5 0.92513087E-01 0.18312238E+03</pdfrwt>
<totfact> 0.54719863E+01</totfact>
</mgrwt>
</event>
<event>
 8    1  0.1821556E-007  0.1583934E+03  0.7546771E-02  0.1190538E+00
          5   -1    0    0  501    0  0.00000000000E+00  0.00000000000E+00  0.21229377653E+03  0.21234579712E+03  0.47000000000E+01 0.  1.
         -5   -1    0    0    0  501 -0.00000000000E+00 -0.00000000000E+00 -0.11813031771E+03  0.11822377917E+03  0.47000000000E+01 0.  1.
         25    2    1    2    0    0 -0.37240759472E+02 -0.89775887455E+02  0.52020054404E+02  0.16666553775E+03  0.12499892511E+03 0.  0.
         25    2    1    2    0    0  0.37240759472E+02  0.89775887455E+02  0.42143404422E+02  0.16390403854E+03  0.12506751448E+03 0.  0.
          5    1    3    3  502    0 -0.14409403521E+02 -0.11706130602E+03  0.55832421241E+02  0.13057691043E+03  0.47000000000E+01 0. -1.
         -5    1    3    3    0  502 -0.22831355951E+02  0.27285418562E+02 -0.38123668370E+01  0.36088627316E+02  0.47000000000E+01 0. -1.
          5    1    4    4  503    0  0.72377073086E+02  0.96372130763E+02  0.22013819279E+02  0.12260801987E+03  0.47000000000E+01 0.  1.
         -5    1    4    4    0  503 -0.35136313615E+02 -0.65962433083E+01  0.20129585144E+02  0.41296018673E+02  0.47000000000E+01 0.  1.
<mgrwt>
<rscale>  0 0.15837985E+03</rscale>
<asrwt>0</asrwt>
<pdfrwt beam="1">  1        5 0.32671772E-01 0.15839339E+03</pdfrwt>
<pdfrwt beam="2">  1       -5 0.18185086E-01 0.15839339E+03</pdfrwt>
<totfact> 0.18984203E+02</totfact>
</mgrwt>
</event>
<event>
 8    1  0.1821556E-007  0.1281207E+03  0.7546771E-02  0.1230274E+00
         -5   -1    0    0    0  501 -0.00000000000E+00  0.00000000000E+00  0.37457633991E+03  0.37460582540E+03  0.47000000000E+01 0. -1.
          5   -1    0    0  501    0  0.00000000000E+00 -0.00000000000E+00 -0.57148810840E+02  0.57341752506E+02  0.47000000000E+01 0. -1.
         25    2    1    2    0    0  0.27930623126E+02  0.30448764185E+01  0.26339463685E+03  0.29289916473E+03  0.12499517991E+03 0.  0.
         25    2    1    2    0    0 -0.27930623126E+02 -0.30448764185E+01  0.54032892225E+02  0.13904841317E+03  0.12500206711E+03 0.  0.
          5    1    4    4  502    0 -0.17638457820E+02 -0.41471938797E+02 -0.24043553166E+02  0.51295412570E+02  0.47000000000E+01 0.  1.
         -5    1    4    4    0  502 -0.10292165306E+02  0.38427062378E+02  0.78076445391E+02  0.87753000602E+02  0.47000000000E+01 0.  1.
          5    1    3    3  503    0 -0.31305606602E+02  0.23169005103E+02  0.25305676330E+02  0.46683091765E+02  0.47000000000E+01 0.  1.
         -5    1    3    3    0  503  0.59236229728E+02 -0.20124128684E+02  0.23808896052E+03  0.24621607297E+03  0.47000000000E+01 0.  1.
<mgrwt>
<rscale>  0 0.12811900E+03</rscale>
<asrwt>0</asrwt>
<pdfrwt beam="2">  1        5 0.88092347E-02 0.12812068E+03</pdfrwt>
<pdfrwt beam="1">  1       -5 0.57644238E-01 0.12812068E+03</pdfrwt>
<totfact> 0.19839524E+02</totfact>
</mgrwt>
</event>
<event>
 8    1  0.1821556E-007  0.1348936E+03  0.7546771E-02  0.1220376E+00
          5   -1    0    0  501    0  0.00000000000E+00  0.00000000000E+00  0.59893857273E+03  0.59895701341E+03  0.47000000000E+01 0. -1.
         -5   -1    0    0    0  501 -0.00000000000E+00 -0.00000000000E+00 -0.30431123500E+02  0.30791935267E+02  0.47000000000E+01 0. -1.
         25    2    1    2    0    0  0.49416323033E+02 -0.11133087953E+02  0.25564787054E+03  0.28905384888E+03  0.12502149900E+03 0.  0.
         25    2    1    2    0    0 -0.49416323033E+02  0.11133087953E+02  0.31285957870E+03  0.34069509979E+03  0.12500446556E+03 0.  0.
          5    1    4    4  502    0 -0.29378462431E+02  0.43575105615E+02  0.42865230844E+02  0.67980893635E+02  0.47000000000E+01 0.  1.
         -5    1    4    4    0  502 -0.20037860602E+02 -0.32442017662E+02  0.26999434785E+03  0.27271420616E+03  0.47000000000E+01 0.  1.
          5    1    3    3  503    0  0.86330971054E+02  0.12376662181E+02  0.13666516007E+03  0.16219024109E+03  0.47000000000E+01 0.  1.
         -5    1    3    3    0  503 -0.36914648021E+02 -0.23509750134E+02  0.11898271047E+03  0.12686360779E+03  0.47000000000E+01 0.  1.
<mgrwt>
<rscale>  0 0.13488969E+03</rscale>
<asrwt>0</asrwt>
<pdfrwt beam="1">  1        5 0.92173564E-01 0.13489364E+03</pdfrwt>
<pdfrwt beam="2">  1       -5 0.47108848E-02 0.13489364E+03</pdfrwt>
<totfact> 0.20007958E+02</totfact>
</mgrwt>
</event>
<event>
 8    1  0.1821556E-007  0.1899848E+03  0.7546771E-02  0.1158477E+00
          5   -1    0    0  501    0  0.00000000000E+00  0.00000000000E+00  0.89414038327E+03  0.89415273584E+03  0.47000000000E+01 0. -1.
         -5   -1    0    0    0  501 -0.00000000000E+00 -0.00000000000E+00 -0.58384850943E+02  0.58573721238E+02  0.47000000000E+01 0. -1.
         25    2    1    2    0    0 -0.12561132417E+03  0.68485749476E+02  0.15269066844E+03  0.24373291206E+03  0.12499115789E+03 0.  0.
         25    2    1    2    0    0  0.12561132417E+03 -0.68485749476E+02  0.68306486389E+03  0.70899354502E+03  0.12500294377E+03 0.  0.
          5    1    3    3  502    0 -0.75952805285E+01 -0.69900313924E+01  0.89095823947E+02  0.89814835467E+02  0.47000000000E+01 0.  1.
         -5    1    3    3    0  502 -0.11801604364E+03  0.75475780868E+02  0.63594844492E+02  0.15391807659E+03  0.47000000000E+01 0.  1.
          5    1    4    4  503    0 -0.52420216104E+01 -0.26586197117E+02  0.26508493360E+02  0.38198100580E+02  0.47000000000E+01 0.  1.
         -5    1    4    4    0  503  0.13085334578E+03 -0.41899552358E+02  0.65655637053E+03  0.67079544444E+03  0.47000000000E+01 0.  1.
<mgrwt>
<rscale>  0 0.18998290E+03</rscale>
<asrwt>0</asrwt>
<pdfrwt beam="1">  1        5 0.13757554E+00 0.18998484E+03</pdfrwt>
<pdfrwt beam="2">  1       -5 0.89977636E-02 0.18998484E+03</pdfrwt>
<totfact> 0.26941090E+01</totfact>
</mgrwt>
</event>
<event>
 8    1  0.1821556E-007  0.1606377E+03  0.7546771E-02  0.1187980E+00
         -5   -1    0    0    0  501 -0.00000000000E+00  0.00000000000E+00  0.55171368367E+02  0.55371200885E+02  0.47000000000E+01 0.  1.
          5   -1    0    0  501    0  0.00000000000E+00 -0.00000000000E+00 -0.56856743677E+03  0.56858686246E+03  0.47000000000E+01 0.  1.
         25    2    1    2    0    0 -0.85636433396E+02 -0.53338529561E+02 -0.12463193441E+03  0.20331330445E+03  0.12499833291E+03 0.  0.
         25    2    1    2    0    0  0.85636433396E+02  0.53338529561E+02 -0.38876413400E+03  0.42064475889E+03  0.12500345531E+03 0.  0.
          5    1    3    3  502    0  0.83750974072E+01  0.44410353441E+01 -0.85478450842E+02  0.86130834258E+02  0.47000000000E+01 0. -1.
         -5    1    3    3    0  502 -0.94011530804E+02 -0.57779564905E+02 -0.39153483563E+02  0.11718247019E+03  0.47000000000E+01 0. -1.
          5    1    4    4  503    0  0.53007877522E+02 -0.11918066251E+02 -0.30335423972E+03  0.30821706659E+03  0.47000000000E+01 0.  1.
         -5    1    4    4    0  503  0.32628555875E+02  0.65256595812E+02 -0.85409894280E+02  0.11242769230E+03  0.47000000000E+01 0.  1.
<mgrwt>
<rscale>  0 0.16063667E+03</rscale>
<asrwt>0</asrwt>
<pdfrwt beam="2">  1        5 0.87488775E-01 0.16063767E+03</pdfrwt>
<pdfrwt beam="1">  1       -5 0.85047692E-02 0.16063767E+03</pdfrwt>
<totfact> 0.88263316E+01</totfact>
</mgrwt>
</event>
<event>
 8    1  0.1821556E-007  0.1294687E+03  0.7546771E-02  0.1228252E+00
         -5   -1    0    0    0  501 -0.00000000000E+00  0.00000000000E+00  0.18387660293E+02  0.18978831656E+02  0.47000000000E+01 0.  1.
          5   -1    0    0  501    0  0.00000000000E+00 -0.00000000000E+00 -0.93431017387E+03  0.93432199535E+03  0.47000000000E+01 0.  1.
         25    2    1    2    0    0 -0.55757742173E+01 -0.33178309593E+02 -0.36209048669E+03  0.38454083979E+03  0.12502098797E+03 0.  0.
         25    2    1    2    0    0  0.55757742173E+01  0.33178309593E+02 -0.55383202689E+03  0.56875998721E+03  0.12500447817E+03 0.  0.
          5    1    4    4  502    0 -0.56745565938E+02  0.79240871272E+01 -0.33100849188E+03  0.33596363212E+03  0.47000000000E+01 0. -1.
         -5    1    4    4    0  502  0.62321340156E+02  0.25254222466E+02 -0.22282353501E+03  0.23279635509E+03  0.47000000000E+01 0. -1.
          5    1    3    3  503    0 -0.55632966609E+02 -0.85043962940E+01 -0.86406651517E+02  0.10322572914E+03  0.47000000000E+01 0.  1.
         -5    1    3    3    0  503  0.50057192391E+02 -0.24673913299E+02 -0.27568383517E+03  0.28131511065E+03  0.47000000000E+01 0.  1.
<mgrwt>
<rscale>  0 0.12946469E+03</rscale>
<asrwt>0</asrwt>
<pdfrwt beam="2">  1        5 0.14378637E+00 0.12946867E+03</pdfrwt>
<pdfrwt beam="1">  1       -5 0.28752556E-02 0.12946867E+03</pdfrwt>
<totfact> 0.14389030E+02</totfact>
</mgrwt>
</event>
<event>
 8    1  0.1821556E-007  0.1395322E+03  0.7546771E-02  0.1213962E+00
         -5   -1    0    0    0  501 -0.00000000000E+00  0.00000000000E+00  0.94474929334E+02  0.94591766410E+02  0.47000000000E+01 0. -1.
          5   -1    0    0  501    0  0.00000000000E+00 -0.00000000000E+00 -0.21473304616E+03  0.21478447596E+03  0.47000000000E+01 0. -1.
         25    2    1    2    0    0 -0.28091893815E+02  0.55268418214E+02 -0.28588873181E+02  0.14242570961E+03  0.12499602609E+03 0.  0.
         25    2    1    2    0    0  0.28091893815E+02 -0.55268418214E+02 -0.91669243650E+02  0.16695053276E+03  0.12500191042E+03 0.  0.
          5    1    3    3  502    0 -0.52066906560E+02  0.36348442710E+02 -0.67463259504E+02  0.92766122206E+02  0.47000000000E+01 0.  1.
         -5    1    3    3    0  502  0.23975012745E+02  0.18919975504E+02  0.38874386324E+02  0.49659587405E+02  0.47000000000E+01 0.  1.
          5    1    4    4  503    0  0.49016593955E+02  0.17667681727E+02 -0.70953771683E+02  0.88154983845E+02  0.47000000000E+01 0. -1.
         -5    1    4    4    0  503 -0.20924700140E+02 -0.72936099941E+02 -0.20715471966E+02  0.78795548918E+02  0.47000000000E+01 0. -1.
<mgrwt>
<rscale>  0 0.13953087E+03</rscale>
<asrwt>0</asrwt>
<pdfrwt beam="2">  1        5 0.33048797E-01 0.13953218E+03</pdfrwt>
<pdfrwt beam="1">  1       -5 0.14547548E-01 0.13953218E+03</pdfrwt>
<totfact> 0.26750473E+02</totfact>
</mgrwt>
</event>
<event>
 8    1  0.1821556E-007  0.1548645E+03  0.7546771E-02  0.1194620E+00
          5   -1    0    0  501    0  0.00000000000E+00  0.00000000000E+00  0.10221564716E+03  0.10232364597E+03  0.47000000000E+01 0. -1.
         -5   -1    0    0    0  501 -0.00000000000E+00 -0.00000000000E+00 -0.29415099051E+03  0.29418853686E+03  0.47000000000E+01 0. -1.
         25    2    1    2    0    0  0.17554072472E+02  0.89721291798E+02 -0.18531752399E+03  0.24150631269E+03  0.12499863483E+03 0.  0.
         25    2    1    2    0    0 -0.17554072472E+02 -0.89721291798E+02 -0.66178193648E+01  0.15500587014E+03  0.12499987433E+03 0.  0.
          5    1    4    4  502    0 -0.20130727155E+02 -0.10467019636E+03  0.33525583749E+02  0.11183537431E+03  0.47000000000E+01 0.  1.
         -5    1    4    4    0  502  0.25766546832E+01  0.14948904558E+02 -0.40143403114E+02  0.43170495833E+02  0.47000000000E+01 0.  1.
          5    1    3    3  503    0 -0.17406764030E+02 -0.27178205346E+02 -0.34934681956E+02  0.47793015004E+02  0.47000000000E+01 0. -1.
         -5    1    3    3    0  503  0.34960836502E+02  0.11689949714E+03 -0.15038284203E+03  0.19371329768E+03  0.47000000000E+01 0. -1.
<mgrwt>
<rscale>  0 0.15486429E+03</rscale>
<asrwt>0</asrwt>
<pdfrwt beam="1">  1        5 0.15736680E-01 0.15486454E+03</pdfrwt>
<pdfrwt beam="2">  1       -5 0.45265194E-01 0.15486454E+03</pdfrwt>
<totfact> 0.12645679E+02</totfact>
</mgrwt>
</event>
<event>
 8    1  0.1821556E-007  0.1475423E+03  0.7546771E-02  0.1203528E+00
          5   -1    0    0  501    0  0.00000000000E+00  0.00000000000E+00  0.26013458377E+02  0.26434636686E+02  0.47000000000E+01 0. -1.
         -5   -1    0    0    0  501 -0.00000000000E+00 -0.00000000000E+00 -0.10091700673E+04  0.10091810119E+04  0.47000000000E+01 0. -1.
         25    2    1    2    0    0  0.77768839680E+02  0.96904656511E+01 -0.70992089124E+03  0.72508951380E+03  0.12500093460E+03 0.  0.
         25    2    1    2    0    0 -0.77768839680E+02 -0.96904656511E+01 -0.27323571771E+03  0.31052613479E+03  0.12500730141E+03 0.  0.
          5    1    3    3  502    0 -0.13670092320E+02  0.45473969577E+02 -0.28321300606E+03  0.28720454407E+03  0.47000000000E+01 0.  1.
         -5    1    3    3    0  502  0.91438932000E+02 -0.35783503926E+02 -0.42670788518E+03  0.43788496973E+03  0.47000000000E+01 0.  1.
          5    1    4    4  503    0 -0.35032345317E+02 -0.67047781971E+02 -0.13579148689E+03  0.15551234098E+03  0.47000000000E+01 0.  1.
         -5    1    4    4    0  503 -0.42736494364E+02  0.57357316320E+02 -0.13744423082E+03  0.15501379381E+03  0.47000000000E+01 0.  1.
<mgrwt>
<rscale>  0 0.14754093E+03</rscale>
<asrwt>0</asrwt>
<pdfrwt beam="1">  1        5 0.40353115E-02 0.14754228E+03</pdfrwt>
<pdfrwt beam="2">  1       -5 0.15529014E+00 0.14754228E+03</pdfrwt>
<totfact> 0.70029669E+01</totfact>
</mgrwt>
</event>
<event>
 8    1  0.1821556E-007  0.2076598E+03  0.7546771E-02  0.1143433E+00
         -5   -1    0    0    0  501 -0.00000000000E+00  0.00000000000E+00  0.21543185216E+03  0.21548311517E+03  0.47000000000E+01 0. -1.
          5   -1    0    0  501    0  0.00000000000E+00 -0.00000000000E+00 -0.21379352901E+03  0.21384518476E+03  0.47000000000E+01 0. -1.
         25    2    1    2    0    0  0.16093414370E+03 -0.39974352399E+02  0.55202756088E+02  0.21487148200E+03  0.12499864815E+03 0.  0.
         25    2    1    2    0    0 -0.16093414370E+03  0.39974352399E+02 -0.53564432939E+02  0.21445681793E+03  0.12499932329E+03 0.  0.
          5    1    3    3  502    0  0.17309003652E+03 -0.53554960152E+02  0.30468629311E+02  0.18378988512E+03  0.47000000000E+01 0.  1.
         -5    1    3    3    0  502 -0.12155892823E+02  0.13580607753E+02  0.24734126777E+02  0.31081596881E+02  0.47000000000E+01 0.  1.
          5    1    4    4  503    0  0.16858613617E+01  0.23406192482E+02  0.23621478095E+02  0.33626718579E+02  0.47000000000E+01 0.  1.
         -5    1    4    4    0  503 -0.16262000506E+03  0.16568159917E+02 -0.77185911034E+02  0.18083009935E+03  0.47000000000E+01 0.  1.
<mgrwt>
<rscale>  0 0.20765966E+03</rscale>
<asrwt>0</asrwt>
<pdfrwt beam="2">  1        5 0.32899229E-01 0.20765977E+03</pdfrwt>
<pdfrwt beam="1">  1       -5 0.33151279E-01 0.20765977E+03</pdfrwt>
<totfact> 0.63786050E+01</totfact>
</mgrwt>
</event>
<event>
 8    1  0.1821556E-007  0.1289998E+03  0.7546771E-02  0.1228963E+00
         -5   -1    0    0    0  501 -0.00000000000E+00  0.00000000000E+00  0.17971271876E+04  0.17971333335E+04  0.47000000000E+01 0.  1.
          5   -1    0    0  501    0  0.00000000000E+00 -0.00000000000E+00 -0.11215285583E+02  0.12160289088E+02  0.47000000000E+01 0.  1.
         25    2    1    2    0    0 -0.65151064320E+01  0.31191131134E+02  0.13058346038E+04  0.13121868300E+04  0.12495971822E+03 0.  0.
         25    2    1    2    0    0  0.65151064320E+01 -0.31191131134E+02  0.48007729822E+03  0.49710679256E+03  0.12500247065E+03 0.  0.
          5    1    4    4  502    0  0.63374586977E+02 -0.22651510248E+02  0.31775300100E+03  0.32483609534E+03  0.47000000000E+01 0.  1.
         -5    1    4    4    0  502 -0.56859480545E+02 -0.85396208861E+01  0.16232429722E+03  0.17227069722E+03  0.47000000000E+01 0.  1.
          5    1    3    3  503    0  0.44748045691E+02  0.23680440778E+02  0.10438147853E+04  0.10450524135E+04  0.47000000000E+01 0. -1.
         -5    1    3    3    0  503 -0.51263152123E+02  0.75106903564E+01  0.26201981850E+03  0.26713441658E+03  0.47000000000E+01 0. -1.
<mgrwt>
<rscale>  0 0.12898945E+03</rscale>
<asrwt>0</asrwt>
<pdfrwt beam="2">  1        5 0.17985950E-02 0.12899981E+03</pdfrwt>
<pdfrwt beam="1">  1       -5 0.27655410E+00 0.12899981E+03</pdfrwt>
<totfact> 0.37995515E+01</totfact>
</mgrwt>
</event>
<event>
 8    1  0.1821556E-007  0.1677488E+03  0.7546771E-02  0.1180233E+00
         -5   -1    0    0    0  501 -0.00000000000E+00  0.00000000000E+00  0.11937322197E+03  0.11946571107E+03  0.47000000000E+01 0.  1.
          5   -1    0    0  501    0  0.00000000000E+00 -0.00000000000E+00 -0.27125137314E+03  0.27129208877E+03  0.47000000000E+01 0.  1.
         25    2    1    2    0    0 -0.11099437031E+02  0.11121833276E+03 -0.49461108852E+01  0.16775852472E+03  0.12500297421E+03 0.  0.
         25    2    1    2    0    0  0.11099437031E+02 -0.11121833276E+03 -0.14693204029E+03  0.22299927512E+03  0.12508771801E+03 0.  0.
          5    1    3    3  502    0  0.52713338289E+02  0.25752419727E+02  0.10803811144E+02  0.59838912846E+02  0.47000000000E+01 0.  1.
         -5    1    3    3    0  502 -0.63812775320E+02  0.85465913031E+02 -0.15749922029E+02  0.10791961188E+03  0.47000000000E+01 0.  1.
          5    1    4    4  503    0 -0.25584937861E+02 -0.10910669839E+03 -0.57171405089E+02  0.12589487773E+03  0.47000000000E+01 0.  1.
         -5    1    4    4    0  503  0.36684374892E+02 -0.21116343675E+01 -0.89760635197E+02  0.97104397387E+02  0.47000000000E+01 0.  1.
<mgrwt>
<rscale>  0 0.16773298E+03</rscale>
<asrwt>0</asrwt>
<pdfrwt beam="2">  1        5 0.41741227E-01 0.16774878E+03</pdfrwt>
<pdfrwt beam="1">  1       -5 0.18375358E-01 0.16774878E+03</pdfrwt>
<totfact> 0.11532945E+02</totfact>
</mgrwt>
</event>
<event>
 8    1  0.1821556E-007  0.1378284E+03  0.7546771E-02  0.1216286E+00
         -5   -1    0    0    0  501 -0.00000000000E+00  0.00000000000E+00  0.54816424585E+02  0.55017546331E+02  0.47000000000E+01 0. -1.
          5   -1    0    0  501    0  0.00000000000E+00 -0.00000000000E+00 -0.44833363785E+03  0.44835827285E+03  0.47000000000E+01 0. -1.
         25    2    1    2    0    0  0.24969589432E+02 -0.52386150356E+02 -0.76336678406E+02  0.15754324611E+03  0.12499918711E+03 0.  0.
         25    2    1    2    0    0 -0.24969589432E+02  0.52386150356E+02 -0.31718053486E+03  0.34583257307E+03  0.12501555006E+03 0.  0.
          5    1    3    3  502    0  0.10057188125E+02 -0.21720953956E+02 -0.10803217334E+03  0.11075191804E+03  0.47000000000E+01 0.  1.
         -5    1    3    3    0  502  0.14912401307E+02 -0.30665196401E+02  0.31695494933E+02  0.46791328065E+02  0.47000000000E+01 0.  1.
          5    1    4    4  503    0 -0.69782332176E+02  0.59008118469E+02 -0.22848132002E+03  0.24612463413E+03  0.47000000000E+01 0.  1.
         -5    1    4    4    0  503  0.44812742744E+02 -0.66219681125E+01 -0.88699214845E+02  0.99707938942E+02  0.47000000000E+01 0.  1.
<mgrwt>
<rscale>  0 0.13782472E+03</rscale>
<asrwt>0</asrwt>
<pdfrwt beam="2">  1        5 0.68991769E-01 0.13782843E+03</pdfrwt>
<pdfrwt beam="1">  1       -5 0.84506623E-02 0.13782843E+03</pdfrwt>
<totfact> 0.14695644E+02</totfact>
</mgrwt>
</event>
<event>
 8    1  0.1821556E-007  0.1488066E+03  0.7546771E-02  0.1201948E+00
         -5   -1    0    0    0  501 -0.00000000000E+00  0.00000000000E+00  0.10620341886E+03  0.10630736652E+03  0.47000000000E+01 0. -1.
          5   -1    0    0  501    0  0.00000000000E+00 -0.00000000000E+00 -0.22957561325E+03  0.22962371872E+03  0.47000000000E+01 0. -1.
         25    2    1    2    0    0 -0.49233777372E+02  0.63987261698E+02 -0.10526734495E+02  0.14917589605E+03  0.12499720529E+03 0.  0.
         25    2    1    2    0    0  0.49233777372E+02 -0.63987261698E+02 -0.11284545990E+03  0.18675518920E+03  0.12500027351E+03 0.  0.
          5    1    4    4  502    0  0.90114685807E+02 -0.46404491183E+02 -0.61526453567E+02  0.11866603511E+03  0.47000000000E+01 0. -1.
         -5    1    4    4    0  502 -0.40880908435E+02 -0.17582770515E+02 -0.51319006333E+02  0.68089154088E+02  0.47000000000E+01 0. -1.
          5    1    3    3  503    0 -0.80521248550E+02  0.61184923500E+02 -0.37039743926E+02  0.10780212875E+03  0.47000000000E+01 0.  1.
         -5    1    3    3    0  503  0.31287471178E+02  0.28023381973E+01  0.26513009431E+02  0.41373767307E+02  0.47000000000E+01 0.  1.
<mgrwt>
<rscale>  0 0.14880595E+03</rscale>
<asrwt>0</asrwt>
<pdfrwt beam="2">  1        5 0.35331021E-01 0.14880660E+03</pdfrwt>
<pdfrwt beam="1">  1       -5 0.16350684E-01 0.14880660E+03</pdfrwt>
<totfact> 0.19341400E+02</totfact>
</mgrwt>
</event>
<event>
 8    1  0.1821556E-007  0.1323866E+03  0.7546771E-02  0.1223957E+00
          5   -1    0    0  501    0  0.00000000000E+00  0.00000000000E+00  0.33228966493E+02  0.33559711176E+02  0.47000000000E+01 0.  1.
         -5   -1    0    0    0  501 -0.00000000000E+00 -0.00000000000E+00 -0.52717181090E+03  0.52719276191E+03  0.47000000000E+01 0.  1.
         25    2    1    2    0    0  0.41143392627E+02 -0.14428228010E+02 -0.26701101105E+03  0.29802866342E+03  0.12500100671E+03 0.  0.
         25    2    1    2    0    0 -0.41143392627E+02  0.14428228010E+02 -0.22693183335E+03  0.26272380966E+03  0.12499916261E+03 0.  0.
          5    1    3    3  502    0  0.49829658223E+02  0.83384286885E+01 -0.28434102947E+02  0.58164529070E+02  0.47000000000E+01 0. -1.
         -5    1    3    3    0  502 -0.86862655958E+01 -0.22766656699E+02 -0.23857690811E+03  0.23986413435E+03  0.47000000000E+01 0. -1.
          5    1    4    4  503    0  0.53475955840E+01  0.27762299336E+01 -0.21223477392E+03  0.21237229926E+03  0.47000000000E+01 0. -1.
         -5    1    4    4    0  503 -0.46490988211E+02  0.11651998077E+02 -0.14697059437E+02  0.50351510405E+02  0.47000000000E+01 0. -1.
<mgrwt>
<rscale>  0 0.13238614E+03</rscale>
<asrwt>0</asrwt>
<pdfrwt beam="1">  1        5 0.51392026E-02 0.13238657E+03</pdfrwt>
<pdfrwt beam="2">  1       -5 0.81130403E-01 0.13238657E+03</pdfrwt>
<totfact> 0.23228940E+02</totfact>
</mgrwt>
</event>
<event>
 8    1  0.1821556E-007  0.1428844E+03  0.7546771E-02  0.1209507E+00
          5   -1    0    0  501    0  0.00000000000E+00  0.00000000000E+00  0.16294393521E+03  0.16301170516E+03  0.47000000000E+01 0. -1.
         -5   -1    0    0    0  501 -0.00000000000E+00 -0.00000000000E+00 -0.13752876782E+03  0.13760905485E+03  0.47000000000E+01 0. -1.
         25    2    1    2    0    0 -0.43507110551E+02  0.53773861603E+02  0.57803274003E+02  0.15411156788E+03  0.12499864002E+03 0.  0.
         25    2    1    2    0    0  0.43507110551E+02 -0.53773861603E+02 -0.32388106614E+02  0.14650919214E+03  0.12502582562E+03 0.  0.
          5    1    3    3  502    0  0.38483233268E+02  0.46310831096E+02  0.24193536337E+02  0.65062043620E+02  0.47000000000E+01 0. -1.
         -5    1    3    3    0  502 -0.81990343820E+02  0.74630305077E+01  0.33609737666E+02  0.89049524255E+02  0.47000000000E+01 0. -1.
          5    1    4    4  503    0  0.45742141299E+02  0.29390473339E+02 -0.31835867365E+02  0.63180343974E+02  0.47000000000E+01 0.  1.
         -5    1    4    4    0  503 -0.22350307477E+01 -0.83164334943E+02 -0.55223924812E+00  0.83328848168E+02  0.47000000000E+01 0.  1.
<mgrwt>
<rscale>  0 0.14287846E+03</rscale>
<asrwt>0</asrwt>
<pdfrwt beam="1">  1        5 0.25079687E-01 0.14288441E+03</pdfrwt>
<pdfrwt beam="2">  1       -5 0.21169661E-01 0.14288441E+03</pdfrwt>
<totfact> 0.23166377E+02</totfact>
</mgrwt>
</event>
<event>
 8    1  0.1821556E-007  0.1455299E+03  0.7546771E-02  0.1206077E+00
          5   -1    0    0  501    0  0.00000000000E+00  0.00000000000E+00  0.97194570361E+02  0.97308142042E+02  0.47000000000E+01 0. -1.
         -5   -1    0    0    0  501 -0.00000000000E+00 -0.00000000000E+00 -0.21972668845E+03  0.21977694970E+03  0.47000000000E+01 0. -1.
         25    2    1    2    0    0 -0.11879803338E+01  0.74511345849E+02 -0.76737065138E+02  0.16452215356E+03  0.12500243953E+03 0.  0.
         25    2    1    2    0    0  0.11879803338E+01 -0.74511345849E+02 -0.45795052955E+02  0.15256293818E+03  0.12499964509E+03 0.  0.
          5    1    3    3  502    0  0.28136736643E+02 -0.24211273754E+00 -0.79062263517E+02  0.84051567980E+02  0.47000000000E+01 0.  1.
         -5    1    3    3    0  502 -0.29324716976E+02  0.74753458587E+02  0.23251983786E+01  0.80470585582E+02  0.47000000000E+01 0.  1.
          5    1    4    4  503    0 -0.33314683337E+02 -0.77436565668E+02  0.11745528123E+02  0.85242813534E+02  0.47000000000E+01 0. -1.
         -5    1    4    4    0  503  0.34502663671E+02  0.29252198185E+01 -0.57540581078E+02  0.67320124645E+02  0.47000000000E+01 0. -1.
<mgrwt>
<rscale>  0 0.14552933E+03</rscale>
<asrwt>0</asrwt>
<pdfrwt beam="1">  1        5 0.14965613E-01 0.14552993E+03</pdfrwt>
<pdfrwt beam="2">  1       -5 0.33816708E-01 0.14552993E+03</pdfrwt>
<totfact> 0.24624090E+02</totfact>
</mgrwt>
</event>
<event>
 8    1  0.1821556E-007  0.1315671E+03  0.7546771E-02  0.1225149E+00
          5   -1    0    0  501    0  0.00000000000E+00  0.00000000000E+00  0.95889282459E+02  0.96004398287E+02  0.47000000000E+01 0. -1.
         -5   -1    0    0    0  501 -0.00000000000E+00 -0.00000000000E+00 -0.18123873295E+03  0.18129966443E+03  0.47000000000E+01 0. -1.
         25    2    1    2    0    0  0.12704754354E+02 -0.39028731832E+02 -0.52829826048E+02  0.14177758143E+03  0.12500095754E+03 0.  0.
         25    2    1    2    0    0 -0.12704754354E+02  0.39028731832E+02 -0.32519624445E+02  0.13552648128E+03  0.12500099385E+03 0.  0.
          5    1    3    3  502    0 -0.51889684057E+02 -0.17200410396E+02  0.84656845661E+00  0.54874403027E+02  0.47000000000E+01 0. -1.
         -5    1    3    3    0  502  0.64594438412E+02 -0.21828321437E+02 -0.53676394504E+02  0.86903178408E+02  0.47000000000E+01 0. -1.
          5    1    4    4  503    0 -0.22207099571E+02  0.12231664730E+02 -0.77739763087E+02  0.81904393400E+02  0.47000000000E+01 0. -1.
         -5    1    4    4    0  503  0.95023452169E+01  0.26797067102E+02  0.45220138642E+02  0.53622087881E+02  0.47000000000E+01 0. -1.
<mgrwt>
<rscale>  0 0.13156709E+03</rscale>
<asrwt>0</asrwt>
<pdfrwt beam="1">  1        5 0.14765739E-01 0.13156710E+03</pdfrwt>
<pdfrwt beam="2">  1       -5 0.27896424E-01 0.13156710E+03</pdfrwt>
<totfact> 0.35601144E+02</totfact>
</mgrwt>
</event>
<event>
 8    1  0.1821556E-007  0.1586021E+03  0.7546771E-02  0.1190287E+00
          5   -1    0    0  501    0  0.00000000000E+00  0.00000000000E+00  0.42516500629E+03  0.42519098365E+03  0.47000000000E+01 0.  1.
         -5   -1    0    0    0  501 -0.00000000000E+00 -0.00000000000E+00 -0.64379587161E+02  0.64550919769E+02  0.47000000000E+01 0.  1.
         25    2    1    2    0    0 -0.94162799744E+02  0.25731730994E+02  0.10998243645E+03  0.19300452508E+03  0.12500342211E+03 0.  0.
         25    2    1    2    0    0  0.94162799744E+02 -0.25731730994E+02  0.25080298268E+03  0.29673737833E+03  0.12498872246E+03 0.  0.
          5    1    3    3  502    0 -0.49917742728E+02 -0.16930087180E+02  0.11944249899E+03  0.13064076491E+03  0.47000000000E+01 0.  1.
         -5    1    3    3    0  502 -0.44245057016E+02  0.42661818173E+02 -0.94600625396E+01  0.62363760177E+02  0.47000000000E+01 0.  1.
          5    1    4    4  503    0  0.12306186348E+03 -0.69887842866E+01  0.18570401689E+03  0.22293751869E+03  0.47000000000E+01 0.  1.
         -5    1    4    4    0  503 -0.28899063739E+02 -0.18742946707E+02  0.65098965793E+02  0.73799859645E+02  0.47000000000E+01 0.  1.
<mgrwt>
<rscale>  0 0.15859915E+03</rscale>
<asrwt>0</asrwt>
<pdfrwt beam="1">  1        5 0.65425180E-01 0.15860205E+03</pdfrwt>
<pdfrwt beam="2">  1       -5 0.99197293E-02 0.15860205E+03</pdfrwt>
<totfact> 0.13111308E+02</totfact>
</mgrwt>
</event>
<event>
 8    1  0.1821556E-007  0.1801884E+03  0.7546771E-02  0.1167621E+00
          5   -1    0    0  501    0  0.00000000000E+00  0.00000000000E+00  0.94029364960E+02  0.94146754988E+02  0.47000000000E+01 0. -1.
         -5   -1    0    0    0  501 -0.00000000000E+00 -0.00000000000E+00 -0.35796422202E+03  0.35799507573E+03  0.47000000000E+01 0. -1.
         25    2    1    2    0    0 -0.96587368080E+02  0.86671365196E+02 -0.17507305720E+03  0.25123319950E+03  0.12500599969E+03 0.  0.
         25    2    1    2    0    0  0.96587368080E+02 -0.86671365196E+02 -0.88861799862E+02  0.20090863121E+03  0.12500725341E+03 0.  0.
          5    1    4    4  502    0  0.54057415062E+02 -0.11291293926E+03 -0.83222445310E+02  0.15039814287E+03  0.47000000000E+01 0.  1.
         -5    1    4    4    0  502  0.42529953018E+02  0.26241574063E+02 -0.56393545517E+01  0.50510488344E+02  0.47000000000E+01 0.  1.
          5    1    3    3  503    0 -0.46089914786E+02 -0.18932689515E+02 -0.10074757849E+03  0.11249396228E+03  0.47000000000E+01 0.  1.
         -5    1    3    3    0  503 -0.50497453294E+02  0.10560405471E+03 -0.74325478708E+02  0.13873923723E+03  0.47000000000E+01 0.  1.
<mgrwt>
<rscale>  0 0.18018818E+03</rscale>
<asrwt>0</asrwt>
<pdfrwt beam="1">  1        5 0.14477460E-01 0.18018840E+03</pdfrwt>
<pdfrwt beam="2">  1       -5 0.55082821E-01 0.18018840E+03</pdfrwt>
<totfact> 0.10142656E+02</totfact>
</mgrwt>
</event>
<event>
 8    1  0.1821556E-007  0.1491877E+03  0.7546771E-02  0.1201483E+00
         -5   -1    0    0    0  501 -0.00000000000E+00  0.00000000000E+00  0.11738666996E+04  0.11738761086E+04  0.47000000000E+01 0.  1.
          5   -1    0    0  501    0  0.00000000000E+00 -0.00000000000E+00 -0.18658647737E+02  0.19241495144E+02  0.47000000000E+01 0.  1.
         25    2    1    2    0    0  0.72990343822E+02 -0.36124237145E+02  0.57036705839E+03  0.58954825727E+03  0.12496405705E+03 0.  0.
         25    2    1    2    0    0 -0.72990343822E+02  0.36124237145E+02  0.58484099347E+03  0.60356934651E+03  0.12499767038E+03 0.  0.
          5    1    4    4  502    0 -0.57992347546E+02  0.54400613924E+02  0.56939655728E+03  0.57494092619E+03  0.47000000000E+01 0.  1.
         -5    1    4    4    0  502 -0.14997996277E+02 -0.18276376779E+02  0.15444436188E+02  0.28628420313E+02  0.47000000000E+01 0.  1.
          5    1    3    3  503    0  0.29274476929E+02 -0.59685946925E+02  0.49306539031E+03  0.49754896883E+03  0.47000000000E+01 0.  1.
         -5    1    3    3    0  503  0.43715866893E+02  0.23561709780E+02  0.77301668077E+02  0.91999288440E+02  0.47000000000E+01 0.  1.
<mgrwt>
<rscale>  0 0.14918065E+03</rscale>
<asrwt>0</asrwt>
<pdfrwt beam="2">  1        5 0.29161191E-02 0.14918770E+03</pdfrwt>
<pdfrwt beam="1">  1       -5 0.18064045E+00 0.14918770E+03</pdfrwt>
<totfact> 0.77357305E+01</totfact>
</mgrwt>
</event>
<event>
 8    1  0.1821556E-007  0.1310504E+03  0.7546771E-02  0.1225913E+00
         -5   -1    0    0    0  501 -0.00000000000E+00  0.00000000000E+00  0.10446478440E+04  0.10446584169E+04  0.47000000000E+01 0. -1.
          5   -1    0    0  501    0  0.00000000000E+00 -0.00000000000E+00 -0.16197727275E+02  0.16865834367E+02  0.47000000000E+01 0. -1.
         25    2    1    2    0    0 -0.28172516373E+02 -0.27474024441E+02  0.55642573578E+03  0.57164547246E+03  0.12498173483E+03 0.  0.
         25    2    1    2    0    0  0.28172516373E+02  0.27474024441E+02  0.47202438096E+03  0.48987877881E+03  0.12500275603E+03 0.  0.
          5    1    3    3  502    0 -0.45880044167E+02  0.16067716980E+02  0.86370360563E+02  0.99222372303E+02  0.47000000000E+01 0. -1.
         -5    1    3    3    0  502  0.17707527794E+02 -0.43541741421E+02  0.47005537522E+03  0.47242310016E+03  0.47000000000E+01 0. -1.
          5    1    4    4  503    0  0.67257434409E+02 -0.19072799377E+02  0.25682423348E+03  0.26621065166E+03  0.47000000000E+01 0. -1.
         -5    1    4    4    0  503 -0.39084918036E+02  0.46546823817E+02  0.21520014748E+03  0.22366812715E+03  0.47000000000E+01 0. -1.
<mgrwt>
<rscale>  0 0.13104537E+03</rscale>
<asrwt>0</asrwt>
<pdfrwt beam="2">  1        5 0.25441632E-02 0.13105038E+03</pdfrwt>
<pdfrwt beam="1">  1       -5 0.16076732E+00 0.13105038E+03</pdfrwt>
<totfact> 0.12949944E+02</totfact>
</mgrwt>
</event>
<event>
 8    1  0.1821556E-007  0.2071133E+03  0.7546771E-02  0.1143873E+00
         -5   -1    0    0    0  501 -0.00000000000E+00  0.00000000000E+00  0.22054240633E+03  0.22059248172E+03  0.47000000000E+01 0. -1.
          5   -1    0    0  501    0  0.00000000000E+00 -0.00000000000E+00 -0.21492267363E+03  0.21497405807E+03  0.47000000000E+01 0. -1.
         25    2    1    2    0    0 -0.16302762231E+03  0.26363746712E+02  0.70090594555E+02  0.21865178673E+03  0.12499143818E+03 0.  0.
         25    2    1    2    0    0  0.16302762231E+03 -0.26363746712E+02 -0.64470861853E+02  0.21691475306E+03  0.12498986074E+03 0.  0.
          5    1    4    4  502    0  0.12360871950E+03  0.23203615113E+02  0.78611146900E+00  0.12585798052E+03  0.47000000000E+01 0. -1.
         -5    1    4    4    0  502  0.39418902814E+02 -0.49567361826E+02 -0.65256973322E+02  0.91056772535E+02  0.47000000000E+01 0. -1.
          5    1    3    3  503    0 -0.51270504612E+02  0.32452286527E+02 -0.30518438086E+02  0.68082895115E+02  0.47000000000E+01 0. -1.
         -5    1    3    3    0  503 -0.11175711770E+03 -0.60885398146E+01  0.10060903264E+03  0.15056889161E+03  0.47000000000E+01 0. -1.
<mgrwt>
<rscale>  0 0.20711305E+03</rscale>
<asrwt>0</asrwt>
<pdfrwt beam="2">  1        5 0.33072831E-01 0.20711328E+03</pdfrwt>
<pdfrwt beam="1">  1       -5 0.33937405E-01 0.20711328E+03</pdfrwt>
<totfact> 0.60175079E+01</totfact>
</mgrwt>
</event>
<event>
 8    1  0.1821556E-007  0.1273641E+03  0.7546771E-02  0.1231424E+00
         -5   -1    0    0    0  501 -0.00000000000E+00  0.00000000000E+00  0.12658050694E+03  0.12666773360E+03  0.47000000000E+01 0.  1.
          5   -1    0    0  501    0  0.00000000000E+00 -0.00000000000E+00 -0.12833076701E+03  0.12841680482E+03  0.47000000000E+01 0.  1.
         25    2    1    2    0    0 -0.24417370334E+02 -0.46804749061E+00  0.59070176295E+01  0.12749043341E+03  0.12498996245E+03 0.  0.
         25    2    1    2    0    0  0.24417370334E+02  0.46804749061E+00 -0.76572777010E+01  0.12759410501E+03  0.12500077875E+03 0.  0.
          5    1    3    3  502    0 -0.67204491892E+02  0.25662412296E+02 -0.13830090764E+02  0.73405480353E+02  0.47000000000E+01 0.  1.
         -5    1    3    3    0  502  0.42787121557E+02 -0.26130459787E+02  0.19737108394E+02  0.54084953061E+02  0.47000000000E+01 0.  1.
          5    1    4    4  503    0 -0.44975437310E+02 -0.23888111692E+02  0.92858271996E+01  0.51978345763E+02  0.47000000000E+01 0.  1.
         -5    1    4    4    0  503  0.69392807644E+02  0.24356159183E+02 -0.16943104901E+02  0.75615759248E+02  0.47000000000E+01 0.  1.
<mgrwt>
<rscale>  0 0.12736148E+03</rscale>
<asrwt>0</asrwt>
<pdfrwt beam="2">  1        5 0.19756523E-01 0.12736413E+03</pdfrwt>
<pdfrwt beam="1">  1       -5 0.19487252E-01 0.12736413E+03</pdfrwt>
<totfact> 0.40764976E+02</totfact>
</mgrwt>
</event>
<event>
 8    1  0.1821556E-007  0.1655385E+03  0.7546771E-02  0.1182584E+00
          5   -1    0    0  501    0  0.00000000000E+00  0.00000000000E+00  0.32074205745E+03  0.32077649137E+03  0.47000000000E+01 0.  1.
         -5   -1    0    0    0  501 -0.00000000000E+00 -0.00000000000E+00 -0.85328835345E+02  0.85458177732E+02  0.47000000000E+01 0.  1.
         25    2    1    2    0    0 -0.10848698761E+03  0.24806079434E+01  0.11773230919E+03  0.20313514791E+03  0.12500964680E+03 0.  0.
         25    2    1    2    0    0  0.10848698761E+03 -0.24806079434E+01  0.11768091291E+03  0.20309952119E+03  0.12500015340E+03 0.  0.
          5    1    3    3  502    0 -0.60833288125E+02 -0.46963039807E+02  0.10943397882E+03  0.13380620977E+03  0.47000000000E+01 0. -1.
         -5    1    3    3    0  502 -0.47653699480E+02  0.49443647751E+02  0.82983303734E+01  0.69328938143E+02  0.47000000000E+01 0. -1.
          5    1    4    4  503    0  0.52056608094E+02  0.21032915256E+02  0.12898430006E+03  0.14075266830E+03  0.47000000000E+01 0. -1.
         -5    1    4    4    0  503  0.56430379511E+02 -0.23513523199E+02 -0.11303387149E+02  0.62346852897E+02  0.47000000000E+01 0. -1.
<mgrwt>
<rscale>  0 0.16553670E+03</rscale>
<asrwt>0</asrwt>
<pdfrwt beam="1">  1        5 0.49357530E-01 0.16553849E+03</pdfrwt>
<pdfrwt beam="2">  1       -5 0.13140111E-01 0.16553849E+03</pdfrwt>
<totfact> 0.14905206E+02</totfact>
</mgrwt>
</event>
<event>
 8    1  0.1821556E-007  0.1395117E+03  0.7546771E-02  0.1213988E+00
          5   -1    0    0  501    0  0.00000000000E+00  0.00000000000E+00  0.28044805264E+02  0.28435912194E+02  0.47000000000E+01 0.  1.
         -5   -1    0    0    0  501 -0.00000000000E+00 -0.00000000000E+00 -0.72416712335E+03  0.72418237519E+03  0.47000000000E+01 0.  1.
         25    2    1    2    0    0 -0.57516409477E+02  0.23041864373E+02 -0.43119150623E+03  0.45319934159E+03  0.12499785321E+03 0.  0.
         25    2    1    2    0    0  0.57516409477E+02 -0.23041864373E+02 -0.26493081186E+03  0.29941894579E+03  0.12499722059E+03 0.  0.
          5    1    3    3  502    0  0.35386868413E+02 -0.75985249766E+01 -0.17847930709E+03  0.18217277814E+03  0.47000000000E+01 0.  1.
         -5    1    3    3    0  502 -0.92903277891E+02  0.30640389350E+02 -0.25271219914E+03  0.27102656345E+03  0.47000000000E+01 0.  1.
          5    1    4    4  503    0 -0.68158594689E+01 -0.54161421164E+02 -0.55108615211E+02  0.77710777588E+02  0.47000000000E+01 0.  1.
         -5    1    4    4    0  503  0.64332268946E+02  0.31119556791E+02 -0.20982219665E+03  0.22170816820E+03  0.47000000000E+01 0.  1.
<mgrwt>
<rscale>  0 0.13951161E+03</rscale>
<asrwt>0</asrwt>
<pdfrwt beam="1">  1        5 0.43458443E-02 0.13951175E+03</pdfrwt>
<pdfrwt beam="2">  1       -5 0.11144157E+00 0.13951175E+03</pdfrwt>
<totfact> 0.14538308E+02</totfact>
</mgrwt>
</event>
<event>
 8    1  0.1821556E-007  0.2701001E+03  0.7546771E-02  0.1101223E+00
          5   -1    0    0  501    0  0.00000000000E+00  0.00000000000E+00  0.97561589527E+02  0.97674734456E+02  0.47000000000E+01 0. -1.
         -5   -1    0    0    0  501 -0.00000000000E+00 -0.00000000000E+00 -0.82297879876E+03  0.82299221941E+03  0.47000000000E+01 0. -1.
         25    2    1    2    0    0 -0.22747080743E+02  0.23834585882E+03 -0.50237427354E+03  0.57037817078E+03  0.12500067557E+03 0.  0.
         25    2    1    2    0    0  0.22747080743E+02 -0.23834585882E+03 -0.22304293569E+03  0.35028878308E+03  0.12501160863E+03 0.  0.
          5    1    3    3  502    0 -0.60902668947E+02  0.53368808929E+02 -0.15604339666E+03  0.17586641662E+03  0.47000000000E+01 0.  1.
         -5    1    3    3    0  502  0.38155588204E+02  0.18497704989E+03 -0.34633087688E+03  0.39451175417E+03  0.47000000000E+01 0.  1.
          5    1    4    4  503    0 -0.46999305701E+02 -0.10806515347E+03 -0.13035027155E+03  0.17578479862E+03  0.47000000000E+01 0.  1.
         -5    1    4    4    0  503  0.69746386444E+02 -0.13028070535E+03 -0.92692664140E+02  0.17450398447E+03  0.47000000000E+01 0.  1.
<mgrwt>
<rscale>  0 0.27009887E+03</rscale>
<asrwt>0</asrwt>
<pdfrwt beam="1">  1        5 0.15019212E-01 0.27010013E+03</pdfrwt>
<pdfrwt beam="2">  1       -5 0.12662185E+00 0.27010013E+03</pdfrwt>
<totfact> 0.14557221E+01</totfact>
</mgrwt>
</event>
<event>
 8    1  0.1821556E-007  0.1358058E+03  0.7546771E-02  0.1219100E+00
         -5   -1    0    0    0  501 -0.00000000000E+00  0.00000000000E+00  0.34581097652E+02  0.34899030284E+02  0.47000000000E+01 0.  1.
          5   -1    0    0  501    0  0.00000000000E+00 -0.00000000000E+00 -0.61104323152E+03  0.61106130690E+03  0.47000000000E+01 0.  1.
         25    2    1    2    0    0 -0.11527549580E+02 -0.51815372778E+02 -0.17097262070E+03  0.21834569461E+03  0.12500195227E+03 0.  0.
         25    2    1    2    0    0  0.11527549580E+02  0.51815372778E+02 -0.40548951317E+03  0.42761464257E+03  0.12495927335E+03 0.  0.
          5    1    4    4  502    0  0.15983103779E+02 -0.21575991704E+01 -0.34832511039E+03  0.34872996339E+03  0.47000000000E+01 0. -1.
         -5    1    4    4    0  502 -0.44555541990E+01  0.53972971949E+02 -0.57164402782E+02  0.78884679182E+02  0.47000000000E+01 0. -1.
          5    1    3    3  503    0 -0.23098454880E+02  0.31577675307E+02 -0.10220020833E+03  0.10953383395E+03  0.47000000000E+01 0. -1.
         -5    1    3    3    0  503  0.11570905300E+02 -0.83393048085E+02 -0.68772412369E+02  0.10881186067E+03  0.47000000000E+01 0. -1.
<mgrwt>
<rscale>  0 0.13579594E+03</rscale>
<asrwt>0</asrwt>
<pdfrwt beam="2">  1        5 0.94032490E-01 0.13580576E+03</pdfrwt>
<pdfrwt beam="1">  1       -5 0.53460161E-02 0.13580576E+03</pdfrwt>
<totfact> 0.15495795E+02</totfact>
</mgrwt>
</event>
<event>
 8    1  0.1821556E-007  0.1286490E+03  0.7546771E-02  0.1229475E+00
          5   -1    0    0  501    0  0.00000000000E+00  0.00000000000E+00  0.39974644696E+03  0.39977407602E+03  0.47000000000E+01 0. -1.
         -5   -1    0    0    0  501 -0.00000000000E+00 -0.00000000000E+00 -0.41243034117E+02  0.41509973057E+02  0.47000000000E+01 0. -1.
         25    2    1    2    0    0 -0.18540214699E+02  0.24089722427E+02  0.17720291863E+03  0.21897815796E+03  0.12500601989E+03 0.  0.
         25    2    1    2    0    0  0.18540214699E+02 -0.24089722427E+02  0.18130049422E+03  0.22230589112E+03  0.12500394287E+03 0.  0.
          5    1    4    4  502    0  0.31771030048E+02 -0.12459740318E+02 -0.52673187648E+01  0.34849363352E+02  0.47000000000E+01 0.  1.
         -5    1    4    4    0  502 -0.13230815349E+02 -0.11629982110E+02  0.18656781299E+03  0.18745652776E+03  0.47000000000E+01 0.  1.
          5    1    3    3  503    0  0.18293208895E+02 -0.43088472360E+02  0.39948817074E+02  0.61719169855E+02  0.47000000000E+01 0.  1.
         -5    1    3    3    0  503 -0.36833423594E+02  0.67178194787E+02  0.13725410155E+03  0.15725898811E+03  0.47000000000E+01 0.  1.
<mgrwt>
<rscale>  0 0.12864847E+03</rscale>
<asrwt>0</asrwt>
<pdfrwt beam="1">  1        5 0.61522111E-01 0.12864898E+03</pdfrwt>
<pdfrwt beam="2">  1       -5 0.63677414E-02 0.12864898E+03</pdfrwt>
<totfact> 0.29972516E+02</totfact>
</mgrwt>
</event>
<event>
 8    1  0.1821556E-007  0.1552833E+03  0.7546771E-02  0.1194129E+00
         -5   -1    0    0    0  501 -0.00000000000E+00  0.00000000000E+00  0.32997545846E+03  0.33000892895E+03  0.47000000000E+01 0. -1.
          5   -1    0    0  501    0  0.00000000000E+00 -0.00000000000E+00 -0.73204627851E+02  0.73355351126E+02  0.47000000000E+01 0. -1.
         25    2    1    2    0    0 -0.81836209988E+02 -0.42323372725E+02  0.14005642384E+03  0.20911407832E+03  0.12499785098E+03 0.  0.
         25    2    1    2    0    0  0.81836209988E+02  0.42323372725E+02  0.11671440677E+03  0.19425020176E+03  0.12498981954E+03 0.  0.
          5    1    4    4  502    0 -0.20499544079E+02 -0.50742066410E+01  0.67912201708E+02  0.71275072931E+02  0.47000000000E+01 0. -1.
         -5    1    4    4    0  502  0.10233575407E+03  0.47397579366E+02  0.48802205065E+02  0.12297512882E+03  0.47000000000E+01 0. -1.
          5    1    3    3  503    0 -0.66199094932E+02  0.34579018295E+02  0.84353805291E+02  0.11276383792E+03  0.47000000000E+01 0.  1.
         -5    1    3    3    0  503 -0.15637115056E+02 -0.76902391020E+02  0.55702618547E+02  0.96350240399E+02  0.47000000000E+01 0.  1.
<mgrwt>
<rscale>  0 0.15528166E+03</rscale>
<asrwt>0</asrwt>
<pdfrwt beam="2">  1        5 0.11276419E-01 0.15528328E+03</pdfrwt>
<pdfrwt beam="1">  1       -5 0.50779624E-01 0.15528328E+03</pdfrwt>
<totfact> 0.18056786E+02</totfact>
</mgrwt>
</event>
<event>
 8    1  0.1821556E-007  0.1380208E+03  0.7546771E-02  0.1216022E+00
          5   -1    0    0  501    0  0.00000000000E+00  0.00000000000E+00  0.41116374127E+02  0.41384130066E+02  0.47000000000E+01 0. -1.
         -5   -1    0    0    0  501 -0.00000000000E+00 -0.00000000000E+00 -0.57215263326E+03  0.57217193722E+03  0.47000000000E+01 0. -1.
         25    2    1    2    0    0 -0.54240356761E+02  0.21887287153E+02 -0.40039383875E+03  0.42351083365E+03  0.12500052186E+03 0.  0.
         25    2    1    2    0    0  0.54240356761E+02 -0.21887287153E+02 -0.13064242038E+03  0.19004523364E+03  0.12501471588E+03 0.  0.
          5    1    3    3  502    0  0.18522480430E+02  0.12566199140E+02 -0.28989238011E+03  0.29079318026E+03  0.47000000000E+01 0.  1.
         -5    1    3    3    0  502 -0.72762837191E+02  0.93210880130E+01 -0.11050145864E+03  0.13271765339E+03  0.47000000000E+01 0.  1.
          5    1    4    4  503    0  0.23489288045E+02 -0.45695012318E+02  0.21073282484E+01  0.51636340265E+02  0.47000000000E+01 0. -1.
         -5    1    4    4    0  503  0.30751068716E+02  0.23807725165E+02 -0.13274974862E+03  0.13840889337E+03  0.47000000000E+01 0. -1.
<mgrwt>
<rscale>  0 0.13801761E+03</rscale>
<asrwt>0</asrwt>
<pdfrwt beam="1">  1        5 0.63476780E-02 0.13802083E+03</pdfrwt>
<pdfrwt beam="2">  1       -5 0.88045558E-01 0.13802083E+03</pdfrwt>
<totfact> 0.13656626E+02</totfact>
</mgrwt>
</event>
<event>
 8    1  0.1821556E-007  0.1331101E+03  0.7546771E-02  0.1222914E+00
          5   -1    0    0  501    0  0.00000000000E+00  0.00000000000E+00  0.34996053521E+03  0.34999209449E+03  0.47000000000E+01 0.  1.
         -5   -1    0    0    0  501 -0.00000000000E+00 -0.00000000000E+00 -0.51882780349E+02  0.52095229117E+02  0.47000000000E+01 0.  1.
         25    2    1    2    0    0 -0.43919926240E+02  0.12778120422E+02  0.11611636985E+03  0.17663894381E+03  0.12500425929E+03 0.  0.
         25    2    1    2    0    0  0.43919926240E+02 -0.12778120422E+02  0.18196138501E+03  0.22544837979E+03  0.12499914413E+03 0.  0.
          5    1    4    4  502    0 -0.25810723815E+02 -0.47930929229E+02  0.81440167829E+02  0.98072210012E+02  0.47000000000E+01 0.  1.
         -5    1    4    4    0  502  0.69730650055E+02  0.35152808807E+02  0.10052121718E+03  0.12737616978E+03  0.47000000000E+01 0.  1.
          5    1    3    3  503    0 -0.66126433702E+01 -0.50831552459E+02  0.19590473888E+02  0.55076768650E+02  0.47000000000E+01 0.  1.
         -5    1    3    3    0  503 -0.37307282870E+02  0.63609672881E+02  0.96525895960E+02  0.12156217516E+03  0.47000000000E+01 0.  1.
<mgrwt>
<rscale>  0 0.13310892E+03</rscale>
<asrwt>0</asrwt>
<pdfrwt beam="1">  1        5 0.53858855E-01 0.13311012E+03</pdfrwt>
<pdfrwt beam="2">  1       -5 0.80007357E-02 0.13311012E+03</pdfrwt>
<totfact> 0.27475231E+02</totfact>
</mgrwt>
</event>
<event>
 8    1  0.1821556E-007  0.1291997E+03  0.7546771E-02  0.1228651E+00
         -5   -1    0    0    0  501 -0.00000000000E+00  0.00000000000E+00  0.55079364382E+02  0.55279529490E+02  0.47000000000E+01 0.  1.
          5   -1    0    0  501    0  0.00000000000E+00 -0.00000000000E+00 -0.31263791612E+03  0.31267324253E+03  0.47000000000E+01 0.  1.
         25    2    1    2    0    0  0.30457825601E+02 -0.11789069466E+02 -0.16225216928E+03  0.20740410539E+03  0.12499614072E+03 0.  0.
         25    2    1    2    0    0 -0.30457825601E+02  0.11789069466E+02 -0.95306382455E+02  0.16054866664E+03  0.12500362604E+03 0.  0.
          5    1    4    4  502    0 -0.17047641585E+02  0.67351905988E+02 -0.66836027270E+02  0.96519665691E+02  0.47000000000E+01 0. -1.
         -5    1    4    4    0  502 -0.13410184016E+02 -0.55562836522E+02 -0.28470355185E+02  0.64029000945E+02  0.47000000000E+01 0. -1.
          5    1    3    3  503    0 -0.23886969075E+02  0.28357867945E+02 -0.70037664677E+01  0.38024974829E+02  0.47000000000E+01 0. -1.
         -5    1    3    3    0  503  0.54344794676E+02 -0.40146937411E+02 -0.15524840282E+03  0.16937913056E+03  0.47000000000E+01 0. -1.
<mgrwt>
<rscale>  0 0.12919791E+03</rscale>
<asrwt>0</asrwt>
<pdfrwt beam="2">  1        5 0.48116255E-01 0.12919972E+03</pdfrwt>
<pdfrwt beam="1">  1       -5 0.84918633E-02 0.12919972E+03</pdfrwt>
<totfact> 0.31179338E+02</totfact>
</mgrwt>
</event>
<event>
 8    1  0.1821556E-007  0.1544390E+03  0.7546771E-02  0.1195122E+00
          5   -1    0    0  501    0  0.00000000000E+00  0.00000000000E+00  0.10177100908E+03  0.10187947924E+03  0.47000000000E+01 0.  1.
         -5   -1    0    0    0  501 -0.00000000000E+00 -0.00000000000E+00 -0.26485111813E+03  0.26489281753E+03  0.47000000000E+01 0.  1.
         25    2    1    2    0    0 -0.45294934982E+02 -0.78574491621E+02 -0.14400523026E+03  0.21116089538E+03  0.12500334206E+03 0.  0.
         25    2    1    2    0    0  0.45294934982E+02  0.78574491621E+02 -0.19074878794E+02  0.15561140139E+03  0.12500190147E+03 0.  0.
          5    1    4    4  502    0  0.53938156036E+02  0.41641070132E+02  0.44436412309E+02  0.81486122360E+02  0.47000000000E+01 0. -1.
         -5    1    4    4    0  502 -0.86432210537E+01  0.36933421489E+02 -0.63511291103E+02  0.74125279026E+02  0.47000000000E+01 0. -1.
          5    1    3    3  503    0  0.35866338377E+02 -0.58953480818E+02 -0.80613706865E+02  0.10621942790E+03  0.47000000000E+01 0.  1.
         -5    1    3    3    0  503 -0.81161273359E+02 -0.19621010804E+02 -0.63391523393E+02  0.10494146748E+03  0.47000000000E+01 0.  1.
<mgrwt>
<rscale>  0 0.15443875E+03</rscale>
<asrwt>0</asrwt>
<pdfrwt beam="1">  1        5 0.15668630E-01 0.15443904E+03</pdfrwt>
<pdfrwt beam="2">  1       -5 0.40757877E-01 0.15443904E+03</pdfrwt>
<totfact> 0.15827146E+02</totfact>
</mgrwt>
</event>
<event>
 8    1  0.1821556E-007  0.1337912E+03  0.7546771E-02  0.1221937E+00
          5   -1    0    0  501    0  0.00000000000E+00  0.00000000000E+00  0.23569841980E+03  0.23574527587E+03  0.47000000000E+01 0.  1.
         -5   -1    0    0    0  501 -0.00000000000E+00 -0.00000000000E+00 -0.75965410442E+02  0.76110666687E+02  0.47000000000E+01 0.  1.
         25    2    1    2    0    0 -0.47687010858E+02 -0.65429644217E+00  0.86763746784E+02  0.15946168258E+03  0.12500240536E+03 0.  0.
         25    2    1    2    0    0  0.47687010858E+02  0.65429644217E+00  0.72969262573E+02  0.15239425998E+03  0.12500007234E+03 0.  0.
          5    1    4    4  502    0 -0.11678627348E+02 -0.32526083751E+02  0.76558528443E+02  0.84128679642E+02  0.47000000000E+01 0. -1.
         -5    1    4    4    0  502  0.59365638206E+02  0.33180380193E+02 -0.35892658695E+01  0.68265580338E+02  0.47000000000E+01 0. -1.
          5    1    3    3  503    0  0.40242790525E+02 -0.35999408394E+00  0.79589367319E+01  0.41292208211E+02  0.47000000000E+01 0.  1.
         -5    1    3    3    0  503 -0.87929801383E+02 -0.29430235823E+00  0.78804810052E+02  0.11816947437E+03  0.47000000000E+01 0.  1.
<mgrwt>
<rscale>  0 0.13379064E+03</rscale>
<asrwt>0</asrwt>
<pdfrwt beam="1">  1        5 0.36276073E-01 0.13379118E+03</pdfrwt>
<pdfrwt beam="2">  1       -5 0.11701764E-01 0.13379118E+03</pdfrwt>
<totfact> 0.32281370E+02</totfact>
</mgrwt>
</event>
<event>
 8    1  0.1821556E-007  0.1651850E+03  0.7546771E-02  0.1182964E+00
         -5   -1    0    0    0  501 -0.00000000000E+00  0.00000000000E+00  0.55802584546E+02  0.56000164660E+02  0.47000000000E+01 0.  1.
          5   -1    0    0  501    0  0.00000000000E+00 -0.00000000000E+00 -0.51154549222E+03  0.51156708320E+03  0.47000000000E+01 0.  1.
         25    2    1    2    0    0  0.93532457107E+02 -0.53974566841E+02 -0.16687069648E+03  0.23480122629E+03  0.12499684846E+03 0.  0.
         25    2    1    2    0    0 -0.93532457107E+02  0.53974566841E+02 -0.28887221119E+03  0.33276602157E+03  0.12499798524E+03 0.  0.
          5    1    4    4  502    0  0.94532467575E+01 -0.30263920390E+02 -0.56069667627E+02  0.64584567657E+02  0.47000000000E+01 0. -1.
         -5    1    4    4    0  502 -0.10298570386E+03  0.84238487231E+02 -0.23280254357E+03  0.26818145391E+03  0.47000000000E+01 0. -1.
          5    1    3    3  503    0 -0.44806639465E+01  0.32831449485E+02 -0.25629205502E+02  0.42153607192E+02  0.47000000000E+01 0.  1.
         -5    1    3    3    0  503  0.98013121053E+02 -0.86806016326E+02 -0.14124149098E+03  0.19264761909E+03  0.47000000000E+01 0.  1.
<mgrwt>
<rscale>  0 0.16518474E+03</rscale>
<asrwt>0</asrwt>
<pdfrwt beam="2">  1        5 0.78716162E-01 0.16518496E+03</pdfrwt>
<pdfrwt beam="1">  1       -5 0.86018727E-02 0.16518496E+03</pdfrwt>
<totfact> 0.11172938E+02</totfact>
</mgrwt>
</event>
<event>
 8    1  0.1821556E-007  0.2567173E+03  0.7546771E-02  0.1109132E+00
          5   -1    0    0  501    0  0.00000000000E+00  0.00000000000E+00  0.17833779143E+03  0.17839971371E+03  0.47000000000E+01 0. -1.
         -5   -1    0    0    0  501 -0.00000000000E+00 -0.00000000000E+00 -0.43429239837E+03  0.43431782980E+03  0.47000000000E+01 0. -1.
         25    2    1    2    0    0 -0.19273072911E+02  0.22339808342E+03 -0.24639158319E+03  0.35582659225E+03  0.12500238587E+03 0.  0.
         25    2    1    2    0    0  0.19273072911E+02 -0.22339808342E+03 -0.95630237400E+01  0.25689095126E+03  0.12499341743E+03 0.  0.
          5    1    3    3  502    0  0.31896401576E+02  0.19194833481E+03 -0.20531920805E+03  0.28291272658E+03  0.47000000000E+01 0.  1.
         -5    1    3    3    0  502 -0.51169474487E+02  0.31449748605E+02 -0.41072375146E+02  0.72913865668E+02  0.47000000000E+01 0.  1.
          5    1    4    4  503    0 -0.43483212667E+02 -0.68562165552E+02 -0.33681468613E+02  0.88023244980E+02  0.47000000000E+01 0.  1.
         -5    1    4    4    0  503  0.62756285578E+02 -0.15483591786E+03  0.24118444873E+02  0.16886770628E+03  0.47000000000E+01 0.  1.
<mgrwt>
<rscale>  0 0.25671617E+03</rscale>
<asrwt>0</asrwt>
<pdfrwt beam="1">  1        5 0.27443303E-01 0.25671726E+03</pdfrwt>
<pdfrwt beam="2">  1       -5 0.66820934E-01 0.25671726E+03</pdfrwt>
<totfact> 0.21713444E+01</totfact>
</mgrwt>
</event>
<event>
 8    1  0.1821556E-007  0.1497212E+03  0.7546771E-02  0.1200818E+00
          5   -1    0    0  501    0  0.00000000000E+00  0.00000000000E+00  0.43130195476E+03  0.43132756251E+03  0.47000000000E+01 0.  1.
         -5   -1    0    0    0  501 -0.00000000000E+00 -0.00000000000E+00 -0.52282095075E+02  0.52492927766E+02  0.47000000000E+01 0.  1.
         25    2    1    2    0    0 -0.69553680542E+01  0.82099570663E+02  0.16727330594E+03  0.22449231836E+03  0.12501090142E+03 0.  0.
         25    2    1    2    0    0  0.69553680542E+01 -0.82099570663E+02  0.21174655375E+03  0.25932817192E+03  0.12500312428E+03 0.  0.
          5    1    4    4  502    0  0.56970078372E+02 -0.34602422721E+02  0.15868028561E+03  0.17217560956E+03  0.47000000000E+01 0.  1.
         -5    1    4    4    0  502 -0.50014710318E+02 -0.47497147942E+02  0.53066268140E+02  0.87152562355E+02  0.47000000000E+01 0.  1.
          5    1    3    3  503    0 -0.11889647815E+02  0.10525486026E+03  0.16983998823E+03  0.20021903240E+03  0.47000000000E+01 0.  1.
         -5    1    3    3    0  503  0.49342797604E+01 -0.23155289600E+02 -0.25666822893E+01  0.24273285958E+02  0.47000000000E+01 0.  1.
<mgrwt>
<rscale>  0 0.14971959E+03</rscale>
<asrwt>0</asrwt>
<pdfrwt beam="1">  1        5 0.66372335E-01 0.14972121E+03</pdfrwt>
<pdfrwt beam="2">  1       -5 0.80615869E-02 0.14972121E+03</pdfrwt>
<totfact> 0.17855852E+02</totfact>
</mgrwt>
</event>
<event>
 8    1  0.1821556E-007  0.1428459E+03  0.7546771E-02  0.1209551E+00
          5   -1    0    0  501    0  0.00000000000E+00  0.00000000000E+00  0.98662168567E+02  0.98774052799E+02  0.47000000000E+01 0. -1.
         -5   -1    0    0    0  501 -0.00000000000E+00 -0.00000000000E+00 -0.24128114550E+03  0.24132691763E+03  0.47000000000E+01 0. -1.
         25    2    1    2    0    0  0.47419944695E+00  0.69137308797E+02 -0.13579741326E+03  0.19709361316E+03  0.12499905028E+03 0.  0.
         25    2    1    2    0    0 -0.47419944695E+00 -0.69137308797E+02 -0.68215636767E+01  0.14300735727E+03  0.12499751265E+03 0.  0.
          5    1    3    3  502    0 -0.52443964317E+02  0.23919811925E+02 -0.18684489667E+02  0.60776039275E+02  0.47000000000E+01 0.  1.
         -5    1    3    3    0  502  0.52918163764E+02  0.45217496872E+02 -0.11711292359E+03  0.13631757389E+03  0.47000000000E+01 0.  1.
          5    1    4    4  503    0 -0.50207437506E+02 -0.76755273855E+02 -0.99656759749E+01  0.92377289109E+02  0.47000000000E+01 0.  1.
         -5    1    4    4    0  503  0.49733238059E+02  0.76179650579E+01  0.31441122982E+01  0.50630068157E+02  0.47000000000E+01 0.  1.
<mgrwt>
<rscale>  0 0.14284558E+03</rscale>
<asrwt>0</asrwt>
<pdfrwt beam="1">  1        5 0.15190923E-01 0.14284591E+03</pdfrwt>
<pdfrwt beam="2">  1       -5 0.37132304E-01 0.14284591E+03</pdfrwt>
<totfact> 0.19735436E+02</totfact>
</mgrwt>
</event>
<event>
 8    1  0.1821556E-007  0.1605368E+03  0.7546771E-02  0.1188095E+00
         -5   -1    0    0    0  501 -0.00000000000E+00  0.00000000000E+00  0.35132863960E+02  0.35445847853E+02  0.47000000000E+01 0. -1.
          5   -1    0    0  501    0  0.00000000000E+00 -0.00000000000E+00 -0.73223442029E+03  0.73224950410E+03  0.47000000000E+01 0. -1.
         25    2    1    2    0    0 -0.27086867665E+01  0.10066913680E+03 -0.37008558029E+03  0.40340474400E+03  0.12502175273E+03 0.  0.
         25    2    1    2    0    0  0.27086867665E+01 -0.10066913680E+03 -0.32701597604E+03  0.36429060796E+03  0.12500634533E+03 0.  0.
          5    1    3    3  502    0  0.43326651914E+02  0.96210209455E+02 -0.30958073016E+03  0.32710231068E+03  0.47000000000E+01 0.  1.
         -5    1    3    3    0  502 -0.46035338680E+02  0.44589273406E+01 -0.60504850133E+02  0.76302433317E+02  0.47000000000E+01 0.  1.
          5    1    4    4  503    0 -0.40753096004E+02  0.93419918598E+01 -0.80994497809E+02  0.91270402218E+02  0.47000000000E+01 0.  1.
         -5    1    4    4    0  503  0.43461782771E+02 -0.11001112866E+03 -0.24602147823E+03  0.27302020574E+03  0.47000000000E+01 0.  1.
<mgrwt>
<rscale>  0 0.16053376E+03</rscale>
<asrwt>0</asrwt>
<pdfrwt beam="2">  1        5 0.11267667E+00 0.16053676E+03</pdfrwt>
<pdfrwt beam="1">  1       -5 0.54302925E-02 0.16053676E+03</pdfrwt>
<totfact> 0.10207925E+02</totfact>
</mgrwt>
</event>
<event>
 8    1  0.1821556E-007  0.1473631E+03  0.7546771E-02  0.1203754E+00
          5   -1    0    0  501    0  0.00000000000E+00  0.00000000000E+00  0.21745419461E+02  0.22247545203E+02  0.47000000000E+01 0.  1.
         -5   -1    0    0    0  501 -0.00000000000E+00 -0.00000000000E+00 -0.10588319955E+04  0.10588424267E+04  0.47000000000E+01 0.  1.
         25    2    1    2    0    0  0.68806090828E+02 -0.36824845399E+02 -0.65960419631E+03  0.67586308415E+03  0.12499146112E+03 0.  0.
         25    2    1    2    0    0 -0.68806090828E+02  0.36824845399E+02 -0.37748237969E+03  0.40522688777E+03  0.12500214486E+03 0.  0.
          5    1    4    4  502    0 -0.65599808622E+02 -0.84203058132E+01 -0.78357951694E+02  0.10264645651E+03  0.47000000000E+01 0. -1.
         -5    1    4    4    0  502 -0.32062822064E+01  0.45245151212E+02 -0.29912442800E+03  0.30258043126E+03  0.47000000000E+01 0. -1.
          5    1    3    3  503    0  0.26489896159E+02  0.43170517885E+02 -0.33527386535E+03  0.33911069432E+03  0.47000000000E+01 0. -1.
         -5    1    3    3    0  503  0.42316194669E+02 -0.79995363283E+02 -0.32433033096E+03  0.33675238983E+03  0.47000000000E+01 0. -1.
<mgrwt>
<rscale>  0 0.14736084E+03</rscale>
<asrwt>0</asrwt>
<pdfrwt beam="1">  1        5 0.33848774E-02 0.14736310E+03</pdfrwt>
<pdfrwt beam="2">  1       -5 0.16293662E+00 0.14736310E+03</pdfrwt>
<totfact> 0.81546607E+01</totfact>
</mgrwt>
</event>
<event>
 8    1  0.1821556E-007  0.1264917E+03  0.7546771E-02  0.1232756E+00
          5   -1    0    0  501    0  0.00000000000E+00  0.00000000000E+00  0.11770278686E+03  0.11779658754E+03  0.47000000000E+01 0.  1.
         -5   -1    0    0    0  501 -0.00000000000E+00 -0.00000000000E+00 -0.13952445190E+03  0.13960359121E+03  0.47000000000E+01 0.  1.
         25    2    1    2    0    0  0.13323990719E+02 -0.14060600503E+02 -0.32071218919E+02  0.13049410528E+03  0.12499967686E+03 0.  0.
         25    2    1    2    0    0 -0.13323990719E+02  0.14060600503E+02  0.10249553882E+02  0.12690607346E+03  0.12499947564E+03 0.  0.
          5    1    4    4  502    0 -0.53387061126E+01 -0.54242536355E+02  0.17883795726E+02  0.57555839693E+02  0.47000000000E+01 0.  1.
         -5    1    4    4    0  502 -0.79852846063E+01  0.68303136859E+02 -0.76342418440E+01  0.69350233767E+02  0.47000000000E+01 0.  1.
          5    1    3    3  503    0 -0.54014947230E+02 -0.10886654702E+02 -0.29934019677E+02  0.62882981075E+02  0.47000000000E+01 0.  1.
         -5    1    3    3    0  503  0.67338937949E+02 -0.31739458014E+01 -0.21371992419E+01  0.67611124208E+02  0.47000000000E+01 0.  1.
<mgrwt>
<rscale>  0 0.12649164E+03</rscale>
<asrwt>0</asrwt>
<pdfrwt beam="1">  1        5 0.18121424E-01 0.12649169E+03</pdfrwt>
<pdfrwt beam="2">  1       -5 0.21478603E-01 0.12649169E+03</pdfrwt>
<totfact> 0.39784077E+02</totfact>
</mgrwt>
</event>
<event>
 8    1  0.1821556E-007  0.1443235E+03  0.7546771E-02  0.1207627E+00
         -5   -1    0    0    0  501 -0.00000000000E+00  0.00000000000E+00  0.13264387952E+03  0.13272712147E+03  0.47000000000E+01 0. -1.
          5   -1    0    0  501    0  0.00000000000E+00 -0.00000000000E+00 -0.15757996623E+03  0.15765004205E+03  0.47000000000E+01 0. -1.
         25    2    1    2    0    0 -0.30684015757E+02 -0.65300088719E+02 -0.26758105415E+01  0.14434829336E+03  0.12499463758E+03 0.  0.
         25    2    1    2    0    0  0.30684015757E+02  0.65300088719E+02 -0.22260276166E+02  0.14602887016E+03  0.12499320228E+03 0.  0.
          5    1    4    4  502    0 -0.66604742534E+01 -0.15892769100E+02  0.35342956597E+02  0.39599957171E+02  0.47000000000E+01 0. -1.
         -5    1    4    4    0  502  0.37344490010E+02  0.81192857819E+02 -0.57603232763E+02  0.10642891299E+03  0.47000000000E+01 0. -1.
          5    1    3    3  503    0  0.75647617609E+01 -0.85588022025E+02  0.28658185013E+02  0.90696839542E+02  0.47000000000E+01 0.  1.
         -5    1    3    3    0  503 -0.38248777518E+02  0.20287933306E+02 -0.31333995555E+02  0.53651453819E+02  0.47000000000E+01 0.  1.
<mgrwt>
<rscale>  0 0.14432318E+03</rscale>
<asrwt>0</asrwt>
<pdfrwt beam="2">  1        5 0.24254865E-01 0.14432349E+03</pdfrwt>
<pdfrwt beam="1">  1       -5 0.20418544E-01 0.14432349E+03</pdfrwt>
<totfact> 0.26519035E+02</totfact>
</mgrwt>
</event>
<event>
 8    1  0.1821556E-007  0.2063112E+03  0.7546771E-02  0.1144522E+00
          5   -1    0    0  501    0  0.00000000000E+00  0.00000000000E+00  0.92602218966E+02  0.92721415851E+02  0.47000000000E+01 0. -1.
         -5   -1    0    0    0  501 -0.00000000000E+00 -0.00000000000E+00 -0.45977635756E+03  0.45980037948E+03  0.47000000000E+01 0. -1.
         25    2    1    2    0    0 -0.84223015101E+02 -0.14087034930E+03 -0.17389331380E+03  0.26981739491E+03  0.12499828170E+03 0.  0.
         25    2    1    2    0    0  0.84223015101E+02  0.14087034930E+03 -0.19328082479E+03  0.28270440042E+03  0.12500531667E+03 0.  0.
          5    1    4    4  502    0  0.13155387459E+02  0.11504995245E+03 -0.16543322392E+03  0.20198959715E+03  0.47000000000E+01 0. -1.
         -5    1    4    4    0  502  0.71067627643E+02  0.25820396849E+02 -0.27847600871E+02  0.80714803267E+02  0.47000000000E+01 0. -1.
          5    1    3    3  503    0 -0.53041223009E+02 -0.14853517694E+03 -0.94202741949E+02  0.18377245908E+03  0.47000000000E+01 0. -1.
         -5    1    3    3    0  503 -0.31181792092E+02  0.76648276341E+01 -0.79690571849E+02  0.86044935832E+02  0.47000000000E+01 0. -1.
<mgrwt>
<rscale>  0 0.20631011E+03</rscale>
<asrwt>0</asrwt>
<pdfrwt beam="1">  1        5 0.14257512E-01 0.20631117E+03</pdfrwt>
<pdfrwt beam="2">  1       -5 0.70745840E-01 0.20631117E+03</pdfrwt>
<totfact> 0.62106701E+01</totfact>
</mgrwt>
</event>
<event>
 8    1  0.1821556E-007  0.2072242E+03  0.7546771E-02  0.1143784E+00
         -5   -1    0    0    0  501 -0.00000000000E+00  0.00000000000E+00  0.67298030873E+03  0.67299672060E+03  0.47000000000E+01 0. -1.
          5   -1    0    0  501    0  0.00000000000E+00 -0.00000000000E+00 -0.77295265428E+02  0.77438027206E+02  0.47000000000E+01 0. -1.
         25    2    1    2    0    0 -0.80580491328E+02 -0.14431123861E+03  0.45500822040E+03  0.49997436199E+03  0.12499173109E+03 0.  0.
         25    2    1    2    0    0  0.80580491328E+02  0.14431123861E+03  0.14067682290E+03  0.25046038582E+03  0.12498594797E+03 0.  0.
          5    1    3    3  502    0  0.24680636290E+02 -0.79739708115E+02  0.17867049214E+03  0.19726324954E+03  0.47000000000E+01 0. -1.
         -5    1    3    3    0  502 -0.10526112762E+03 -0.64571530500E+02  0.27633772826E+03  0.30271111245E+03  0.47000000000E+01 0. -1.
          5    1    4    4  503    0  0.31857770751E+02  0.11654167583E+03  0.27400911859E+02  0.12397491574E+03  0.47000000000E+01 0.  1.
         -5    1    4    4    0  503  0.48722720577E+02  0.27769562784E+02  0.11327591104E+03  0.12648547008E+03  0.47000000000E+01 0.  1.
<mgrwt>
<rscale>  0 0.20722336E+03</rscale>
<asrwt>0</asrwt>
<pdfrwt beam="2">  1        5 0.11903823E-01 0.20722423E+03</pdfrwt>
<pdfrwt beam="1">  1       -5 0.10354768E+00 0.20722423E+03</pdfrwt>
<totfact> 0.34866574E+01</totfact>
</mgrwt>
</event>
<event>
 8    1  0.1821556E-007  0.1287921E+03  0.7546771E-02  0.1229261E+00
          5   -1    0    0  501    0  0.00000000000E+00  0.00000000000E+00  0.40794975832E+02  0.41064827446E+02  0.47000000000E+01 0. -1.
         -5   -1    0    0    0  501 -0.00000000000E+00 -0.00000000000E+00 -0.42532597897E+03  0.42535194650E+03  0.47000000000E+01 0. -1.
         25    2    1    2    0    0 -0.16105104737E+02  0.26491723205E+02 -0.24326702897E+03  0.27525475675E+03  0.12500059173E+03 0.  0.
         25    2    1    2    0    0  0.16105104737E+02 -0.26491723205E+02 -0.14126397417E+03  0.19116201720E+03  0.12500488240E+03 0.  0.
          5    1    4    4  502    0 -0.31696304654E+02  0.36223052646E+02 -0.67841342849E+02  0.83314482963E+02  0.47000000000E+01 0.  1.
         -5    1    4    4    0  502  0.47801409391E+02 -0.62714775852E+02 -0.73422631325E+02  0.10784753423E+03  0.47000000000E+01 0.  1.
          5    1    3    3  503    0 -0.34750663195E+02  0.22446398104E+02 -0.12245696196E+02  0.43399267917E+02  0.47000000000E+01 0.  1.
         -5    1    3    3    0  503  0.18645558458E+02  0.40453251013E+01 -0.23102133277E+03  0.23185548883E+03  0.47000000000E+01 0.  1.
<mgrwt>
<rscale>  0 0.12879106E+03</rscale>
<asrwt>0</asrwt>
<pdfrwt beam="1">  1        5 0.62989057E-02 0.12879211E+03</pdfrwt>
<pdfrwt beam="2">  1       -5 0.65457518E-01 0.12879211E+03</pdfrwt>
<totfact> 0.26631113E+02</totfact>
</mgrwt>
</event>
<event>
 8    1  0.1821556E-007  0.1701589E+03  0.7546771E-02  0.1177683E+00
         -5   -1    0    0    0  501 -0.00000000000E+00  0.00000000000E+00  0.48561350280E+02  0.48788264378E+02  0.47000000000E+01 0.  1.
          5   -1    0    0  501    0  0.00000000000E+00 -0.00000000000E+00 -0.59662259963E+03  0.59664111188E+03  0.47000000000E+01 0.  1.
         25    2    1    2    0    0 -0.84700891234E+02  0.78443282076E+02 -0.29281622845E+03  0.33866707244E+03  0.12500581118E+03 0.  0.
         25    2    1    2    0    0  0.84700891234E+02 -0.78443282076E+02 -0.25524502090E+03  0.30676230382E+03  0.12500200349E+03 0.  0.
          5    1    3    3  502    0 -0.74611867842E+01  0.83239159987E+02 -0.97362778977E+02  0.12839792753E+03  0.47000000000E+01 0.  1.
         -5    1    3    3    0  502 -0.77239704450E+02 -0.47958779107E+01 -0.19545344948E+03  0.21026914491E+03  0.47000000000E+01 0.  1.
          5    1    4    4  503    0  0.74322510684E+02 -0.33886586949E+02 -0.48820816550E+02  0.95276956805E+02  0.47000000000E+01 0.  1.
         -5    1    4    4    0  503  0.10378380550E+02 -0.44556695127E+02 -0.20642420435E+03  0.21148534702E+03  0.47000000000E+01 0.  1.
<mgrwt>
<rscale>  0 0.17015817E+03</rscale>
<asrwt>0</asrwt>
<pdfrwt beam="2">  1        5 0.91806966E-01 0.17015887E+03</pdfrwt>
<pdfrwt beam="1">  1       -5 0.74898564E-02 0.17015887E+03</pdfrwt>
<totfact> 0.99578531E+01</totfact>
</mgrwt>
</event>
<event>
 8    1  0.1821556E-007  0.1354757E+03  0.7546771E-02  0.1219551E+00
          5   -1    0    0  501    0  0.00000000000E+00  0.00000000000E+00  0.32001307698E+03  0.32004758933E+03  0.47000000000E+01 0. -1.
         -5   -1    0    0    0  501 -0.00000000000E+00 -0.00000000000E+00 -0.57414777096E+02  0.57606827972E+02  0.47000000000E+01 0. -1.
         25    2    1    2    0    0 -0.52048635600E+02 -0.45268694456E+01  0.12025590356E+03  0.18114733382E+03  0.12499328460E+03 0.  0.
         25    2    1    2    0    0  0.52048635600E+02  0.45268694456E+01  0.14234239632E+03  0.19650708348E+03  0.12499649217E+03 0.  0.
          5    1    3    3  502    0  0.27661808180E+02  0.28000979975E+02  0.94541618018E+01  0.40751707776E+02  0.47000000000E+01 0. -1.
         -5    1    3    3    0  502 -0.79710443780E+02 -0.32527849421E+02  0.11080174176E+03  0.14039562605E+03  0.47000000000E+01 0. -1.
          5    1    4    4  503    0 -0.51252001394E+01  0.27274608455E+02  0.13071233803E+03  0.13370855341E+03  0.47000000000E+01 0.  1.
         -5    1    4    4    0  503  0.57173835739E+02 -0.22747739009E+02  0.11630058294E+02  0.62798530071E+02  0.47000000000E+01 0.  1.
<mgrwt>
<rscale>  0 0.13547500E+03</rscale>
<asrwt>0</asrwt>
<pdfrwt beam="1">  1        5 0.49250210E-01 0.13547574E+03</pdfrwt>
<pdfrwt beam="2">  1       -5 0.88504704E-02 0.13547574E+03</pdfrwt>
<totfact> 0.28109756E+02</totfact>
</mgrwt>
</event>
<event>
 8    1  0.1821556E-007  0.1407058E+03  0.7546771E-02  0.1212392E+00
          5   -1    0    0  501    0  0.00000000000E+00  0.00000000000E+00  0.12526645133E+03  0.12535459237E+03  0.47000000000E+01 0. -1.
         -5   -1    0    0    0  501 -0.00000000000E+00 -0.00000000000E+00 -0.17276212520E+03  0.17282604521E+03  0.47000000000E+01 0. -1.
         25    2    1    2    0    0 -0.23975516210E+02  0.59996635299E+02 -0.67549704433E+02  0.15608039289E+03  0.12499481929E+03 0.  0.
         25    2    1    2    0    0  0.23975516210E+02 -0.59996635299E+02  0.20054030559E+02  0.14210024470E+03  0.12496356980E+03 0.  0.
          5    1    4    4  502    0  0.18457434032E+02 -0.20414379324E+02 -0.52313188379E+02  0.59297415059E+02  0.47000000000E+01 0.  1.
         -5    1    4    4    0  502  0.55180821777E+01 -0.39582255975E+02  0.72367218938E+02  0.82802829637E+02  0.47000000000E+01 0.  1.
          5    1    3    3  503    0  0.38211433411E+02  0.53742413510E+02 -0.65953970018E+02  0.93382957837E+02  0.47000000000E+01 0. -1.
         -5    1    3    3    0  503 -0.62186949621E+02  0.62542217897E+01 -0.15957344152E+01  0.62697435049E+02  0.47000000000E+01 0. -1.
<mgrwt>
<rscale>  0 0.14069887E+03</rscale>
<asrwt>0</asrwt>
<pdfrwt beam="1">  1        5 0.19283459E-01 0.14070582E+03</pdfrwt>
<pdfrwt beam="2">  1       -5 0.26590486E-01 0.14070582E+03</pdfrwt>
<totfact> 0.24518205E+02</totfact>
</mgrwt>
</event>
<event>
 8    1  0.1821556E-007  0.1547000E+03  0.7546771E-02  0.1194814E+00
         -5   -1    0    0    0  501 -0.00000000000E+00  0.00000000000E+00  0.12450355672E+03  0.12459223746E+03  0.47000000000E+01 0.  1.
          5   -1    0    0  501    0  0.00000000000E+00 -0.00000000000E+00 -0.19223271299E+03  0.19229016080E+03  0.47000000000E+01 0.  1.
         25    2    1    2    0    0  0.82129485687E+02 -0.39520298850E+02 -0.38953535503E+02  0.15952892216E+03  0.12499997054E+03 0.  0.
         25    2    1    2    0    0 -0.82129485687E+02  0.39520298850E+02 -0.28775620768E+02  0.15735347611E+03  0.12499989461E+03 0.  0.
          5    1    3    3  502    0  0.22238226089E+00 -0.11837482501E+02 -0.67242540762E+02  0.68438474077E+02  0.47000000000E+01 0. -1.
         -5    1    3    3    0  502  0.81907103426E+02 -0.27682816348E+02  0.28289005259E+02  0.91090448079E+02  0.47000000000E+01 0. -1.
          5    1    4    4  503    0 -0.71505674582E+02 -0.34666075970E+02 -0.14178054717E+02  0.80857316033E+02  0.47000000000E+01 0.  1.
         -5    1    4    4    0  503 -0.10623811105E+02  0.74186374820E+02 -0.14597566051E+02  0.76496160073E+02  0.47000000000E+01 0.  1.
<mgrwt>
<rscale>  0 0.15470001E+03</rscale>
<asrwt>0</asrwt>
<pdfrwt beam="2">  1        5 0.29585504E-01 0.15470003E+03</pdfrwt>
<pdfrwt beam="1">  1       -5 0.19165634E-01 0.15470003E+03</pdfrwt>
<totfact> 0.20791503E+02</totfact>
</mgrwt>
</event>
<event>
 8    1  0.1821556E-007  0.1358372E+03  0.7546771E-02  0.1219044E+00
          5   -1    0    0  501    0  0.00000000000E+00  0.00000000000E+00  0.19407253250E+03  0.19412943587E+03  0.47000000000E+01 0. -1.
         -5   -1    0    0    0  501 -0.00000000000E+00 -0.00000000000E+00 -0.97398272122E+02  0.97511606552E+02  0.47000000000E+01 0. -1.
         25    2    1    2    0    0 -0.53080707739E+02 -0.29736601205E+01  0.25212580329E+02  0.13815318470E+03  0.12499689615E+03 0.  0.
         25    2    1    2    0    0  0.53080707739E+02  0.29736601205E+01  0.71461680051E+02  0.15348785772E+03  0.12500138625E+03 0.  0.
          5    1    4    4  502    0 -0.15761958563E+02  0.34308789360E+02  0.67640478016E+02  0.77607065602E+02  0.47000000000E+01 0.  1.
         -5    1    4    4    0  502  0.68842666302E+02 -0.31335129239E+02  0.38212020351E+01  0.75880792122E+02  0.47000000000E+01 0.  1.
          5    1    3    3  503    0 -0.44489351711E+02 -0.57387996338E+02 -0.87143842914E+01  0.73285162433E+02  0.47000000000E+01 0. -1.
         -5    1    3    3    0  503 -0.85913560287E+01  0.54414336217E+02  0.33926964620E+02  0.64868022266E+02  0.47000000000E+01 0. -1.
<mgrwt>
<rscale>  0 0.13583619E+03</rscale>
<asrwt>0</asrwt>
<pdfrwt beam="1">  1        5 0.29870408E-01 0.13583722E+03</pdfrwt>
<pdfrwt beam="2">  1       -5 0.14997445E-01 0.13583722E+03</pdfrwt>
<totfact> 0.30631009E+02</totfact>
</mgrwt>
</event>
<event>
 8    1  0.1821556E-007  0.1266776E+03  0.7546771E-02  0.1232471E+00
          5   -1    0    0  501    0  0.00000000000E+00  0.00000000000E+00  0.77785874779E+03  0.77787294690E+03  0.47000000000E+01 0.  1.
         -5   -1    0    0    0  501 -0.00000000000E+00 -0.00000000000E+00 -0.21533159940E+02  0.22040121982E+02  0.47000000000E+01 0.  1.
         25    2    1    2    0    0  0.76922044839E+01 -0.19040777928E+02  0.28546230858E+03  0.31230744296E+03  0.12500195229E+03 0.  0.
         25    2    1    2    0    0 -0.76922044839E+01  0.19040777928E+02  0.47086327928E+03  0.48760562592E+03  0.12500118970E+03 0.  0.
          5    1    3    3  502    0 -0.31506673880E+02 -0.23020796411E+02  0.20381513704E+02  0.44273283899E+02  0.47000000000E+01 0. -1.
         -5    1    3    3    0  502  0.39198878364E+02  0.39800184826E+01  0.26508079487E+03  0.26803415906E+03  0.47000000000E+01 0. -1.
          5    1    4    4  503    0  0.10282042791E+02 -0.36636026285E+02  0.51766973226E+02  0.64419161302E+02  0.47000000000E+01 0.  1.
         -5    1    4    4    0  503 -0.17974247275E+02  0.55676804213E+02  0.41909630605E+03  0.42318646462E+03  0.47000000000E+01 0.  1.
<mgrwt>
<rscale>  0 0.12667739E+03</rscale>
<asrwt>0</asrwt>
<pdfrwt beam="1">  1        5 0.11971066E+00 0.12667758E+03</pdfrwt>
<pdfrwt beam="2">  1       -5 0.33528834E-02 0.12667758E+03</pdfrwt>
<totfact> 0.17972542E+02</totfact>
</mgrwt>
</event>
<event>
 8    1  0.1821556E-007  0.1627818E+03  0.7546771E-02  0.1185592E+00
         -5   -1    0    0    0  501 -0.00000000000E+00  0.00000000000E+00  0.44692142302E+02  0.44938597926E+02  0.47000000000E+01 0.  1.
          5   -1    0    0  501    0  0.00000000000E+00 -0.00000000000E+00 -0.61472324140E+03  0.61474120857E+03  0.47000000000E+01 0.  1.
         25    2    1    2    0    0 -0.57691650975E+02  0.86861799776E+02 -0.22024122029E+03  0.27386878763E+03  0.12499847548E+03 0.  0.
         25    2    1    2    0    0  0.57691650975E+02 -0.86861799776E+02 -0.34978987881E+03  0.38581101887E+03  0.12499553635E+03 0.  0.
          5    1    3    3  502    0 -0.94051045213E+02  0.42071491488E+02 -0.15970192680E+03  0.19011155916E+03  0.47000000000E+01 0. -1.
         -5    1    3    3    0  502  0.36359394238E+02  0.44790308289E+02 -0.60539293487E+02  0.83757228476E+02  0.47000000000E+01 0. -1.
          5    1    4    4  503    0 -0.31073915269E+02 -0.34575228189E+02 -0.48433420207E+02  0.67297257057E+02  0.47000000000E+01 0.  1.
         -5    1    4    4    0  503  0.88765566244E+02 -0.52286571588E+02 -0.30135645861E+03  0.31851376181E+03  0.47000000000E+01 0.  1.
<mgrwt>
<rscale>  0 0.16278125E+03</rscale>
<asrwt>0</asrwt>
<pdfrwt beam="2">  1        5 0.94593140E-01 0.16278181E+03</pdfrwt>
<pdfrwt beam="1">  1       -5 0.68960549E-02 0.16278181E+03</pdfrwt>
<totfact> 0.10534996E+02</totfact>
</mgrwt>
</event>
<event>
 8    1  0.1821556E-007  0.1364547E+03  0.7546771E-02  0.1218184E+00
         -5   -1    0    0    0  501 -0.00000000000E+00  0.00000000000E+00  0.17656909200E+03  0.17663163434E+03  0.47000000000E+01 0. -1.
          5   -1    0    0  501    0  0.00000000000E+00 -0.00000000000E+00 -0.12535340617E+03  0.12544148611E+03  0.47000000000E+01 0. -1.
         25    2    1    2    0    0 -0.49169387781E+02  0.24002677477E+02  0.85960459819E+02  0.16127335129E+03  0.12500454377E+03 0.  0.
         25    2    1    2    0    0  0.49169387781E+02 -0.24002677477E+02 -0.34744773989E+02  0.14079976916E+03  0.12499447370E+03 0.  0.
          5    1    4    4  502    0  0.73838527807E+02 -0.51205822666E+02 -0.47366328241E+02  0.10168492275E+03  0.47000000000E+01 0. -1.
         -5    1    4    4    0  502 -0.24669140026E+02  0.27203145189E+02  0.12621554253E+02  0.39114846408E+02  0.47000000000E+01 0. -1.
          5    1    3    3  503    0 -0.17933763167E+02  0.70817278852E+02  0.23081740091E+02  0.76756521357E+02  0.47000000000E+01 0.  1.
         -5    1    3    3    0  503 -0.31235624614E+02 -0.46814601374E+02  0.62878719728E+02  0.84516829931E+02  0.47000000000E+01 0.  1.
<mgrwt>
<rscale>  0 0.13645242E+03</rscale>
<asrwt>0</asrwt>
<pdfrwt beam="2">  1        5 0.19296726E-01 0.13645473E+03</pdfrwt>
<pdfrwt beam="1">  1       -5 0.27176062E-01 0.13645473E+03</pdfrwt>
<totfact> 0.23234741E+02</totfact>
</mgrwt>
</event>
<event>
 8    1  0.1821556E-007  0.1519732E+03  0.7546771E-02  0.1198070E+00
         -5   -1    0    0    0  501 -0.00000000000E+00  0.00000000000E+00  0.53103989124E+03  0.53106068965E+03  0.47000000000E+01 0. -1.
          5   -1    0    0  501    0  0.00000000000E+00 -0.00000000000E+00 -0.50276036460E+02  0.50495245738E+02  0.47000000000E+01 0. -1.
         25    2    1    2    0    0  0.76983820786E+02  0.39300932222E+02  0.34809787460E+03  0.37982627394E+03  0.12499918456E+03 0.  0.
         25    2    1    2    0    0 -0.76983820786E+02 -0.39300932222E+02  0.13266598019E+03  0.20172966145E+03  0.12499408815E+03 0.  0.
          5    1    3    3  502    0  0.97625750065E+02  0.64528109055E+02  0.29430809709E+03  0.31675544185E+03  0.47000000000E+01 0.  1.
         -5    1    3    3    0  502 -0.20641929279E+02 -0.25227176834E+02  0.53789777510E+02  0.63070832085E+02  0.47000000000E+01 0.  1.
          5    1    4    4  503    0 -0.57434013960E+02 -0.44321658234E+02  0.15503631522E+03  0.17123499755E+03  0.47000000000E+01 0.  1.
         -5    1    4    4    0  503 -0.19549806826E+02  0.50207260124E+01 -0.22370335036E+02  0.30494663898E+02  0.47000000000E+01 0.  1.
<mgrwt>
<rscale>  0 0.15197220E+03</rscale>
<asrwt>0</asrwt>
<pdfrwt beam="2">  1        5 0.77532368E-02 0.15197325E+03</pdfrwt>
<pdfrwt beam="1">  1       -5 0.81716908E-01 0.15197325E+03</pdfrwt>
<totfact> 0.11939334E+02</totfact>
</mgrwt>
</event>
<event>
 8    1  0.1821556E-007  0.1311931E+03  0.7546771E-02  0.1225697E+00
          5   -1    0    0  501    0  0.00000000000E+00  0.00000000000E+00  0.20538983410E+04  0.20539037185E+04  0.47000000000E+01 0.  1.
         -5   -1    0    0    0  501 -0.00000000000E+00 -0.00000000000E+00 -0.79398296460E+01  0.92266404941E+01  0.47000000000E+01 0.  1.
         25    2    1    2    0    0  0.38556158861E+02  0.99929765333E+01  0.11838367173E+04  0.11910839617E+04  0.12500077433E+03 0.  0.
         25    2    1    2    0    0 -0.38556158861E+02 -0.99929765333E+01  0.86212179403E+03  0.87204639736E+03  0.12499797774E+03 0.  0.
          5    1    4    4  502    0 -0.20754271848E+02 -0.22073221507E+02  0.44003303153E+02  0.53631591399E+02  0.47000000000E+01 0.  1.
         -5    1    4    4    0  502 -0.17801887013E+02  0.12080244974E+02  0.81811849088E+03  0.81841480596E+03  0.47000000000E+01 0.  1.
          5    1    3    3  503    0  0.31328042902E+02 -0.88011877653E+01  0.73086924678E+02  0.80141722823E+02  0.47000000000E+01 0.  1.
         -5    1    3    3    0  503  0.72281159584E+01  0.18794164299E+02  0.11107497926E+04  0.11109422388E+04  0.47000000000E+01 0.  1.
<mgrwt>
<rscale>  0 0.13119244E+03</rscale>
<asrwt>0</asrwt>
<pdfrwt beam="1">  1        5 0.31608371E+00 0.13119310E+03</pdfrwt>
<pdfrwt beam="2">  1       -5 0.13209116E-02 0.13119310E+03</pdfrwt>
<totfact> 0.34869040E+01</totfact>
</mgrwt>
</event>
<event>
 8    1  0.1821556E-007  0.1371627E+03  0.7546771E-02  0.1217199E+00
         -5   -1    0    0    0  501 -0.00000000000E+00  0.00000000000E+00  0.52191576227E+02  0.52402773105E+02  0.47000000000E+01 0.  1.
          5   -1    0    0  501    0  0.00000000000E+00 -0.00000000000E+00 -0.41092590254E+03  0.41095277999E+03  0.47000000000E+01 0.  1.
         25    2    1    2    0    0 -0.24666576727E+02  0.50798139595E+02 -0.97442108761E+02  0.16825008377E+03  0.12499694051E+03 0.  0.
         25    2    1    2    0    0  0.24666576727E+02 -0.50798139595E+02 -0.26129221755E+03  0.29510546932E+03  0.12499889629E+03 0.  0.
          5    1    3    3  502    0 -0.66339950168E+01 -0.35019080721E+02 -0.65661797876E+02  0.74859251965E+02  0.47000000000E+01 0. -1.
         -5    1    3    3    0  502 -0.18032581710E+02  0.85817220316E+02 -0.31780310885E+02  0.93390831808E+02  0.47000000000E+01 0. -1.
          5    1    4    4  503    0  0.46047742613E+02 -0.34575031645E+02 -0.26155160455E+03  0.26785660204E+03  0.47000000000E+01 0. -1.
         -5    1    4    4    0  503 -0.21381165886E+02 -0.16223107950E+02  0.25938700225E+00  0.27248867276E+02  0.47000000000E+01 0. -1.
<mgrwt>
<rscale>  0 0.13716229E+03</rscale>
<asrwt>0</asrwt>
<pdfrwt beam="2">  1        5 0.63237681E-01 0.13716273E+03</pdfrwt>
<pdfrwt beam="1">  1       -5 0.80477870E-02 0.13716273E+03</pdfrwt>
<totfact> 0.19373470E+02</totfact>
</mgrwt>
</event>
<event>
 8    1  0.1821556E-007  0.1588510E+03  0.7546771E-02  0.1190010E+00
          5   -1    0    0  501    0  0.00000000000E+00  0.00000000000E+00  0.23057270290E+03  0.23062060039E+03  0.47000000000E+01 0.  1.
         -5   -1    0    0    0  501 -0.00000000000E+00 -0.00000000000E+00 -0.11865348478E+03  0.11874653448E+03  0.47000000000E+01 0.  1.
         25    2    1    2    0    0  0.16899308016E+02 -0.96492295430E+02  0.69621885165E+01  0.15900352006E+03  0.12504918085E+03 0.  0.
         25    2    1    2    0    0 -0.16899308016E+02  0.96492295430E+02  0.10495702961E+03  0.19036361481E+03  0.12500391230E+03 0.  0.
          5    1    3    3  502    0  0.63820534988E+00 -0.47203647642E+02  0.65341265610E+02  0.80747524100E+02  0.47000000000E+01 0.  1.
         -5    1    3    3    0  502  0.16261102666E+02 -0.49288647787E+02 -0.58379077094E+02  0.78255995955E+02  0.47000000000E+01 0.  1.
          5    1    4    4  503    0 -0.45739230857E+02  0.88971298993E+02  0.12028549036E+03  0.15652047302E+03  0.47000000000E+01 0. -1.
         -5    1    4    4    0  503  0.28839922841E+02  0.75209964362E+01 -0.15328460754E+02  0.33843141786E+02  0.47000000000E+01 0. -1.
<mgrwt>
<rscale>  0 0.15884211E+03</rscale>
<asrwt>0</asrwt>
<pdfrwt beam="1">  1        5 0.35483565E-01 0.15885102E+03</pdfrwt>
<pdfrwt beam="2">  1       -5 0.18265224E-01 0.15885102E+03</pdfrwt>
<totfact> 0.15976271E+02</totfact>
</mgrwt>
</event>
<event>
 8    1  0.1821556E-007  0.1391866E+03  0.7546771E-02  0.1214428E+00
         -5   -1    0    0    0  501 -0.00000000000E+00  0.00000000000E+00  0.10901827080E+03  0.10911953707E+03  0.47000000000E+01 0. -1.
          5   -1    0    0  501    0  0.00000000000E+00 -0.00000000000E+00 -0.29521702676E+03  0.29525443755E+03  0.47000000000E+01 0. -1.
         25    2    1    2    0    0  0.43514923101E+02 -0.43039520122E+02  0.34548951374E+02  0.14340950269E+03  0.12500682620E+03 0.  0.
         25    2    1    2    0    0 -0.43514923101E+02  0.43039520122E+02 -0.22074770733E+03  0.26096447192E+03  0.12500782571E+03 0.  0.
          5    1    3    3  502    0  0.94213129476E+01  0.36842540016E+02 -0.17414631491E+02  0.42089111210E+02  0.47000000000E+01 0. -1.
         -5    1    3    3    0  502  0.34093610153E+02 -0.79882060138E+02  0.51963582865E+02  0.10132039148E+03  0.47000000000E+01 0. -1.
          5    1    4    4  503    0  0.51986232553E+01  0.24288873022E+01 -0.19032100703E+03  0.19046548478E+03  0.47000000000E+01 0. -1.
         -5    1    4    4    0  503 -0.48713546356E+02  0.40610632820E+02 -0.30426700305E+02  0.70498987142E+02  0.47000000000E+01 0. -1.
<mgrwt>
<rscale>  0 0.13918636E+03</rscale>
<asrwt>0</asrwt>
<pdfrwt beam="2">  1        5 0.45428671E-01 0.13918658E+03</pdfrwt>
<pdfrwt beam="1">  1       -5 0.16782709E-01 0.13918658E+03</pdfrwt>
<totfact> 0.10783088E+02</totfact>
</mgrwt>
</event>
<event>
 8    1  0.1821556E-007  0.1493765E+03  0.7546771E-02  0.1201243E+00
         -5   -1    0    0    0  501 -0.00000000000E+00  0.00000000000E+00  0.12402359623E+04  0.12402448678E+04  0.47000000000E+01 0. -1.
          5   -1    0    0  501    0  0.00000000000E+00 -0.00000000000E+00 -0.18499144510E+02  0.19086863221E+02  0.47000000000E+01 0. -1.
         25    2    1    2    0    0 -0.71897631685E+02  0.38972302492E+02  0.74168341515E+03  0.75657624793E+03  0.12500088328E+03 0.  0.
         25    2    1    2    0    0  0.71897631685E+02 -0.38972302492E+02  0.48005340264E+03  0.50275548312E+03  0.12499478637E+03 0.  0.
          5    1    4    4  502    0  0.37396224199E+02 -0.10485005582E+02  0.27141663663E+02  0.47614838368E+02  0.47000000000E+01 0.  1.
         -5    1    4    4    0  502  0.34501407486E+02 -0.28487296910E+02  0.45291173897E+03  0.45514064475E+03  0.47000000000E+01 0.  1.
          5    1    3    3  503    0 -0.82028587262E+02  0.68092818998E+01  0.68856418751E+03  0.69348236154E+03  0.47000000000E+01 0.  1.
         -5    1    3    3    0  503  0.10130955577E+02  0.32163020592E+02  0.53119227639E+02  0.63093886387E+02  0.47000000000E+01 0.  1.
<mgrwt>
<rscale>  0 0.14937520E+03</rscale>
<asrwt>0</asrwt>
<pdfrwt beam="2">  1        5 0.28919166E-02 0.14937647E+03</pdfrwt>
<pdfrwt beam="1">  1       -5 0.19085141E+00 0.14937647E+03</pdfrwt>
<totfact> 0.66517189E+01</totfact>
</mgrwt>
</event>
<event>
 8    1  0.1821556E-007  0.1291360E+03  0.7546771E-02  0.1228744E+00
         -5   -1    0    0    0  501 -0.00000000000E+00  0.00000000000E+00  0.17304013217E+02  0.17930947365E+02  0.47000000000E+01 0.  1.
          5   -1    0    0  501    0  0.00000000000E+00 -0.00000000000E+00 -0.95466519732E+03  0.95467676675E+03  0.47000000000E+01 0.  1.
         25    2    1    2    0    0  0.24389439092E+02 -0.21348722686E+02 -0.42216253879E+03  0.44147142913E+03  0.12500080354E+03 0.  0.
         25    2    1    2    0    0 -0.24389439092E+02  0.21348722686E+02 -0.51519864532E+03  0.53113628499E+03  0.12500198555E+03 0.  0.
          5    1    3    3  502    0 -0.13047720179E+02  0.40114570611E+02 -0.68915826170E+02  0.80937648062E+02  0.47000000000E+01 0.  1.
         -5    1    3    3    0  502  0.37437159271E+02 -0.61463293297E+02 -0.35324671262E+03  0.36053378107E+03  0.47000000000E+01 0.  1.
          5    1    4    4  503    0 -0.19598825377E+02  0.23923053340E+02 -0.22857095209E+02  0.38742266824E+02  0.47000000000E+01 0.  1.
         -5    1    4    4    0  503 -0.47906137146E+01 -0.25743306538E+01 -0.49234155011E+03  0.49239401816E+03  0.47000000000E+01 0.  1.
<mgrwt>
<rscale>  0 0.12913572E+03</rscale>
<asrwt>0</asrwt>
<pdfrwt beam="2">  1        5 0.14692064E+00 0.12913601E+03</pdfrwt>
<pdfrwt beam="1">  1       -5 0.27112723E-02 0.12913601E+03</pdfrwt>
<totfact> 0.14907410E+02</totfact>
</mgrwt>
</event>
<event>
 8    1  0.1821556E-007  0.1289655E+03  0.7546771E-02  0.1229011E+00
         -5   -1    0    0    0  501 -0.00000000000E+00  0.00000000000E+00  0.18648618082E+03  0.18654539832E+03  0.47000000000E+01 0. -1.
          5   -1    0    0  501    0  0.00000000000E+00 -0.00000000000E+00 -0.11034503854E+03  0.11044508830E+03  0.47000000000E+01 0. -1.
         25    2    1    2    0    0 -0.72418729111E+01  0.30907925210E+02  0.10329010250E+03  0.16522994810E+03  0.12499738362E+03 0.  0.
         25    2    1    2    0    0  0.72418729111E+01 -0.30907925210E+02 -0.27148960217E+02  0.13176053852E+03  0.12496411048E+03 0.  0.
          5    1    3    3  502    0  0.17619669837E+02 -0.34310881463E+02  0.84175269081E+02  0.92710599593E+02  0.47000000000E+01 0. -1.
         -5    1    3    3    0  502 -0.24861542748E+02  0.65218806674E+02  0.19114833416E+02  0.72519348510E+02  0.47000000000E+01 0. -1.
          5    1    4    4  503    0  0.49288125191E+02  0.24473732397E+02  0.41007443917E+01  0.55382208035E+02  0.47000000000E+01 0.  1.
         -5    1    4    4    0  503 -0.42046252280E+02 -0.55381657607E+02 -0.31249704609E+02  0.76378330488E+02  0.47000000000E+01 0.  1.
<mgrwt>
<rscale>  0 0.12895740E+03</rscale>
<asrwt>0</asrwt>
<pdfrwt beam="2">  1        5 0.16988411E-01 0.12896546E+03</pdfrwt>
<pdfrwt beam="1">  1       -5 0.28702433E-01 0.12896546E+03</pdfrwt>
<totfact> 0.25912596E+02</totfact>
</mgrwt>
</event>
<event>
 8    1  0.1821556E-007  0.1321947E+03  0.7546771E-02  0.1224245E+00
         -5   -1    0    0    0  501 -0.00000000000E+00  0.00000000000E+00  0.34702037197E+02  0.35018871850E+02  0.47000000000E+01 0. -1.
          5   -1    0    0  501    0  0.00000000000E+00 -0.00000000000E+00 -0.50153365164E+03  0.50155567361E+03  0.47000000000E+01 0. -1.
         25    2    1    2    0    0 -0.42891760100E+02 -0.22043029695E+01 -0.24326683236E+03  0.27686492997E+03  0.12502350054E+03 0.  0.
         25    2    1    2    0    0  0.42891760100E+02  0.22043029695E+01 -0.22356478209E+03  0.25970961548E+03  0.12499324201E+03 0.  0.
          5    1    4    4  502    0  0.79045106273E+01  0.51573694499E+02 -0.38684582144E+02  0.65122301466E+02  0.47000000000E+01 0.  1.
         -5    1    4    4    0  502  0.34987249473E+02 -0.49369391530E+02 -0.18488019994E+03  0.19458731402E+03  0.47000000000E+01 0.  1.
          5    1    3    3  503    0 -0.49702326080E+02  0.18191104327E+02 -0.24860233433E+03  0.25421732460E+03  0.47000000000E+01 0. -1.
         -5    1    3    3    0  503  0.68105659798E+01 -0.20395407296E+02  0.53355019719E+01  0.22647605371E+02  0.47000000000E+01 0. -1.
<mgrwt>
<rscale>  0 0.13218754E+03</rscale>
<asrwt>0</asrwt>
<pdfrwt beam="2">  1        5 0.77185084E-01 0.13219470E+03</pdfrwt>
<pdfrwt beam="1">  1       -5 0.53648412E-02 0.13219470E+03</pdfrwt>
<totfact> 0.24247760E+02</totfact>
</mgrwt>
</event>
<event>
 8    1  0.1821556E-007  0.1266414E+03  0.7546771E-02  0.1232526E+00
         -5   -1    0    0    0  501 -0.00000000000E+00  0.00000000000E+00  0.92434876340E+03  0.92436071228E+03  0.47000000000E+01 0.  1.
          5   -1    0    0  501    0  0.00000000000E+00 -0.00000000000E+00 -0.18344685196E+02  0.18937198180E+02  0.47000000000E+01 0.  1.
         25    2    1    2    0    0 -0.19020616254E+02 -0.71738567689E+01  0.57763245818E+03  0.59135210238E+03  0.12499921673E+03 0.  0.
         25    2    1    2    0    0  0.19020616254E+02  0.71738567689E+01  0.32837162003E+03  0.35194580808E+03  0.12499873168E+03 0.  0.
          5    1    3    3  502    0  0.26756996754E+02  0.10951956955E+02  0.48881687977E+03  0.48969369425E+03  0.47000000000E+01 0. -1.
         -5    1    3    3    0  502 -0.45777613008E+02 -0.18125813724E+02  0.88815578404E+02  0.10165840813E+03  0.47000000000E+01 0. -1.
          5    1    4    4  503    0  0.55359439254E+02  0.28920864931E+02  0.89116891179E+02  0.10892655432E+03  0.47000000000E+01 0. -1.
         -5    1    4    4    0  503 -0.36338823000E+02 -0.21747008162E+02  0.23925472885E+03  0.24301925376E+03  0.47000000000E+01 0. -1.
<mgrwt>
<rscale>  0 0.12664131E+03</rscale>
<asrwt>0</asrwt>
<pdfrwt beam="2">  1        5 0.28687563E-02 0.12664143E+03</pdfrwt>
<pdfrwt beam="1">  1       -5 0.14225400E+00 0.12664143E+03</pdfrwt>
<totfact> 0.14752255E+02</totfact>
</mgrwt>
</event>
<event>
 8    1  0.1821556E-007  0.1881588E+03  0.7546771E-02  0.1160134E+00
         -5   -1    0    0    0  501 -0.00000000000E+00  0.00000000000E+00  0.12219143313E+03  0.12228179067E+03  0.47000000000E+01 0.  1.
          5   -1    0    0  501    0  0.00000000000E+00 -0.00000000000E+00 -0.29826662235E+03  0.29830365068E+03  0.47000000000E+01 0.  1.
         25    2    1    2    0    0  0.39407818056E+02  0.13500421057E+03 -0.52023336958E+02  0.19521333165E+03  0.12499081674E+03 0.  0.
         25    2    1    2    0    0 -0.39407818056E+02 -0.13500421057E+03 -0.12405185226E+03  0.22537210970E+03  0.12499845114E+03 0.  0.
          5    1    3    3  502    0  0.51438800719E+02  0.15398259150E+03 -0.33780964047E+02  0.16589102519E+03  0.47000000000E+01 0. -1.
         -5    1    3    3    0  502 -0.12030982663E+02 -0.18978380934E+02 -0.18242372911E+02  0.29322306460E+02  0.47000000000E+01 0. -1.
          5    1    4    4  503    0 -0.13106884646E+02 -0.12733097730E+03 -0.36023699469E+02  0.13305925420E+03  0.47000000000E+01 0. -1.
         -5    1    4    4    0  503 -0.26300933410E+02 -0.76732332703E+01 -0.88028152792E+02  0.92312855502E+02  0.47000000000E+01 0. -1.
<mgrwt>
<rscale>  0 0.18815751E+03</rscale>
<asrwt>0</asrwt>
<pdfrwt beam="2">  1        5 0.45896971E-01 0.18815878E+03</pdfrwt>
<pdfrwt beam="1">  1       -5 0.18808481E-01 0.18815878E+03</pdfrwt>
<totfact> 0.93709196E+01</totfact>
</mgrwt>
</event>
<event>
 8    1  0.1821556E-007  0.2346650E+03  0.7546771E-02  0.1123399E+00
          5   -1    0    0  501    0  0.00000000000E+00  0.00000000000E+00  0.11600381090E+03  0.11609898425E+03  0.47000000000E+01 0.  1.
         -5   -1    0    0    0  501 -0.00000000000E+00 -0.00000000000E+00 -0.53140273899E+03  0.53142352320E+03  0.47000000000E+01 0.  1.
         25    2    1    2    0    0  0.28147043437E+02  0.19659789283E+03 -0.31372354353E+03  0.39177814403E+03  0.12499865943E+03 0.  0.
         25    2    1    2    0    0 -0.28147043437E+02 -0.19659789283E+03 -0.10167538456E+03  0.25574436342E+03  0.12499723227E+03 0.  0.
          5    1    3    3  502    0  0.41867233216E+02  0.11984521138E+02 -0.98838142978E+02  0.10810903048E+03  0.47000000000E+01 0. -1.
         -5    1    3    3    0  502 -0.13720189779E+02  0.18461337169E+03 -0.21488540055E+03  0.28366911355E+03  0.47000000000E+01 0. -1.
          5    1    4    4  503    0 -0.83131799383E+01 -0.12030138674E+03  0.76006982602E+01  0.12091895313E+03  0.47000000000E+01 0. -1.
         -5    1    4    4    0  503 -0.19833863499E+02 -0.76296506089E+02 -0.10927608282E+03  0.13482541029E+03  0.47000000000E+01 0. -1.
<mgrwt>
<rscale>  0 0.23466479E+03</rscale>
<asrwt>0</asrwt>
<pdfrwt beam="1">  1        5 0.17855660E-01 0.23466498E+03</pdfrwt>
<pdfrwt beam="2">  1       -5 0.81763186E-01 0.23466498E+03</pdfrwt>
<totfact> 0.30358517E+01</totfact>
</mgrwt>
</event>
<event>
 8    1  0.1821556E-007  0.1467332E+03  0.7546771E-02  0.1204550E+00
          5   -1    0    0  501    0  0.00000000000E+00  0.00000000000E+00  0.11936425070E+04  0.11936517601E+04  0.47000000000E+01 0.  1.
         -5   -1    0    0    0  501 -0.00000000000E+00 -0.00000000000E+00 -0.21473300035E+02  0.21981642668E+02  0.47000000000E+01 0.  1.
         25    2    1    2    0    0 -0.38524742633E+02  0.66495028292E+02  0.33531223155E+03  0.36601220578E+03  0.12499959029E+03 0.  0.
         25    2    1    2    0    0  0.38524742633E+02 -0.66495028292E+02  0.83685697541E+03  0.84962119704E+03  0.12498334519E+03 0.  0.
          5    1    3    3  502    0 -0.61892496951E+02 -0.32342268789E+01  0.22441844678E+03  0.23286663706E+03  0.47000000000E+01 0.  1.
         -5    1    3    3    0  502  0.23367754318E+02  0.69729255171E+02  0.11089378477E+03  0.13314556872E+03  0.47000000000E+01 0.  1.
          5    1    4    4  503    0  0.74166162428E+02 -0.36883785050E+02  0.31681948852E+03  0.32750223137E+03  0.47000000000E+01 0.  1.
         -5    1    4    4    0  503 -0.35641419794E+02 -0.29611243242E+02  0.52003748689E+03  0.52211896566E+03  0.47000000000E+01 0.  1.
<mgrwt>
<rscale>  0 0.14672977E+03</rscale>
<asrwt>0</asrwt>
<pdfrwt beam="1">  1        5 0.18367717E+00 0.14673323E+03</pdfrwt>
<pdfrwt beam="2">  1       -5 0.33433988E-02 0.14673323E+03</pdfrwt>
<totfact> 0.58709291E+01</totfact>
</mgrwt>
</event>
<event>
 8    1  0.1821556E-007  0.1308878E+03  0.7546771E-02  0.1226146E+00
         -5   -1    0    0    0  501 -0.00000000000E+00  0.00000000000E+00  0.14494369437E+03  0.14501987636E+03  0.47000000000E+01 0. -1.
          5   -1    0    0  501    0  0.00000000000E+00 -0.00000000000E+00 -0.16277763403E+03  0.16284547319E+03  0.47000000000E+01 0. -1.
         25    2    1    2    0    0 -0.38817529043E+02 -0.28046552328E+00  0.71746911737E+02  0.14926230707E+03  0.12499895098E+03 0.  0.
         25    2    1    2    0    0  0.38817529043E+02  0.28046552328E+00 -0.89580851389E+02  0.15860304248E+03  0.12499326753E+03 0.  0.
          5    1    3    3  502    0 -0.13550902189E+02 -0.62060652448E+02  0.39861100786E+02  0.75140860311E+02  0.47000000000E+01 0.  1.
         -5    1    3    3    0  502 -0.25266626854E+02  0.61780186925E+02  0.31885810952E+02  0.74121446755E+02  0.47000000000E+01 0.  1.
          5    1    4    4  503    0  0.27704741774E+02  0.61959621208E+02 -0.46505258606E+02  0.82409808003E+02  0.47000000000E+01 0. -1.
         -5    1    4    4    0  503  0.11112787269E+02 -0.61679155685E+02 -0.43075592783E+02  0.76193234480E+02  0.47000000000E+01 0. -1.
<mgrwt>
<rscale>  0 0.13088645E+03</rscale>
<asrwt>0</asrwt>
<pdfrwt beam="2">  1        5 0.25053791E-01 0.13088780E+03</pdfrwt>
<pdfrwt beam="1">  1       -5 0.22310109E-01 0.13088780E+03</pdfrwt>
<totfact> 0.20410395E+02</totfact>
</mgrwt>
</event>
<event>
 8    1  0.1821556E-007  0.1317469E+03  0.7546771E-02  0.1224887E+00
          5   -1    0    0  501    0  0.00000000000E+00  0.00000000000E+00  0.47628231111E+03  0.47630550058E+03  0.47000000000E+01 0.  1.
         -5   -1    0    0    0  501 -0.00000000000E+00 -0.00000000000E+00 -0.38007506779E+02  0.38297004733E+02  0.47000000000E+01 0.  1.
         25    2    1    2    0    0  0.31612712098E+02 -0.27066944023E+02  0.16431023933E+03  0.21060609503E+03  0.12500035797E+03 0.  0.
         25    2    1    2    0    0 -0.31612712098E+02  0.27066944023E+02  0.27396456501E+03  0.30399641028E+03  0.12500100622E+03 0.  0.
          5    1    3    3  502    0 -0.11460731895E+02 -0.38343286497E+02  0.16071527151E+03  0.16568960284E+03  0.47000000000E+01 0. -1.
         -5    1    3    3    0  502  0.43073443993E+02  0.11276342473E+02  0.35949678192E+01  0.44916492190E+02  0.47000000000E+01 0. -1.
          5    1    4    4  503    0 -0.76983366660E+02  0.34795601317E+02  0.19328367229E+03  0.21099251311E+03  0.47000000000E+01 0.  1.
         -5    1    4    4    0  503  0.45370654562E+02 -0.77286572934E+01  0.80680892717E+02  0.93003897168E+02  0.47000000000E+01 0.  1.
<mgrwt>
<rscale>  0 0.13174670E+03</rscale>
<asrwt>0</asrwt>
<pdfrwt beam="1">  1        5 0.73298253E-01 0.13174686E+03</pdfrwt>
<pdfrwt beam="2">  1       -5 0.58713618E-02 0.13174686E+03</pdfrwt>
<totfact> 0.23435236E+02</totfact>
</mgrwt>
</event>
<event>
 8    1  0.1821556E-007  0.1374881E+03  0.7546771E-02  0.1216759E+00
         -5   -1    0    0    0  501 -0.00000000000E+00  0.00000000000E+00  0.71038429860E+03  0.71039984635E+03  0.47000000000E+01 0. -1.
          5   -1    0    0  501    0  0.00000000000E+00 -0.00000000000E+00 -0.27267920491E+02  0.27670010623E+02  0.47000000000E+01 0. -1.
         25    2    1    2    0    0 -0.48881233212E+02 -0.29831254601E+02  0.40763843723E+03  0.43020002394E+03  0.12499474539E+03 0.  0.
         25    2    1    2    0    0  0.48881233212E+02  0.29831254601E+02  0.27547794087E+03  0.30786983303E+03  0.12496583322E+03 0.  0.
          5    1    4    4  502    0 -0.23963890049E+02  0.36191598441E+02  0.33471269981E+02  0.55013777712E+02  0.47000000000E+01 0. -1.
         -5    1    4    4    0  502  0.72845123261E+02 -0.63603438400E+01  0.24200667089E+03  0.25285605532E+03  0.47000000000E+01 0. -1.
          5    1    3    3  503    0 -0.91175130999E+02 -0.22249878915E+02  0.26578562458E+03  0.28190787478E+03  0.47000000000E+01 0.  1.
         -5    1    3    3    0  503  0.42293897787E+02 -0.75813756864E+01  0.14185281265E+03  0.14829214916E+03  0.47000000000E+01 0.  1.
<mgrwt>
<rscale>  0 0.13748148E+03</rscale>
<asrwt>0</asrwt>
<pdfrwt beam="2">  1        5 0.42271901E-02 0.13748805E+03</pdfrwt>
<pdfrwt beam="1">  1       -5 0.10932203E+00 0.13748805E+03</pdfrwt>
<totfact> 0.15886234E+02</totfact>
</mgrwt>
</event>
<event>
 8    1  0.1821556E-007  0.1670237E+03  0.7546771E-02  0.1180989E+00
          5   -1    0    0  501    0  0.00000000000E+00  0.00000000000E+00  0.11120340966E+04  0.11120440288E+04  0.47000000000E+01 0. -1.
         -5   -1    0    0    0  501 -0.00000000000E+00 -0.00000000000E+00 -0.37995585792E+02  0.38285173888E+02  0.47000000000E+01 0. -1.
         25    2    1    2    0    0  0.54110185796E+02  0.96651926260E+02  0.20042580982E+03  0.26089339428E+03  0.12500140351E+03 0.  0.
         25    2    1    2    0    0 -0.54110185796E+02 -0.96651926260E+02  0.87361270098E+03  0.88943580841E+03  0.12500959527E+03 0.  0.
          5    1    3    3  502    0  0.52503208561E+02  0.46073961129E+02  0.19800132381E+03  0.21001431149E+03  0.47000000000E+01 0. -1.
         -5    1    3    3    0  502  0.16069772344E+01  0.50577965131E+02  0.24244860177E+01  0.50879082786E+02  0.47000000000E+01 0. -1.
          5    1    4    4  503    0  0.20706130506E+02 -0.65319114915E+02  0.21188985548E+03  0.22274364518E+03  0.47000000000E+01 0.  1.
         -5    1    4    4    0  503 -0.74816316301E+02 -0.31332811346E+02  0.66172284551E+03  0.66669216323E+03  0.47000000000E+01 0.  1.
<mgrwt>
<rscale>  0 0.16702214E+03</rscale>
<asrwt>0</asrwt>
<pdfrwt beam="1">  1        5 0.17110519E+00 0.16702367E+03</pdfrwt>
<pdfrwt beam="2">  1       -5 0.58685156E-02 0.16702367E+03</pdfrwt>
<totfact> 0.29547355E+01</totfact>
</mgrwt>
</event>
<event>
 8    1  0.1821556E-007  0.1413803E+03  0.7546771E-02  0.1211490E+00
         -5   -1    0    0    0  501 -0.00000000000E+00  0.00000000000E+00  0.55378326561E+02  0.55577414952E+02  0.47000000000E+01 0. -1.
          5   -1    0    0  501    0  0.00000000000E+00 -0.00000000000E+00 -0.44476343337E+03  0.44478826610E+03  0.47000000000E+01 0. -1.
         25    2    1    2    0    0 -0.53429445926E+02  0.38777109235E+02 -0.85507896080E+02  0.16520935941E+03  0.12499664897E+03 0.  0.
         25    2    1    2    0    0  0.53429445926E+02 -0.38777109235E+02 -0.30387721073E+03  0.33515632164E+03  0.12502012175E+03 0.  0.
          5    1    4    4  502    0  0.71775760160E+02  0.12755757541E+02 -0.24027735412E+03  0.25113694671E+03  0.47000000000E+01 0. -1.
         -5    1    4    4    0  502 -0.18346314234E+02 -0.51532866776E+02 -0.63599856608E+02  0.84019374936E+02  0.47000000000E+01 0. -1.
          5    1    3    3  503    0  0.28069734585E+02  0.31257441668E+02  0.56056919659E+01  0.42643304770E+02  0.47000000000E+01 0. -1.
         -5    1    3    3    0  503 -0.81499180511E+02  0.75196675671E+01 -0.91113588046E+02  0.12256605464E+03  0.47000000000E+01 0. -1.
<mgrwt>
<rscale>  0 0.14137515E+03</rscale>
<asrwt>0</asrwt>
<pdfrwt beam="2">  1        5 0.68442366E-01 0.14138034E+03</pdfrwt>
<pdfrwt beam="1">  1       -5 0.85369675E-02 0.14138034E+03</pdfrwt>
<totfact> 0.14824821E+02</totfact>
</mgrwt>
</event>
<event>
 8    1  0.1821556E-007  0.1417084E+03  0.7546771E-02  0.1211054E+00
          5   -1    0    0  501    0  0.00000000000E+00  0.00000000000E+00  0.70536584949E+03  0.70538150786E+03  0.47000000000E+01 0.  1.
         -5   -1    0    0    0  501 -0.00000000000E+00 -0.00000000000E+00 -0.31877584981E+02  0.32222203901E+02  0.47000000000E+01 0.  1.
         25    2    1    2    0    0 -0.28005219661E+02  0.60586672257E+02  0.21319199073E+03  0.25599238143E+03  0.12500494892E+03 0.  0.
         25    2    1    2    0    0  0.28005219661E+02 -0.60586672257E+02  0.46029627378E+03  0.48161133033E+03  0.12498710599E+03 0.  0.
          5    1    4    4  502    0 -0.10346380140E+02 -0.12189735843E+01 -0.38737090325E+01  0.12067688273E+02  0.47000000000E+01 0. -1.
         -5    1    4    4    0  502  0.38351599801E+02 -0.59367698673E+02  0.46416998281E+03  0.46954364206E+03  0.47000000000E+01 0. -1.
          5    1    3    3  503    0  0.46274142434E+02  0.82952203206E+01  0.47627721997E+02  0.67086487766E+02  0.47000000000E+01 0.  1.
         -5    1    3    3    0  503 -0.74279362095E+02  0.52291451936E+02  0.16556426873E+03  0.18890589366E+03  0.47000000000E+01 0.  1.
<mgrwt>
<rscale>  0 0.14170448E+03</rscale>
<asrwt>0</asrwt>
<pdfrwt beam="1">  1        5 0.10854552E+00 0.14170841E+03</pdfrwt>
<pdfrwt beam="2">  1       -5 0.49319583E-02 0.14170841E+03</pdfrwt>
<totfact> 0.12654554E+02</totfact>
</mgrwt>
</event>
<event>
 8    1  0.1821556E-007  0.1366402E+03  0.7546771E-02  0.1217926E+00
         -5   -1    0    0    0  501 -0.00000000000E+00  0.00000000000E+00  0.22370006405E+04  0.22370055779E+04  0.47000000000E+01 0. -1.
          5   -1    0    0  501    0  0.00000000000E+00 -0.00000000000E+00 -0.92911761548E+01  0.10412298226E+02  0.47000000000E+01 0. -1.
         25    2    1    2    0    0  0.51208114339E+02 -0.20580968200E+02  0.15538714763E+04  0.15598676554E+04  0.12499876212E+03 0.  0.
         25    2    1    2    0    0 -0.51208114339E+02  0.20580968200E+02  0.67383798811E+03  0.68755022072E+03  0.12498729761E+03 0.  0.
          5    1    3    3  502    0  0.20030317711E+02 -0.30196470360E+02  0.11600901046E+03  0.12162738573E+03  0.47000000000E+01 0.  1.
         -5    1    3    3    0  502  0.31177796629E+02  0.96155021600E+01  0.14378624658E+04  0.14382402697E+04  0.47000000000E+01 0.  1.
          5    1    4    4  503    0  0.34293668158E+01 -0.12991868759E+02  0.52769875823E+03  0.52789072604E+03  0.47000000000E+01 0.  1.
         -5    1    4    4    0  503 -0.54637481155E+02  0.33572836959E+02  0.14613922988E+03  0.15965949467E+03  0.47000000000E+01 0.  1.
<mgrwt>
<rscale>  0 0.13663755E+03</rscale>
<asrwt>0</asrwt>
<pdfrwt beam="2">  1        5 0.15160314E-02 0.13664018E+03</pdfrwt>
<pdfrwt beam="1">  1       -5 0.34424063E+00 0.13664018E+03</pdfrwt>
<totfact> 0.18683340E+01</totfact>
</mgrwt>
</event>
<event>
 8    1  0.1821556E-007  0.1657438E+03  0.7546771E-02  0.1182361E+00
          5   -1    0    0  501    0  0.00000000000E+00  0.00000000000E+00  0.21145147359E+02  0.21661192415E+02  0.47000000000E+01 0. -1.
         -5   -1    0    0    0  501 -0.00000000000E+00 -0.00000000000E+00 -0.13273034047E+04  0.13273117261E+04  0.47000000000E+01 0. -1.
         25    2    1    2    0    0 -0.30888502179E+02  0.10436343308E+03 -0.77633130538E+03  0.79382643111E+03  0.12499712512E+03 0.  0.
         25    2    1    2    0    0  0.30888502179E+02 -0.10436343308E+03 -0.52982695199E+03  0.55514648739E+03  0.12500079070E+03 0.  0.
          5    1    3    3  502    0 -0.37840607011E+02 -0.17114053331E+02 -0.25951290750E+03  0.26285707432E+03  0.47000000000E+01 0. -1.
         -5    1    3    3    0  502  0.69521048315E+01  0.12147748641E+03 -0.51681839788E+03  0.53096935680E+03  0.47000000000E+01 0. -1.
          5    1    4    4  503    0  0.31983297909E+02 -0.13248253910E+03 -0.45764502934E+03  0.47753075021E+03  0.47000000000E+01 0.  1.
         -5    1    4    4    0  503 -0.10947957292E+01  0.28119106022E+02 -0.72181922647E+02  0.77615737181E+02  0.47000000000E+01 0.  1.
<mgrwt>
<rscale>  0 0.16574316E+03</rscale>
<asrwt>0</asrwt>
<pdfrwt beam="1">  1        5 0.32934365E-02 0.16574385E+03</pdfrwt>
<pdfrwt beam="2">  1       -5 0.20424080E+00 0.16574385E+03</pdfrwt>
<totfact> 0.44897460E+01</totfact>
</mgrwt>
</event>
<event>
 8    1  0.1821556E-007  0.1272954E+03  0.7546771E-02  0.1231531E+00
          5   -1    0    0  501    0  0.00000000000E+00  0.00000000000E+00  0.14685128753E+02  0.15418917164E+02  0.47000000000E+01 0. -1.
         -5   -1    0    0    0  501 -0.00000000000E+00 -0.00000000000E+00 -0.12748677935E+04  0.12748764571E+04  0.47000000000E+01 0. -1.
         25    2    1    2    0    0  0.16415771707E+02 -0.17594381821E+02 -0.88506116251E+03  0.89416853913E+03  0.12500030064E+03 0.  0.
         25    2    1    2    0    0 -0.16415771707E+02  0.17594381821E+02 -0.37512150227E+03  0.39612683518E+03  0.12498515212E+03 0.  0.
          5    1    3    3  502    0 -0.15428728789E+01  0.52824041975E+02 -0.30887563861E+03  0.31339912252E+03  0.47000000000E+01 0. -1.
         -5    1    3    3    0  502  0.17958644586E+02 -0.70418423796E+02 -0.57618552389E+03  0.58076941661E+03  0.47000000000E+01 0. -1.
          5    1    4    4  503    0 -0.50254053094E+01  0.70454149121E+02 -0.24794276219E+03  0.25785023783E+03  0.47000000000E+01 0.  1.
         -5    1    4    4    0  503 -0.11390366397E+02 -0.52859767300E+02 -0.12717874008E+03  0.13827659735E+03  0.47000000000E+01 0.  1.
<mgrwt>
<rscale>  0 0.12729167E+03</rscale>
<asrwt>0</asrwt>
<pdfrwt beam="1">  1        5 0.23163633E-02 0.12729538E+03</pdfrwt>
<pdfrwt beam="2">  1       -5 0.19619053E+00 0.12729538E+03</pdfrwt>
<totfact> 0.83245875E+01</totfact>
</mgrwt>
</event>
<event>
 8    1  0.1821556E-007  0.1886123E+03  0.7546771E-02  0.1159722E+00
          5   -1    0    0  501    0  0.00000000000E+00  0.00000000000E+00  0.57977156761E+03  0.57979061790E+03  0.47000000000E+01 0.  1.
         -5   -1    0    0    0  501 -0.00000000000E+00 -0.00000000000E+00 -0.61885072647E+02  0.62063292022E+02  0.47000000000E+01 0.  1.
         25    2    1    2    0    0 -0.13107238981E+03 -0.52612276657E+02  0.22633888118E+03  0.29461533869E+03  0.12498354145E+03 0.  0.
         25    2    1    2    0    0  0.13107238981E+03  0.52612276657E+02  0.29154761378E+03  0.34723857123E+03  0.12500636472E+03 0.  0.
          5    1    4    4  502    0  0.14984093016E+03  0.66616047877E+02  0.26356343329E+03  0.31044770180E+03  0.47000000000E+01 0. -1.
         -5    1    4    4    0  502 -0.18768540352E+02 -0.14003771220E+02  0.27984180492E+02  0.36790869426E+02  0.47000000000E+01 0. -1.
          5    1    3    3  503    0 -0.13773089766E+03 -0.55737838312E+02  0.12881787367E+03  0.19670445183E+03  0.47000000000E+01 0. -1.
         -5    1    3    3    0  503  0.66585078490E+01  0.31255616552E+01  0.97521007504E+02  0.97910886867E+02  0.47000000000E+01 0. -1.
<mgrwt>
<rscale>  0 0.18860856E+03</rscale>
<asrwt>0</asrwt>
<pdfrwt beam="1">  1        5 0.89210803E-01 0.18861234E+03</pdfrwt>
<pdfrwt beam="2">  1       -5 0.95359547E-02 0.18861234E+03</pdfrwt>
<totfact> 0.72308271E+01</totfact>
</mgrwt>
</event>
<event>
 8    1  0.1821556E-007  0.1766203E+03  0.7546771E-02  0.1171116E+00
         -5   -1    0    0    0  501 -0.00000000000E+00  0.00000000000E+00  0.13066023599E+03  0.13074474088E+03  0.47000000000E+01 0. -1.
          5   -1    0    0  501    0  0.00000000000E+00 -0.00000000000E+00 -0.25274077505E+03  0.25278447217E+03  0.47000000000E+01 0. -1.
         25    2    1    2    0    0 -0.14961457310E+02 -0.12385329489E+03 -0.15614987932E+02  0.17730203921E+03  0.12501480473E+03 0.  0.
         25    2    1    2    0    0  0.14961457310E+02  0.12385329489E+03 -0.10646555113E+03  0.20622717384E+03  0.12502499667E+03 0.  0.
          5    1    4    4  502    0  0.49804644002E+01  0.65302658443E+02  0.18130842205E+02  0.68117983415E+02  0.47000000000E+01 0.  1.
         -5    1    4    4    0  502  0.99809929101E+01  0.58550636446E+02 -0.12459639333E+03  0.13810919042E+03  0.47000000000E+01 0.  1.
          5    1    3    3  503    0 -0.64063553004E+02 -0.96452896356E+02  0.79399751934E+01  0.11615693369E+03  0.47000000000E+01 0. -1.
         -5    1    3    3    0  503  0.49102095693E+02 -0.27400398534E+02 -0.23554963126E+02  0.61145105521E+02  0.47000000000E+01 0. -1.
<mgrwt>
<rscale>  0 0.17661851E+03</rscale>
<asrwt>0</asrwt>
<pdfrwt beam="2">  1        5 0.38893058E-01 0.17662031E+03</pdfrwt>
<pdfrwt beam="1">  1       -5 0.20111437E-01 0.17662031E+03</pdfrwt>
<totfact> 0.11442333E+02</totfact>
</mgrwt>
</event>
<event>
 8    1  0.1821556E-007  0.1302112E+03  0.7546771E-02  0.1227150E+00
         -5   -1    0    0    0  501 -0.00000000000E+00  0.00000000000E+00  0.71331307780E+03  0.71332856171E+03  0.47000000000E+01 0.  1.
          5   -1    0    0  501    0  0.00000000000E+00 -0.00000000000E+00 -0.31300120106E+02  0.31651027134E+02  0.47000000000E+01 0.  1.
         25    2    1    2    0    0  0.36332403295E+02  0.30598879229E+01  0.52548289015E+03  0.54137059163E+03  0.12498177149E+03 0.  0.
         25    2    1    2    0    0 -0.36332403295E+02 -0.30598879229E+01  0.15653006754E+03  0.20360899721E+03  0.12500222101E+03 0.  0.
          5    1    3    3  502    0 -0.15357935492E+02 -0.17658342447E+02  0.15782886778E+02  0.28615952816E+02  0.47000000000E+01 0.  1.
         -5    1    3    3    0  502  0.51690338787E+02  0.20718230369E+02  0.50970000337E+03  0.51275463882E+03  0.47000000000E+01 0.  1.
          5    1    4    4  503    0 -0.28384315455E+02  0.59544557503E+02  0.91221199610E+02  0.11267040849E+03  0.47000000000E+01 0.  1.
         -5    1    4    4    0  503 -0.79480878396E+01 -0.62604445426E+02  0.65308867933E+02  0.90938588718E+02  0.47000000000E+01 0.  1.
<mgrwt>
<rscale>  0 0.13020631E+03</rscale>
<asrwt>0</asrwt>
<pdfrwt beam="2">  1        5 0.48435868E-02 0.13021122E+03</pdfrwt>
<pdfrwt beam="1">  1       -5 0.10976866E+00 0.13021122E+03</pdfrwt>
<totfact> 0.12339153E+02</totfact>
</mgrwt>
</event>
<event>
 8    1  0.1821556E-007  0.1387769E+03  0.7546771E-02  0.1214990E+00
         -5   -1    0    0    0  501 -0.00000000000E+00  0.00000000000E+00  0.23216312621E+02  0.23687278690E+02  0.47000000000E+01 0.  1.
          5   -1    0    0  501    0  0.00000000000E+00 -0.00000000000E+00 -0.83542947313E+03  0.83544269377E+03  0.47000000000E+01 0.  1.
         25    2    1    2    0    0  0.92433151652E+01  0.59529144023E+02 -0.34899475591E+03  0.37557471846E+03  0.12501948501E+03 0.  0.
         25    2    1    2    0    0 -0.92433151652E+01 -0.59529144023E+02 -0.46321840460E+03  0.48355525400E+03  0.12500094178E+03 0.  0.
          5    1    3    3  502    0  0.66220701195E+02  0.35094216469E+02 -0.21807722581E+03  0.23064377666E+03  0.47000000000E+01 0. -1.
         -5    1    3    3    0  502 -0.56977386030E+02  0.24434927554E+02 -0.13091753010E+03  0.14493094180E+03  0.47000000000E+01 0. -1.
          5    1    4    4  503    0  0.30865189020E+01  0.29843184316E+02 -0.25206108719E+03  0.25388387882E+03  0.47000000000E+01 0. -1.
         -5    1    4    4    0  503 -0.12329834067E+02 -0.89372328340E+02 -0.21115731741E+03  0.22967137518E+03  0.47000000000E+01 0. -1.
<mgrwt>
<rscale>  0 0.13877273E+03</rscale>
<asrwt>0</asrwt>
<pdfrwt beam="2">  1        5 0.12856483E+00 0.13877691E+03</pdfrwt>
<pdfrwt beam="1">  1       -5 0.36089862E-02 0.13877691E+03</pdfrwt>
<totfact> 0.13680054E+02</totfact>
</mgrwt>
</event>
<event>
 8    1  0.1821556E-007  0.1462797E+03  0.7546771E-02  0.1205124E+00
         -5   -1    0    0    0  501 -0.00000000000E+00  0.00000000000E+00  0.12912015622E+04  0.12912101162E+04  0.47000000000E+01 0. -1.
          5   -1    0    0  501    0  0.00000000000E+00 -0.00000000000E+00 -0.21014548264E+02  0.21533723290E+02  0.47000000000E+01 0. -1.
         25    2    1    2    0    0 -0.70595956948E+02  0.28081215743E+02  0.94395007985E+03  0.95521699299E+03  0.12500162650E+03 0.  0.
         25    2    1    2    0    0  0.70595956948E+02 -0.28081215743E+02  0.32623693407E+03  0.35752684651E+03  0.12499025965E+03 0.  0.
          5    1    4    4  502    0  0.71813822743E+00 -0.21005666737E+00 -0.10991090017E+02  0.11977224473E+02  0.47000000000E+01 0. -1.
         -5    1    4    4    0  502  0.69877818721E+02 -0.27871159076E+02  0.33722802409E+03  0.34554962204E+03  0.47000000000E+01 0. -1.
          5    1    3    3  503    0  0.27406353669E+02  0.29546879464E+01  0.69398917158E+02  0.74820706392E+02  0.47000000000E+01 0.  1.
         -5    1    3    3    0  503 -0.98002310618E+02  0.25126527797E+02  0.87455116270E+03  0.88039628660E+03  0.47000000000E+01 0.  1.
<mgrwt>
<rscale>  0 0.14627727E+03</rscale>
<asrwt>0</asrwt>
<pdfrwt beam="2">  1        5 0.32736023E-02 0.14627970E+03</pdfrwt>
<pdfrwt beam="1">  1       -5 0.19868697E+00 0.14627970E+03</pdfrwt>
<totfact> 0.47805467E+01</totfact>
</mgrwt>
</event>
<event>
 8    1  0.1821556E-007  0.1302107E+03  0.7546771E-02  0.1227146E+00
         -5   -1    0    0    0  501 -0.00000000000E+00  0.00000000000E+00  0.72209352456E+02  0.72362148822E+02  0.47000000000E+01 0.  1.
          5   -1    0    0  501    0  0.00000000000E+00 -0.00000000000E+00 -0.23659301125E+03  0.23663969019E+03  0.47000000000E+01 0.  1.
         25    2    1    2    0    0  0.14276803222E+01  0.36366149954E+02 -0.67200576832E+02  0.14652899876E+03  0.12502117747E+03 0.  0.
         25    2    1    2    0    0 -0.14276803222E+01 -0.36366149954E+02 -0.97183081964E+02  0.16247284026E+03  0.12501334836E+03 0.  0.
          5    1    4    4  502    0 -0.26783769602E+02  0.23230584583E+02 -0.90357614920E+02  0.97178284345E+02  0.47000000000E+01 0.  1.
         -5    1    4    4    0  502  0.25356089280E+02 -0.59596734538E+02 -0.68254670440E+01  0.65294555910E+02  0.47000000000E+01 0.  1.
          5    1    3    3  503    0  0.17166957026E+02  0.46416263800E+02 -0.98182474025E+02  0.11005027108E+03  0.47000000000E+01 0.  1.
         -5    1    3    3    0  503 -0.15739276703E+02 -0.10050113845E+02  0.30981897193E+02  0.36478727680E+02  0.47000000000E+01 0.  1.
<mgrwt>
<rscale>  0 0.13020883E+03</rscale>
<asrwt>0</asrwt>
<pdfrwt beam="2">  1        5 0.36414269E-01 0.13021071E+03</pdfrwt>
<pdfrwt beam="1">  1       -5 0.11124476E-01 0.13021071E+03</pdfrwt>
<totfact> 0.34684904E+02</totfact>
</mgrwt>
</event>
<event>
 8    1  0.1821556E-007  0.1358630E+03  0.7546771E-02  0.1219008E+00
         -5   -1    0    0    0  501 -0.00000000000E+00  0.00000000000E+00  0.44126877496E+03  0.44129380435E+03  0.47000000000E+01 0.  1.
          5   -1    0    0  501    0  0.00000000000E+00 -0.00000000000E+00 -0.44651048117E+02  0.44897729318E+02  0.47000000000E+01 0.  1.
         25    2    1    2    0    0  0.52911338567E+02  0.58007370826E+01  0.26090858565E+03  0.29416328346E+03  0.12500195588E+03 0.  0.
         25    2    1    2    0    0 -0.52911338567E+02 -0.58007370826E+01  0.13570914120E+03  0.19202825021E+03  0.12499847828E+03 0.  0.
          5    1    3    3  502    0  0.48920115106E+02 -0.28356976463E+02  0.37357345688E+02  0.67933475201E+02  0.47000000000E+01 0.  1.
         -5    1    3    3    0  502  0.39912234608E+01  0.34157713545E+02  0.22355123996E+03  0.22622980826E+03  0.47000000000E+01 0.  1.
          5    1    4    4  503    0  0.88189214506E+01 -0.13168135012E+02 -0.19026544000E+02  0.25204613305E+02  0.47000000000E+01 0.  1.
         -5    1    4    4    0  503 -0.61730260018E+02  0.73673979294E+01  0.15473568520E+03  0.16682363690E+03  0.47000000000E+01 0.  1.
<mgrwt>
<rscale>  0 0.13586217E+03</rscale>
<asrwt>0</asrwt>
<pdfrwt beam="2">  1        5 0.68902929E-02 0.13586297E+03</pdfrwt>
<pdfrwt beam="1">  1       -5 0.67908404E-01 0.13586297E+03</pdfrwt>
<totfact> 0.21478947E+02</totfact>
</mgrwt>
</event>
<event>
 8    1  0.1821556E-007  0.1273579E+03  0.7546771E-02  0.1231431E+00
          5   -1    0    0  501    0  0.00000000000E+00  0.00000000000E+00  0.24296645278E+02  0.24747059861E+02  0.47000000000E+01 0. -1.
         -5   -1    0    0    0  501 -0.00000000000E+00 -0.00000000000E+00 -0.68832127974E+03  0.68833732583E+03  0.47000000000E+01 0. -1.
         25    2    1    2    0    0 -0.57467019286E+01  0.23669392769E+02 -0.40305464669E+03  0.42269737653E+03  0.12500703649E+03 0.  0.
         25    2    1    2    0    0  0.57467019286E+01 -0.23669392769E+02 -0.26096998777E+03  0.29038700916E+03  0.12500406329E+03 0.  0.
          5    1    3    3  502    0  0.19287951190E+02  0.70910484072E+02 -0.23896477623E+03  0.25005314654E+03  0.47000000000E+01 0.  1.
         -5    1    3    3    0  502 -0.25034653119E+02 -0.47241091303E+02 -0.16408987046E+03  0.17264423000E+03  0.47000000000E+01 0.  1.
          5    1    4    4  503    0  0.36101200472E+02 -0.35909695297E+02 -0.25055545297E+03  0.25572040963E+03  0.47000000000E+01 0. -1.
         -5    1    4    4    0  503 -0.30354498544E+02  0.12240302528E+02 -0.10414534800E+02  0.34666599529E+02  0.47000000000E+01 0. -1.
<mgrwt>
<rscale>  0 0.12735713E+03</rscale>
<asrwt>0</asrwt>
<pdfrwt beam="1">  1        5 0.37738275E-02 0.12735786E+03</pdfrwt>
<pdfrwt beam="2">  1       -5 0.10593145E+00 0.12735786E+03</pdfrwt>
<totfact> 0.20154745E+02</totfact>
</mgrwt>
</event>
<event>
 8    1  0.1821556E-007  0.1408017E+03  0.7546771E-02  0.1212256E+00
          5   -1    0    0  501    0  0.00000000000E+00  0.00000000000E+00  0.66109987791E+02  0.66276847283E+02  0.47000000000E+01 0. -1.
         -5   -1    0    0    0  501 -0.00000000000E+00 -0.00000000000E+00 -0.46553316040E+03  0.46555688528E+03  0.47000000000E+01 0. -1.
         25    2    1    2    0    0 -0.61558667306E+02 -0.20230446037E+02 -0.35857398581E+03  0.38522617126E+03  0.12500063702E+03 0.  0.
         25    2    1    2    0    0  0.61558667306E+02  0.20230446037E+02 -0.40849186792E+02  0.14660756130E+03  0.12500552188E+03 0.  0.
          5    1    4    4  502    0  0.68806586331E+02 -0.30227429950E+02  0.81558553032E+01  0.75740688006E+02  0.47000000000E+01 0. -1.
         -5    1    4    4    0  502 -0.72479190247E+01  0.50457875987E+02 -0.49005042096E+02  0.70866873292E+02  0.47000000000E+01 0. -1.
          5    1    3    3  503    0 -0.23501568375E+02 -0.66236911047E+02 -0.11905141493E+03  0.13832925034E+03  0.47000000000E+01 0. -1.
         -5    1    3    3    0  503 -0.38057098931E+02  0.46006465009E+02 -0.23952257088E+03  0.24689692093E+03  0.47000000000E+01 0. -1.
<mgrwt>
<rscale>  0 0.14080062E+03</rscale>
<asrwt>0</asrwt>
<pdfrwt beam="1">  1        5 0.10185428E-01 0.14080171E+03</pdfrwt>
<pdfrwt beam="2">  1       -5 0.71635145E-01 0.14080171E+03</pdfrwt>
<totfact> 0.98326108E+01</totfact>
</mgrwt>
</event>
<event>
 8    1  0.1821556E-007  0.1469394E+03  0.7546771E-02  0.1204287E+00
          5   -1    0    0  501    0  0.00000000000E+00  0.00000000000E+00  0.35142402753E+03  0.35145545539E+03  0.47000000000E+01 0.  1.
         -5   -1    0    0    0  501 -0.00000000000E+00 -0.00000000000E+00 -0.64296010190E+02  0.64467564918E+02  0.47000000000E+01 0.  1.
         25    2    1    2    0    0  0.45846097763E+02  0.62139996924E+02  0.98838252453E+02  0.17708810537E+03  0.12501181152E+03 0.  0.
         25    2    1    2    0    0 -0.45846097763E+02 -0.62139996924E+02  0.18828976489E+03  0.23883491494E+03  0.12500334849E+03 0.  0.
          5    1    3    3  502    0  0.88715698867E+02  0.48123573593E+02  0.75196598390E+02  0.12594829086E+03  0.47000000000E+01 0. -1.
         -5    1    3    3    0  502 -0.42869601103E+02  0.14016423331E+02  0.23641654063E+02  0.51139814515E+02  0.47000000000E+01 0. -1.
          5    1    4    4  503    0 -0.71642689974E+02  0.61399187561E+01  0.75178973970E+02  0.10413616930E+03  0.47000000000E+01 0. -1.
         -5    1    4    4    0  503  0.25796592210E+02 -0.68279915680E+02  0.11311079092E+03  0.13469874564E+03  0.47000000000E+01 0. -1.
<mgrwt>
<rscale>  0 0.14693763E+03</rscale>
<asrwt>0</asrwt>
<pdfrwt beam="1">  1        5 0.54080848E-01 0.14693943E+03</pdfrwt>
<pdfrwt beam="2">  1       -5 0.99073081E-02 0.14693943E+03</pdfrwt>
<totfact> 0.19452344E+02</totfact>
</mgrwt>
</event>
<event>
 8    1  0.1821556E-007  0.1523461E+03  0.7546771E-02  0.1197632E+00
         -5   -1    0    0    0  501 -0.00000000000E+00  0.00000000000E+00  0.17778430373E+03  0.17784641872E+03  0.47000000000E+01 0. -1.
          5   -1    0    0  501    0  0.00000000000E+00 -0.00000000000E+00 -0.22601607560E+03  0.22606493852E+03  0.47000000000E+01 0. -1.
         25    2    1    2    0    0 -0.25230844279E+02 -0.83329137681E+02  0.10721121334E+03  0.18628893000E+03  0.12501592092E+03 0.  0.
         25    2    1    2    0    0  0.25230844279E+02  0.83329137681E+02 -0.15544298521E+03  0.21762242725E+03  0.12496662955E+03 0.  0.
          5    1    4    4  502    0  0.38023347592E+02  0.11201270628E+03 -0.10626168803E+03  0.15907940682E+03  0.47000000000E+01 0. -1.
         -5    1    4    4    0  502 -0.12792503313E+02 -0.28683568600E+02 -0.49181297183E+02  0.58543020431E+02  0.47000000000E+01 0. -1.
          5    1    3    3  503    0  0.42845337096E+02 -0.13178546491E+02  0.59467923220E+01  0.45462636719E+02  0.47000000000E+01 0. -1.
         -5    1    3    3    0  503 -0.68076181375E+02 -0.70150591191E+02  0.10126442102E+03  0.14082629328E+03  0.47000000000E+01 0. -1.
<mgrwt>
<rscale>  0 0.15233594E+03</rscale>
<asrwt>0</asrwt>
<pdfrwt beam="2">  1        5 0.34780241E-01 0.15234606E+03</pdfrwt>
<pdfrwt beam="1">  1       -5 0.27359968E-01 0.15234606E+03</pdfrwt>
<totfact> 0.76309550E+01</totfact>
</mgrwt>
</event>
<event>
 8    1  0.1821556E-007  0.1587162E+03  0.7546771E-02  0.1190154E+00
         -5   -1    0    0    0  501 -0.00000000000E+00  0.00000000000E+00  0.21485362877E+03  0.21490502971E+03  0.47000000000E+01 0. -1.
          5   -1    0    0  501    0  0.00000000000E+00 -0.00000000000E+00 -0.12280849971E+03  0.12289840358E+03  0.47000000000E+01 0. -1.
         25    2    1    2    0    0  0.44921076336E+02 -0.86881928988E+02  0.82313156605E+02  0.17878914080E+03  0.12499491364E+03 0.  0.
         25    2    1    2    0    0 -0.44921076336E+02  0.86881928988E+02  0.97319724490E+01  0.15901429248E+03  0.12499784495E+03 0.  0.
          5    1    4    4  502    0 -0.82099619522E+02  0.88760209318E+02  0.40668867922E+01  0.12106755078E+03  0.47000000000E+01 0. -1.
         -5    1    4    4    0  502  0.37178543186E+02 -0.18782803306E+01  0.56650856568E+01  0.37946741703E+02  0.47000000000E+01 0. -1.
          5    1    3    3  503    0  0.22777182096E+02 -0.48513606639E+02 -0.27400630199E+02  0.60375943791E+02  0.47000000000E+01 0.  1.
         -5    1    3    3    0  503  0.22143894240E+02 -0.38368322349E+02  0.10971378680E+03  0.11841319701E+03  0.47000000000E+01 0.  1.
<mgrwt>
<rscale>  0 0.15871563E+03</rscale>
<asrwt>0</asrwt>
<pdfrwt beam="2">  1        5 0.18904485E-01 0.15871621E+03</pdfrwt>
<pdfrwt beam="1">  1       -5 0.33065273E-01 0.15871621E+03</pdfrwt>
<totfact> 0.17260946E+02</totfact>
</mgrwt>
</event>
<event>
 8    1  0.1821556E-007  0.1326656E+03  0.7546771E-02  0.1223570E+00
          5   -1    0    0  501    0  0.00000000000E+00  0.00000000000E+00  0.17069987969E+02  0.17705210794E+02  0.47000000000E+01 0. -1.
         -5   -1    0    0    0  501 -0.00000000000E+00 -0.00000000000E+00 -0.10439984834E+04  0.10440090628E+04  0.47000000000E+01 0. -1.
         25    2    1    2    0    0 -0.13855054679E+01 -0.44413179851E+02 -0.60757487186E+03  0.62189017851E+03  0.12500287615E+03 0.  0.
         25    2    1    2    0    0  0.13855054679E+01  0.44413179851E+02 -0.41935362353E+03  0.43982409510E+03  0.12495328286E+03 0.  0.
          5    1    4    4  502    0 -0.67870721727E+01  0.20807554870E+02 -0.41302273968E+03  0.41362893054E+03  0.47000000000E+01 0.  1.
         -5    1    4    4    0  502  0.81725776405E+01  0.23605624982E+02 -0.63308838486E+01  0.26195164561E+02  0.47000000000E+01 0.  1.
          5    1    3    3  503    0 -0.11731480259E+02 -0.75410537472E+02 -0.55183185912E+03  0.55710400064E+03  0.47000000000E+01 0.  1.
         -5    1    3    3    0  503  0.10345974791E+02  0.30997357621E+02 -0.55743012736E+02  0.64786177868E+02  0.47000000000E+01 0.  1.
<mgrwt>
<rscale>  0 0.13265395E+03</rscale>
<asrwt>0</asrwt>
<pdfrwt beam="1">  1        5 0.26758299E-02 0.13266563E+03</pdfrwt>
<pdfrwt beam="2">  1       -5 0.16066478E+00 0.13266563E+03</pdfrwt>
<totfact> 0.12013343E+02</totfact>
</mgrwt>
</event>
<event>
 8    1  0.1821556E-007  0.1690266E+03  0.7546771E-02  0.1178868E+00
         -5   -1    0    0    0  501 -0.00000000000E+00  0.00000000000E+00  0.10487299086E+04  0.10487404403E+04  0.47000000000E+01 0. -1.
          5   -1    0    0  501    0  0.00000000000E+00 -0.00000000000E+00 -0.27097419029E+02  0.27502002073E+02  0.47000000000E+01 0. -1.
         25    2    1    2    0    0  0.88741706582E+02  0.71199006390E+02  0.48387107271E+03  0.51254275380E+03  0.12499788185E+03 0.  0.
         25    2    1    2    0    0 -0.88741706582E+02 -0.71199006390E+02  0.53776141682E+03  0.56369968857E+03  0.12500243388E+03 0.  0.
          5    1    4    4  502    0 -0.55236029648E+02  0.29204014845E+02  0.21934424875E+03  0.22811813368E+03  0.47000000000E+01 0. -1.
         -5    1    4    4    0  502 -0.33505676935E+02 -0.10040302124E+03  0.31841716807E+03  0.33558155489E+03  0.47000000000E+01 0. -1.
          5    1    3    3  503    0  0.10525359946E+03  0.92849136856E+02  0.42278910353E+03  0.44550196238E+03  0.47000000000E+01 0. -1.
         -5    1    3    3    0  503 -0.16511892881E+02 -0.21650130466E+02  0.61081969179E+02  0.67040791422E+02  0.47000000000E+01 0. -1.
<mgrwt>
<rscale>  0 0.16902578E+03</rscale>
<asrwt>0</asrwt>
<pdfrwt beam="2">  1        5 0.42007659E-02 0.16902662E+03</pdfrwt>
<pdfrwt beam="1">  1       -5 0.16137498E+00 0.16902662E+03</pdfrwt>
<totfact> 0.61166631E+01</totfact>
</mgrwt>
</event>
<event>
 8    1  0.1821556E-007  0.1381178E+03  0.7546771E-02  0.1215891E+00
         -5   -1    0    0    0  501 -0.00000000000E+00  0.00000000000E+00  0.13838255416E+03  0.13846234613E+03  0.47000000000E+01 0.  1.
          5   -1    0    0  501    0  0.00000000000E+00 -0.00000000000E+00 -0.13866193005E+03  0.13874156134E+03  0.47000000000E+01 0.  1.
         25    2    1    2    0    0  0.82938132301E+01  0.58157101538E+02  0.11554267963E+02  0.13860028502E+03  0.12500200840E+03 0.  0.
         25    2    1    2    0    0 -0.82938132301E+01 -0.58157101538E+02 -0.11833643848E+02  0.13860362245E+03  0.12497957126E+03 0.  0.
          5    1    4    4  502    0 -0.50794454449E+02 -0.76066489020E+02 -0.47895707120E+01  0.91712689101E+02  0.47000000000E+01 0. -1.
         -5    1    4    4    0  502  0.42500641219E+02  0.17909387482E+02 -0.70440731361E+01  0.46890933349E+02  0.47000000000E+01 0. -1.
          5    1    3    3  503    0  0.63021084315E+02  0.45993713581E+02  0.22394508537E+02  0.81306105366E+02  0.47000000000E+01 0. -1.
         -5    1    3    3    0  503 -0.54727271085E+02  0.12163387957E+02 -0.10840240574E+02  0.57294179658E+02  0.47000000000E+01 0. -1.
<mgrwt>
<rscale>  0 0.13811276E+03</rscale>
<asrwt>0</asrwt>
<pdfrwt beam="2">  1        5 0.21344868E-01 0.13811784E+03</pdfrwt>
<pdfrwt beam="1">  1       -5 0.21301887E-01 0.13811784E+03</pdfrwt>
<totfact> 0.30743846E+02</totfact>
</mgrwt>
</event>
<event>
 8    1  0.1821556E-007  0.1636251E+03  0.7546771E-02  0.1184666E+00
         -5   -1    0    0    0  501 -0.00000000000E+00  0.00000000000E+00  0.50043034750E+02  0.50263260211E+02  0.47000000000E+01 0.  1.
          5   -1    0    0  501    0  0.00000000000E+00 -0.00000000000E+00 -0.55871085927E+03  0.55873062765E+03  0.47000000000E+01 0.  1.
         25    2    1    2    0    0  0.12793626147E+02 -0.10479771674E+03 -0.18974641629E+03  0.25054719263E+03  0.12499581968E+03 0.  0.
         25    2    1    2    0    0 -0.12793626147E+02  0.10479771674E+03 -0.31892140823E+03  0.35844669522E+03  0.12500772130E+03 0.  0.
          5    1    4    4  502    0 -0.59004966543E+02  0.29357131160E+02 -0.19664866339E+03  0.20745171496E+03  0.47000000000E+01 0.  1.
         -5    1    4    4    0  502  0.46211340396E+02  0.75440585582E+02 -0.12227274484E+03  0.15099498026E+03  0.47000000000E+01 0.  1.
          5    1    3    3  503    0 -0.48632312194E+02 -0.60657245835E+02 -0.13901619089E+03  0.15934865733E+03  0.47000000000E+01 0.  1.
         -5    1    3    3    0  503  0.61425938341E+02 -0.44140470906E+02 -0.50730225401E+02  0.91198535307E+02  0.47000000000E+01 0.  1.
<mgrwt>
<rscale>  0 0.16362281E+03</rscale>
<asrwt>0</asrwt>
<pdfrwt beam="2">  1        5 0.85973973E-01 0.16362509E+03</pdfrwt>
<pdfrwt beam="1">  1       -5 0.77173899E-02 0.16362509E+03</pdfrwt>
<totfact> 0.10930681E+02</totfact>
</mgrwt>
</event>
<event>
 8    1  0.1821556E-007  0.1476154E+03  0.7546771E-02  0.1203436E+00
         -5   -1    0    0    0  501 -0.00000000000E+00  0.00000000000E+00  0.19610445334E+03  0.19616076728E+03  0.47000000000E+01 0.  1.
          5   -1    0    0  501    0  0.00000000000E+00 -0.00000000000E+00 -0.23364552373E+03  0.23369279142E+03  0.47000000000E+01 0. -1.
         25    2    1    2    0    0 -0.35216323789E+02  0.70161409272E+02  0.13691103951E+03  0.20133290198E+03  0.12500996707E+03 0.  0.
         25    2    1    2    0    0  0.35216323789E+02 -0.70161409272E+02 -0.17445210990E+03  0.22852065672E+03  0.12500135634E+03 0.  0.
          5    1    3    3  502    0  0.43225768355E+02  0.19303485053E+02  0.75978818671E+02  0.89643530004E+02  0.47000000000E+01 0. -1.
         -5    1    3    3    0  502 -0.78442092144E+02  0.50857924219E+02  0.60932220838E+02  0.11168937197E+03  0.47000000000E+01 0. -1.
          5    1    4    4  503    0  0.19693026086E+02  0.33985939301E+02 -0.68290579936E+02  0.78921180012E+02  0.47000000000E+01 0. -1.
         -5    1    4    4    0  503  0.15523297704E+02 -0.10414734857E+03 -0.10616152996E+03  0.14959947670E+03  0.47000000000E+01 0. -1.
<mgrwt>
<rscale>  0 0.14761357E+03</rscale>
<asrwt>0</asrwt>
<pdfrwt beam="2">  1        5 0.35953433E-01 0.14761539E+03</pdfrwt>
<pdfrwt beam="1">  1       -5 0.30177884E-01 0.14761539E+03</pdfrwt>
<totfact> 0.58366330E+01</totfact>
</mgrwt>
</event>
<event>
 8    1  0.1821556E-007  0.1486593E+03  0.7546771E-02  0.1202130E+00
          5   -1    0    0  501    0  0.00000000000E+00  0.00000000000E+00  0.99551245932E+02  0.99662132059E+02  0.47000000000E+01 0.  1.
         -5   -1    0    0    0  501 -0.00000000000E+00 -0.00000000000E+00 -0.23138005946E+03  0.23142778986E+03  0.47000000000E+01 0.  1.
         25    2    1    2    0    0 -0.75772845532E+02 -0.27066262072E+02 -0.99707902382E+02  0.17900070852E+03  0.12500192475E+03 0.  0.
         25    2    1    2    0    0  0.75772845532E+02  0.27066262072E+02 -0.32120911150E+02  0.15208921340E+03  0.12500107694E+03 0.  0.
          5    1    3    3  502    0 -0.90145786107E+02  0.25595387915E+02 -0.60872554231E+02  0.11184339272E+03  0.47000000000E+01 0. -1.
         -5    1    3    3    0  502  0.14372940575E+02 -0.52661649987E+02 -0.38835348150E+02  0.67157315805E+02  0.47000000000E+01 0. -1.
          5    1    4    4  503    0  0.80025482733E+02  0.48124814638E+02 -0.64039518724E+02  0.11332795608E+03  0.47000000000E+01 0. -1.
         -5    1    4    4    0  503 -0.42526372007E+01 -0.21058552566E+02  0.31918607574E+02  0.38761257317E+02  0.47000000000E+01 0. -1.
<mgrwt>
<rscale>  0 0.14865912E+03</rscale>
<asrwt>0</asrwt>
<pdfrwt beam="1">  1        5 0.15327778E-01 0.14865930E+03</pdfrwt>
<pdfrwt beam="2">  1       -5 0.35609134E-01 0.14865930E+03</pdfrwt>
<totfact> 0.21410738E+02</totfact>
</mgrwt>
</event>
<event>
 8    1  0.1821556E-007  0.1354912E+03  0.7546771E-02  0.1219529E+00
         -5   -1    0    0    0  501 -0.00000000000E+00  0.00000000000E+00  0.86437321439E+03  0.86438599234E+03  0.47000000000E+01 0. -1.
          5   -1    0    0  501    0  0.00000000000E+00 -0.00000000000E+00 -0.21847776361E+02  0.22347602375E+02  0.47000000000E+01 0. -1.
         25    2    1    2    0    0 -0.28011529690E+02  0.44148560668E+02  0.50934211667E+03  0.52705458995E+03  0.12499363090E+03 0.  0.
         25    2    1    2    0    0  0.28011529690E+02 -0.44148560668E+02  0.33318332136E+03  0.35967900476E+03  0.12499647849E+03 0.  0.
          5    1    3    3  502    0  0.86899765927E+01 -0.71469349429E+01 -0.15236795375E+01  0.12288448706E+02  0.47000000000E+01 0. -1.
         -5    1    3    3    0  502 -0.36701506283E+02  0.51295495611E+02  0.51086579621E+03  0.51476614124E+03  0.47000000000E+01 0. -1.
          5    1    4    4  503    0  0.41885862217E+02 -0.22504940130E+02  0.32989595308E+03  0.33333815810E+03  0.47000000000E+01 0.  1.
         -5    1    4    4    0  503 -0.13874332527E+02 -0.21643620538E+02  0.32873682751E+01  0.26340846669E+02  0.47000000000E+01 0.  1.
<mgrwt>
<rscale>  0 0.13549053E+03</rscale>
<asrwt>0</asrwt>
<pdfrwt beam="2">  1        5 0.34006272E-02 0.13549118E+03</pdfrwt>
<pdfrwt beam="1">  1       -5 0.13301993E+00 0.13549118E+03</pdfrwt>
<totfact> 0.13686235E+02</totfact>
</mgrwt>
</event>
<event>
 8    1  0.1821556E-007  0.1390961E+03  0.7546771E-02  0.1214556E+00
         -5   -1    0    0    0  501 -0.00000000000E+00  0.00000000000E+00  0.40272410422E+02  0.40545740112E+02  0.47000000000E+01 0. -1.
          5   -1    0    0  501    0  0.00000000000E+00 -0.00000000000E+00 -0.47942961121E+03  0.47945264845E+03  0.47000000000E+01 0. -1.
         25    2    1    2    0    0  0.12154319071E+01  0.60956308383E+02 -0.20787230358E+03  0.25011720083E+03  0.12502228101E+03 0.  0.
         25    2    1    2    0    0 -0.12154319071E+01 -0.60956308383E+02 -0.23128489721E+03  0.26988118774E+03  0.12500401197E+03 0.  0.
          5    1    4    4  502    0 -0.30188327406E+02 -0.15306977124E+02 -0.20806276346E+03  0.21085028385E+03  0.47000000000E+01 0.  1.
         -5    1    4    4    0  502  0.28972895499E+02 -0.45649331259E+02 -0.23222133755E+02  0.59030903890E+02  0.47000000000E+01 0.  1.
          5    1    3    3  503    0  0.59396811584E+02  0.18748621896E+02 -0.12884579654E+03  0.14318806282E+03  0.47000000000E+01 0. -1.
         -5    1    3    3    0  503 -0.58181379676E+02  0.42207686487E+02 -0.79026507042E+02  0.10692913801E+03  0.47000000000E+01 0. -1.
<mgrwt>
<rscale>  0 0.13909198E+03</rscale>
<asrwt>0</asrwt>
<pdfrwt beam="2">  1        5 0.73781195E-01 0.13909608E+03</pdfrwt>
<pdfrwt beam="1">  1       -5 0.62185532E-02 0.13909608E+03</pdfrwt>
<totfact> 0.21350512E+02</totfact>
</mgrwt>
</event>
<event>
 8    1  0.1821556E-007  0.1401954E+03  0.7546771E-02  0.1213072E+00
         -5   -1    0    0    0  501 -0.00000000000E+00  0.00000000000E+00  0.22511898720E+02  0.22997295145E+02  0.47000000000E+01 0.  1.
          5   -1    0    0  501    0  0.00000000000E+00 -0.00000000000E+00 -0.13900389557E+04  0.13900469015E+04  0.47000000000E+01 0.  1.
         25    2    1    2    0    0  0.30632916245E+02 -0.55600845373E+02 -0.24884758165E+03  0.28561414288E+03  0.12498195931E+03 0.  0.
         25    2    1    2    0    0 -0.30632916245E+02  0.55600845373E+02 -0.11186794753E+04  0.11274300538E+04  0.12499971220E+03 0.  0.
          5    1    3    3  502    0  0.23296022184E+02 -0.28754947416E+02 -0.25416928492E+03  0.25689232579E+03  0.47000000000E+01 0.  1.
         -5    1    3    3    0  502  0.73368940604E+01 -0.26845897957E+02  0.53217032653E+01  0.28721817095E+02  0.47000000000E+01 0.  1.
          5    1    4    4  503    0 -0.71017840220E+01 -0.30613151942E+02 -0.61795129398E+03  0.61876772067E+03  0.47000000000E+01 0. -1.
         -5    1    4    4    0  503 -0.23531132223E+02  0.86213997314E+02 -0.50072818134E+03  0.50866233309E+03  0.47000000000E+01 0. -1.
<mgrwt>
<rscale>  0 0.14019147E+03</rscale>
<asrwt>0</asrwt>
<pdfrwt beam="2">  1        5 0.21389003E+00 0.14019543E+03</pdfrwt>
<pdfrwt beam="1">  1       -5 0.35013195E-02 0.14019543E+03</pdfrwt>
<totfact> 0.33525955E+01</totfact>
</mgrwt>
</event>
<event>
 8    1  0.1821556E-007  0.1572862E+03  0.7546771E-02  0.1191796E+00
          5   -1    0    0  501    0  0.00000000000E+00  0.00000000000E+00  0.75071778138E+03  0.75073249382E+03  0.47000000000E+01 0. -1.
         -5   -1    0    0    0  501 -0.00000000000E+00 -0.00000000000E+00 -0.47568908535E+02  0.47800534089E+02  0.47000000000E+01 0. -1.
         25    2    1    2    0    0 -0.93805347523E+02 -0.17717305055E+02  0.12957575998E+03  0.20378621020E+03  0.12500238305E+03 0.  0.
         25    2    1    2    0    0  0.93805347523E+02  0.17717305055E+02  0.57357311286E+03  0.59474681771E+03  0.12499726100E+03 0.  0.
          5    1    3    3  502    0 -0.36457255009E+02 -0.28426039187E+02 -0.14171179707E+02  0.48580690412E+02  0.47000000000E+01 0.  1.
         -5    1    3    3    0  502 -0.57348092514E+02  0.10708734132E+02  0.14374693969E+03  0.15520551978E+03  0.47000000000E+01 0.  1.
          5    1    4    4  503    0  0.11737803861E+03  0.30038501507E+02  0.36930551540E+03  0.38870113098E+03  0.47000000000E+01 0.  1.
         -5    1    4    4    0  503 -0.23572691091E+02 -0.12321196452E+02  0.20426759746E+03  0.20604568673E+03  0.47000000000E+01 0.  1.
<mgrwt>
<rscale>  0 0.15728516E+03</rscale>
<asrwt>0</asrwt>
<pdfrwt beam="1">  1        5 0.11551398E+00 0.15728618E+03</pdfrwt>
<pdfrwt beam="2">  1       -5 0.73372432E-02 0.15728618E+03</pdfrwt>
<totfact> 0.57303061E+01</totfact>
</mgrwt>
</event>
<event>
 8    1  0.1821556E-007  0.1441740E+03  0.7546771E-02  0.1207828E+00
         -5   -1    0    0    0  501 -0.00000000000E+00  0.00000000000E+00  0.89580041358E+02  0.89703254176E+02  0.47000000000E+01 0.  1.
          5   -1    0    0  501    0  0.00000000000E+00 -0.00000000000E+00 -0.23852906294E+03  0.23857536308E+03  0.47000000000E+01 0.  1.
         25    2    1    2    0    0 -0.23849692047E+01  0.71758675954E+02 -0.46710868341E+02  0.15155216347E+03  0.12502462709E+03 0.  0.
         25    2    1    2    0    0  0.23849692047E+01 -0.71758675954E+02 -0.10223815325E+03  0.17672645379E+03  0.12499841534E+03 0.  0.
          5    1    4    4  502    0 -0.48589887355E+02 -0.40719195008E+02 -0.66203562288E+01  0.63913606625E+02  0.47000000000E+01 0. -1.
         -5    1    4    4    0  502  0.50974856560E+02 -0.31039480946E+02 -0.95617797017E+02  0.11281284716E+03  0.47000000000E+01 0. -1.
          5    1    3    3  503    0  0.57690453159E+02  0.56681647144E+02 -0.17367586854E+02  0.82853609347E+02  0.47000000000E+01 0. -1.
         -5    1    3    3    0  503 -0.60075422364E+02  0.15077028811E+02 -0.29343281487E+02  0.68698554121E+02  0.47000000000E+01 0. -1.
<mgrwt>
<rscale>  0 0.14416835E+03</rscale>
<asrwt>0</asrwt>
<pdfrwt beam="2">  1        5 0.36709818E-01 0.14417404E+03</pdfrwt>
<pdfrwt beam="1">  1       -5 0.13794584E-01 0.14417404E+03</pdfrwt>
<totfact> 0.24112434E+02</totfact>
</mgrwt>
</event>
<event>
 8    1  0.1821556E-007  0.1403645E+03  0.7546771E-02  0.1212841E+00
         -5   -1    0    0    0  501 -0.00000000000E+00  0.00000000000E+00  0.12181068808E+04  0.12181159481E+04  0.47000000000E+01 0.  1.
          5   -1    0    0  501    0  0.00000000000E+00 -0.00000000000E+00 -0.16068571417E+02  0.16741833453E+02  0.47000000000E+01 0.  1.
         25    2    1    2    0    0 -0.11128275116E+01  0.63835001327E+02  0.52629890118E+03  0.54469408482E+03  0.12499986749E+03 0.  0.
         25    2    1    2    0    0  0.11128275116E+01 -0.63835001327E+02  0.67573940818E+03  0.69016369673E+03  0.12500413887E+03 0.  0.
          5    1    4    4  502    0  0.17810841104E+02 -0.31660104045E+02  0.43496309325E+02  0.56864814902E+02  0.47000000000E+01 0. -1.
         -5    1    4    4    0  502 -0.16698013592E+02 -0.32174897282E+02  0.63224309885E+03  0.63329888182E+03  0.47000000000E+01 0. -1.
          5    1    3    3  503    0  0.32961855781E+02 -0.22604572324E+02  0.24833891309E+03  0.25157852926E+03  0.47000000000E+01 0. -1.
         -5    1    3    3    0  503 -0.34074683293E+02  0.86439573651E+02  0.27795998809E+03  0.29311555556E+03  0.47000000000E+01 0. -1.
<mgrwt>
<rscale>  0 0.14036351E+03</rscale>
<asrwt>0</asrwt>
<pdfrwt beam="2">  1        5 0.25245735E-02 0.14036446E+03</pdfrwt>
<pdfrwt beam="1">  1       -5 0.18745364E+00 0.14036446E+03</pdfrwt>
<totfact> 0.85811760E+01</totfact>
</mgrwt>
</event>
<event>
 8    1  0.1821556E-007  0.1503804E+03  0.7546771E-02  0.1200006E+00
         -5   -1    0    0    0  501 -0.00000000000E+00  0.00000000000E+00  0.55069875818E+03  0.55071881415E+03  0.47000000000E+01 0.  1.
          5   -1    0    0  501    0  0.00000000000E+00 -0.00000000000E+00 -0.24316905782E+03  0.24321447466E+03  0.47000000000E+01 0.  1.
         25    2    1    2    0    0 -0.53920611843E+02 -0.63879977317E+02  0.51567128345E+03  0.53715092581E+03  0.12500464249E+03 0.  0.
         25    2    1    2    0    0  0.53920611843E+02  0.63879977317E+02 -0.20814158310E+03  0.25678236299E+03  0.12500471770E+03 0.  0.
          5    1    3    3  502    0 -0.93820585309E+02 -0.55316763121E+02  0.38888469566E+03  0.40387577673E+03  0.47000000000E+01 0. -1.
         -5    1    3    3    0  502  0.39899973467E+02 -0.85632141963E+01  0.12678658779E+03  0.13327514909E+03  0.47000000000E+01 0. -1.
          5    1    4    4  503    0  0.21523477628E+01  0.90663960455E+02 -0.14137827884E+03  0.16803122940E+03  0.47000000000E+01 0. -1.
         -5    1    4    4    0  503  0.51768264080E+02 -0.26783983138E+02 -0.66763304261E+02  0.88751133595E+02  0.47000000000E+01 0. -1.
<mgrwt>
<rscale>  0 0.15038038E+03</rscale>
<asrwt>0</asrwt>
<pdfrwt beam="2">  1        5 0.37415661E-01 0.15038040E+03</pdfrwt>
<pdfrwt beam="1">  1       -5 0.84727922E-01 0.15038040E+03</pdfrwt>
<totfact> 0.59646945E+00</totfact>
</mgrwt>
</event>
<event>
 8    1  0.1821556E-007  0.1835643E+03  0.7546771E-02  0.1164399E+00
         -5   -1    0    0    0  501 -0.00000000000E+00  0.00000000000E+00  0.34075246936E+03  0.34078488138E+03  0.47000000000E+01 0. -1.
          5   -1    0    0  501    0  0.00000000000E+00 -0.00000000000E+00 -0.10252740732E+03  0.10263507808E+03  0.47000000000E+01 0. -1.
         25    2    1    2    0    0 -0.50960452001E+02  0.12438348931E+03  0.16141625596E+03  0.24443393605E+03  0.12499808528E+03 0.  0.
         25    2    1    2    0    0  0.50960452001E+02 -0.12438348931E+03  0.76808806075E+02  0.19898602341E+03  0.12501049852E+03 0.  0.
          5    1    4    4  502    0  0.40069975673E+02 -0.77261790275E+02  0.10984715939E+03  0.14022651537E+03  0.47000000000E+01 0. -1.
         -5    1    4    4    0  502  0.10890476328E+02 -0.47121699034E+02 -0.33038353318E+02  0.58759508034E+02  0.47000000000E+01 0. -1.
          5    1    3    3  503    0 -0.39388933835E+02  0.14069957607E+02  0.11790685420E+03  0.12519412159E+03  0.47000000000E+01 0. -1.
         -5    1    3    3    0  503 -0.11571518166E+02  0.11031353170E+03  0.43509401769E+02  0.11923981446E+03  0.47000000000E+01 0. -1.
<mgrwt>
<rscale>  0 0.18356217E+03</rscale>
<asrwt>0</asrwt>
<pdfrwt beam="2">  1        5 0.15784222E-01 0.18356428E+03</pdfrwt>
<pdfrwt beam="1">  1       -5 0.52434234E-01 0.18356428E+03</pdfrwt>
<totfact> 0.96898991E+01</totfact>
</mgrwt>
</event>
<event>
 8    1  0.1821556E-007  0.1577989E+03  0.7546771E-02  0.1191206E+00
         -5   -1    0    0    0  501 -0.00000000000E+00  0.00000000000E+00  0.35140435114E+03  0.35143578077E+03  0.47000000000E+01 0.  1.
          5   -1    0    0  501    0  0.00000000000E+00 -0.00000000000E+00 -0.70759400347E+02  0.70915320894E+02  0.47000000000E+01 0.  1.
         25    2    1    2    0    0  0.96289986709E+02 -0.19069725500E+01  0.14332123410E+03  0.21316627086E+03  0.12499393907E+03 0.  0.
         25    2    1    2    0    0 -0.96289986709E+02  0.19069725500E+01  0.13732371670E+03  0.20918483080E+03  0.12500036874E+03 0.  0.
          5    1    3    3  502    0  0.76875076813E+02 -0.28269285312E+02  0.18587953561E+02  0.84122125179E+02  0.47000000000E+01 0. -1.
         -5    1    3    3    0  502  0.19414909896E+02  0.26362312762E+02  0.12473328054E+03  0.12904414568E+03  0.47000000000E+01 0. -1.
          5    1    4    4  503    0 -0.43408833297E+02  0.48430637245E+02  0.11988739490E+03  0.13647318744E+03  0.47000000000E+01 0. -1.
         -5    1    4    4    0  503 -0.52881153413E+02 -0.46523664695E+02  0.17436321792E+02  0.72711643363E+02  0.47000000000E+01 0. -1.
<mgrwt>
<rscale>  0 0.15779762E+03</rscale>
<asrwt>0</asrwt>
<pdfrwt beam="2">  1        5 0.10900473E-01 0.15779889E+03</pdfrwt>
<pdfrwt beam="1">  1       -5 0.54076619E-01 0.15779889E+03</pdfrwt>
<totfact> 0.16840992E+02</totfact>
</mgrwt>
</event>
<event>
 8    1  0.1821556E-007  0.1364115E+03  0.7546771E-02  0.1218241E+00
         -5   -1    0    0    0  501 -0.00000000000E+00  0.00000000000E+00  0.50670838397E+03  0.50673018105E+03  0.47000000000E+01 0.  1.
          5   -1    0    0  501    0  0.00000000000E+00 -0.00000000000E+00 -0.37609077793E+02  0.37901619127E+02  0.47000000000E+01 0.  1.
         25    2    1    2    0    0 -0.49900439489E+02 -0.22199166965E+02  0.28005986836E+03  0.31151506126E+03  0.12500098660E+03 0.  0.
         25    2    1    2    0    0  0.49900439489E+02  0.22199166965E+02  0.18903943782E+03  0.23311673892E+03  0.12499859214E+03 0.  0.
          5    1    3    3  502    0  0.28810198530E+01  0.16597448320E+02  0.22537919183E+03  0.22605673110E+03  0.47000000000E+01 0. -1.
         -5    1    3    3    0  502 -0.52781459342E+02 -0.38796615286E+02  0.54680676532E+02  0.85458330161E+02  0.47000000000E+01 0. -1.
          5    1    4    4  503    0  0.79529738186E+02 -0.20302131838E+02  0.94903032551E+02  0.12556206195E+03  0.47000000000E+01 0. -1.
         -5    1    4    4    0  503 -0.29629298697E+02  0.42501298804E+02  0.94136405268E+02  0.10755467697E+03  0.47000000000E+01 0. -1.
<mgrwt>
<rscale>  0 0.13641097E+03</rscale>
<asrwt>0</asrwt>
<pdfrwt beam="2">  1        5 0.58101924E-02 0.13641152E+03</pdfrwt>
<pdfrwt beam="1">  1       -5 0.77979308E-01 0.13641152E+03</pdfrwt>
<totfact> 0.20948718E+02</totfact>
</mgrwt>
</event>
<event>
 8    1  0.1821556E-007  0.1999478E+03  0.7546771E-02  0.1149783E+00
          5   -1    0    0  501    0  0.00000000000E+00  0.00000000000E+00  0.42058492747E+03  0.42061118770E+03  0.47000000000E+01 0.  1.
         -5   -1    0    0    0  501 -0.00000000000E+00 -0.00000000000E+00 -0.95370878023E+02  0.95486618827E+02  0.47000000000E+01 0.  1.
         25    2    1    2    0    0  0.14341607739E+03 -0.61528704359E+02  0.17937105438E+03  0.26861182286E+03  0.12499753403E+03 0.  0.
         25    2    1    2    0    0 -0.14341607739E+03  0.61528704359E+02  0.14584299506E+03  0.24748598367E+03  0.12500072075E+03 0.  0.
          5    1    4    4  502    0 -0.14849995414E+03  0.67560800251E+02  0.16132372959E+03  0.22948667465E+03  0.47000000000E+01 0. -1.
         -5    1    4    4    0  502  0.50838767539E+01 -0.60320958916E+01 -0.15480734528E+02  0.17999309021E+02  0.47000000000E+01 0. -1.
          5    1    3    3  503    0  0.47302196080E+02  0.38343626030E+02  0.60229932309E+02  0.85775673457E+02  0.47000000000E+01 0.  1.
         -5    1    3    3    0  503  0.96113881309E+02 -0.99872330389E+02  0.11914112207E+03  0.18283614940E+03  0.47000000000E+01 0.  1.
<mgrwt>
<rscale>  0 0.19994733E+03</rscale>
<asrwt>0</asrwt>
<pdfrwt beam="1">  1        5 0.64716295E-01 0.19994783E+03</pdfrwt>
<pdfrwt beam="2">  1       -5 0.14683366E-01 0.19994783E+03</pdfrwt>
<totfact> 0.71387347E+01</totfact>
</mgrwt>
</event>
<event>
 8    1  0.1821556E-007  0.1260854E+03  0.7546771E-02  0.1233386E+00
         -5   -1    0    0    0  501 -0.00000000000E+00  0.00000000000E+00  0.35861121697E+03  0.35864201502E+03  0.47000000000E+01 0.  1.
          5   -1    0    0  501    0  0.00000000000E+00 -0.00000000000E+00 -0.46013279527E+02  0.46252696061E+02  0.47000000000E+01 0.  1.
         25    2    1    2    0    0  0.16431214007E+02  0.38541639234E+00  0.19668814994E+03  0.23362709182E+03  0.12500102546E+03 0.  0.
         25    2    1    2    0    0 -0.16431214007E+02 -0.38541639234E+00  0.11590978751E+03  0.17126761927E+03  0.12500954055E+03 0.  0.
          5    1    3    3  502    0 -0.44800387459E+02 -0.15726989581E+02  0.14209927273E+03  0.14989565113E+03  0.47000000000E+01 0.  1.
         -5    1    3    3    0  502  0.61231601466E+02  0.16112405974E+02  0.54588877211E+02  0.83731440687E+02  0.47000000000E+01 0.  1.
          5    1    4    4  503    0  0.10248025142E+02 -0.36796431697E+02 -0.80005662231E+01  0.39307740520E+02  0.47000000000E+01 0. -1.
         -5    1    4    4    0  503 -0.26679239148E+02  0.36411015305E+02  0.12391035373E+03  0.13195987875E+03  0.47000000000E+01 0. -1.
<mgrwt>
<rscale>  0 0.12608325E+03</rscale>
<asrwt>0</asrwt>
<pdfrwt beam="2">  1        5 0.70997519E-02 0.12608536E+03</pdfrwt>
<pdfrwt beam="1">  1       -5 0.55191741E-01 0.12608536E+03</pdfrwt>
<totfact> 0.31340785E+02</totfact>
</mgrwt>
</event>
<event>
 8    1  0.1821556E-007  0.1555977E+03  0.7546771E-02  0.1193761E+00
          5   -1    0    0  501    0  0.00000000000E+00  0.00000000000E+00  0.34638173128E+03  0.34641361660E+03  0.47000000000E+01 0.  1.
         -5   -1    0    0    0  501 -0.00000000000E+00 -0.00000000000E+00 -0.84811210619E+02  0.84941341210E+02  0.47000000000E+01 0.  1.
         25    2    1    2    0    0 -0.90473708556E+02  0.19992853054E+02  0.40074818051E+02  0.16066881084E+03  0.12499307829E+03 0.  0.
         25    2    1    2    0    0  0.90473708556E+02 -0.19992853054E+02  0.22149570261E+03  0.27068614697E+03  0.12500175108E+03 0.  0.
          5    1    3    3  502    0 -0.53459433557E+02 -0.51661769430E+02  0.24313697144E+02  0.78358760363E+02  0.47000000000E+01 0.  1.
         -5    1    3    3    0  502 -0.37014274999E+02  0.71654622484E+02  0.15761120907E+02  0.82310050475E+02  0.47000000000E+01 0.  1.
          5    1    4    4  503    0  0.11511724605E+01 -0.17211234818E+02  0.16254418169E+03  0.16352447158E+03  0.47000000000E+01 0.  1.
         -5    1    4    4    0  503  0.89322536096E+02 -0.27816182363E+01  0.58951520916E+02  0.10716167539E+03  0.47000000000E+01 0.  1.
<mgrwt>
<rscale>  0 0.15559596E+03</rscale>
<asrwt>0</asrwt>
<pdfrwt beam="1">  1        5 0.53301959E-01 0.15559770E+03</pdfrwt>
<pdfrwt beam="2">  1       -5 0.13060341E-01 0.15559770E+03</pdfrwt>
<totfact> 0.12545293E+02</totfact>
</mgrwt>
</event>
<event>
 8    1  0.1821556E-007  0.1346969E+03  0.7546771E-02  0.1220650E+00
          5   -1    0    0  501    0  0.00000000000E+00  0.00000000000E+00  0.30511809073E+02  0.30871677844E+02  0.47000000000E+01 0. -1.
         -5   -1    0    0    0  501 -0.00000000000E+00 -0.00000000000E+00 -0.59482789169E+03  0.59484645980E+03  0.47000000000E+01 0. -1.
         25    2    1    2    0    0 -0.35026480603E+02  0.35923517441E+02 -0.30804389295E+03  0.33620574662E+03  0.12500364245E+03 0.  0.
         25    2    1    2    0    0  0.35026480603E+02 -0.35923517441E+02 -0.25627218967E+03  0.28951239102E+03  0.12499854363E+03 0.  0.
          5    1    3    3  502    0 -0.80854587750E+02  0.18666523669E+02 -0.22261826989E+03  0.23762762372E+03  0.47000000000E+01 0.  1.
         -5    1    3    3    0  502  0.45828107147E+02  0.17256993772E+02 -0.85425623063E+02  0.98578122899E+02  0.47000000000E+01 0.  1.
          5    1    4    4  503    0 -0.48759123537E+00  0.91186291480E+01  0.11619984450E+02  0.15508100508E+02  0.47000000000E+01 0.  1.
         -5    1    4    4    0  503  0.35514071838E+02 -0.45042146589E+02 -0.26789217412E+03  0.27400429052E+03  0.47000000000E+01 0.  1.
<mgrwt>
<rscale>  0 0.13469575E+03</rscale>
<asrwt>0</asrwt>
<pdfrwt beam="1">  1        5 0.47232354E-02 0.13469693E+03</pdfrwt>
<pdfrwt beam="2">  1       -5 0.91541085E-01 0.13469693E+03</pdfrwt>
<totfact> 0.20241018E+02</totfact>
</mgrwt>
</event>
<event>
 8    1  0.1821556E-007  0.1330516E+03  0.7546771E-02  0.1222998E+00
         -5   -1    0    0    0  501 -0.00000000000E+00  0.00000000000E+00  0.70133345664E+03  0.70134920503E+03  0.47000000000E+01 0.  1.
          5   -1    0    0  501    0  0.00000000000E+00 -0.00000000000E+00 -0.54328348031E+02  0.54531269926E+02  0.47000000000E+01 0.  1.
         25    2    1    2    0    0 -0.21446798682E+02 -0.40219913208E+02  0.60030345356E+03  0.61487062709E+03  0.12499618042E+03 0.  0.
         25    2    1    2    0    0  0.21446798682E+02  0.40219913208E+02  0.46701655051E+02  0.14100984787E+03  0.12500050407E+03 0.  0.
          5    1    3    3  502    0 -0.70405912542E+02 -0.33292369540E+02  0.27717389803E+03  0.28794588752E+03  0.47000000000E+01 0. -1.
         -5    1    3    3    0  502  0.48959113859E+02 -0.69275436682E+01  0.32312955553E+03  0.32692473958E+03  0.47000000000E+01 0. -1.
          5    1    4    4  503    0  0.65357291981E+02  0.62929539876E+01 -0.36558175499E+01  0.65928991247E+02  0.47000000000E+01 0. -1.
         -5    1    4    4    0  503 -0.43910493298E+02  0.33926959221E+02  0.50357472601E+02  0.75080856618E+02  0.47000000000E+01 0. -1.
<mgrwt>
<rscale>  0 0.13305060E+03</rscale>
<asrwt>0</asrwt>
<pdfrwt beam="2">  1        5 0.83750285E-02 0.13305162E+03</pdfrwt>
<pdfrwt beam="1">  1       -5 0.10791427E+00 0.13305162E+03</pdfrwt>
<totfact> 0.51480426E+01</totfact>
</mgrwt>
</event>
<event>
 8    1  0.1821556E-007  0.1554753E+03  0.7546771E-02  0.1193904E+00
          5   -1    0    0  501    0  0.00000000000E+00  0.00000000000E+00  0.34143677222E+02  0.34465645130E+02  0.47000000000E+01 0. -1.
         -5   -1    0    0    0  501 -0.00000000000E+00 -0.00000000000E+00 -0.70959590740E+03  0.70961147243E+03  0.47000000000E+01 0. -1.
         25    2    1    2    0    0  0.28046229878E+02 -0.88097516965E+02 -0.36992330507E+03  0.40126778169E+03  0.12499926992E+03 0.  0.
         25    2    1    2    0    0 -0.28046229878E+02  0.88097516965E+02 -0.30552892511E+03  0.34280933587E+03  0.12499021232E+03 0.  0.
          5    1    3    3  502    0 -0.34014765489E+02 -0.72962364022E+02 -0.13032357547E+03  0.15325415217E+03  0.47000000000E+01 0.  1.
         -5    1    3    3    0  502  0.62060995367E+02 -0.15135152943E+02 -0.23959972960E+03  0.24801362951E+03  0.47000000000E+01 0.  1.
          5    1    4    4  503    0  0.13172297985E+02 -0.21282643272E+02 -0.14865315681E+02  0.29487759310E+02  0.47000000000E+01 0.  1.
         -5    1    4    4    0  503 -0.41218527863E+02  0.10938016024E+03 -0.29066360943E+03  0.31332157656E+03  0.47000000000E+01 0.  1.
<mgrwt>
<rscale>  0 0.15547352E+03</rscale>
<asrwt>0</asrwt>
<pdfrwt beam="1">  1        5 0.52788380E-02 0.15547534E+03</pdfrwt>
<pdfrwt beam="2">  1       -5 0.10919455E+00 0.15547534E+03</pdfrwt>
<totfact> 0.11462780E+02</totfact>
</mgrwt>
</event>
<event>
 8    1  0.1821556E-007  0.1401685E+03  0.7546771E-02  0.1213105E+00
          5   -1    0    0  501    0  0.00000000000E+00  0.00000000000E+00  0.48330680095E+03  0.48332965339E+03  0.47000000000E+01 0.  1.
         -5   -1    0    0    0  501 -0.00000000000E+00 -0.00000000000E+00 -0.42178302462E+02  0.42439359073E+02  0.47000000000E+01 0.  1.
         25    2    1    2    0    0 -0.34053788417E+02 -0.53502042363E+02  0.16812975615E+03  0.21888871336E+03  0.12499009917E+03 0.  0.
         25    2    1    2    0    0  0.34053788417E+02  0.53502042363E+02  0.27299874234E+03  0.30688029911E+03  0.12500030246E+03 0.  0.
          5    1    3    3  502    0 -0.72206416062E+02  0.22737560742E+01  0.84796512156E+02  0.11149652443E+03  0.47000000000E+01 0.  1.
         -5    1    3    3    0  502  0.38152627645E+02 -0.55775798438E+02  0.83333243993E+02  0.10739218892E+03  0.47000000000E+01 0.  1.
          5    1    4    4  503    0 -0.27380433450E+02 -0.18466141903E+02  0.25870656581E+02  0.42214540204E+02  0.47000000000E+01 0. -1.
         -5    1    4    4    0  503  0.61434221867E+02  0.71968184267E+02  0.24712808576E+03  0.26466575890E+03  0.47000000000E+01 0. -1.
<mgrwt>
<rscale>  0 0.14016621E+03</rscale>
<asrwt>0</asrwt>
<pdfrwt beam="1">  1        5 0.74376734E-01 0.14016849E+03</pdfrwt>
<pdfrwt beam="2">  1       -5 0.65108086E-02 0.14016849E+03</pdfrwt>
<totfact> 0.19449027E+02</totfact>
</mgrwt>
</event>
<event>
 8    1  0.1821556E-007  0.1290465E+03  0.7546771E-02  0.1228881E+00
         -5   -1    0    0    0  501 -0.00000000000E+00  0.00000000000E+00  0.36236140733E+03  0.36239188667E+03  0.47000000000E+01 0.  1.
          5   -1    0    0  501    0  0.00000000000E+00 -0.00000000000E+00 -0.46366829158E+02  0.46604429469E+02  0.47000000000E+01 0.  1.
         25    2    1    2    0    0  0.31546614143E+02  0.55749230275E+01  0.18052954784E+03  0.22190968207E+03  0.12500688270E+03 0.  0.
         25    2    1    2    0    0 -0.31546614143E+02 -0.55749230275E+01  0.13546503033E+03  0.18708663407E+03  0.12499746227E+03 0.  0.
          5    1    4    4  502    0  0.12206227362E+02 -0.67322234157E+01  0.14184600518E+03  0.14260678106E+03  0.47000000000E+01 0.  1.
         -5    1    4    4    0  502 -0.43752841504E+02  0.11573003883E+01 -0.63809748467E+01  0.44479853011E+02  0.47000000000E+01 0.  1.
          5    1    3    3  503    0 -0.30340239052E+02 -0.27335708286E+02  0.12729266030E+03  0.13376577447E+03  0.47000000000E+01 0. -1.
         -5    1    3    3    0  503  0.61886853195E+02  0.32910631313E+02  0.53236887543E+02  0.88143907601E+02  0.47000000000E+01 0. -1.
<mgrwt>
<rscale>  0 0.12904418E+03</rscale>
<asrwt>0</asrwt>
<pdfrwt beam="2">  1        5 0.71539799E-02 0.12904646E+03</pdfrwt>
<pdfrwt beam="1">  1       -5 0.55768530E-01 0.12904646E+03</pdfrwt>
<totfact> 0.30510349E+02</totfact>
</mgrwt>
</event>
<event>
 8    1  0.1821556E-007  0.1649965E+03  0.7546771E-02  0.1183169E+00
         -5   -1    0    0    0  501 -0.00000000000E+00  0.00000000000E+00  0.26155704258E+02  0.26574628224E+02  0.47000000000E+01 0. -1.
          5   -1    0    0  501    0  0.00000000000E+00 -0.00000000000E+00 -0.10356743061E+04  0.10356849706E+04  0.47000000000E+01 0. -1.
         25    2    1    2    0    0 -0.89865384528E+02  0.59350830075E+02 -0.53580685780E+03  0.56063609516E+03  0.12500213582E+03 0.  0.
         25    2    1    2    0    0  0.89865384528E+02 -0.59350830075E+02 -0.47371174400E+03  0.50162350362E+03  0.12500005845E+03 0.  0.
          5    1    3    3  502    0 -0.11883940287E+03  0.29742870751E+02 -0.37606666554E+03  0.39554477492E+03  0.47000000000E+01 0.  1.
         -5    1    3    3    0  502  0.28974018346E+02  0.29607959324E+02 -0.15974019226E+03  0.16509132024E+03  0.47000000000E+01 0.  1.
          5    1    4    4  503    0  0.11917369486E+03 -0.57500870873E+02 -0.34534686583E+03  0.36985844243E+03  0.47000000000E+01 0.  1.
         -5    1    4    4    0  503 -0.29308310328E+02 -0.18499592017E+01 -0.12836487817E+03  0.13176506119E+03  0.47000000000E+01 0.  1.
<mgrwt>
<rscale>  0 0.16499610E+03</rscale>
<asrwt>0</asrwt>
<pdfrwt beam="2">  1        5 0.15936752E+00 0.16499649E+03</pdfrwt>
<pdfrwt beam="1">  1       -5 0.40570006E-02 0.16499649E+03</pdfrwt>
<totfact> 0.66670942E+01</totfact>
</mgrwt>
</event>
<event>
 8    1  0.1821556E-007  0.1316820E+03  0.7546771E-02  0.1224985E+00
          5   -1    0    0  501    0  0.00000000000E+00  0.00000000000E+00  0.67686994087E+02  0.67849975449E+02  0.47000000000E+01 0.  1.
         -5   -1    0    0    0  501 -0.00000000000E+00 -0.00000000000E+00 -0.30408047356E+03  0.30411679401E+03  0.47000000000E+01 0.  1.
         25    2    1    2    0    0 -0.24364062312E+02  0.33485079295E+02 -0.19237805479E+03  0.23312329917E+03  0.12498919386E+03 0.  0.
         25    2    1    2    0    0  0.24364062312E+02 -0.33485079295E+02 -0.44015424682E+02  0.13884347029E+03  0.12500117425E+03 0.  0.
          5    1    4    4  502    0 -0.39693606162E+02  0.49918024847E+01  0.15538186409E+02  0.43174363910E+02  0.47000000000E+01 0. -1.
         -5    1    4    4    0  502  0.64057668474E+02 -0.38476881779E+02 -0.59553611091E+02  0.95669106381E+02  0.47000000000E+01 0. -1.
          5    1    3    3  503    0  0.89562794091E+01  0.38350081724E+02 -0.19502814411E+03  0.19902012638E+03  0.47000000000E+01 0. -1.
         -5    1    3    3    0  503 -0.33320341721E+02 -0.48650024296E+01  0.26500893183E+01  0.34103172791E+02  0.47000000000E+01 0. -1.
<mgrwt>
<rscale>  0 0.13167917E+03</rscale>
<asrwt>0</asrwt>
<pdfrwt beam="1">  1        5 0.10428715E-01 0.13168201E+03</pdfrwt>
<pdfrwt beam="2">  1       -5 0.46796941E-01 0.13168201E+03</pdfrwt>
<totfact> 0.23301926E+02</totfact>
</mgrwt>
</event>
<event>
 8    1  0.1821556E-007  0.1296561E+03  0.7546771E-02  0.1227968E+00
         -5   -1    0    0    0  501 -0.00000000000E+00  0.00000000000E+00  0.48861631495E+02  0.49087157510E+02  0.47000000000E+01 0. -1.
          5   -1    0    0  501    0  0.00000000000E+00 -0.00000000000E+00 -0.36427861150E+03  0.36430893044E+03  0.47000000000E+01 0. -1.
         25    2    1    2    0    0  0.33762911199E+02  0.67935606736E+01 -0.10777934957E+03  0.16860338842E+03  0.12499851101E+03 0.  0.
         25    2    1    2    0    0 -0.33762911199E+02 -0.67935606736E+01 -0.20763763043E+03  0.24479269952E+03  0.12499597405E+03 0.  0.
          5    1    4    4  502    0  0.12369139558E+02  0.35655333455E+02 -0.12900888361E+02  0.40159946934E+02  0.47000000000E+01 0.  1.
         -5    1    4    4    0  502 -0.46132050757E+02 -0.42448894129E+02 -0.19473674207E+03  0.20463275259E+03  0.47000000000E+01 0.  1.
          5    1    3    3  503    0  0.38741972132E+02  0.47205345392E+02 -0.93202451359E+01  0.61953547175E+02  0.47000000000E+01 0. -1.
         -5    1    3    3    0  503 -0.49790609329E+01 -0.40411784718E+02 -0.98459104437E+02  0.10664984125E+03  0.47000000000E+01 0. -1.
<mgrwt>
<rscale>  0 0.12965553E+03</rscale>
<asrwt>0</asrwt>
<pdfrwt beam="2">  1        5 0.56062542E-01 0.12965614E+03</pdfrwt>
<pdfrwt beam="1">  1       -5 0.75368547E-02 0.12965614E+03</pdfrwt>
<totfact> 0.27651690E+02</totfact>
</mgrwt>
</event>
<event>
 8    1  0.1821556E-007  0.1432050E+03  0.7546771E-02  0.1209084E+00
         -5   -1    0    0    0  501 -0.00000000000E+00  0.00000000000E+00  0.16546345650E+03  0.16553019494E+03  0.47000000000E+01 0.  1.
          5   -1    0    0  501    0  0.00000000000E+00 -0.00000000000E+00 -0.13380609830E+03  0.13388861767E+03  0.47000000000E+01 0.  1.
         25    2    1    2    0    0  0.50036935592E+02 -0.48788613859E+02  0.56753649340E+02  0.15403137432E+03  0.12498265398E+03 0.  0.
         25    2    1    2    0    0 -0.50036935592E+02  0.48788613859E+02 -0.25096291144E+02  0.14538743829E+03  0.12499463835E+03 0.  0.
          5    1    3    3  502    0  0.73055256657E+02 -0.59765236649E+02  0.32327447500E+01  0.94559476920E+02  0.47000000000E+01 0.  1.
         -5    1    3    3    0  502 -0.23018321065E+02  0.10976622790E+02  0.53520904590E+02  0.59471897402E+02  0.47000000000E+01 0.  1.
          5    1    4    4  503    0 -0.81659417420E+02 -0.22527531442E+01 -0.53269104829E+01  0.81998788560E+02  0.47000000000E+01 0.  1.
         -5    1    4    4    0  503  0.31622481828E+02  0.51041367003E+02 -0.19769380661E+02  0.63388649727E+02  0.47000000000E+01 0.  1.
<mgrwt>
<rscale>  0 0.14320242E+03</rscale>
<asrwt>0</asrwt>
<pdfrwt beam="2">  1        5 0.20597035E-01 0.14320504E+03</pdfrwt>
<pdfrwt beam="1">  1       -5 0.25467398E-01 0.14320504E+03</pdfrwt>
<totfact> 0.23699836E+02</totfact>
</mgrwt>
</event>
<event>
 8    1  0.1821556E-007  0.1433037E+03  0.7546771E-02  0.1208954E+00
         -5   -1    0    0    0  501 -0.00000000000E+00  0.00000000000E+00  0.19742275677E+02  0.20294024956E+02  0.47000000000E+01 0. -1.
          5   -1    0    0  501    0  0.00000000000E+00 -0.00000000000E+00 -0.10253840589E+04  0.10253948304E+04  0.47000000000E+01 0. -1.
         25    2    1    2    0    0 -0.36124639967E+01  0.69987661438E+02 -0.49692164063E+03  0.51717218919E+03  0.12499853479E+03 0.  0.
         25    2    1    2    0    0  0.36124639967E+01 -0.69987661438E+02 -0.50872014262E+03  0.52851666621E+03  0.12498944076E+03 0.  0.
          5    1    3    3  502    0 -0.62811427275E+02  0.21235893696E+02 -0.23045225577E+03  0.23984697364E+03  0.47000000000E+01 0. -1.
         -5    1    3    3    0  502  0.59198963279E+02  0.48751767742E+02 -0.26646938486E+03  0.27732521555E+03  0.47000000000E+01 0. -1.
          5    1    4    4  503    0  0.19965904854E+02  0.42730595311E+01 -0.86350246648E+01  0.22661642600E+02  0.47000000000E+01 0.  1.
         -5    1    4    4    0  503 -0.16353440857E+02 -0.74260720969E+02 -0.50008511796E+03  0.50585502361E+03  0.47000000000E+01 0.  1.
<mgrwt>
<rscale>  0 0.14330174E+03</rscale>
<asrwt>0</asrwt>
<pdfrwt beam="2">  1        5 0.15779462E+00 0.14330372E+03</pdfrwt>
<pdfrwt beam="1">  1       -5 0.30805448E-02 0.14330372E+03</pdfrwt>
<totfact> 0.10310199E+02</totfact>
</mgrwt>
</event>
<event>
 8    1  0.1821556E-007  0.1354285E+03  0.7546771E-02  0.1219631E+00
         -5   -1    0    0    0  501 -0.00000000000E+00  0.00000000000E+00  0.37353384939E+02  0.37647913174E+02  0.47000000000E+01 0.  1.
          5   -1    0    0  501    0  0.00000000000E+00 -0.00000000000E+00 -0.56826253354E+03  0.56828196965E+03  0.47000000000E+01 0.  1.
         25    2    1    2    0    0  0.14918780348E+02  0.49926895381E+02 -0.15202868732E+03  0.20357271365E+03  0.12495544439E+03 0.  0.
         25    2    1    2    0    0 -0.14918780348E+02 -0.49926895381E+02 -0.37888046128E+03  0.40235716918E+03  0.12500249100E+03 0.  0.
          5    1    4    4  502    0 -0.36987827520E+02 -0.26789531525E+02 -0.37033727187E+02  0.58986145266E+02  0.47000000000E+01 0. -1.
         -5    1    4    4    0  502  0.22069047172E+02 -0.23137363857E+02 -0.34184673409E+03  0.34337102391E+03  0.47000000000E+01 0. -1.
          5    1    3    3  503    0  0.88546348532E+01  0.88719919423E+02 -0.13169218345E+03  0.15910546767E+03  0.47000000000E+01 0.  1.
         -5    1    3    3    0  503  0.60641454953E+01 -0.38793024042E+02 -0.20336503868E+02  0.44467245973E+02  0.47000000000E+01 0.  1.
<mgrwt>
<rscale>  0 0.13541768E+03</rscale>
<asrwt>0</asrwt>
<pdfrwt beam="2">  1        5 0.87449150E-01 0.13542853E+03</pdfrwt>
<pdfrwt beam="1">  1       -5 0.57708261E-02 0.13542853E+03</pdfrwt>
<totfact> 0.16187561E+02</totfact>
</mgrwt>
</event>
<event>
 8    1  0.1821556E-007  0.1822421E+03  0.7546771E-02  0.1165651E+00
         -5   -1    0    0    0  501 -0.00000000000E+00  0.00000000000E+00  0.34945924258E+03  0.34949084712E+03  0.47000000000E+01 0.  1.
          5   -1    0    0  501    0  0.00000000000E+00 -0.00000000000E+00 -0.10750313321E+03  0.10760582535E+03  0.47000000000E+01 0.  1.
         25    2    1    2    0    0 -0.19345854856E+02 -0.13119622296E+03  0.19904665039E+03  0.26987358425E+03  0.12500188570E+03 0.  0.
         25    2    1    2    0    0  0.19345854856E+02  0.13119622296E+03  0.42909458985E+02  0.18722308822E+03  0.12499820828E+03 0.  0.
          5    1    4    4  502    0  0.52158332074E+02  0.17976701267E+02  0.41580326231E+02  0.69243533435E+02  0.47000000000E+01 0.  1.
         -5    1    4    4    0  502 -0.32812477217E+02  0.11321952169E+03  0.13291327540E+01  0.11797955479E+03  0.47000000000E+01 0.  1.
          5    1    3    3  503    0 -0.53519872292E+02 -0.10290514803E+02  0.78586100461E+02  0.95750387000E+02  0.47000000000E+01 0.  1.
         -5    1    3    3    0  503  0.34174017435E+02 -0.12090570816E+03  0.12046054993E+03  0.17412319725E+03  0.47000000000E+01 0.  1.
<mgrwt>
<rscale>  0 0.18224147E+03</rscale>
<asrwt>0</asrwt>
<pdfrwt beam="2">  1        5 0.16549274E-01 0.18224210E+03</pdfrwt>
<pdfrwt beam="1">  1       -5 0.53773291E-01 0.18224210E+03</pdfrwt>
<totfact> 0.83976888E+01</totfact>
</mgrwt>
</event>
<event>
 8    1  0.1821556E-007  0.1269464E+03  0.7546771E-02  0.1232059E+00
          5   -1    0    0  501    0  0.00000000000E+00  0.00000000000E+00  0.18500260604E+03  0.18506229827E+03  0.47000000000E+01 0. -1.
         -5   -1    0    0    0  501 -0.00000000000E+00 -0.00000000000E+00 -0.12461421663E+03  0.12470281868E+03  0.47000000000E+01 0. -1.
         25    2    1    2    0    0  0.22016368292E+02  0.22782366585E+01 -0.54874689096E+02  0.13829905184E+03  0.12500194159E+03 0.  0.
         25    2    1    2    0    0 -0.22016368292E+02 -0.22782366585E+01  0.11526307851E+03  0.17146606511E+03  0.12500049353E+03 0.  0.
          5    1    4    4  502    0 -0.58193447352E+02 -0.26737360815E+01  0.12115051505E+03  0.13451083033E+03  0.47000000000E+01 0.  1.
         -5    1    4    4    0  502  0.36177079060E+02  0.39549942300E+00 -0.58874365397E+01  0.36955234786E+02  0.47000000000E+01 0.  1.
          5    1    3    3  503    0 -0.41618592276E+02  0.51980729596E+01  0.13902891343E+02  0.44435431507E+02  0.47000000000E+01 0. -1.
         -5    1    3    3    0  503  0.63634960569E+02 -0.29198363010E+01 -0.68777580439E+02  0.93863620331E+02  0.47000000000E+01 0. -1.
<mgrwt>
<rscale>  0 0.12694607E+03</rscale>
<asrwt>0</asrwt>
<pdfrwt beam="1">  1        5 0.28473347E-01 0.12694643E+03</pdfrwt>
<pdfrwt beam="2">  1       -5 0.19182825E-01 0.12694643E+03</pdfrwt>
<totfact> 0.20921873E+02</totfact>
</mgrwt>
</event>
<event>
 8    1  0.1821556E-007  0.1363249E+03  0.7546771E-02  0.1218368E+00
          5   -1    0    0  501    0  0.00000000000E+00  0.00000000000E+00  0.56870049316E+03  0.56871991430E+03  0.47000000000E+01 0.  1.
         -5   -1    0    0    0  501 -0.00000000000E+00 -0.00000000000E+00 -0.32487621785E+02  0.32825836916E+02  0.47000000000E+01 0.  1.
         25    2    1    2    0    0 -0.52521201399E+02  0.14000367391E+02  0.27061291041E+03  0.30301127227E+03  0.12501998626E+03 0.  0.
         25    2    1    2    0    0  0.52521201399E+02 -0.14000367391E+02  0.26559996097E+03  0.29853447894E+03  0.12500003586E+03 0.  0.
          5    1    3    3  502    0  0.34887004363E+02 -0.93757825134E+00  0.14477564727E+03  0.14899684617E+03  0.47000000000E+01 0. -1.
         -5    1    3    3    0  502 -0.87408205762E+02  0.14937945643E+02  0.12583726313E+03  0.15401442610E+03  0.47000000000E+01 0. -1.
          5    1    4    4  503    0 -0.28012353111E+02 -0.32076811017E+02  0.41403687231E+02  0.59581616697E+02  0.47000000000E+01 0.  1.
         -5    1    4    4    0  503  0.80533554509E+02  0.18076443626E+02  0.22419627374E+03  0.23895286224E+03  0.47000000000E+01 0.  1.
<mgrwt>
<rscale>  0 0.13632035E+03</rscale>
<asrwt>0</asrwt>
<pdfrwt beam="1">  1        5 0.87519886E-01 0.13632492E+03</pdfrwt>
<pdfrwt beam="2">  1       -5 0.50256066E-02 0.13632492E+03</pdfrwt>
<totfact> 0.20393000E+02</totfact>
</mgrwt>
</event>
<event>
 8    1  0.1821556E-007  0.1280977E+03  0.7546771E-02  0.1230308E+00
          5   -1    0    0  501    0  0.00000000000E+00  0.00000000000E+00  0.55073181592E+03  0.55075187069E+03  0.47000000000E+01 0.  1.
         -5   -1    0    0    0  501 -0.00000000000E+00 -0.00000000000E+00 -0.36101478772E+02  0.36406136426E+02  0.47000000000E+01 0.  1.
         25    2    1    2    0    0 -0.27223354913E+01 -0.27856261655E+02  0.13322900516E+03  0.18482149364E+03  0.12500253707E+03 0.  0.
         25    2    1    2    0    0  0.27223354913E+01  0.27856261655E+02  0.38140133199E+03  0.40233651348E+03  0.12499724639E+03 0.  0.
          5    1    4    4  502    0  0.22351264384E+02  0.16747887470E+02  0.97231098160E+01  0.29944943125E+02  0.47000000000E+01 0.  1.
         -5    1    4    4    0  502 -0.19628928892E+02  0.11108374185E+02  0.37167822218E+03  0.37239157035E+03  0.47000000000E+01 0.  1.
          5    1    3    3  503    0 -0.23304494428E+02 -0.16929602086E+01 -0.18021165809E+02  0.29880060106E+02  0.47000000000E+01 0. -1.
         -5    1    3    3    0  503  0.20582158937E+02 -0.26163301446E+02  0.15125017096E+03  0.15494143353E+03  0.47000000000E+01 0. -1.
<mgrwt>
<rscale>  0 0.12809639E+03</rscale>
<asrwt>0</asrwt>
<pdfrwt beam="1">  1        5 0.84752945E-01 0.12809768E+03</pdfrwt>
<pdfrwt beam="2">  1       -5 0.55790518E-02 0.12809768E+03</pdfrwt>
<totfact> 0.18087840E+02</totfact>
</mgrwt>
</event>
<event>
 8    1  0.1821556E-007  0.1558485E+03  0.7546771E-02  0.1193468E+00
         -5   -1    0    0    0  501 -0.00000000000E+00  0.00000000000E+00  0.11264143112E+03  0.11273944299E+03  0.47000000000E+01 0.  1.
          5   -1    0    0  501    0  0.00000000000E+00 -0.00000000000E+00 -0.25279280515E+03  0.25283649329E+03  0.47000000000E+01 0.  1.
         25    2    1    2    0    0 -0.52290496566E+02  0.76983990966E+02  0.20457111698E+00  0.15584859198E+03  0.12501164296E+03 0.  0.
         25    2    1    2    0    0  0.52290496566E+02 -0.76983990966E+02 -0.14035594515E+03  0.20972734430E+03  0.12499974685E+03 0.  0.
          5    1    3    3  502    0 -0.87475383685E+02  0.50525688280E+02  0.26254155042E+02  0.10448042201E+03  0.47000000000E+01 0.  1.
         -5    1    3    3    0  502  0.35184887119E+02  0.26458302686E+02 -0.26049583925E+02  0.51368169963E+02  0.47000000000E+01 0.  1.
          5    1    4    4  503    0 -0.18388098040E+02 -0.69752017510E+02 -0.29719563515E+02  0.78158867391E+02  0.47000000000E+01 0. -1.
         -5    1    4    4    0  503  0.70678594606E+02 -0.72319734561E+01 -0.11063638163E+03  0.13156847691E+03  0.47000000000E+01 0. -1.
<mgrwt>
<rscale>  0 0.15584607E+03</rscale>
<asrwt>0</asrwt>
<pdfrwt beam="2">  1        5 0.38902101E-01 0.15584846E+03</pdfrwt>
<pdfrwt beam="1">  1       -5 0.17340351E-01 0.15584846E+03</pdfrwt>
<totfact> 0.14504335E+02</totfact>
</mgrwt>
</event>
<event>
 8    1  0.1821556E-007  0.1265632E+03  0.7546771E-02  0.1232647E+00
          5   -1    0    0  501    0  0.00000000000E+00  0.00000000000E+00  0.44145866929E+03  0.44148368791E+03  0.47000000000E+01 0. -1.
         -5   -1    0    0    0  501 -0.00000000000E+00 -0.00000000000E+00 -0.36509048363E+02  0.36810332956E+02  0.47000000000E+01 0. -1.
         25    2    1    2    0    0  0.16208146438E+02  0.11404604944E+02  0.22748906364E+03  0.26032578902E+03  0.12500189328E+03 0.  0.
         25    2    1    2    0    0 -0.16208146438E+02 -0.11404604944E+02  0.17746055729E+03  0.21796823185E+03  0.12500052672E+03 0.  0.
          5    1    3    3  502    0 -0.19118713816E+02  0.42117537697E+02  0.25694850493E+02  0.53119935443E+02  0.47000000000E+01 0.  1.
         -5    1    3    3    0  502  0.35326860254E+02 -0.30712932754E+02  0.20179421315E+03  0.20720585357E+03  0.47000000000E+01 0.  1.
          5    1    4    4  503    0 -0.66300009881E+02  0.17152283353E+02  0.99814985701E+02  0.12114047014E+03  0.47000000000E+01 0.  1.
         -5    1    4    4    0  503  0.50091863442E+02 -0.28556888296E+02  0.77645571585E+02  0.96827761717E+02  0.47000000000E+01 0.  1.
<mgrwt>
<rscale>  0 0.12656286E+03</rscale>
<asrwt>0</asrwt>
<pdfrwt beam="1">  1        5 0.67941818E-01 0.12656320E+03</pdfrwt>
<pdfrwt beam="2">  1       -5 0.56418769E-02 0.12656320E+03</pdfrwt>
<totfact> 0.29298528E+02</totfact>
</mgrwt>
</event>
<event>
 8    1  0.1821556E-007  0.1330944E+03  0.7546771E-02  0.1222960E+00
          5   -1    0    0  501    0  0.00000000000E+00  0.00000000000E+00  0.90058201325E+02  0.90180760841E+02  0.47000000000E+01 0.  1.
         -5   -1    0    0    0  501 -0.00000000000E+00 -0.00000000000E+00 -0.20472041451E+03  0.20477435904E+03  0.47000000000E+01 0.  1.
         25    2    1    2    0    0 -0.62539026032E+01 -0.45085832229E+02 -0.87199055956E+02  0.15905682590E+03  0.12499421963E+03 0.  0.
         25    2    1    2    0    0  0.62539026032E+01  0.45085832229E+02 -0.27463157234E+02  0.13589829398E+03  0.12506909185E+03 0.  0.
          5    1    3    3  502    0  0.18230993727E+02 -0.74353896522E+01 -0.10761278594E+03  0.10950002671E+03  0.47000000000E+01 0. -1.
         -5    1    3    3    0  502 -0.24484896330E+02 -0.37650442577E+02  0.20413729981E+02  0.49556799193E+02  0.47000000000E+01 0. -1.
          5    1    4    4  503    0  0.50395072250E+02  0.44928459199E+02 -0.51843413813E+02  0.85252913786E+02  0.47000000000E+01 0.  1.
         -5    1    4    4    0  503 -0.44141169647E+02  0.15737302981E+00  0.24380256579E+02  0.50645380194E+02  0.47000000000E+01 0.  1.
<mgrwt>
<rscale>  0 0.13307682E+03</rscale>
<asrwt>0</asrwt>
<pdfrwt beam="1">  1        5 0.13868685E-01 0.13309441E+03</pdfrwt>
<pdfrwt beam="2">  1       -5 0.31509025E-01 0.13309441E+03</pdfrwt>
<totfact> 0.31530735E+02</totfact>
</mgrwt>
</event>
<event>
 8    1  0.1821556E-007  0.1519946E+03  0.7546771E-02  0.1198050E+00
         -5   -1    0    0    0  501 -0.00000000000E+00  0.00000000000E+00  0.10485692578E+03  0.10496220693E+03  0.47000000000E+01 0. -1.
          5   -1    0    0  501    0  0.00000000000E+00 -0.00000000000E+00 -0.22146839638E+03  0.22151826245E+03  0.47000000000E+01 0. -1.
         25    2    1    2    0    0  0.86293623782E+02 -0.49785687278E+01 -0.45243059464E+02  0.15858526836E+03  0.12502390675E+03 0.  0.
         25    2    1    2    0    0 -0.86293623782E+02  0.49785687278E+01 -0.71368411143E+02  0.16789520102E+03  0.12499589099E+03 0.  0.
          5    1    3    3  502    0  0.51355707049E+02 -0.60339052980E+02 -0.90333036538E+00  0.79379568950E+02  0.47000000000E+01 0.  1.
         -5    1    3    3    0  502  0.34937916734E+02  0.55360484252E+02 -0.44339729099E+02  0.79205699409E+02  0.47000000000E+01 0.  1.
          5    1    4    4  503    0 -0.66238719137E+02  0.24190539462E+01 -0.10741059242E+03  0.12630338515E+03  0.47000000000E+01 0. -1.
         -5    1    4    4    0  503 -0.20054904645E+02  0.25595147816E+01  0.36042181278E+02  0.41591815871E+02  0.47000000000E+01 0. -1.
<mgrwt>
<rscale>  0 0.15198882E+03</rscale>
<asrwt>0</asrwt>
<pdfrwt beam="2">  1        5 0.34083995E-01 0.15199458E+03</pdfrwt>
<pdfrwt beam="1">  1       -5 0.16143769E-01 0.15199458E+03</pdfrwt>
<totfact> 0.21425491E+02</totfact>
</mgrwt>
</event>
<event>
 8    1  0.1821556E-007  0.1454564E+03  0.7546771E-02  0.1206170E+00
         -5   -1    0    0    0  501 -0.00000000000E+00  0.00000000000E+00  0.86389488051E+02  0.86517244788E+02  0.47000000000E+01 0. -1.
          5   -1    0    0  501    0  0.00000000000E+00 -0.00000000000E+00 -0.27926549018E+03  0.27930503756E+03  0.47000000000E+01 0. -1.
         25    2    1    2    0    0  0.71207023748E+02  0.21485123393E+02 -0.16088424486E+03  0.21688931038E+03  0.12500072781E+03 0.  0.
         25    2    1    2    0    0 -0.71207023748E+02 -0.21485123393E+02 -0.31991757268E+02  0.14893297197E+03  0.12500202737E+03 0.  0.
          5    1    4    4  502    0 -0.46673884075E+02 -0.88756494392E+00 -0.78983328670E+02  0.91867815005E+02  0.47000000000E+01 0. -1.
         -5    1    4    4    0  502 -0.24533139673E+02 -0.20597558449E+02  0.46991571402E+02  0.57065156962E+02  0.47000000000E+01 0. -1.
          5    1    3    3  503    0 -0.15843038046E+01 -0.45885367766E+02 -0.52102644505E+02  0.69604256752E+02  0.47000000000E+01 0. -1.
         -5    1    3    3    0  503  0.72791327552E+02  0.67370491158E+02 -0.10878160036E+03  0.14728505363E+03  0.47000000000E+01 0. -1.
<mgrwt>
<rscale>  0 0.14545610E+03</rscale>
<asrwt>0</asrwt>
<pdfrwt beam="2">  1        5 0.42976791E-01 0.14545638E+03</pdfrwt>
<pdfrwt beam="1">  1       -5 0.13303560E-01 0.14545638E+03</pdfrwt>
<totfact> 0.18697414E+02</totfact>
</mgrwt>
</event>
<event>
 8    1  0.1821556E-007  0.1723770E+03  0.7546771E-02  0.1175394E+00
         -5   -1    0    0    0  501 -0.00000000000E+00  0.00000000000E+00  0.22256528281E+03  0.22261490317E+03  0.47000000000E+01 0. -1.
          5   -1    0    0  501    0  0.00000000000E+00 -0.00000000000E+00 -0.13898472516E+03  0.13906417161E+03  0.47000000000E+01 0. -1.
         25    2    1    2    0    0  0.11869343800E+03  0.91348926941E+00  0.55332176873E+01  0.17245641770E+03  0.12498653056E+03 0.  0.
         25    2    1    2    0    0 -0.11869343800E+03 -0.91348926941E+00  0.78047339970E+02  0.18922265709E+03  0.12499943997E+03 0.  0.
          5    1    3    3  502    0  0.11311128650E+03  0.46807583756E+02  0.19242137381E+02  0.12400589858E+03  0.47000000000E+01 0.  1.
         -5    1    3    3    0  502  0.55821514989E+01 -0.45894094487E+02 -0.13708919694E+02  0.48450519123E+02  0.47000000000E+01 0.  1.
          5    1    4    4  503    0  0.12839585131E+02 -0.26345535226E+02 -0.69635437366E+01  0.30488081508E+02  0.47000000000E+01 0. -1.
         -5    1    4    4    0  503 -0.13153302313E+03  0.25432045957E+02  0.85010883707E+02  0.15873457558E+03  0.47000000000E+01 0. -1.
<mgrwt>
<rscale>  0 0.17237465E+03</rscale>
<asrwt>0</asrwt>
<pdfrwt beam="2">  1        5 0.21392194E-01 0.17237699E+03</pdfrwt>
<pdfrwt beam="1">  1       -5 0.34250741E-01 0.17237699E+03</pdfrwt>
<totfact> 0.13084484E+02</totfact>
</mgrwt>
</event>
<event>
 8    1  0.1821556E-007  0.1361581E+03  0.7546771E-02  0.1218597E+00
          5   -1    0    0  501    0  0.00000000000E+00  0.00000000000E+00  0.24261146914E+03  0.24265699034E+03  0.47000000000E+01 0.  1.
         -5   -1    0    0    0  501 -0.00000000000E+00 -0.00000000000E+00 -0.12197218846E+03  0.12206270830E+03  0.47000000000E+01 0.  1.
         25    2    1    2    0    0  0.14299751617E+02  0.52044798986E+02 -0.51212679266E+02  0.14547083880E+03  0.12500352965E+03 0.  0.
         25    2    1    2    0    0 -0.14299751617E+02 -0.52044798986E+02  0.17185195995E+03  0.21924885984E+03  0.12499528953E+03 0.  0.
          5    1    4    4  502    0 -0.20857121806E+02 -0.56087374952E+02  0.18985131812E+03  0.19911410335E+03  0.47000000000E+01 0.  1.
         -5    1    4    4    0  502  0.65573701887E+01  0.40425759652E+01 -0.17999358175E+02  0.20134756491E+02  0.47000000000E+01 0.  1.
          5    1    3    3  503    0 -0.74411557224E+01  0.56753189762E+02 -0.86298755301E+02  0.10366224247E+03  0.47000000000E+01 0. -1.
         -5    1    3    3    0  503  0.21740907340E+02 -0.47083907759E+01  0.35086076035E+02  0.41808596331E+02  0.47000000000E+01 0. -1.
<mgrwt>
<rscale>  0 0.13615620E+03</rscale>
<asrwt>0</asrwt>
<pdfrwt beam="1">  1        5 0.37335306E-01 0.13615809E+03</pdfrwt>
<pdfrwt beam="2">  1       -5 0.18775417E-01 0.13615809E+03</pdfrwt>
<totfact> 0.13030858E+02</totfact>
</mgrwt>
</event>
<event>
 8    1  0.1821556E-007  0.1748409E+03  0.7546771E-02  0.1172892E+00
          5   -1    0    0  501    0  0.00000000000E+00  0.00000000000E+00  0.14031956900E+03  0.14039826012E+03  0.47000000000E+01 0.  1.
         -5   -1    0    0    0  501 -0.00000000000E+00 -0.00000000000E+00 -0.21770973462E+03  0.21776046140E+03  0.47000000000E+01 0.  1.
         25    2    1    2    0    0  0.99746964164E+02 -0.70677140720E+02 -0.36868945875E+02  0.17868359296E+03  0.12499516848E+03 0.  0.
         25    2    1    2    0    0 -0.99746964164E+02  0.70677140720E+02 -0.40521219742E+02  0.17947512855E+03  0.12499854975E+03 0.  0.
          5    1    4    4  502    0 -0.62699919485E+02  0.10610897309E+03 -0.29942123695E+02  0.12692129390E+03  0.47000000000E+01 0.  1.
         -5    1    4    4    0  502 -0.37047044679E+02 -0.35431832365E+02 -0.10579096046E+02  0.52553834659E+02  0.47000000000E+01 0.  1.
          5    1    3    3  503    0 -0.12241910589E+02 -0.21086593307E+02 -0.49587996458E+02  0.55457805446E+02  0.47000000000E+01 0. -1.
         -5    1    3    3    0  503  0.11198887475E+03 -0.49590547413E+02  0.12719050582E+02  0.12322578752E+03  0.47000000000E+01 0. -1.
<mgrwt>
<rscale>  0 0.17484033E+03</rscale>
<asrwt>0</asrwt>
<pdfrwt beam="1">  1        5 0.21597581E-01 0.17484093E+03</pdfrwt>
<pdfrwt beam="2">  1       -5 0.33503760E-01 0.17484093E+03</pdfrwt>
<totfact> 0.13487792E+02</totfact>
</mgrwt>
</event>
<event>
 8    1  0.1821556E-007  0.1273870E+03  0.7546771E-02  0.1231388E+00
          5   -1    0    0  501    0  0.00000000000E+00  0.00000000000E+00  0.47022635003E+03  0.47024983813E+03  0.47000000000E+01 0.  1.
         -5   -1    0    0    0  501 -0.00000000000E+00 -0.00000000000E+00 -0.34401442270E+02  0.34721020006E+02  0.47000000000E+01 0.  1.
         25    2    1    2    0    0  0.23893161392E+02 -0.54864396079E+01  0.20593275633E+03  0.24214422559E+03  0.12499816669E+03 0.  0.
         25    2    1    2    0    0 -0.23893161392E+02  0.54864396079E+01  0.22989215143E+03  0.26282663255E+03  0.12500581309E+03 0.  0.
          5    1    4    4  502    0 -0.10131559962E+02  0.32587357878E+02  0.38056094993E+01  0.34657712913E+02  0.47000000000E+01 0. -1.
         -5    1    4    4    0  502 -0.13761601430E+02 -0.27100918270E+02  0.22608654193E+03  0.22816891963E+03  0.47000000000E+01 0. -1.
          5    1    3    3  503    0 -0.38588059971E+02 -0.38805741390E+02  0.71859376219E+02  0.90447685917E+02  0.47000000000E+01 0. -1.
         -5    1    3    3    0  503  0.62481221363E+02  0.33319301782E+02  0.13407338011E+03  0.15169653967E+03  0.47000000000E+01 0. -1.
<mgrwt>
<rscale>  0 0.12738508E+03</rscale>
<asrwt>0</asrwt>
<pdfrwt beam="1">  1        5 0.72368900E-01 0.12738696E+03</pdfrwt>
<pdfrwt beam="2">  1       -5 0.53189197E-02 0.12738696E+03</pdfrwt>
<totfact> 0.28112245E+02</totfact>
</mgrwt>
</event>
<event>
 8    1  0.1821556E-007  0.1271770E+03  0.7546771E-02  0.1231706E+00
         -5   -1    0    0    0  501 -0.00000000000E+00  0.00000000000E+00  0.30567550805E+03  0.30571163901E+03  0.47000000000E+01 0.  1.
          5   -1    0    0  501    0  0.00000000000E+00 -0.00000000000E+00 -0.57490385532E+02  0.57682184672E+02  0.47000000000E+01 0.  1.
         25    2    1    2    0    0 -0.23102226242E+02  0.39680904265E+01  0.17606118851E+03  0.21718896489E+03  0.12499618302E+03 0.  0.
         25    2    1    2    0    0  0.23102226242E+02 -0.39680904265E+01  0.72123934014E+02  0.14620485879E+03  0.12499816110E+03 0.  0.
          5    1    4    4  502    0 -0.31173191089E+02 -0.44500896968E+02  0.52070951974E+02  0.75402730143E+02  0.47000000000E+01 0.  1.
         -5    1    4    4    0  502  0.54275417331E+02  0.40532806542E+02  0.20052982040E+02  0.70802128649E+02  0.47000000000E+01 0.  1.
          5    1    3    3  503    0  0.49494643881E+02  0.14895416974E+02  0.90722127076E+02  0.10451883831E+03  0.47000000000E+01 0.  1.
         -5    1    3    3    0  503 -0.72596870123E+02 -0.10927326548E+02  0.85339061432E+02  0.11267012658E+03  0.47000000000E+01 0.  1.
<mgrwt>
<rscale>  0 0.12717655E+03</rscale>
<asrwt>0</asrwt>
<pdfrwt beam="2">  1        5 0.88622079E-02 0.12717704E+03</pdfrwt>
<pdfrwt beam="1">  1       -5 0.47044533E-01 0.12717704E+03</pdfrwt>
<totfact> 0.30197037E+02</totfact>
</mgrwt>
</event>
<event>
 8    1  0.1821556E-007  0.1589174E+03  0.7546771E-02  0.1189927E+00
          5   -1    0    0  501    0  0.00000000000E+00  0.00000000000E+00  0.90865575517E+02  0.90987047507E+02  0.47000000000E+01 0.  1.
         -5   -1    0    0    0  501 -0.00000000000E+00 -0.00000000000E+00 -0.28116336627E+03  0.28120264673E+03  0.47000000000E+01 0.  1.
         25    2    1    2    0    0  0.92920796644E+02 -0.31510461425E+02 -0.74189208913E+02  0.17537519384E+03  0.12500094507E+03 0.  0.
         25    2    1    2    0    0 -0.92920796644E+02  0.31510461425E+02 -0.11610858184E+03  0.19681450040E+03  0.12501024423E+03 0.  0.
          5    1    4    4  502    0  0.13465764065E+02 -0.31082319958E+02 -0.35633336713E+02  0.49388886413E+02  0.47000000000E+01 0. -1.
         -5    1    4    4    0  502 -0.10638656071E+03  0.62592781383E+02 -0.80475245122E+02  0.14742561398E+03  0.47000000000E+01 0. -1.
          5    1    3    3  503    0  0.90983791005E+02  0.30937047459E+02 -0.46884499370E+02  0.10702989028E+03  0.47000000000E+01 0. -1.
         -5    1    3    3    0  503  0.19370056391E+01 -0.62447508884E+02 -0.27304709543E+02  0.68345303569E+02  0.47000000000E+01 0. -1.
<mgrwt>
<rscale>  0 0.15891559E+03</rscale>
<asrwt>0</asrwt>
<pdfrwt beam="1">  1        5 0.13991685E-01 0.15891742E+03</pdfrwt>
<pdfrwt beam="2">  1       -5 0.43268268E-01 0.15891742E+03</pdfrwt>
<totfact> 0.17333475E+02</totfact>
</mgrwt>
</event>
<event>
 8    1  0.1821556E-007  0.1367023E+03  0.7546771E-02  0.1217843E+00
         -5   -1    0    0    0  501 -0.00000000000E+00  0.00000000000E+00  0.14666809776E+03  0.14674338452E+03  0.47000000000E+01 0. -1.
          5   -1    0    0  501    0  0.00000000000E+00 -0.00000000000E+00 -0.12800397416E+03  0.12809023148E+03  0.47000000000E+01 0. -1.
         25    2    1    2    0    0 -0.54926419237E+02  0.64221546201E+01  0.19915346761E+02  0.13812563021E+03  0.12499565227E+03 0.  0.
         25    2    1    2    0    0  0.54926419237E+02 -0.64221546201E+01 -0.12512231543E+01  0.13670798579E+03  0.12501740766E+03 0.  0.
          5    1    3    3  502    0 -0.12086412468E+02 -0.56560782785E+02 -0.39553558127E+01  0.58163032548E+02  0.47000000000E+01 0. -1.
         -5    1    3    3    0  502 -0.42840006769E+02  0.62982937405E+02  0.23870702574E+02  0.79962597666E+02  0.47000000000E+01 0. -1.
          5    1    4    4  503    0  0.80242844329E+02  0.15939397618E+02 -0.34653562641E+02  0.88971556500E+02  0.47000000000E+01 0. -1.
         -5    1    4    4    0  503 -0.25316425092E+02 -0.22361552238E+02  0.33402339486E+02  0.47736429287E+02  0.47000000000E+01 0. -1.
<mgrwt>
<rscale>  0 0.13669729E+03</rscale>
<asrwt>0</asrwt>
<pdfrwt beam="2">  1        5 0.19705346E-01 0.13670226E+03</pdfrwt>
<pdfrwt beam="1">  1       -5 0.22576749E-01 0.13670226E+03</pdfrwt>
<totfact> 0.31884116E+02</totfact>
</mgrwt>
</event>
<event>
 8    1  0.1821556E-007  0.1386300E+03  0.7546771E-02  0.1215190E+00
          5   -1    0    0  501    0  0.00000000000E+00  0.00000000000E+00  0.13561882460E+03  0.13570024165E+03  0.47000000000E+01 0.  1.
         -5   -1    0    0    0  501 -0.00000000000E+00 -0.00000000000E+00 -0.21861044985E+03  0.21866096768E+03  0.47000000000E+01 0.  1.
         25    2    1    2    0    0 -0.49442025394E+02 -0.33823646192E+02 -0.14667186237E+03  0.20181897628E+03  0.12501884281E+03 0.  0.
         25    2    1    2    0    0  0.49442025394E+02  0.33823646192E+02  0.63680237118E+02  0.15254223305E+03  0.12500162938E+03 0.  0.
          5    1    4    4  502    0 -0.16736901264E+02 -0.61209512778E+01 -0.27379527843E+02  0.33004824699E+02  0.47000000000E+01 0.  1.
         -5    1    4    4    0  502  0.66178926658E+02  0.39944597470E+02  0.91059764961E+02  0.11953740835E+03  0.47000000000E+01 0.  1.
          5    1    3    3  503    0 -0.76048759516E+02  0.11272553251E+02 -0.12070192644E+03  0.14318355117E+03  0.47000000000E+01 0.  1.
         -5    1    3    3    0  503  0.26606734122E+02 -0.45096199443E+02 -0.25969935936E+02  0.58635425106E+02  0.47000000000E+01 0.  1.
<mgrwt>
<rscale>  0 0.13862607E+03</rscale>
<asrwt>0</asrwt>
<pdfrwt beam="1">  1        5 0.20874583E-01 0.13862995E+03</pdfrwt>
<pdfrwt beam="2">  1       -5 0.33642526E-01 0.13862995E+03</pdfrwt>
<totfact> 0.13260499E+02</totfact>
</mgrwt>
</event>
<event>
 8    1  0.1821556E-007  0.1750566E+03  0.7546771E-02  0.1172675E+00
         -5   -1    0    0    0  501 -0.00000000000E+00  0.00000000000E+00  0.27741915078E+02  0.28137232490E+02  0.47000000000E+01 0. -1.
          5   -1    0    0  501    0  0.00000000000E+00 -0.00000000000E+00 -0.11393499729E+04  0.11393596670E+04  0.47000000000E+01 0. -1.
         25    2    1    2    0    0  0.12182923383E+03  0.13328873872E+02 -0.44251004378E+03  0.47587781130E+03  0.12499812538E+03 0.  0.
         25    2    1    2    0    0 -0.12182923383E+03 -0.13328873872E+02 -0.66909801404E+03  0.69161908816E+03  0.12499915851E+03 0.  0.
          5    1    4    4  502    0 -0.91041443778E+02  0.20830016139E+02 -0.60723550033E+03  0.61439358470E+03  0.47000000000E+01 0.  1.
         -5    1    4    4    0  502 -0.30787790056E+02 -0.34158890010E+02 -0.61862513707E+02  0.77225503465E+02  0.47000000000E+01 0.  1.
          5    1    3    3  503    0  0.66558672369E+02  0.49058292159E+02 -0.11458701531E+03  0.14138262614E+03  0.47000000000E+01 0. -1.
         -5    1    3    3    0  503  0.55270561466E+02 -0.35729418288E+02 -0.32792302846E+03  0.33449518516E+03  0.47000000000E+01 0. -1.
<mgrwt>
<rscale>  0 0.17505641E+03</rscale>
<asrwt>0</asrwt>
<pdfrwt beam="2">  1        5 0.17531573E+00 0.17505659E+03</pdfrwt>
<pdfrwt beam="1">  1       -5 0.42991425E-02 0.17505659E+03</pdfrwt>
<totfact> 0.46819476E+01</totfact>
</mgrwt>
</event>
<event>
 8    1  0.1821556E-007  0.2185495E+03  0.7546771E-02  0.1134970E+00
         -5   -1    0    0    0  501 -0.00000000000E+00  0.00000000000E+00  0.33246911892E+03  0.33250233839E+03  0.47000000000E+01 0.  1.
          5   -1    0    0  501    0  0.00000000000E+00 -0.00000000000E+00 -0.14449825713E+03  0.14457467383E+03  0.47000000000E+01 0.  1.
         25    2    1    2    0    0 -0.12579044637E+03  0.12772195599E+03  0.75011705094E+02  0.23106413947E+03  0.12501098434E+03 0.  0.
         25    2    1    2    0    0  0.12579044637E+03 -0.12772195599E+03  0.11295915669E+03  0.24601287275E+03  0.12500571202E+03 0.  0.
          5    1    4    4  502    0 -0.87857109778E+01  0.80378001094E+01 -0.12032844823E+02  0.17569129248E+02  0.47000000000E+01 0. -1.
         -5    1    4    4    0  502  0.13457615735E+03 -0.13575975610E+03  0.12499200151E+03  0.22844374350E+03  0.47000000000E+01 0. -1.
          5    1    3    3  503    0 -0.68259862185E+02  0.12285394525E+03  0.95091278358E+02  0.16975553560E+03  0.47000000000E+01 0. -1.
         -5    1    3    3    0  503 -0.57530584185E+02  0.48680107451E+01 -0.20079573265E+02  0.61308603864E+02  0.47000000000E+01 0. -1.
<mgrwt>
<rscale>  0 0.21854874E+03</rscale>
<asrwt>0</asrwt>
<pdfrwt beam="2">  1        5 0.22238935E-01 0.21854949E+03</pdfrwt>
<pdfrwt beam="1">  1       -5 0.51157529E-01 0.21854949E+03</pdfrwt>
<totfact> 0.56487457E+01</totfact>
</mgrwt>
</event>
<event>
 8    1  0.1821556E-007  0.1272807E+03  0.7546771E-02  0.1231550E+00
         -5   -1    0    0    0  501 -0.00000000000E+00  0.00000000000E+00  0.41999642936E+02  0.42261803165E+02  0.47000000000E+01 0. -1.
          5   -1    0    0  501    0  0.00000000000E+00 -0.00000000000E+00 -0.53759675817E+03  0.53761730291E+03  0.47000000000E+01 0. -1.
         25    2    1    2    0    0 -0.15202227838E+02 -0.18520694389E+02 -0.92982179459E+02  0.15762636680E+03  0.12500504774E+03 0.  0.
         25    2    1    2    0    0  0.15202227838E+02  0.18520694389E+02 -0.40261493577E+03  0.42225273928E+03  0.12499786187E+03 0.  0.
          5    1    4    4  502    0 -0.30410892544E+02  0.87816255836E+01 -0.35128016256E+03  0.35273471894E+03  0.47000000000E+01 0. -1.
         -5    1    4    4    0  502  0.45613120381E+02  0.97390688057E+01 -0.51334773208E+02  0.69518020343E+02  0.47000000000E+01 0. -1.
          5    1    3    3  503    0  0.26109503880E+02  0.27725074748E+02  0.78417227851E+01  0.39165910929E+02  0.47000000000E+01 0.  1.
         -5    1    3    3    0  503 -0.41311731718E+02 -0.46245769137E+02 -0.10082390224E+03  0.11846045587E+03  0.47000000000E+01 0.  1.
<mgrwt>
<rscale>  0 0.12727897E+03</rscale>
<asrwt>0</asrwt>
<pdfrwt beam="2">  1        5 0.82728935E-01 0.12728074E+03</pdfrwt>
<pdfrwt beam="1">  1       -5 0.64832305E-02 0.12728074E+03</pdfrwt>
<totfact> 0.14838814E+02</totfact>
</mgrwt>
</event>
<event>
 8    1  0.1821556E-007  0.1379162E+03  0.7546771E-02  0.1216166E+00
         -5   -1    0    0    0  501 -0.00000000000E+00  0.00000000000E+00  0.14084269291E+03  0.14092109191E+03  0.47000000000E+01 0. -1.
          5   -1    0    0  501    0  0.00000000000E+00 -0.00000000000E+00 -0.16698544133E+03  0.16705157173E+03  0.47000000000E+01 0. -1.
         25    2    1    2    0    0  0.49766389444E+02  0.30297233957E+02  0.54419923335E+02  0.14826463628E+03  0.12500503355E+03 0.  0.
         25    2    1    2    0    0 -0.49766389444E+02 -0.30297233957E+02 -0.80562671763E+02  0.15970802735E+03  0.12498677536E+03 0.  0.
          5    1    4    4  502    0  0.31950495896E+02 -0.99767413386E+01  0.10690890560E+02  0.35450736194E+02  0.47000000000E+01 0. -1.
         -5    1    4    4    0  502 -0.81716885340E+02 -0.20320492618E+02 -0.91253562322E+02  0.12425729116E+03  0.47000000000E+01 0. -1.
          5    1    3    3  503    0  0.72871264080E+02 -0.24743496013E+02  0.22025611792E+02  0.80185281058E+02  0.47000000000E+01 0. -1.
         -5    1    3    3    0  503 -0.23104874636E+02  0.55040729970E+02  0.32394311543E+02  0.68079355225E+02  0.47000000000E+01 0. -1.
<mgrwt>
<rscale>  0 0.13791205E+03</rscale>
<asrwt>0</asrwt>
<pdfrwt beam="2">  1        5 0.25701186E-01 0.13791619E+03</pdfrwt>
<pdfrwt beam="1">  1       -5 0.21679224E-01 0.13791619E+03</pdfrwt>
<totfact> 0.20885621E+02</totfact>
</mgrwt>
</event>
<event>
 8    1  0.1821556E-007  0.1274092E+03  0.7546771E-02  0.1231359E+00
         -5   -1    0    0    0  501 -0.00000000000E+00  0.00000000000E+00  0.59269301544E+03  0.59271165043E+03  0.47000000000E+01 0.  1.
          5   -1    0    0  501    0  0.00000000000E+00 -0.00000000000E+00 -0.33580664449E+02  0.33907978778E+02  0.47000000000E+01 0.  1.
         25    2    1    2    0    0  0.24406692829E+02 -0.27384697256E+01  0.41572371423E+03  0.43480355110E+03  0.12499894241E+03 0.  0.
         25    2    1    2    0    0 -0.24406692829E+02  0.27384697256E+01  0.14338863676E+03  0.19181607811E+03  0.12501968164E+03 0.  0.
          5    1    4    4  502    0 -0.41993889158E+02 -0.15322631791E+02 -0.12064988519E+01  0.44964601757E+02  0.47000000000E+01 0.  1.
         -5    1    4    4    0  502  0.17587196329E+02  0.18061101517E+02  0.14459513562E+03  0.14685147635E+03  0.47000000000E+01 0.  1.
          5    1    3    3  503    0  0.35550813786E+02 -0.86522401917E+01  0.26678142597E+02  0.45525102016E+02  0.47000000000E+01 0. -1.
         -5    1    3    3    0  503 -0.11144120957E+02  0.59137704661E+01  0.38904557164E+03  0.38927844909E+03  0.47000000000E+01 0. -1.
<mgrwt>
<rscale>  0 0.12740412E+03</rscale>
<asrwt>0</asrwt>
<pdfrwt beam="2">  1        5 0.51928676E-02 0.12740921E+03</pdfrwt>
<pdfrwt beam="1">  1       -5 0.91210151E-01 0.12740921E+03</pdfrwt>
<totfact> 0.17114202E+02</totfact>
</mgrwt>
</event>
<event>
 8    1  0.1821556E-007  0.1340426E+03  0.7546771E-02  0.1221589E+00
          5   -1    0    0  501    0  0.00000000000E+00  0.00000000000E+00  0.24417918508E+02  0.24866136496E+02  0.47000000000E+01 0.  1.
         -5   -1    0    0    0  501 -0.00000000000E+00 -0.00000000000E+00 -0.76274656495E+03  0.76276104537E+03  0.47000000000E+01 0.  1.
         25    2    1    2    0    0 -0.47992284970E+02 -0.62200664287E+01 -0.45254000329E+03  0.47196506924E+03  0.12496648896E+03 0.  0.
         25    2    1    2    0    0  0.47992284970E+02  0.62200664287E+01 -0.28578864315E+03  0.31566211263E+03  0.12500188860E+03 0.  0.
          5    1    3    3  502    0  0.12182847923E+02 -0.18829828310E+02 -0.97504269122E+01  0.24902711552E+02  0.47000000000E+01 0. -1.
         -5    1    3    3    0  502 -0.60175132892E+02  0.12609761881E+02 -0.44278957637E+03  0.44706235768E+03  0.47000000000E+01 0. -1.
          5    1    4    4  503    0  0.90388090919E+02 -0.84617169919E+00 -0.20292018402E+03  0.22219229075E+03  0.47000000000E+01 0. -1.
         -5    1    4    4    0  503 -0.42395805950E+02  0.70662381279E+01 -0.82868459135E+02  0.93469821883E+02  0.47000000000E+01 0. -1.
<mgrwt>
<rscale>  0 0.13403435E+03</rscale>
<asrwt>0</asrwt>
<pdfrwt beam="1">  1        5 0.37921956E-02 0.13404261E+03</pdfrwt>
<pdfrwt beam="2">  1       -5 0.11738120E+00 0.13404261E+03</pdfrwt>
<totfact> 0.15759457E+02</totfact>
</mgrwt>
</event>
<event>
 8    1  0.1821556E-007  0.1455957E+03  0.7546771E-02  0.1205994E+00
         -5   -1    0    0    0  501 -0.00000000000E+00  0.00000000000E+00  0.19628450488E+04  0.19628506759E+04  0.47000000000E+01 0. -1.
          5   -1    0    0  501    0  0.00000000000E+00 -0.00000000000E+00 -0.10730019696E+02  0.11714235898E+02  0.47000000000E+01 0. -1.
         25    2    1    2    0    0 -0.13158872540E+02  0.73466264139E+02  0.11689585146E+04  0.11779907064E+04  0.12501059063E+03 0.  0.
         25    2    1    2    0    0  0.13158872540E+02 -0.73466264139E+02  0.78315651458E+03  0.79657420533E+03  0.12500356150E+03 0.  0.
          5    1    4    4  502    0  0.52038437541E+02 -0.99139417416E+01  0.15234446177E+03  0.16136049782E+03  0.47000000000E+01 0. -1.
         -5    1    4    4    0  502 -0.38879565000E+02 -0.63552322397E+02  0.63081205281E+03  0.63521370752E+03  0.47000000000E+01 0. -1.
          5    1    3    3  503    0  0.49339945877E+02  0.71453928736E+00  0.40019411023E+03  0.40325222466E+03  0.47000000000E+01 0.  1.
         -5    1    3    3    0  503 -0.62498818418E+02  0.72751724852E+02  0.76876440433E+03  0.77473848177E+03  0.47000000000E+01 0.  1.
<mgrwt>
<rscale>  0 0.14559415E+03</rscale>
<asrwt>0</asrwt>
<pdfrwt beam="2">  1        5 0.17269157E-02 0.14559566E+03</pdfrwt>
<pdfrwt beam="1">  1       -5 0.30205202E+00 0.14559566E+03</pdfrwt>
<totfact> 0.28848036E+01</totfact>
</mgrwt>
</event>
<event>
 8    1  0.1821556E-007  0.1264078E+03  0.7546771E-02  0.1232890E+00
          5   -1    0    0  501    0  0.00000000000E+00  0.00000000000E+00  0.10550545024E+03  0.10561008489E+03  0.47000000000E+01 0.  1.
         -5   -1    0    0    0  501 -0.00000000000E+00 -0.00000000000E+00 -0.15132325874E+03  0.15139623059E+03  0.47000000000E+01 0.  1.
         25    2    1    2    0    0  0.17948019455E+02  0.56600237259E+01 -0.19568407279E+02  0.12790184130E+03  0.12498716403E+03 0.  0.
         25    2    1    2    0    0 -0.17948019455E+02 -0.56600237259E+01 -0.26249401221E+02  0.12910447418E+03  0.12499906767E+03 0.  0.
          5    1    3    3  502    0  0.18538961105E+00  0.64306581880E+02 -0.45665456728E+01  0.64639880737E+02  0.47000000000E+01 0. -1.
         -5    1    3    3    0  502  0.17762629844E+02 -0.58646558154E+02 -0.15001861606E+02  0.63261960560E+02  0.47000000000E+01 0. -1.
          5    1    4    4  503    0  0.25204566779E+02 -0.48342854544E+02 -0.38627804302E+02  0.66981333498E+02  0.47000000000E+01 0. -1.
         -5    1    4    4    0  503 -0.43152586234E+02  0.42682830818E+02  0.12378403081E+02  0.62123140682E+02  0.47000000000E+01 0. -1.
<mgrwt>
<rscale>  0 0.12640487E+03</rscale>
<asrwt>0</asrwt>
<pdfrwt beam="1">  1        5 0.16245270E-01 0.12640781E+03</pdfrwt>
<pdfrwt beam="2">  1       -5 0.23294163E-01 0.12640781E+03</pdfrwt>
<totfact> 0.41691558E+02</totfact>
</mgrwt>
</event>
<event>
 8    1  0.1821556E-007  0.1616614E+03  0.7546771E-02  0.1186834E+00
          5   -1    0    0  501    0  0.00000000000E+00  0.00000000000E+00  0.12557163050E+04  0.12557251008E+04  0.47000000000E+01 0.  1.
         -5   -1    0    0    0  501 -0.00000000000E+00 -0.00000000000E+00 -0.21014949325E+02  0.21534114682E+02  0.47000000000E+01 0.  1.
         25    2    1    2    0    0 -0.53902305851E+01  0.10237079890E+03  0.71238119837E+03  0.73049349411E+03  0.12499975236E+03 0.  0.
         25    2    1    2    0    0  0.53902305851E+01 -0.10237079890E+03  0.52232015731E+03  0.54676572133E+03  0.12500228890E+03 0.  0.
          5    1    3    3  502    0 -0.33499050150E+02  0.53495542128E+02  0.61201461800E+03  0.61527875149E+03  0.47000000000E+01 0. -1.
         -5    1    3    3    0  502  0.28108819565E+02  0.48875256768E+02  0.10036658037E+03  0.11521474262E+03  0.47000000000E+01 0. -1.
          5    1    4    4  503    0 -0.25532325457E+02 -0.11797499404E+02  0.33638819998E+03  0.33759471518E+03  0.47000000000E+01 0.  1.
         -5    1    4    4    0  503  0.30922556042E+02 -0.90573299493E+02  0.18593195734E+03  0.20917100615E+03  0.47000000000E+01 0.  1.
<mgrwt>
<rscale>  0 0.16166091E+03</rscale>
<asrwt>0</asrwt>
<pdfrwt beam="1">  1        5 0.19322780E+00 0.16166140E+03</pdfrwt>
<pdfrwt beam="2">  1       -5 0.32736804E-02 0.16166140E+03</pdfrwt>
<totfact> 0.53554590E+01</totfact>
</mgrwt>
</event>
<event>
 8    1  0.1821556E-007  0.1377515E+03  0.7546771E-02  0.1216396E+00
         -5   -1    0    0    0  501 -0.00000000000E+00  0.00000000000E+00  0.19185856486E+03  0.19191612468E+03  0.47000000000E+01 0. -1.
          5   -1    0    0  501    0  0.00000000000E+00 -0.00000000000E+00 -0.11068170392E+03  0.11078144964E+03  0.47000000000E+01 0. -1.
         25    2    1    2    0    0 -0.56544274083E+02  0.12093602828E+02  0.90233026752E+02  0.16467381302E+03  0.12502781857E+03 0.  0.
         25    2    1    2    0    0  0.56544274083E+02 -0.12093602828E+02 -0.90561658121E+01  0.13802376130E+03  0.12500013753E+03 0.  0.
          5    1    4    4  502    0  0.89838739718E+02 -0.80717422625E+01  0.21014566939E+02  0.92735398856E+02  0.47000000000E+01 0. -1.
         -5    1    4    4    0  502 -0.33294465636E+02 -0.40218605653E+01 -0.30070732751E+02  0.45288362441E+02  0.47000000000E+01 0. -1.
          5    1    3    3  503    0 -0.91541147298E+02  0.32063307571E+02  0.61115947027E+02  0.11473921005E+03  0.47000000000E+01 0. -1.
         -5    1    3    3    0  503  0.34996873215E+02 -0.19969704743E+02  0.29117079726E+02  0.49934602974E+02  0.47000000000E+01 0. -1.
<mgrwt>
<rscale>  0 0.13774518E+03</rscale>
<asrwt>0</asrwt>
<pdfrwt beam="2">  1        5 0.17040055E-01 0.13775146E+03</pdfrwt>
<pdfrwt beam="1">  1       -5 0.29528803E-01 0.13775146E+03</pdfrwt>
<totfact> 0.24946376E+02</totfact>
</mgrwt>
</event>
<event>
 8    1  0.1821556E-007  0.1457615E+03  0.7546771E-02  0.1205794E+00
          5   -1    0    0  501    0  0.00000000000E+00  0.00000000000E+00  0.99791786652E+03  0.99792893450E+03  0.47000000000E+01 0. -1.
         -5   -1    0    0    0  501 -0.00000000000E+00 -0.00000000000E+00 -0.24709224106E+02  0.25152251508E+02  0.47000000000E+01 0. -1.
         25    2    1    2    0    0  0.63238112771E+02  0.40135671601E+02  0.29065110060E+03  0.32513333292E+03  0.12499476330E+03 0.  0.
         25    2    1    2    0    0 -0.63238112771E+02 -0.40135671601E+02  0.68255754181E+03  0.69794785309E+03  0.12504589842E+03 0.  0.
          5    1    3    3  502    0  0.53635972038E+02 -0.38410131647E+02  0.14280388885E+03  0.15737597142E+03  0.47000000000E+01 0. -1.
         -5    1    3    3    0  502  0.96021407324E+01  0.78545803248E+02  0.14784721175E+03  0.16775736150E+03  0.47000000000E+01 0. -1.
          5    1    4    4  503    0 -0.82237294627E+02 -0.71296432376E+02  0.51550206015E+03  0.52688767106E+03  0.47000000000E+01 0. -1.
         -5    1    4    4    0  503  0.18999181857E+02  0.31160760776E+02  0.16705548166E+03  0.17106018203E+03  0.47000000000E+01 0. -1.
<mgrwt>
<rscale>  0 0.14575051E+03</rscale>
<asrwt>0</asrwt>
<pdfrwt beam="1">  1        5 0.15356075E+00 0.14576148E+03</pdfrwt>
<pdfrwt beam="2">  1       -5 0.38363496E-02 0.14576148E+03</pdfrwt>
<totfact> 0.78187846E+01</totfact>
</mgrwt>
</event>
<event>
 8    1  0.1821556E-007  0.1320004E+03  0.7546771E-02  0.1224519E+00
         -5   -1    0    0    0  501 -0.00000000000E+00  0.00000000000E+00  0.18650248286E+04  0.18650307507E+04  0.47000000000E+01 0. -1.
          5   -1    0    0  501    0  0.00000000000E+00 -0.00000000000E+00 -0.88134864950E+01  0.99883704475E+01  0.47000000000E+01 0. -1.
         25    2    1    2    0    0 -0.56575425059E+01 -0.42013015988E+02  0.85038975635E+03  0.86057288956E+03  0.12500343693E+03 0.  0.
         25    2    1    2    0    0  0.56575425059E+01  0.42013015988E+02  0.10058215857E+04  0.10144462316E+04  0.12500797269E+03 0.  0.
          5    1    3    3  502    0 -0.31734285496E+02 -0.20239199222E+02  0.79162027344E+03  0.79252850887E+03  0.47000000000E+01 0. -1.
         -5    1    3    3    0  502  0.26076742990E+02 -0.21773816765E+02  0.58769482915E+02  0.68044380691E+02  0.47000000000E+01 0. -1.
          5    1    4    4  503    0  0.11792455360E+02  0.77979408637E+02  0.87473251392E+03  0.87829318060E+03  0.47000000000E+01 0.  1.
         -5    1    4    4    0  503 -0.61349128541E+01 -0.35966392649E+02  0.13108907181E+03  0.13615305103E+03  0.47000000000E+01 0.  1.
<mgrwt>
<rscale>  0 0.13199928E+03</rscale>
<asrwt>0</asrwt>
<pdfrwt beam="2">  1        5 0.14467535E-02 0.13200036E+03</pdfrwt>
<pdfrwt beam="1">  1       -5 0.28701747E+00 0.13200036E+03</pdfrwt>
<totfact> 0.46257976E+01</totfact>
</mgrwt>
</event>
<event>
 8    1  0.1821556E-007  0.1331564E+03  0.7546771E-02  0.1222847E+00
         -5   -1    0    0    0  501 -0.00000000000E+00  0.00000000000E+00  0.69408983105E+03  0.69410574380E+03  0.47000000000E+01 0. -1.
          5   -1    0    0  501    0  0.00000000000E+00 -0.00000000000E+00 -0.34173143593E+02  0.34494836469E+02  0.47000000000E+01 0. -1.
         25    2    1    2    0    0  0.30071782010E+02 -0.34662840591E+02  0.51441239593E+03  0.53136686322E+03  0.12499922261E+03 0.  0.
         25    2    1    2    0    0 -0.30071782010E+02  0.34662840591E+02  0.14550429153E+03  0.19723371704E+03  0.12499526269E+03 0.  0.
          5    1    4    4  502    0  0.44983341244E+02  0.19335683911E+02  0.89841401144E+02  0.10242527531E+03  0.47000000000E+01 0.  1.
         -5    1    4    4    0  502 -0.75055123254E+02  0.15327156680E+02  0.55662890384E+02  0.94808441737E+02  0.47000000000E+01 0.  1.
          5    1    3    3  503    0 -0.40864716057E+02 -0.36796876048E+00  0.81230099011E+02  0.91052069744E+02  0.47000000000E+01 0.  1.
         -5    1    3    3    0  503  0.70936498067E+02 -0.34294871831E+02  0.43318229692E+03  0.44031479348E+03  0.47000000000E+01 0.  1.
<mgrwt>
<rscale>  0 0.13315548E+03</rscale>
<asrwt>0</asrwt>
<pdfrwt beam="2">  1        5 0.52833766E-02 0.13315641E+03</pdfrwt>
<pdfrwt beam="1">  1       -5 0.10680902E+00 0.13315641E+03</pdfrwt>
<totfact> 0.11514942E+02</totfact>
</mgrwt>
</event>
<event>
 8    1  0.1821556E-007  0.1408299E+03  0.7546771E-02  0.1212218E+00
         -5   -1    0    0    0  501 -0.00000000000E+00  0.00000000000E+00  0.20710621074E+02  0.21237227345E+02  0.47000000000E+01 0.  1.
          5   -1    0    0  501    0  0.00000000000E+00 -0.00000000000E+00 -0.99229582743E+03  0.99230695812E+03  0.47000000000E+01 0.  1.
         25    2    1    2    0    0 -0.36071510669E+02 -0.53911253318E+02 -0.37524851086E+03  0.40080481662E+03  0.12500191601E+03 0.  0.
         25    2    1    2    0    0  0.36071510669E+02  0.53911253318E+02 -0.59633669550E+03  0.61273936885E+03  0.12499801048E+03 0.  0.
          5    1    3    3  502    0  0.32745452920E+02 -0.55884612151E+02 -0.12061753944E+03  0.13698917980E+03  0.47000000000E+01 0. -1.
         -5    1    3    3    0  502 -0.68816963589E+02  0.19733588330E+01 -0.25463097142E+03  0.26381563682E+03  0.47000000000E+01 0. -1.
          5    1    4    4  503    0  0.48726334679E+02  0.59343626969E+02 -0.17512867268E+03  0.19128006626E+03  0.47000000000E+01 0. -1.
         -5    1    4    4    0  503 -0.12654824010E+02 -0.54323736516E+01 -0.42120802282E+03  0.42145930260E+03  0.47000000000E+01 0. -1.
<mgrwt>
<rscale>  0 0.14082902E+03</rscale>
<asrwt>0</asrwt>
<pdfrwt beam="2">  1        5 0.15270222E+00 0.14082988E+03</pdfrwt>
<pdfrwt beam="1">  1       -5 0.32276145E-02 0.14082988E+03</pdfrwt>
<totfact> 0.10412943E+02</totfact>
</mgrwt>
</event>
<event>
 8    1  0.1821556E-007  0.1474127E+03  0.7546771E-02  0.1203693E+00
         -5   -1    0    0    0  501 -0.00000000000E+00  0.00000000000E+00  0.43322814270E+03  0.43325363660E+03  0.47000000000E+01 0.  1.
          5   -1    0    0  501    0  0.00000000000E+00 -0.00000000000E+00 -0.56343193585E+02  0.56538884525E+02  0.47000000000E+01 0.  1.
         25    2    1    2    0    0  0.21038240268E+02  0.75264926573E+02  0.27033670950E+03  0.30791630728E+03  0.12499239601E+03 0.  0.
         25    2    1    2    0    0 -0.21038240268E+02 -0.75264926573E+02  0.10654823962E+03  0.18187621385E+03  0.12497605000E+03 0.  0.
          5    1    4    4  502    0  0.27508834114E+02 -0.86582520348E+02  0.42031571611E+02  0.10020983882E+03  0.47000000000E+01 0. -1.
         -5    1    4    4    0  502 -0.48547074381E+02  0.11317593775E+02  0.64516668009E+02  0.81666375032E+02  0.47000000000E+01 0. -1.
          5    1    3    3  503    0 -0.40610044176E+02  0.65993995795E+01  0.32119022369E+02  0.52406577457E+02  0.47000000000E+01 0. -1.
         -5    1    3    3    0  503  0.61648284444E+02  0.68665526993E+02  0.23821768713E+03  0.25550972982E+03  0.47000000000E+01 0. -1.
<mgrwt>
<rscale>  0 0.14740927E+03</rscale>
<asrwt>0</asrwt>
<pdfrwt beam="2">  1        5 0.86851972E-02 0.14741274E+03</pdfrwt>
<pdfrwt beam="1">  1       -5 0.66667503E-01 0.14741274E+03</pdfrwt>
<totfact> 0.15471719E+02</totfact>
</mgrwt>
</event>
<event>
 8    1  0.1821556E-007  0.1420369E+03  0.7546771E-02  0.1210617E+00
          5   -1    0    0  501    0  0.00000000000E+00  0.00000000000E+00  0.11585429610E+02  0.12502486923E+02  0.47000000000E+01 0.  1.
         -5   -1    0    0    0  501 -0.00000000000E+00 -0.00000000000E+00 -0.16865048708E+04  0.16865114198E+04  0.47000000000E+01 0.  1.
         25    2    1    2    0    0  0.12956114514E+02 -0.66193337486E+02 -0.91044718779E+03  0.92146002268E+03  0.12500029120E+03 0.  0.
         25    2    1    2    0    0 -0.12956114514E+02  0.66193337486E+02 -0.76447225338E+03  0.77755388406E+03  0.12499119011E+03 0.  0.
          5    1    3    3  502    0 -0.45533351784E+02 -0.30903679264E+02 -0.64368938577E+03  0.64605451695E+03  0.47000000000E+01 0. -1.
         -5    1    3    3    0  502  0.58489466298E+02 -0.35289658222E+02 -0.26675780202E+03  0.27540550573E+03  0.47000000000E+01 0. -1.
          5    1    4    4  503    0 -0.62290642173E+00  0.99612438889E+02 -0.44333857133E+03  0.45441633424E+03  0.47000000000E+01 0. -1.
         -5    1    4    4    0  503 -0.12333208093E+02 -0.33419101403E+02 -0.32113368205E+03  0.32313754983E+03  0.47000000000E+01 0. -1.
<mgrwt>
<rscale>  0 0.14203494E+03</rscale>
<asrwt>0</asrwt>
<pdfrwt beam="1">  1        5 0.18534218E-02 0.14203694E+03</pdfrwt>
<pdfrwt beam="2">  1       -5 0.25953315E+00 0.14203694E+03</pdfrwt>
<totfact> 0.47548962E+01</totfact>
</mgrwt>
</event>
<event>
 8    1  0.1821556E-007  0.1653101E+03  0.7546771E-02  0.1182837E+00
          5   -1    0    0  501    0  0.00000000000E+00  0.00000000000E+00  0.15815866209E+03  0.15822848161E+03  0.47000000000E+01 0. -1.
         -5   -1    0    0    0  501 -0.00000000000E+00 -0.00000000000E+00 -0.18194766865E+03  0.18200836280E+03  0.47000000000E+01 0. -1.
         25    2    1    2    0    0  0.10731385094E+03  0.13637141577E+02  0.26620923641E+02  0.16743984826E+03  0.12500077989E+03 0.  0.
         25    2    1    2    0    0 -0.10731385094E+03 -0.13637141577E+02 -0.50409930202E+02  0.17279699615E+03  0.12496162043E+03 0.  0.
          5    1    3    3  502    0  0.12488819295E+03  0.17966843378E+02  0.51462545852E+02  0.13634644046E+03  0.47000000000E+01 0. -1.
         -5    1    3    3    0  502 -0.17574342007E+02 -0.43297018005E+01 -0.24841622211E+02  0.31093407802E+02  0.47000000000E+01 0. -1.
          5    1    4    4  503    0 -0.55934134393E+02 -0.18523709557E+02  0.38033588974E+02  0.70287972629E+02  0.47000000000E+01 0. -1.
         -5    1    4    4    0  503 -0.51379716551E+02  0.48865679797E+01 -0.88443519176E+02  0.10250902352E+03  0.47000000000E+01 0. -1.
<mgrwt>
<rscale>  0 0.16530270E+03</rscale>
<asrwt>0</asrwt>
<pdfrwt beam="1">  1        5 0.24342141E-01 0.16531010E+03</pdfrwt>
<pdfrwt beam="2">  1       -5 0.28001988E-01 0.16531010E+03</pdfrwt>
<totfact> 0.15054422E+02</totfact>
</mgrwt>
</event>
<event>
 8    1  0.1821556E-007  0.1632080E+03  0.7546771E-02  0.1185122E+00
         -5   -1    0    0    0  501 -0.00000000000E+00  0.00000000000E+00  0.43350803770E+03  0.43353351514E+03  0.47000000000E+01 0.  1.
          5   -1    0    0  501    0  0.00000000000E+00 -0.00000000000E+00 -0.12228769145E+03  0.12237797792E+03  0.47000000000E+01 0.  1.
         25    2    1    2    0    0  0.72680482216E+02  0.75691895642E+02  0.35173038425E+03  0.38775109007E+03  0.12499971636E+03 0.  0.
         25    2    1    2    0    0 -0.72680482216E+02 -0.75691895642E+02 -0.40510037995E+02  0.16816040298E+03  0.12500056956E+03 0.  0.
          5    1    3    3  502    0  0.46948550927E+02 -0.25227475677E+00  0.29468966131E+02  0.55630387753E+02  0.47000000000E+01 0.  1.
         -5    1    3    3    0  502  0.25731931289E+02  0.75944170399E+02  0.32226141811E+03  0.33212070232E+03  0.47000000000E+01 0.  1.
          5    1    4    4  503    0 -0.10420981782E+01 -0.89731551328E+02 -0.18237621005E+02  0.91692628342E+02  0.47000000000E+01 0. -1.
         -5    1    4    4    0  503 -0.71638384038E+02  0.14039655686E+02 -0.22272416990E+02  0.76467774637E+02  0.47000000000E+01 0. -1.
<mgrwt>
<rscale>  0 0.16320786E+03</rscale>
<asrwt>0</asrwt>
<pdfrwt beam="2">  1        5 0.18822396E-01 0.16320802E+03</pdfrwt>
<pdfrwt beam="1">  1       -5 0.66702449E-01 0.16320802E+03</pdfrwt>
<totfact> 0.39966149E+01</totfact>
</mgrwt>
</event>
<event>
 8    1  0.1821556E-007  0.1391162E+03  0.7546771E-02  0.1214524E+00
         -5   -1    0    0    0  501 -0.00000000000E+00  0.00000000000E+00  0.19281785086E+03  0.19287512439E+03  0.47000000000E+01 0. -1.
          5   -1    0    0  501    0  0.00000000000E+00 -0.00000000000E+00 -0.10370172828E+03  0.10380818102E+03  0.47000000000E+01 0. -1.
         25    2    1    2    0    0 -0.53204384498E+02  0.29966547235E+02  0.17487165712E+02  0.14020959991E+03  0.12499692180E+03 0.  0.
         25    2    1    2    0    0  0.53204384498E+02 -0.29966547235E+02  0.71628956869E+02  0.15647370550E+03  0.12499845026E+03 0.  0.
          5    1    4    4  502    0  0.68220122884E+01  0.24394291918E+02  0.80305144591E+02  0.84336395332E+02  0.47000000000E+01 0. -1.
         -5    1    4    4    0  502  0.46382372210E+02 -0.54360839153E+02 -0.86761877219E+01  0.72137310171E+02  0.47000000000E+01 0. -1.
          5    1    3    3  503    0  0.12828296795E+02  0.35234502974E+02  0.52850728828E+02  0.64971724128E+02  0.47000000000E+01 0.  1.
         -5    1    3    3    0  503 -0.66032681293E+02 -0.52679557389E+01 -0.35363563116E+02  0.75237875785E+02  0.47000000000E+01 0.  1.
<mgrwt>
<rscale>  0 0.13911584E+03</rscale>
<asrwt>0</asrwt>
<pdfrwt beam="2">  1        5 0.15966706E-01 0.13911619E+03</pdfrwt>
<pdfrwt beam="1">  1       -5 0.29676879E-01 0.13911619E+03</pdfrwt>
<totfact> 0.27915867E+02</totfact>
</mgrwt>
</event>
<event>
 8    1  0.1821556E-007  0.1496229E+03  0.7546771E-02  0.1200938E+00
         -5   -1    0    0    0  501 -0.00000000000E+00  0.00000000000E+00  0.94363472068E+03  0.94364642535E+03  0.47000000000E+01 0.  1.
          5   -1    0    0  501    0  0.00000000000E+00 -0.00000000000E+00 -0.23984700129E+02  0.24440864148E+02  0.47000000000E+01 0.  1.
         25    2    1    2    0    0  0.52305343629E+01  0.82059555229E+02  0.39023479033E+03  0.41793504823E+03  0.12500153543E+03 0.  0.
         25    2    1    2    0    0 -0.52305343629E+01 -0.82059555229E+02  0.52941523023E+03  0.55015224127E+03  0.12500349390E+03 0.  0.
          5    1    3    3  502    0  0.18409822966E+02  0.61902250384E+02  0.64907199709E+02  0.91683394126E+02  0.47000000000E+01 0. -1.
         -5    1    3    3    0  502 -0.13179288603E+02  0.20157304844E+02  0.32532759062E+03  0.32625165410E+03  0.47000000000E+01 0. -1.
          5    1    4    4  503    0 -0.41999616818E+02 -0.20997780482E+01  0.65778643522E+02  0.78213149945E+02  0.47000000000E+01 0.  1.
         -5    1    4    4    0  503  0.36769082455E+02 -0.79959777180E+02  0.46363658670E+03  0.47193909133E+03  0.47000000000E+01 0.  1.
<mgrwt>
<rscale>  0 0.14962246E+03</rscale>
<asrwt>0</asrwt>
<pdfrwt beam="2">  1        5 0.37259435E-02 0.14962287E+03</pdfrwt>
<pdfrwt beam="1">  1       -5 0.14521057E+00 0.14962287E+03</pdfrwt>
<totfact> 0.96285175E+01</totfact>
</mgrwt>
</event>
<event>
 8    1  0.1821556E-007  0.1514770E+03  0.7546771E-02  0.1198670E+00
          5   -1    0    0  501    0  0.00000000000E+00  0.00000000000E+00  0.73347330966E+02  0.73497761597E+02  0.47000000000E+01 0.  1.
         -5   -1    0    0    0  501 -0.00000000000E+00 -0.00000000000E+00 -0.31274606912E+03  0.31278138331E+03  0.47000000000E+01 0.  1.
         25    2    1    2    0    0 -0.27306626920E+02  0.81083281469E+02 -0.12665980836E+03  0.19745293900E+03  0.12499922263E+03 0.  0.
         25    2    1    2    0    0  0.27306626920E+02 -0.81083281469E+02 -0.11273892979E+03  0.18882620591E+03  0.12500047736E+03 0.  0.
          5    1    4    4  502    0 -0.33632751770E+02 -0.14456688525E+02 -0.87483480866E+02  0.94950551653E+02  0.47000000000E+01 0.  1.
         -5    1    4    4    0  502  0.60939378690E+02 -0.66626592944E+02 -0.25255448928E+02  0.93875654262E+02  0.47000000000E+01 0.  1.
          5    1    3    3  503    0 -0.71409476781E+02  0.78743507227E+02 -0.97515893840E+02  0.14433049870E+03  0.47000000000E+01 0. -1.
         -5    1    3    3    0  503  0.44102849860E+02  0.23397742426E+01 -0.29143914515E+02  0.53122440292E+02  0.47000000000E+01 0. -1.
<mgrwt>
<rscale>  0 0.15147670E+03</rscale>
<asrwt>0</asrwt>
<pdfrwt beam="1">  1        5 0.11298493E-01 0.15147696E+03</pdfrwt>
<pdfrwt beam="2">  1       -5 0.48129067E-01 0.15147696E+03</pdfrwt>
<totfact> 0.19997560E+02</totfact>
</mgrwt>
</event>
<event>
 8    1  0.1821556E-007  0.1270195E+03  0.7546771E-02  0.1231947E+00
         -5   -1    0    0    0  501 -0.00000000000E+00  0.00000000000E+00  0.23869919931E+03  0.23874546645E+03  0.47000000000E+01 0.  1.
          5   -1    0    0  501    0  0.00000000000E+00 -0.00000000000E+00 -0.68483902549E+02  0.68644991866E+02  0.47000000000E+01 0.  1.
         25    2    1    2    0    0  0.73599470270E+01  0.21320714826E+02  0.10391118643E+03  0.16410687999E+03  0.12499916678E+03 0.  0.
         25    2    1    2    0    0 -0.73599470270E+01 -0.21320714826E+02  0.66304110332E+02  0.14328357832E+03  0.12500082828E+03 0.  0.
          5    1    4    4  502    0  0.14362826348E+02 -0.67473119062E+02  0.14936871306E+02  0.70739753329E+02  0.47000000000E+01 0. -1.
         -5    1    4    4    0  502 -0.21722773375E+02  0.46152404236E+02  0.51367239026E+02  0.72543824996E+02  0.47000000000E+01 0. -1.
          5    1    3    3  503    0 -0.41321800134E+02  0.48883534280E+02  0.81309919425E+02  0.10358804992E+03  0.47000000000E+01 0. -1.
         -5    1    3    3    0  503  0.48681747161E+02 -0.27562819454E+02  0.22601267005E+02  0.60518830071E+02  0.47000000000E+01 0. -1.
<mgrwt>
<rscale>  0 0.12701907E+03</rscale>
<asrwt>0</asrwt>
<pdfrwt beam="2">  1        5 0.10551935E-01 0.12701948E+03</pdfrwt>
<pdfrwt beam="1">  1       -5 0.36738905E-01 0.12701948E+03</pdfrwt>
<totfact> 0.37040217E+02</totfact>
</mgrwt>
</event>
<event>
 8    1  0.1821556E-007  0.1315908E+03  0.7546771E-02  0.1225115E+00
          5   -1    0    0  501    0  0.00000000000E+00  0.00000000000E+00  0.40810228640E+03  0.40812934980E+03  0.47000000000E+01 0.  1.
         -5   -1    0    0    0  501 -0.00000000000E+00 -0.00000000000E+00 -0.45254044072E+02  0.45497456027E+02  0.47000000000E+01 0.  1.
         25    2    1    2    0    0 -0.40425333503E+02 -0.75293450716E+01  0.12337339645E+03  0.18037902020E+03  0.12499878940E+03 0.  0.
         25    2    1    2    0    0  0.40425333503E+02  0.75293450716E+01  0.23947484588E+03  0.27324778563E+03  0.12500100765E+03 0.  0.
          5    1    3    3  502    0 -0.50779490634E+02 -0.57573900697E+02  0.93232758585E+02  0.12086251687E+03  0.47000000000E+01 0. -1.
         -5    1    3    3    0  502  0.10354157131E+02  0.50044555626E+02  0.30140637861E+02  0.59516503328E+02  0.47000000000E+01 0. -1.
          5    1    4    4  503    0 -0.83737139036E+01 -0.47172320257E+02  0.14970678728E+03  0.15725634817E+03  0.47000000000E+01 0. -1.
         -5    1    4    4    0  503  0.48799047407E+02  0.54701665328E+02  0.89768058605E+02  0.11599143746E+03  0.47000000000E+01 0. -1.
<mgrwt>
<rscale>  0 0.13159032E+03</rscale>
<asrwt>0</asrwt>
<pdfrwt beam="1">  1        5 0.62805774E-01 0.13159085E+03</pdfrwt>
<pdfrwt beam="2">  1       -5 0.69829663E-02 0.13159085E+03</pdfrwt>
<totfact> 0.24705898E+02</totfact>
</mgrwt>
</event>
<event>
 8    1  0.1821556E-007  0.1269867E+03  0.7546771E-02  0.1231998E+00
          5   -1    0    0  501    0  0.00000000000E+00  0.00000000000E+00  0.13128332620E+03  0.13136743028E+03  0.47000000000E+01 0.  1.
         -5   -1    0    0    0  501 -0.00000000000E+00 -0.00000000000E+00 -0.12406078992E+03  0.12414978693E+03  0.47000000000E+01 0.  1.
         25    2    1    2    0    0  0.50565926432E+01 -0.21773311643E+02 -0.99551977298E+01  0.12737390318E+03  0.12500143607E+03 0.  0.
         25    2    1    2    0    0 -0.50565926432E+01  0.21773311643E+02  0.17177734018E+02  0.12814331404E+03  0.12500395257E+03 0.  0.
          5    1    3    3  502    0  0.43595675467E+02 -0.28165577410E+02  0.38617625919E+02  0.64863654706E+02  0.47000000000E+01 0. -1.
         -5    1    3    3    0  502 -0.38539082824E+02  0.63922657666E+01 -0.48572823649E+02  0.62510248470E+02  0.47000000000E+01 0. -1.
          5    1    4    4  503    0  0.94809703828E+01  0.11435117154E+02  0.70249687996E+02  0.71956649222E+02  0.47000000000E+01 0. -1.
         -5    1    4    4    0  503 -0.14537563026E+02  0.10338194489E+02 -0.53071953978E+02  0.56186664816E+02  0.47000000000E+01 0. -1.
<mgrwt>
<rscale>  0 0.12698613E+03</rscale>
<asrwt>0</asrwt>
<pdfrwt beam="1">  1        5 0.20210750E-01 0.12698675E+03</pdfrwt>
<pdfrwt beam="2">  1       -5 0.19099591E-01 0.12698675E+03</pdfrwt>
<totfact> 0.40514498E+02</totfact>
</mgrwt>
</event>
<event>
 8    1  0.1821556E-007  0.1732022E+03  0.7546771E-02  0.1174550E+00
          5   -1    0    0  501    0  0.00000000000E+00  0.00000000000E+00  0.34534742025E+03  0.34537940105E+03  0.47000000000E+01 0.  1.
         -5   -1    0    0    0  501 -0.00000000000E+00 -0.00000000000E+00 -0.87163063622E+02  0.87289688165E+02  0.47000000000E+01 0.  1.
         25    2    1    2    0    0 -0.11709077665E+03  0.25762583486E+02  0.14369031157E+03  0.22504646647E+03  0.12500018298E+03 0.  0.
         25    2    1    2    0    0  0.11709077665E+03 -0.25762583486E+02  0.11449404505E+03  0.20762262275E+03  0.12499722574E+03 0.  0.
          5    1    3    3  502    0 -0.11701084891E+03 -0.25017928060E+02  0.82624760546E+02  0.14548668854E+03  0.47000000000E+01 0.  1.
         -5    1    3    3    0  502 -0.79927735227E-01  0.50780511546E+02  0.61065551028E+02  0.79559777927E+02  0.47000000000E+01 0.  1.
          5    1    4    4  503    0  0.94156835296E+02 -0.73824042255E+02  0.79389232812E+02  0.14366711222E+03  0.47000000000E+01 0. -1.
         -5    1    4    4    0  503  0.22933941351E+02  0.48061458768E+02  0.35104812241E+02  0.63955510531E+02  0.47000000000E+01 0. -1.
<mgrwt>
<rscale>  0 0.17320168E+03</rscale>
<asrwt>0</asrwt>
<pdfrwt beam="1">  1        5 0.53142573E-01 0.17320221E+03</pdfrwt>
<pdfrwt beam="2">  1       -5 0.13421902E-01 0.17320221E+03</pdfrwt>
<totfact> 0.12419309E+02</totfact>
</mgrwt>
</event>
<event>
 8    1  0.1821556E-007  0.1375799E+03  0.7546771E-02  0.1216626E+00
          5   -1    0    0  501    0  0.00000000000E+00  0.00000000000E+00  0.22007351216E+03  0.22012369421E+03  0.47000000000E+01 0.  1.
         -5   -1    0    0    0  501 -0.00000000000E+00 -0.00000000000E+00 -0.86963219808E+02  0.87090134914E+02  0.47000000000E+01 0.  1.
         25    2    1    2    0    0  0.56900127506E+02 -0.80088632860E+01  0.49417149337E+02  0.14617731263E+03  0.12499594265E+03 0.  0.
         25    2    1    2    0    0 -0.56900127506E+02  0.80088632860E+01  0.83693143010E+02  0.16103651649E+03  0.12500580409E+03 0.  0.
          5    1    3    3  502    0  0.28515819441E+01  0.53007948690E+02  0.57935833201E+01  0.53606247318E+02  0.47000000000E+01 0. -1.
         -5    1    3    3    0  502  0.54048545562E+02 -0.61016811976E+02  0.43623566017E+02  0.92571065312E+02  0.47000000000E+01 0. -1.
          5    1    4    4  503    0 -0.79326622439E+02  0.41878981977E+02  0.32519332818E+02  0.95530933031E+02  0.47000000000E+01 0.  1.
         -5    1    4    4    0  503  0.22426494933E+02 -0.33870118691E+02  0.51173810193E+02  0.65505583462E+02  0.47000000000E+01 0.  1.
<mgrwt>
<rscale>  0 0.13757762E+03</rscale>
<asrwt>0</asrwt>
<pdfrwt beam="1">  1        5 0.33871086E-01 0.13757986E+03</pdfrwt>
<pdfrwt beam="2">  1       -5 0.13392580E-01 0.13757986E+03</pdfrwt>
<totfact> 0.29415610E+02</totfact>
</mgrwt>
</event>
<event>
 8    1  0.1821556E-007  0.1254960E+03  0.7546771E-02  0.1234299E+00
         -5   -1    0    0    0  501 -0.00000000000E+00  0.00000000000E+00  0.24549274819E+03  0.24553773521E+03  0.47000000000E+01 0.  1.
          5   -1    0    0  501    0  0.00000000000E+00 -0.00000000000E+00 -0.85679223856E+02  0.85808038088E+02  0.47000000000E+01 0.  1.
         25    2    1    2    0    0 -0.40401325080E+01 -0.10372838712E+02  0.16312145008E+03  0.20580618040E+03  0.12499463173E+03 0.  0.
         25    2    1    2    0    0  0.40401325080E+01  0.10372838712E+02 -0.33079257471E+01  0.12553959290E+03  0.12500131423E+03 0.  0.
          5    1    3    3  502    0 -0.13646141172E+01  0.56554775799E+02  0.58690367001E+02  0.81651417722E+02  0.47000000000E+01 0.  1.
         -5    1    3    3    0  502 -0.26755183908E+01 -0.66927614511E+02  0.10443108308E+03  0.12415476268E+03  0.47000000000E+01 0.  1.
          5    1    4    4  503    0  0.60264681559E+02  0.15488880074E+02 -0.21559489149E+02  0.66019988047E+02  0.47000000000E+01 0.  1.
         -5    1    4    4    0  503 -0.56224549051E+02 -0.51160413624E+01  0.18251563402E+02  0.59519604852E+02  0.47000000000E+01 0.  1.
<mgrwt>
<rscale>  0 0.12549434E+03</rscale>
<asrwt>0</asrwt>
<pdfrwt beam="2">  1        5 0.13194788E-01 0.12549600E+03</pdfrwt>
<pdfrwt beam="1">  1       -5 0.37781484E-01 0.12549600E+03</pdfrwt>
<totfact> 0.23478456E+02</totfact>
</mgrwt>
</event>
<event>
 8    1  0.1821556E-007  0.1501532E+03  0.7546771E-02  0.1200288E+00
         -5   -1    0    0    0  501 -0.00000000000E+00  0.00000000000E+00  0.21355308056E+03  0.21360479446E+03  0.47000000000E+01 0.  1.
          5   -1    0    0  501    0  0.00000000000E+00 -0.00000000000E+00 -0.10745401895E+03  0.10755675799E+03  0.47000000000E+01 0.  1.
         25    2    1    2    0    0  0.81112498390E+02 -0.18429359012E+02  0.31144407766E+02  0.15333966417E+03  0.12499679918E+03 0.  0.
         25    2    1    2    0    0 -0.81112498390E+02  0.18429359012E+02  0.74954653847E+02  0.16782188828E+03  0.12500842925E+03 0.  0.
          5    1    4    4  502    0 -0.23305743762E+02 -0.52875094895E+02  0.24161074861E+02  0.62807490723E+02  0.47000000000E+01 0. -1.
         -5    1    4    4    0  502 -0.57806754628E+02  0.71304453907E+02  0.50793578986E+02  0.10501439755E+03  0.47000000000E+01 0. -1.
          5    1    3    3  503    0  0.36207390693E+02  0.26758657863E+02 -0.38073971741E+02  0.59149963952E+02  0.47000000000E+01 0.  1.
         -5    1    3    3    0  503  0.44905107698E+02 -0.45188016875E+02  0.69218379507E+02  0.94189700222E+02  0.47000000000E+01 0.  1.
<mgrwt>
<rscale>  0 0.15015079E+03</rscale>
<asrwt>0</asrwt>
<pdfrwt beam="2">  1        5 0.16543269E-01 0.15015321E+03</pdfrwt>
<pdfrwt beam="1">  1       -5 0.32866201E-01 0.15015321E+03</pdfrwt>
<totfact> 0.21942978E+02</totfact>
</mgrwt>
</event>
<event>
 8    1  0.1821556E-007  0.1934291E+03  0.7546771E-02  0.1155406E+00
         -5   -1    0    0    0  501 -0.00000000000E+00  0.00000000000E+00  0.75873413179E+03  0.75874868879E+03  0.47000000000E+01 0.  1.
          5   -1    0    0  501    0  0.00000000000E+00 -0.00000000000E+00 -0.58268708418E+02  0.58457953956E+02  0.47000000000E+01 0.  1.
         25    2    1    2    0    0 -0.11849962615E+03  0.88012813838E+02  0.51127263790E+03  0.54663931374E+03  0.12500564894E+03 0.  0.
         25    2    1    2    0    0  0.11849962615E+03 -0.88012813838E+02  0.18919278547E+03  0.27056732900E+03  0.12499741058E+03 0.  0.
          5    1    4    4  502    0  0.69632760573E+02 -0.15997226127E+02  0.16538236064E+03  0.18021666904E+03  0.47000000000E+01 0.  1.
         -5    1    4    4    0  502  0.48866865579E+02 -0.72015587711E+02  0.23810424828E+02  0.90350659961E+02  0.47000000000E+01 0.  1.
          5    1    3    3  503    0 -0.10993413813E+03  0.10454663451E+02  0.35657082335E+03  0.37330906335E+03  0.47000000000E+01 0.  1.
         -5    1    3    3    0  503 -0.85654880193E+01  0.77558150387E+02  0.15470181455E+03  0.17333025039E+03  0.47000000000E+01 0.  1.
<mgrwt>
<rscale>  0 0.19342780E+03</rscale>
<asrwt>0</asrwt>
<pdfrwt beam="2">  1        5 0.89800944E-02 0.19342913E+03</pdfrwt>
<pdfrwt beam="1">  1       -5 0.11674400E+00 0.19342913E+03</pdfrwt>
<totfact> 0.41677211E+01</totfact>
</mgrwt>
</event>
<event>
 8    1  0.1821556E-007  0.1321796E+03  0.7546771E-02  0.1224258E+00
         -5   -1    0    0    0  501 -0.00000000000E+00  0.00000000000E+00  0.23250985259E+03  0.23255735110E+03  0.47000000000E+01 0.  1.
          5   -1    0    0  501    0  0.00000000000E+00 -0.00000000000E+00 -0.77055375762E+02  0.77198581165E+02  0.47000000000E+01 0.  1.
         25    2    1    2    0    0  0.42855576956E+02 -0.32111693996E+01  0.10291475472E+03  0.16751714850E+03  0.12499454475E+03 0.  0.
         25    2    1    2    0    0 -0.42855576956E+02  0.32111693996E+01  0.52539722108E+02  0.14223878377E+03  0.12499814848E+03 0.  0.
          5    1    4    4  502    0 -0.28791949903E+02 -0.38087937287E+02 -0.24279403840E+02  0.53770315201E+02  0.47000000000E+01 0. -1.
         -5    1    4    4    0  502 -0.14063627053E+02  0.41299106686E+02  0.76819125948E+02  0.88468468566E+02  0.47000000000E+01 0. -1.
          5    1    3    3  503    0 -0.18047857404E+02  0.21603901796E+02 -0.15133563673E+02  0.32304310535E+02  0.47000000000E+01 0. -1.
         -5    1    3    3    0  503  0.60903434360E+02 -0.24815071195E+02  0.11804831839E+03  0.13521283796E+03  0.47000000000E+01 0. -1.
<mgrwt>
<rscale>  0 0.13217876E+03</rscale>
<asrwt>0</asrwt>
<pdfrwt beam="2">  1        5 0.11869343E-01 0.13217961E+03</pdfrwt>
<pdfrwt beam="1">  1       -5 0.35785416E-01 0.13217961E+03</pdfrwt>
<totfact> 0.32217112E+02</totfact>
</mgrwt>
</event>
<event>
 8    1  0.1821556E-007  0.1641701E+03  0.7546771E-02  0.1184068E+00
          5   -1    0    0  501    0  0.00000000000E+00  0.00000000000E+00  0.18816323138E+02  0.19394432614E+02  0.47000000000E+01 0. -1.
         -5   -1    0    0    0  501 -0.00000000000E+00 -0.00000000000E+00 -0.14276369770E+04  0.14276447136E+04  0.47000000000E+01 0. -1.
         25    2    1    2    0    0  0.10633819452E+03  0.43247483843E+01 -0.78457285893E+03  0.80156495893E+03  0.12500118940E+03 0.  0.
         25    2    1    2    0    0 -0.10633819452E+03 -0.43247483843E+01 -0.62424779495E+03  0.64547418724E+03  0.12500040733E+03 0.  0.
          5    1    3    3  502    0  0.51194792537E+02  0.63984265998E+02 -0.43130608361E+03  0.43904660440E+03  0.47000000000E+01 0.  1.
         -5    1    3    3    0  502  0.55143401987E+02 -0.59659517614E+02 -0.35326677532E+03  0.36251835453E+03  0.47000000000E+01 0.  1.
          5    1    4    4  503    0 -0.24077411166E+02 -0.42547497885E+02 -0.81312457927E+02  0.94993774106E+02  0.47000000000E+01 0.  1.
         -5    1    4    4    0  503 -0.82260783357E+02  0.38222749501E+02 -0.54293533702E+03  0.55048041314E+03  0.47000000000E+01 0.  1.
<mgrwt>
<rscale>  0 0.16416992E+03</rscale>
<asrwt>0</asrwt>
<pdfrwt beam="1">  1        5 0.29398851E-02 0.16417007E+03</pdfrwt>
<pdfrwt beam="2">  1       -5 0.21968144E+00 0.16417007E+03</pdfrwt>
<totfact> 0.42520268E+01</totfact>
</mgrwt>
</event>
<event>
 8    1  0.1821556E-007  0.1259771E+03  0.7546771E-02  0.1233550E+00
          5   -1    0    0  501    0  0.00000000000E+00  0.00000000000E+00  0.23864297946E+03  0.23868925750E+03  0.47000000000E+01 0.  1.
         -5   -1    0    0    0  501 -0.00000000000E+00 -0.00000000000E+00 -0.87075959701E+02  0.87202710725E+02  0.47000000000E+01 0.  1.
         25    2    1    2    0    0 -0.15429530672E+02  0.28592336651E+01 -0.35949024340E+01  0.12602841327E+03  0.12499596791E+03 0.  0.
         25    2    1    2    0    0  0.15429530672E+02 -0.28592336651E+01  0.15516192220E+03  0.19986355496E+03  0.12499589140E+03 0.  0.
          5    1    3    3  502    0 -0.39765619001E+02  0.29970947598E+02  0.43510336930E+02  0.66293299618E+02  0.47000000000E+01 0. -1.
         -5    1    3    3    0  502  0.24336088329E+02 -0.27111713933E+02 -0.47105239364E+02  0.59735113652E+02  0.47000000000E+01 0. -1.
          5    1    4    4  503    0 -0.21707583015E+02  0.25994297306E+02  0.14819728301E+03  0.15209026052E+03  0.47000000000E+01 0.  1.
         -5    1    4    4    0  503  0.37137113687E+02 -0.28853530971E+02  0.69646391834E+01  0.47773294438E+02  0.47000000000E+01 0.  1.
<mgrwt>
<rscale>  0 0.12597711E+03</rscale>
<asrwt>0</asrwt>
<pdfrwt beam="1">  1        5 0.36727614E-01 0.12597713E+03</pdfrwt>
<pdfrwt beam="2">  1       -5 0.13409611E-01 0.12597713E+03</pdfrwt>
<totfact> 0.24185320E+02</totfact>
</mgrwt>
</event>
<event>
 8    1  0.1821556E-007  0.1401914E+03  0.7546771E-02  0.1213073E+00
          5   -1    0    0  501    0  0.00000000000E+00  0.00000000000E+00  0.21670938334E+02  0.22174750693E+02  0.47000000000E+01 0.  1.
         -5   -1    0    0    0  501 -0.00000000000E+00 -0.00000000000E+00 -0.89808402127E+03  0.89809631959E+03  0.47000000000E+01 0.  1.
         25    2    1    2    0    0 -0.16961957117E+02 -0.61155639896E+02 -0.41581362752E+03  0.43881042359E+03  0.12500357892E+03 0.  0.
         25    2    1    2    0    0  0.16961957117E+02  0.61155639896E+02 -0.46059945542E+03  0.48146064669E+03  0.12499910280E+03 0.  0.
          5    1    4    4  502    0  0.50434457702E+02 -0.59024796009E+01 -0.91049400546E+02  0.10435783214E+03  0.47000000000E+01 0.  1.
         -5    1    4    4    0  502 -0.33472500585E+02  0.67058119496E+02 -0.36955005488E+03  0.37710281455E+03  0.47000000000E+01 0.  1.
          5    1    3    3  503    0 -0.47877421958E+02 -0.28368117964E+02 -0.67711742529E+02  0.87772249182E+02  0.47000000000E+01 0. -1.
         -5    1    3    3    0  503  0.30915464841E+02 -0.32787521932E+02 -0.34810188499E+03  0.35103817441E+03  0.47000000000E+01 0. -1.
<mgrwt>
<rscale>  0 0.14019035E+03</rscale>
<asrwt>0</asrwt>
<pdfrwt beam="1">  1        5 0.33736920E-02 0.14019135E+03</pdfrwt>
<pdfrwt beam="2">  1       -5 0.13820644E+00 0.14019135E+03</pdfrwt>
<totfact> 0.12671007E+02</totfact>
</mgrwt>
</event>
<event>
 8    1  0.1821556E-007  0.1338395E+03  0.7546771E-02  0.1221867E+00
         -5   -1    0    0    0  501 -0.00000000000E+00  0.00000000000E+00  0.12613747169E+02  0.13460929301E+02  0.47000000000E+01 0.  1.
          5   -1    0    0  501    0  0.00000000000E+00 -0.00000000000E+00 -0.14572446380E+04  0.14572522173E+04  0.47000000000E+01 0.  1.
         25    2    1    2    0    0 -0.21625192349E+02  0.42666404201E+02 -0.54569144456E+03  0.56186490446E+03  0.12499978880E+03 0.  0.
         25    2    1    2    0    0  0.21625192349E+02 -0.42666404201E+02 -0.89893944623E+03  0.90884824216E+03  0.12499971318E+03 0.  0.
          5    1    3    3  502    0  0.43348837453E+02  0.45482185166E+02 -0.18795294545E+03  0.19823256690E+03  0.47000000000E+01 0. -1.
         -5    1    3    3    0  502 -0.64974029802E+02 -0.28157809653E+01 -0.35773849911E+03  0.36363233756E+03  0.47000000000E+01 0. -1.
          5    1    4    4  503    0  0.14876445420E+02 -0.76395170456E+02 -0.80379173776E+03  0.80756472087E+03  0.47000000000E+01 0.  1.
         -5    1    4    4    0  503  0.67487469288E+01  0.33728766255E+02 -0.95147708476E+02  0.10128352130E+03  0.47000000000E+01 0.  1.
<mgrwt>
<rscale>  0 0.13383951E+03</rscale>
<asrwt>0</asrwt>
<pdfrwt beam="2">  1        5 0.22425710E+00 0.13383952E+03</pdfrwt>
<pdfrwt beam="1">  1       -5 0.20063285E-02 0.13383952E+03</pdfrwt>
<totfact> 0.69252439E+01</totfact>
</mgrwt>
</event>
<event>
 8    1  0.1821556E-007  0.1633044E+03  0.7546771E-02  0.1185017E+00
         -5   -1    0    0    0  501 -0.00000000000E+00  0.00000000000E+00  0.30757523934E+02  0.31114550913E+02  0.47000000000E+01 0. -1.
          5   -1    0    0  501    0  0.00000000000E+00 -0.00000000000E+00 -0.89359475595E+03  0.89360711606E+03  0.47000000000E+01 0. -1.
         25    2    1    2    0    0  0.77657206181E+02 -0.70798204868E+02 -0.34404824380E+03  0.38083792142E+03  0.12500120338E+03 0.  0.
         25    2    1    2    0    0 -0.77657206181E+02  0.70798204868E+02 -0.51878898822E+03  0.54388374555E+03  0.12499794754E+03 0.  0.
          5    1    3    3  502    0  0.62745412833E+02 -0.68928403804E+02 -0.35131169918E+03  0.36349705867E+03  0.47000000000E+01 0. -1.
         -5    1    3    3    0  502  0.14911793348E+02 -0.18698010643E+01  0.72634553790E+01  0.17340862750E+02  0.47000000000E+01 0. -1.
          5    1    4    4  503    0  0.60078984896E+01  0.77380154707E+02 -0.28612287019E+03  0.29649986514E+03  0.47000000000E+01 0.  1.
         -5    1    4    4    0  503 -0.83665104671E+02 -0.65819498392E+01 -0.23266611804E+03  0.24738388041E+03  0.47000000000E+01 0.  1.
<mgrwt>
<rscale>  0 0.16330378E+03</rscale>
<asrwt>0</asrwt>
<pdfrwt beam="2">  1        5 0.13750451E+00 0.16330440E+03</pdfrwt>
<pdfrwt beam="1">  1       -5 0.47603418E-02 0.16330440E+03</pdfrwt>
<totfact> 0.76398655E+01</totfact>
</mgrwt>
</event>
<event>
 8    1  0.1821556E-007  0.1378293E+03  0.7546771E-02  0.1216280E+00
          5   -1    0    0  501    0  0.00000000000E+00  0.00000000000E+00  0.12683077328E+02  0.13525917732E+02  0.47000000000E+01 0. -1.
         -5   -1    0    0    0  501 -0.00000000000E+00 -0.00000000000E+00 -0.15037720313E+04  0.15037793761E+04  0.47000000000E+01 0. -1.
         25    2    1    2    0    0  0.35932398628E+02  0.45611544898E+02 -0.89055996870E+03  0.90116247321E+03  0.12500077988E+03 0.  0.
         25    2    1    2    0    0 -0.35932398628E+02 -0.45611544898E+02 -0.60052898525E+03  0.61614282064E+03  0.12500145203E+03 0.  0.
          5    1    4    4  502    0 -0.31855480497E+02  0.23894390529E+02 -0.67094449655E+02  0.78163090465E+02  0.47000000000E+01 0. -1.
         -5    1    4    4    0  502 -0.40769181314E+01 -0.69505935427E+02 -0.53343453559E+03  0.53797973018E+03  0.47000000000E+01 0. -1.
          5    1    3    3  503    0  0.71416388239E+02  0.55907879629E+02 -0.45262116238E+03  0.46164271699E+03  0.47000000000E+01 0.  1.
         -5    1    3    3    0  503 -0.35483989611E+02 -0.10296334731E+02 -0.43793880632E+03  0.43951975622E+03  0.47000000000E+01 0.  1.
<mgrwt>
<rscale>  0 0.13782914E+03</rscale>
<asrwt>0</asrwt>
<pdfrwt beam="1">  1        5 0.20166427E-02 0.13782929E+03</pdfrwt>
<pdfrwt beam="2">  1       -5 0.23141481E+00 0.13782929E+03</pdfrwt>
<totfact> 0.62277083E+01</totfact>
</mgrwt>
</event>
<event>
 8    1  0.1821556E-007  0.1656911E+03  0.7546771E-02  0.1182418E+00
          5   -1    0    0  501    0  0.00000000000E+00  0.00000000000E+00  0.14194001135E+03  0.14201780459E+03  0.47000000000E+01 0.  1.
         -5   -1    0    0    0  501 -0.00000000000E+00 -0.00000000000E+00 -0.19665807280E+03  0.19671422825E+03  0.47000000000E+01 0.  1.
         25    2    1    2    0    0 -0.18933226282E+02 -0.10709547956E+03 -0.50890035299E+01  0.16576796639E+03  0.12500084770E+03 0.  0.
         25    2    1    2    0    0  0.18933226282E+02  0.10709547956E+03 -0.49629057922E+02  0.17296406645E+03  0.12500246435E+03 0.  0.
          5    1    3    3  502    0  0.51911647843E+02 -0.38583532271E+02 -0.15130720469E+02  0.66592318222E+02  0.47000000000E+01 0.  1.
         -5    1    3    3    0  502 -0.70844874125E+02 -0.68511947289E+02  0.10041716939E+02  0.99175648172E+02  0.47000000000E+01 0.  1.
          5    1    4    4  503    0 -0.24406660240E+02  0.74862760430E+00  0.25527941693E+02  0.35637218107E+02  0.47000000000E+01 0.  1.
         -5    1    4    4    0  503  0.43339886522E+02  0.10634685196E+03 -0.75156999615E+02  0.13732684834E+03  0.47000000000E+01 0.  1.
<mgrwt>
<rscale>  0 0.16569075E+03</rscale>
<asrwt>0</asrwt>
<pdfrwt beam="1">  1        5 0.21847229E-01 0.16569105E+03</pdfrwt>
<pdfrwt beam="2">  1       -5 0.30265392E-01 0.16569105E+03</pdfrwt>
<totfact> 0.15891617E+02</totfact>
</mgrwt>
</event>
<event>
 8    1  0.1821556E-007  0.1533095E+03  0.7546771E-02  0.1196465E+00
          5   -1    0    0  501    0  0.00000000000E+00  0.00000000000E+00  0.28802345204E+02  0.29183301548E+02  0.47000000000E+01 0.  1.
         -5   -1    0    0    0  501 -0.00000000000E+00 -0.00000000000E+00 -0.95634905218E+03  0.95636060124E+03  0.47000000000E+01 0.  1.
         25    2    1    2    0    0 -0.44535380235E+02 -0.76775695858E+02 -0.65632840234E+03  0.67399611775E+03  0.12500354980E+03 0.  0.
         25    2    1    2    0    0  0.44535380235E+02  0.76775695858E+02 -0.27121830464E+03  0.31154778504E+03  0.12499898409E+03 0.  0.
          5    1    3    3  502    0  0.32527652563E+02 -0.65328362325E+02 -0.37372439985E+03  0.38081210609E+03  0.47000000000E+01 0. -1.
         -5    1    3    3    0  502 -0.77063032798E+02 -0.11447333533E+02 -0.28260400249E+03  0.29318401166E+03  0.47000000000E+01 0. -1.
          5    1    4    4  503    0 -0.30388093156E+02  0.63216100913E+02 -0.84957703519E+02  0.11027063529E+03  0.47000000000E+01 0.  1.
         -5    1    4    4    0  503  0.74923473391E+02  0.13559594945E+02 -0.18626060112E+03  0.20127714975E+03  0.47000000000E+01 0.  1.
<mgrwt>
<rscale>  0 0.15330854E+03</rscale>
<asrwt>0</asrwt>
<pdfrwt beam="1">  1        5 0.44613235E-02 0.15330947E+03</pdfrwt>
<pdfrwt beam="2">  1       -5 0.14716079E+00 0.15330947E+03</pdfrwt>
<totfact> 0.69564956E+01</totfact>
</mgrwt>
</event>
<event>
 8    1  0.1821556E-007  0.1254374E+03  0.7546771E-02  0.1234388E+00
          5   -1    0    0  501    0  0.00000000000E+00  0.00000000000E+00  0.61145485466E+03  0.61147291787E+03  0.47000000000E+01 0.  1.
         -5   -1    0    0    0  501 -0.00000000000E+00 -0.00000000000E+00 -0.39315676809E+02  0.39595611410E+02  0.47000000000E+01 0.  1.
         25    2    1    2    0    0  0.25779963520E+01  0.10144765574E+02  0.94001521380E+02  0.15675083766E+03  0.12499990700E+03 0.  0.
         25    2    1    2    0    0 -0.25779963520E+01 -0.10144765574E+02  0.47813765647E+03  0.49431769162E+03  0.12499919752E+03 0.  0.
          5    1    3    3  502    0  0.47231974481E+02 -0.25288156007E+02  0.93516284668E+01  0.54588398058E+02  0.47000000000E+01 0. -1.
         -5    1    3    3    0  502 -0.44653978129E+02  0.35432921581E+02  0.84649892913E+02  0.10216243960E+03  0.47000000000E+01 0. -1.
          5    1    4    4  503    0 -0.26552737864E+02 -0.33686879046E+02  0.44433332677E+03  0.44642362055E+03  0.47000000000E+01 0.  1.
         -5    1    4    4    0  503  0.23974741512E+02  0.23542113472E+02  0.33804329705E+02  0.47894071074E+02  0.47000000000E+01 0.  1.
<mgrwt>
<rscale>  0 0.12543721E+03</rscale>
<asrwt>0</asrwt>
<pdfrwt beam="1">  1        5 0.94092898E-01 0.12543739E+03</pdfrwt>
<pdfrwt beam="2">  1       -5 0.60714888E-02 0.12543739E+03</pdfrwt>
<totfact> 0.12172863E+02</totfact>
</mgrwt>
</event>
<event>
 8    1  0.1821556E-007  0.1366201E+03  0.7546771E-02  0.1217951E+00
         -5   -1    0    0    0  501 -0.00000000000E+00  0.00000000000E+00  0.56518905613E+02  0.56713990264E+02  0.47000000000E+01 0. -1.
          5   -1    0    0  501    0  0.00000000000E+00 -0.00000000000E+00 -0.32965434596E+03  0.32968784905E+03  0.47000000000E+01 0. -1.
         25    2    1    2    0    0  0.29655257562E+02  0.46491167458E+02 -0.13191904125E+03  0.18991488778E+03  0.12499667276E+03 0.  0.
         25    2    1    2    0    0 -0.29655257562E+02 -0.46491167458E+02 -0.14121639910E+03  0.19648695154E+03  0.12499675115E+03 0.  0.
          5    1    3    3  502    0  0.62754814873E+02  0.60489203977E+02 -0.12586259064E+03  0.15316850952E+03  0.47000000000E+01 0. -1.
         -5    1    3    3    0  502 -0.33099557312E+02 -0.13998036518E+02 -0.60564506117E+01  0.36746378252E+02  0.47000000000E+01 0. -1.
          5    1    4    4  503    0 -0.75762642691E+02 -0.30785524243E+02 -0.59514260230E+02  0.10125099358E+03  0.47000000000E+01 0.  1.
         -5    1    4    4    0  503  0.46107385130E+02 -0.15705643215E+02 -0.81702138872E+02  0.95235957960E+02  0.47000000000E+01 0.  1.
<mgrwt>
<rscale>  0 0.13662008E+03</rscale>
<asrwt>0</asrwt>
<pdfrwt beam="2">  1        5 0.50733636E-01 0.13662010E+03</pdfrwt>
<pdfrwt beam="1">  1       -5 0.87128001E-02 0.13662010E+03</pdfrwt>
<totfact> 0.27198632E+02</totfact>
</mgrwt>
</event>
<event>
 8    1  0.1821556E-007  0.1378894E+03  0.7546771E-02  0.1216202E+00
         -5   -1    0    0    0  501 -0.00000000000E+00  0.00000000000E+00  0.43177135768E+02  0.43432189136E+02  0.47000000000E+01 0. -1.
          5   -1    0    0  501    0  0.00000000000E+00 -0.00000000000E+00 -0.92763317999E+03  0.92764508656E+03  0.47000000000E+01 0. -1.
         25    2    1    2    0    0  0.51913558833E+02  0.26277231924E+02 -0.89786098075E+02  0.16453291273E+03  0.12499610177E+03 0.  0.
         25    2    1    2    0    0 -0.51913558833E+02 -0.26277231924E+02 -0.79466994615E+03  0.80654436297E+03  0.12501190186E+03 0.  0.
          5    1    4    4  502    0  0.14570761014E+02 -0.60815886866E+02 -0.34585350276E+03  0.35149340612E+03  0.47000000000E+01 0.  1.
         -5    1    4    4    0  502 -0.66484319847E+02  0.34538654943E+02 -0.44881644339E+03  0.45505095685E+03  0.47000000000E+01 0.  1.
          5    1    3    3  503    0  0.15519361955E+02  0.70920458539E+02 -0.23186688920E+02  0.76356234702E+02  0.47000000000E+01 0. -1.
         -5    1    3    3    0  503  0.36394196878E+02 -0.44643226615E+02 -0.66599409155E+02  0.88176678032E+02  0.47000000000E+01 0. -1.
<mgrwt>
<rscale>  0 0.13788582E+03</rscale>
<asrwt>0</asrwt>
<pdfrwt beam="2">  1        5 0.14273332E+00 0.13788940E+03</pdfrwt>
<pdfrwt beam="1">  1       -5 0.66631723E-02 0.13788940E+03</pdfrwt>
<totfact> 0.37449926E+01</totfact>
</mgrwt>
</event>
<event>
 8    1  0.1821556E-007  0.1573474E+03  0.7546771E-02  0.1191728E+00
         -5   -1    0    0    0  501 -0.00000000000E+00  0.00000000000E+00  0.18210391122E+03  0.18216455330E+03  0.47000000000E+01 0.  1.
          5   -1    0    0  501    0  0.00000000000E+00 -0.00000000000E+00 -0.17361563579E+03  0.17367924168E+03  0.47000000000E+01 0.  1.
         25    2    1    2    0    0 -0.82993358154E+01  0.95203381126E+02  0.87224647769E+02  0.17990647010E+03  0.12500254419E+03 0.  0.
         25    2    1    2    0    0  0.82993358154E+01 -0.95203381126E+02 -0.78736372344E+02  0.17593732489E+03  0.12498785223E+03 0.  0.
          5    1    4    4  502    0 -0.56112411736E+02 -0.61228379106E+02 -0.52621673629E+02  0.98430928545E+02  0.47000000000E+01 0.  1.
         -5    1    4    4    0  502  0.64411747551E+02 -0.33975002019E+02 -0.26114698715E+02  0.77506396341E+02  0.47000000000E+01 0.  1.
          5    1    3    3  503    0 -0.40660754583E+02  0.65644146551E+02 -0.51729416019E+01  0.77532575506E+02  0.47000000000E+01 0.  1.
         -5    1    3    3    0  503  0.32361418767E+02  0.29559234574E+02  0.92397589371E+02  0.10237389460E+03  0.47000000000E+01 0.  1.
<mgrwt>
<rscale>  0 0.15734446E+03</rscale>
<asrwt>0</asrwt>
<pdfrwt beam="2">  1        5 0.26719655E-01 0.15734738E+03</pdfrwt>
<pdfrwt beam="1">  1       -5 0.28025544E-01 0.15734738E+03</pdfrwt>
<totfact> 0.12370690E+02</totfact>
</mgrwt>
</event>
<event>
 8    1  0.1821556E-007  0.1287331E+03  0.7546771E-02  0.1229349E+00
          5   -1    0    0  501    0  0.00000000000E+00  0.00000000000E+00  0.31419529619E+03  0.31423044752E+03  0.47000000000E+01 0. -1.
         -5   -1    0    0    0  501 -0.00000000000E+00 -0.00000000000E+00 -0.61935928534E+02  0.62114001991E+02  0.47000000000E+01 0. -1.
         25    2    1    2    0    0  0.19384573197E+02 -0.23896963835E+02  0.53212223651E+02  0.13929736471E+03  0.12500155403E+03 0.  0.
         25    2    1    2    0    0 -0.19384573197E+02  0.23896963835E+02  0.19904714401E+03  0.23704708480E+03  0.12499891327E+03 0.  0.
          5    1    4    4  502    0 -0.56881819188E+02  0.41323816507E+02  0.17576058801E+03  0.18935964053E+03  0.47000000000E+01 0.  1.
         -5    1    4    4    0  502  0.37497245991E+02 -0.17426852672E+02  0.23286556000E+02  0.47687444274E+02  0.47000000000E+01 0.  1.
          5    1    3    3  503    0 -0.24005696728E+02 -0.55459500930E+02 -0.39681083454E+01  0.60744263949E+02  0.47000000000E+01 0. -1.
         -5    1    3    3    0  503  0.43390269925E+02  0.31562537095E+02  0.57180331996E+02  0.78553100761E+02  0.47000000000E+01 0. -1.
<mgrwt>
<rscale>  0 0.12873247E+03</rscale>
<asrwt>0</asrwt>
<pdfrwt beam="1">  1        5 0.48354140E-01 0.12873312E+03</pdfrwt>
<pdfrwt beam="2">  1       -5 0.95450062E-02 0.12873312E+03</pdfrwt>
<totfact> 0.25178858E+02</totfact>
</mgrwt>
</event>
<event>
 8    1  0.1821556E-007  0.1609133E+03  0.7546771E-02  0.1187670E+00
         -5   -1    0    0    0  501 -0.00000000000E+00  0.00000000000E+00  0.22669974467E+03  0.22674846027E+03  0.47000000000E+01 0.  1.
          5   -1    0    0  501    0  0.00000000000E+00 -0.00000000000E+00 -0.13600275537E+03  0.13608394272E+03  0.47000000000E+01 0.  1.
         25    2    1    2    0    0 -0.67444742271E+02 -0.75620829604E+02  0.11810533422E+03  0.19960452079E+03  0.12500316643E+03 0.  0.
         25    2    1    2    0    0  0.67444742271E+02  0.75620829604E+02 -0.27408344911E+02  0.16322788221E+03  0.12499928411E+03 0.  0.
          5    1    4    4  502    0  0.34507299474E+02  0.82421421999E+02  0.31810245823E+02  0.94963289016E+02  0.47000000000E+01 0. -1.
         -5    1    4    4    0  502  0.32937442797E+02 -0.68005923952E+01 -0.59218590734E+02  0.68264593190E+02  0.47000000000E+01 0. -1.
          5    1    3    3  503    0 -0.30431293797E+02 -0.79566150421E+02  0.10883519969E+02  0.86008005103E+02  0.47000000000E+01 0. -1.
         -5    1    3    3    0  503 -0.37013448474E+02  0.39453208164E+01  0.10722181425E+03  0.11359651568E+03  0.47000000000E+01 0. -1.
<mgrwt>
<rscale>  0 0.16091256E+03</rscale>
<asrwt>0</asrwt>
<pdfrwt beam="2">  1        5 0.20933493E-01 0.16091331E+03</pdfrwt>
<pdfrwt beam="1">  1       -5 0.34886876E-01 0.16091331E+03</pdfrwt>
<totfact> 0.12867762E+02</totfact>
</mgrwt>
</event>
<event>
 8    1  0.1821556E-007  0.1328416E+03  0.7546771E-02  0.1223307E+00
          5   -1    0    0  501    0  0.00000000000E+00  0.00000000000E+00  0.52688118271E+02  0.52897332701E+02  0.47000000000E+01 0. -1.
         -5   -1    0    0    0  501 -0.00000000000E+00 -0.00000000000E+00 -0.47773351802E+03  0.47775663704E+03  0.47000000000E+01 0. -1.
         25    2    1    2    0    0 -0.31594965834E+02 -0.31987690739E+02 -0.35804016297E+03  0.38188959164E+03  0.12500179069E+03 0.  0.
         25    2    1    2    0    0  0.31594965834E+02  0.31987690739E+02 -0.67005236777E+02  0.14876437811E+03  0.12497873504E+03 0.  0.
          5    1    3    3  502    0  0.52919122889E+01  0.40579472035E+02 -0.19839727229E+03  0.20262839272E+03  0.47000000000E+01 0. -1.
         -5    1    3    3    0  502 -0.36886878123E+02 -0.72567162774E+02 -0.15964289069E+03  0.17926119892E+03  0.47000000000E+01 0. -1.
          5    1    4    4  503    0  0.78579655412E+02  0.32557493042E+02 -0.37451404153E+02  0.93056167291E+02  0.47000000000E+01 0.  1.
         -5    1    4    4    0  503 -0.46984689578E+02 -0.56980230314E+00 -0.29553832624E+02  0.55708210815E+02  0.47000000000E+01 0.  1.
<mgrwt>
<rscale>  0 0.13283622E+03</rscale>
<asrwt>0</asrwt>
<pdfrwt beam="1">  1        5 0.81237365E-02 0.13284164E+03</pdfrwt>
<pdfrwt beam="2">  1       -5 0.73515333E-01 0.13284164E+03</pdfrwt>
<totfact> 0.13461118E+02</totfact>
</mgrwt>
</event>
<event>
 8    1  0.1821556E-007  0.1260602E+03  0.7546771E-02  0.1233424E+00
         -5   -1    0    0    0  501 -0.00000000000E+00  0.00000000000E+00  0.71702957972E+03  0.71704498338E+03  0.47000000000E+01 0. -1.
          5   -1    0    0  501    0  0.00000000000E+00 -0.00000000000E+00 -0.21898524687E+02  0.22397218208E+02  0.47000000000E+01 0. -1.
         25    2    1    2    0    0 -0.16134596472E+02 -0.20509987931E+01  0.35113365492E+03  0.37307437836E+03  0.12500046548E+03 0.  0.
         25    2    1    2    0    0  0.16134596472E+02  0.20509987931E+01  0.34399740011E+03  0.36636782323E+03  0.12500655510E+03 0.  0.
          5    1    4    4  502    0  0.46164231856E+02 -0.33429241042E+02  0.80420080791E+02  0.98681963164E+02  0.47000000000E+01 0.  1.
         -5    1    4    4    0  502 -0.30029635384E+02  0.35480239835E+02  0.26357731932E+03  0.26768586007E+03  0.47000000000E+01 0.  1.
          5    1    3    3  503    0  0.32398829752E+01  0.59360468041E+02  0.13695296740E+03  0.14937324824E+03  0.47000000000E+01 0. -1.
         -5    1    3    3    0  503 -0.19374479447E+02 -0.61411466834E+02  0.21418068752E+03  0.22370113012E+03  0.47000000000E+01 0. -1.
<mgrwt>
<rscale>  0 0.12605868E+03</rscale>
<asrwt>0</asrwt>
<pdfrwt beam="2">  1        5 0.34085498E-02 0.12606019E+03</pdfrwt>
<pdfrwt beam="1">  1       -5 0.11035179E+00 0.12606019E+03</pdfrwt>
<totfact> 0.21420751E+02</totfact>
</mgrwt>
</event>
<event>
 8    1  0.1821556E-007  0.1399951E+03  0.7546771E-02  0.1213341E+00
          5   -1    0    0  501    0  0.00000000000E+00  0.00000000000E+00  0.12157602998E+03  0.12166684456E+03  0.47000000000E+01 0.  1.
         -5   -1    0    0    0  501 -0.00000000000E+00 -0.00000000000E+00 -0.16545478329E+03  0.16552152522E+03  0.47000000000E+01 0.  1.
         25    2    1    2    0    0  0.62012387522E+02 -0.11199117556E+02 -0.45492354388E+02  0.14720112338E+03  0.12501063945E+03 0.  0.
         25    2    1    2    0    0 -0.62012387522E+02  0.11199117556E+02  0.16136010794E+01  0.13998724640E+03  0.12499147574E+03 0.  0.
          5    1    4    4  502    0 -0.59522031055E+02 -0.22567700115E+02 -0.47911328897E+02  0.79810768109E+02  0.47000000000E+01 0.  1.
         -5    1    4    4    0  502 -0.24903564673E+01  0.33766817671E+02  0.49524929977E+02  0.60176478296E+02  0.47000000000E+01 0.  1.
          5    1    3    3  503    0  0.22812188718E+02  0.50700787480E+02  0.79951556854E+01  0.56364690363E+02  0.47000000000E+01 0. -1.
         -5    1    3    3    0  503  0.39200198804E+02 -0.61899905036E+02 -0.53487510073E+02  0.90836433019E+02  0.47000000000E+01 0. -1.
<mgrwt>
<rscale>  0 0.13999078E+03</rscale>
<asrwt>0</asrwt>
<pdfrwt beam="1">  1        5 0.18716124E-01 0.13999506E+03</pdfrwt>
<pdfrwt beam="2">  1       -5 0.25466702E-01 0.13999506E+03</pdfrwt>
<totfact> 0.28115394E+02</totfact>
</mgrwt>
</event>
<event>
 8    1  0.1821556E-007  0.2160194E+03  0.7546771E-02  0.1136888E+00
          5   -1    0    0  501    0  0.00000000000E+00  0.00000000000E+00  0.10135467560E+03  0.10146359084E+03  0.47000000000E+01 0. -1.
         -5   -1    0    0    0  501 -0.00000000000E+00 -0.00000000000E+00 -0.10342220251E+04  0.10342327045E+04  0.47000000000E+01 0. -1.
         25    2    1    2    0    0  0.68371423556E+02  0.16238191025E+03 -0.88951867272E+03  0.91537043689E+03  0.12496812105E+03 0.  0.
         25    2    1    2    0    0 -0.68371423556E+02 -0.16238191025E+03 -0.43348676750E+02  0.22032585848E+03  0.12498735858E+03 0.  0.
          5    1    4    4  502    0 -0.34999005663E+02 -0.17339023537E+03 -0.20467656230E+02  0.17812950084E+03  0.47000000000E+01 0. -1.
         -5    1    4    4    0  502 -0.33372417893E+02  0.11008325122E+02 -0.22881020520E+02  0.42196357639E+02  0.47000000000E+01 0. -1.
          5    1    3    3  503    0 -0.65440489890E+01  0.88286552127E+02 -0.61375221394E+03  0.62012193154E+03  0.47000000000E+01 0.  1.
         -5    1    3    3    0  503  0.74915472545E+02  0.74095358121E+02 -0.27576645878E+03  0.29524850535E+03  0.47000000000E+01 0.  1.
<mgrwt>
<rscale>  0 0.21601661E+03</rscale>
<asrwt>0</asrwt>
<pdfrwt beam="1">  1        5 0.15602227E-01 0.21601939E+03</pdfrwt>
<pdfrwt beam="2">  1       -5 0.15912027E+00 0.21601939E+03</pdfrwt>
<totfact> 0.69639778E+00</totfact>
</mgrwt>
</event>
<event>
 8    1  0.1821556E-007  0.1708932E+03  0.7546771E-02  0.1176920E+00
         -5   -1    0    0    0  501 -0.00000000000E+00  0.00000000000E+00  0.58255963687E+02  0.58445250492E+02  0.47000000000E+01 0.  1.
          5   -1    0    0  501    0  0.00000000000E+00 -0.00000000000E+00 -0.50393889242E+03  0.50396080929E+03  0.47000000000E+01 0.  1.
         25    2    1    2    0    0 -0.10649898332E+03  0.47293507289E+02 -0.24675077045E+03  0.30014952931E+03  0.12500035180E+03 0.  0.
         25    2    1    2    0    0  0.10649898332E+03 -0.47293507289E+02 -0.19893215829E+03  0.26225653047E+03  0.12500309953E+03 0.  0.
          5    1    3    3  502    0 -0.40390646629E+02  0.84837953261E+02 -0.14916896125E+03  0.17635858825E+03  0.47000000000E+01 0. -1.
         -5    1    3    3    0  502 -0.66108336688E+02 -0.37544445972E+02 -0.97581809205E+02  0.12379094107E+03  0.47000000000E+01 0. -1.
          5    1    4    4  503    0 -0.17914646848E+02 -0.33196296414E+02 -0.17710506855E+02  0.41936627432E+02  0.47000000000E+01 0.  1.
         -5    1    4    4    0  503  0.12441363016E+03 -0.14097210875E+02 -0.18122165143E+03  0.22031990303E+03  0.47000000000E+01 0.  1.
<mgrwt>
<rscale>  0 0.17089269E+03</rscale>
<asrwt>0</asrwt>
<pdfrwt beam="2">  1        5 0.77545304E-01 0.17089320E+03</pdfrwt>
<pdfrwt beam="1">  1       -5 0.89787027E-02 0.17089320E+03</pdfrwt>
<totfact> 0.10846118E+02</totfact>
</mgrwt>
</event>
<event>
 8    1  0.1821556E-007  0.1607956E+03  0.7546771E-02  0.1187803E+00
         -5   -1    0    0    0  501 -0.00000000000E+00  0.00000000000E+00  0.28984252473E+02  0.29362848830E+02  0.47000000000E+01 0.  1.
          5   -1    0    0  501    0  0.00000000000E+00 -0.00000000000E+00 -0.89797346341E+03  0.89798576324E+03  0.47000000000E+01 0.  1.
         25    2    1    2    0    0  0.79074207241E+01 -0.10082840884E+03 -0.38062513611E+03  0.41319574212E+03  0.12500532683E+03 0.  0.
         25    2    1    2    0    0 -0.79074207241E+01  0.10082840884E+03 -0.48836407483E+03  0.51415286995E+03  0.12499923505E+03 0.  0.
          5    1    3    3  502    0  0.18084463124E+02 -0.45460329784E+01  0.11912748635E+01  0.19267157500E+02  0.47000000000E+01 0. -1.
         -5    1    3    3    0  502 -0.10177042400E+02 -0.96282375866E+02 -0.38181641097E+03  0.39392858462E+03  0.47000000000E+01 0. -1.
          5    1    4    4  503    0  0.36150549098E+02 -0.53255703440E+01 -0.20580658680E+03  0.20907813150E+03  0.47000000000E+01 0. -1.
         -5    1    4    4    0  503 -0.44057969822E+02  0.10615397919E+03 -0.28255748803E+03  0.30507473845E+03  0.47000000000E+01 0. -1.
<mgrwt>
<rscale>  0 0.16079442E+03</rscale>
<asrwt>0</asrwt>
<pdfrwt beam="2">  1        5 0.13817981E+00 0.16079561E+03</pdfrwt>
<pdfrwt beam="1">  1       -5 0.44891854E-02 0.16079561E+03</pdfrwt>
<totfact> 0.82746158E+01</totfact>
</mgrwt>
</event>
<event>
 8    1  0.1821556E-007  0.1291161E+03  0.7546771E-02  0.1228774E+00
          5   -1    0    0  501    0  0.00000000000E+00  0.00000000000E+00  0.48804235180E+02  0.49030025204E+02  0.47000000000E+01 0.  1.
         -5   -1    0    0    0  501 -0.00000000000E+00 -0.00000000000E+00 -0.45306057948E+03  0.45308495746E+03  0.47000000000E+01 0.  1.
         25    2    1    2    0    0  0.30212832709E+02 -0.11483429284E+02 -0.32720332517E+03  0.35175699642E+03  0.12500513640E+03 0.  0.
         25    2    1    2    0    0 -0.30212832709E+02  0.11483429284E+02 -0.77053019132E+02  0.15035798624E+03  0.12500268741E+03 0.  0.
          5    1    4    4  502    0 -0.48095406051E+02 -0.18234030017E+02 -0.97129583838E+02  0.11000860871E+03  0.47000000000E+01 0.  1.
         -5    1    4    4    0  502  0.17882573342E+02  0.29717459301E+02  0.20076564706E+02  0.40349377530E+02  0.47000000000E+01 0.  1.
          5    1    3    3  503    0  0.85689905557E+01  0.37174819759E+02 -0.27275373163E+03  0.27544887536E+03  0.47000000000E+01 0. -1.
         -5    1    3    3    0  503  0.21643842153E+02 -0.48658249043E+02 -0.54449593540E+02  0.76308121060E+02  0.47000000000E+01 0. -1.
<mgrwt>
<rscale>  0 0.12911551E+03</rscale>
<asrwt>0</asrwt>
<pdfrwt beam="1">  1        5 0.75275879E-02 0.12911610E+03</pdfrwt>
<pdfrwt beam="2">  1       -5 0.69720869E-01 0.12911610E+03</pdfrwt>
<totfact> 0.17116582E+02</totfact>
</mgrwt>
</event>
<event>
 8    1  0.1821556E-007  0.1362100E+03  0.7546771E-02  0.1218524E+00
          5   -1    0    0  501    0  0.00000000000E+00  0.00000000000E+00  0.12045205675E+03  0.12054371811E+03  0.47000000000E+01 0.  1.
         -5   -1    0    0    0  501 -0.00000000000E+00 -0.00000000000E+00 -0.15929686234E+03  0.15936618321E+03  0.47000000000E+01 0.  1.
         25    2    1    2    0    0 -0.54073070769E+02  0.19323300901E+01 -0.45321820433E+02  0.14355217428E+03  0.12500211379E+03 0.  0.
         25    2    1    2    0    0  0.54073070769E+02 -0.19323300901E+01  0.64770148457E+01  0.13635772703E+03  0.12499538839E+03 0.  0.
          5    1    4    4  502    0  0.10909534315E+02 -0.61387391289E+02  0.49306587537E+01  0.62720261032E+02  0.47000000000E+01 0. -1.
         -5    1    4    4    0  502  0.43163536454E+02  0.59455061199E+02  0.15463560919E+01  0.73637465998E+02  0.47000000000E+01 0. -1.
          5    1    3    3  503    0  0.29021247403E+02 -0.32569041477E+02 -0.27290830586E+02  0.51670636706E+02  0.47000000000E+01 0.  1.
         -5    1    3    3    0  503 -0.83094318172E+02  0.34501371567E+02 -0.18030989848E+02  0.91881537576E+02  0.47000000000E+01 0.  1.
<mgrwt>
<rscale>  0 0.13620844E+03</rscale>
<asrwt>0</asrwt>
<pdfrwt beam="1">  1        5 0.18543469E-01 0.13620998E+03</pdfrwt>
<pdfrwt beam="2">  1       -5 0.24519593E-01 0.13620998E+03</pdfrwt>
<totfact> 0.30469244E+02</totfact>
</mgrwt>
</event>
<event>
 8    1  0.1821556E-007  0.1426344E+03  0.7546771E-02  0.1209828E+00
         -5   -1    0    0    0  501 -0.00000000000E+00  0.00000000000E+00  0.34137981946E+03  0.34141217192E+03  0.47000000000E+01 0. -1.
          5   -1    0    0  501    0  0.00000000000E+00 -0.00000000000E+00 -0.61762055943E+02  0.61940629269E+02  0.47000000000E+01 0. -1.
         25    2    1    2    0    0 -0.54690838929E+02  0.41567806108E+02  0.17861996844E+03  0.22858186618E+03  0.12500242420E+03 0.  0.
         25    2    1    2    0    0  0.54690838929E+02 -0.41567806108E+02  0.10099779508E+03  0.17477093501E+03  0.12500141897E+03 0.  0.
          5    1    4    4  502    0  0.42037878377E+02  0.14211426632E+02  0.10809615008E+03  0.11694449764E+03  0.47000000000E+01 0. -1.
         -5    1    4    4    0  502  0.12652960552E+02 -0.55779232739E+02 -0.70983549974E+01  0.57826437374E+02  0.47000000000E+01 0. -1.
          5    1    3    3  503    0 -0.85128913035E+02  0.37974939552E+02  0.72961059914E+02  0.11846701706E+03  0.47000000000E+01 0. -1.
         -5    1    3    3    0  503  0.30438074106E+02  0.35928665555E+01  0.10565890853E+03  0.11011484912E+03  0.47000000000E+01 0. -1.
<mgrwt>
<rscale>  0 0.14263420E+03</rscale>
<asrwt>0</asrwt>
<pdfrwt beam="2">  1        5 0.95180799E-02 0.14263442E+03</pdfrwt>
<pdfrwt beam="1">  1       -5 0.52536197E-01 0.14263442E+03</pdfrwt>
<totfact> 0.21979428E+02</totfact>
</mgrwt>
</event>
<event>
 8    1  0.1821556E-007  0.1331899E+03  0.7546771E-02  0.1222798E+00
          5   -1    0    0  501    0  0.00000000000E+00  0.00000000000E+00  0.51539058522E+02  0.51752918308E+02  0.47000000000E+01 0.  1.
         -5   -1    0    0    0  501 -0.00000000000E+00 -0.00000000000E+00 -0.57990330410E+03  0.57992235007E+03  0.47000000000E+01 0.  1.
         25    2    1    2    0    0 -0.33040433517E+02 -0.31965975674E+02 -0.46590372307E+03  0.48456765958E+03  0.12500417469E+03 0.  0.
         25    2    1    2    0    0  0.33040433517E+02  0.31965975674E+02 -0.62460522506E+02  0.14710760879E+03  0.12500335134E+03 0.  0.
          5    1    4    4  502    0 -0.46691801324E+02  0.16398143378E+02 -0.11270938114E+02  0.50972026280E+02  0.47000000000E+01 0.  1.
         -5    1    4    4    0  502  0.79732234841E+02  0.15567832296E+02 -0.51189584392E+02  0.96135582515E+02  0.47000000000E+01 0.  1.
          5    1    3    3  503    0 -0.22545500216E+02  0.28526975987E+02 -0.36152728144E+03  0.36338155314E+03  0.47000000000E+01 0. -1.
         -5    1    3    3    0  503 -0.10494933301E+02 -0.60492951661E+02 -0.10437644163E+03  0.12118610644E+03  0.47000000000E+01 0. -1.
<mgrwt>
<rscale>  0 0.13318966E+03</rscale>
<asrwt>0</asrwt>
<pdfrwt beam="1">  1        5 0.79470022E-02 0.13318986E+03</pdfrwt>
<pdfrwt beam="2">  1       -5 0.89233804E-01 0.13318986E+03</pdfrwt>
<totfact> 0.89279946E+01</totfact>
</mgrwt>
</event>
<event>
 8    1  0.1821556E-007  0.1570596E+03  0.7546771E-02  0.1192060E+00
         -5   -1    0    0    0  501 -0.00000000000E+00  0.00000000000E+00  0.11755673616E+03  0.11765065327E+03  0.47000000000E+01 0. -1.
          5   -1    0    0  501    0  0.00000000000E+00 -0.00000000000E+00 -0.21405299906E+03  0.21410459221E+03  0.47000000000E+01 0. -1.
         25    2    1    2    0    0  0.76418435063E+02 -0.56562593547E+02 -0.24389335463E+02  0.15894195258E+03  0.12501440077E+03 0.  0.
         25    2    1    2    0    0 -0.76418435063E+02  0.56562593547E+02 -0.72106927439E+02  0.17281329290E+03  0.12500368400E+03 0.  0.
          5    1    3    3  502    0  0.46301572172E+02 -0.73762163518E+02 -0.62424083816E+02  0.10725459707E+03  0.47000000000E+01 0.  1.
         -5    1    3    3    0  502  0.30116862891E+02  0.17199569970E+02  0.38034748352E+02  0.51687355512E+02  0.47000000000E+01 0.  1.
          5    1    4    4  503    0 -0.10406136956E+03  0.65681200306E+02 -0.40609934946E+02  0.12966898444E+03  0.47000000000E+01 0. -1.
         -5    1    4    4    0  503  0.27642934498E+02 -0.91186067585E+01 -0.31496992493E+02  0.43144308465E+02  0.47000000000E+01 0. -1.
<mgrwt>
<rscale>  0 0.15705742E+03</rscale>
<asrwt>0</asrwt>
<pdfrwt beam="2">  1        5 0.32942424E-01 0.15705956E+03</pdfrwt>
<pdfrwt beam="1">  1       -5 0.18096845E-01 0.15705956E+03</pdfrwt>
<totfact> 0.18791874E+02</totfact>
</mgrwt>
</event>
<event>
 8    1  0.1821556E-007  0.1419523E+03  0.7546771E-02  0.1210726E+00
          5   -1    0    0  501    0  0.00000000000E+00  0.00000000000E+00  0.44742741558E+02  0.44988919993E+02  0.47000000000E+01 0.  1.
         -5   -1    0    0    0  501 -0.00000000000E+00 -0.00000000000E+00 -0.55017285725E+03  0.55019293239E+03  0.47000000000E+01 0.  1.
         25    2    1    2    0    0  0.56865495649E+02  0.35935667461E+02 -0.38038267792E+03  0.40600671286E+03  0.12500164972E+03 0.  0.
         25    2    1    2    0    0 -0.56865495649E+02 -0.35935667461E+02 -0.12504743777E+03  0.18917513953E+03  0.12500125972E+03 0.  0.
          5    1    4    4  502    0 -0.60343957725E+01 -0.71054925508E+02 -0.98670969968E+02  0.12183294581E+03  0.47000000000E+01 0. -1.
         -5    1    4    4    0  502 -0.50831099877E+02  0.35119258047E+02 -0.26376467806E+02  0.67342193715E+02  0.47000000000E+01 0. -1.
          5    1    3    3  503    0  0.44570087368E+02 -0.21131220178E+02 -0.49706460183E+02  0.70184352516E+02  0.47000000000E+01 0.  1.
         -5    1    3    3    0  503  0.12295408281E+02  0.57066887638E+02 -0.33067621773E+03  0.33582236034E+03  0.47000000000E+01 0.  1.
<mgrwt>
<rscale>  0 0.14195226E+03</rscale>
<asrwt>0</asrwt>
<pdfrwt beam="1">  1        5 0.69039801E-02 0.14195235E+03</pdfrwt>
<pdfrwt beam="2">  1       -5 0.84662454E-01 0.14195235E+03</pdfrwt>
<totfact> 0.13108359E+02</totfact>
</mgrwt>
</event>
<event>
 8    1  0.1821556E-007  0.1839298E+03  0.7546771E-02  0.1164053E+00
         -5   -1    0    0    0  501 -0.00000000000E+00  0.00000000000E+00  0.10961956343E+04  0.10962057100E+04  0.47000000000E+01 0. -1.
          5   -1    0    0  501    0  0.00000000000E+00 -0.00000000000E+00 -0.34770358258E+02  0.35086575971E+02  0.47000000000E+01 0. -1.
         25    2    1    2    0    0 -0.91390127917E+02  0.99258640074E+02  0.72394410502E+03  0.74694392588E+03  0.12500291241E+03 0.  0.
         25    2    1    2    0    0  0.91390127917E+02 -0.99258640074E+02  0.33748117105E+03  0.38434836013E+03  0.12500275200E+03 0.  0.
          5    1    4    4  502    0 -0.10029394848E+02  0.22554598294E+02  0.39910984439E+02  0.47162223698E+02  0.47000000000E+01 0. -1.
         -5    1    4    4    0  502  0.10141952277E+03 -0.12181323837E+03  0.29757018661E+03  0.33718613643E+03  0.47000000000E+01 0. -1.
          5    1    3    3  503    0 -0.48875820970E+02  0.10313604110E+03  0.30303037878E+03  0.32384469937E+03  0.47000000000E+01 0.  1.
         -5    1    3    3    0  503 -0.42514306947E+02 -0.38774010288E+01  0.42091372624E+03  0.42309922651E+03  0.47000000000E+01 0.  1.
<mgrwt>
<rscale>  0 0.18392975E+03</rscale>
<asrwt>0</asrwt>
<pdfrwt beam="2">  1        5 0.53743853E-02 0.18392977E+03</pdfrwt>
<pdfrwt beam="1">  1       -5 0.16867059E+00 0.18392977E+03</pdfrwt>
<totfact> 0.36585472E+01</totfact>
</mgrwt>
</event>
<event>
 8    1  0.1821556E-007  0.1285282E+03  0.7546771E-02  0.1229657E+00
          5   -1    0    0  501    0  0.00000000000E+00  0.00000000000E+00  0.26279909825E+03  0.26284112319E+03  0.47000000000E+01 0. -1.
         -5   -1    0    0    0  501 -0.00000000000E+00 -0.00000000000E+00 -0.83667453352E+02  0.83799360084E+02  0.47000000000E+01 0. -1.
         25    2    1    2    0    0 -0.25337761471E+02  0.15873584885E+02  0.29521509031E+01  0.12856087708E+03  0.12500084427E+03 0.  0.
         25    2    1    2    0    0  0.25337761471E+02 -0.15873584885E+02  0.17617949399E+03  0.21807960619E+03  0.12500211070E+03 0.  0.
          5    1    4    4  502    0  0.13028736524E+02  0.13249054652E+02 -0.14942312087E+02  0.24303253179E+02  0.47000000000E+01 0.  1.
         -5    1    4    4    0  502  0.12309024948E+02 -0.29122639537E+02  0.19112180608E+03  0.19377635302E+03  0.47000000000E+01 0.  1.
          5    1    3    3  503    0 -0.59978887010E+02 -0.32053304787E+02 -0.65505845843E+01  0.68482708716E+02  0.47000000000E+01 0. -1.
         -5    1    3    3    0  503  0.34641125539E+02  0.47926889672E+02  0.95027354874E+01  0.60078168364E+02  0.47000000000E+01 0. -1.
<mgrwt>
<rscale>  0 0.12852790E+03</rscale>
<asrwt>0</asrwt>
<pdfrwt beam="1">  1        5 0.40444009E-01 0.12852821E+03</pdfrwt>
<pdfrwt beam="2">  1       -5 0.12885295E-01 0.12852821E+03</pdfrwt>
<totfact> 0.21508746E+02</totfact>
</mgrwt>
</event>
<event>
 8    1  0.1821556E-007  0.1873765E+03  0.7546771E-02  0.1160850E+00
         -5   -1    0    0    0  501 -0.00000000000E+00  0.00000000000E+00  0.35109321567E+03  0.35112467314E+03  0.47000000000E+01 0. -1.
          5   -1    0    0  501    0  0.00000000000E+00 -0.00000000000E+00 -0.12917644132E+03  0.12926191625E+03  0.47000000000E+01 0. -1.
         25    2    1    2    0    0  0.13849805409E+03 -0.17406488865E+02  0.22523500836E+03  0.29298591293E+03  0.12500095735E+03 0.  0.
         25    2    1    2    0    0 -0.13849805409E+03  0.17406488865E+02 -0.33182340186E+01  0.18740067646E+03  0.12499322390E+03 0.  0.
          5    1    4    4  502    0 -0.15768027000E+02 -0.41689276543E+02  0.20076288295E+02  0.49109813743E+02  0.47000000000E+01 0.  1.
         -5    1    4    4    0  502 -0.12273002709E+03  0.59095765408E+02 -0.23394522314E+02  0.13829086272E+03  0.47000000000E+01 0.  1.
          5    1    3    3  503    0  0.11252603186E+03 -0.65128382234E+02  0.18021970358E+03  0.22227245798E+03  0.47000000000E+01 0. -1.
         -5    1    3    3    0  503  0.25972022228E+02  0.47721893369E+02  0.45015304782E+02  0.70713454943E+02  0.47000000000E+01 0. -1.
<mgrwt>
<rscale>  0 0.18737517E+03</rscale>
<asrwt>0</asrwt>
<pdfrwt beam="2">  1        5 0.19882294E-01 0.18737646E+03</pdfrwt>
<pdfrwt beam="1">  1       -5 0.54023335E-01 0.18737646E+03</pdfrwt>
<totfact> 0.59611918E+01</totfact>
</mgrwt>
</event>
<event>
 8    1  0.1821556E-007  0.1884465E+03  0.7546771E-02  0.1159872E+00
         -5   -1    0    0    0  501 -0.00000000000E+00  0.00000000000E+00  0.36583085625E+03  0.36586104655E+03  0.47000000000E+01 0. -1.
          5   -1    0    0  501    0  0.00000000000E+00 -0.00000000000E+00 -0.96981547012E+02  0.97095367865E+02  0.47000000000E+01 0. -1.
         25    2    1    2    0    0 -0.13044610994E+03  0.53555229246E+02  0.13590894690E+03  0.23233719724E+03  0.12499992477E+03 0.  0.
         25    2    1    2    0    0  0.13044610994E+03 -0.53555229246E+02  0.13294036234E+03  0.23061921718E+03  0.12501093238E+03 0.  0.
          5    1    4    4  502    0  0.81755013952E+02 -0.51947459199E+02  0.15014453130E+03  0.17873973006E+03  0.47000000000E+01 0.  1.
         -5    1    4    4    0  502  0.48691095992E+02 -0.16077700470E+01 -0.17204168967E+02  0.51879487115E+02  0.47000000000E+01 0.  1.
          5    1    3    3  503    0 -0.98186392815E+02  0.52717414743E+02  0.21791321313E+02  0.11365141986E+03  0.47000000000E+01 0. -1.
         -5    1    3    3    0  503 -0.32259717130E+02  0.83781450352E+00  0.11411762559E+03  0.11868577738E+03  0.47000000000E+01 0. -1.
<mgrwt>
<rscale>  0 0.18844467E+03</rscale>
<asrwt>0</asrwt>
<pdfrwt beam="2">  1        5 0.14931315E-01 0.18844650E+03</pdfrwt>
<pdfrwt beam="1">  1       -5 0.56292749E-01 0.18844650E+03</pdfrwt>
<totfact> 0.92668309E+01</totfact>
</mgrwt>
</event>
<event>
 8    1  0.1821556E-007  0.1320592E+03  0.7546771E-02  0.1224432E+00
          5   -1    0    0  501    0  0.00000000000E+00  0.00000000000E+00  0.16932005617E+03  0.16938527510E+03  0.47000000000E+01 0. -1.
         -5   -1    0    0    0  501 -0.00000000000E+00 -0.00000000000E+00 -0.10291921103E+03  0.10302647232E+03  0.47000000000E+01 0. -1.
         25    2    1    2    0    0  0.29813696814E+02  0.30462160837E+02  0.36515033673E+02  0.13701310325E+03  0.12498977165E+03 0.  0.
         25    2    1    2    0    0 -0.29813696814E+02 -0.30462160837E+02  0.29885811463E+02  0.13539864418E+03  0.12499132513E+03 0.  0.
          5    1    4    4  502    0 -0.66408629920E+02 -0.56156604658E+02  0.19356304349E+02  0.89221224451E+02  0.47000000000E+01 0.  1.
         -5    1    4    4    0  502  0.36594933106E+02  0.25694443821E+02  0.10529507114E+02  0.46177419724E+02  0.47000000000E+01 0.  1.
          5    1    3    3  503    0  0.74407948964E+02 -0.32992344356E+01  0.30279124254E+02  0.80537836962E+02  0.47000000000E+01 0. -1.
         -5    1    3    3    0  503 -0.44594252150E+02  0.33761395272E+02  0.62359094189E+01  0.56475266284E+02  0.47000000000E+01 0. -1.
<mgrwt>
<rscale>  0 0.13205883E+03</rscale>
<asrwt>0</asrwt>
<pdfrwt beam="1">  1        5 0.26062507E-01 0.13205920E+03</pdfrwt>
<pdfrwt beam="2">  1       -5 0.15846993E-01 0.13205920E+03</pdfrwt>
<totfact> 0.35770107E+02</totfact>
</mgrwt>
</event>
<event>
 8    1  0.1821556E-007  0.1253855E+03  0.7546771E-02  0.1234472E+00
          5   -1    0    0  501    0  0.00000000000E+00  0.00000000000E+00  0.99782500529E+03  0.99783607430E+03  0.47000000000E+01 0.  1.
         -5   -1    0    0    0  501 -0.00000000000E+00 -0.00000000000E+00 -0.15392623419E+02  0.16094187016E+02  0.47000000000E+01 0.  1.
         25    2    1    2    0    0  0.23114872125E+01  0.92544179546E+01  0.49274110881E+03  0.50844131576E+03  0.12501113563E+03 0.  0.
         25    2    1    2    0    0 -0.23114872125E+01 -0.92544179546E+01  0.48969127306E+03  0.50548894556E+03  0.12502217384E+03 0.  0.
          5    1    4    4  502    0 -0.95068017452E+00  0.27733530239E+02  0.20507042581E+02  0.34823573736E+02  0.47000000000E+01 0.  1.
         -5    1    4    4    0  502 -0.13608070380E+01 -0.36987948194E+02  0.46918423048E+03  0.47066537183E+03  0.47000000000E+01 0.  1.
          5    1    3    3  503    0 -0.21417433486E+01 -0.49509081642E+02  0.10479475481E+03  0.11601623535E+03  0.47000000000E+01 0. -1.
         -5    1    3    3    0  503  0.44532305611E+01  0.58763499597E+02  0.38794635401E+03  0.39242508041E+03  0.47000000000E+01 0. -1.
<mgrwt>
<rscale>  0 0.12538278E+03</rscale>
<asrwt>0</asrwt>
<pdfrwt beam="1">  1        5 0.15356643E+00 0.12538553E+03</pdfrwt>
<pdfrwt beam="2">  1       -5 0.24229126E-02 0.12538553E+03</pdfrwt>
<totfact> 0.15666311E+02</totfact>
</mgrwt>
</event>
<event>
 8    1  0.1821556E-007  0.1517313E+03  0.7546771E-02  0.1198365E+00
          5   -1    0    0  501    0  0.00000000000E+00  0.00000000000E+00  0.17493444370E+02  0.18113823338E+02  0.47000000000E+01 0.  1.
         -5   -1    0    0    0  501 -0.00000000000E+00 -0.00000000000E+00 -0.16701985273E+04  0.16702051403E+04  0.47000000000E+01 0.  1.
         25    2    1    2    0    0  0.73532567255E+02 -0.44570718797E+02 -0.12277803276E+04  0.12371204117E+04  0.12501517031E+03 0.  0.
         25    2    1    2    0    0 -0.73532567255E+02  0.44570718797E+02 -0.42492475530E+03  0.45119855187E+03  0.12500199248E+03 0.  0.
          5    1    3    3  502    0  0.32010223327E+02  0.42035746636E+02 -0.33458973803E+03  0.33876841822E+03  0.47000000000E+01 0. -1.
         -5    1    3    3    0  502  0.41522343928E+02 -0.86606465434E+02 -0.89319058961E+03  0.89835199352E+03  0.47000000000E+01 0. -1.
          5    1    4    4  503    0 -0.82342361676E+02  0.69465459524E+02 -0.22525329819E+03  0.24973356390E+03  0.47000000000E+01 0.  1.
         -5    1    4    4    0  503  0.88097944206E+01 -0.24894740726E+02 -0.19967145711E+03  0.20146498797E+03  0.47000000000E+01 0.  1.
<mgrwt>
<rscale>  0 0.15172856E+03</rscale>
<asrwt>0</asrwt>
<pdfrwt beam="1">  1        5 0.27395306E-02 0.15173128E+03</pdfrwt>
<pdfrwt beam="2">  1       -5 0.25700173E+00 0.15173128E+03</pdfrwt>
<totfact> 0.26897243E+01</totfact>
</mgrwt>
</event>
<event>
 8    1  0.1821556E-007  0.1251740E+03  0.7546771E-02  0.1234798E+00
         -5   -1    0    0    0  501 -0.00000000000E+00  0.00000000000E+00  0.66634579469E+02  0.66800128600E+02  0.47000000000E+01 0.  1.
          5   -1    0    0  501    0  0.00000000000E+00 -0.00000000000E+00 -0.23479682498E+03  0.23484386094E+03  0.47000000000E+01 0.  1.
         25    2    1    2    0    0  0.55473430318E+01 -0.35864589097E+01 -0.80394954630E+02  0.14876788450E+03  0.12499959611E+03 0.  0.
         25    2    1    2    0    0 -0.55473430318E+01  0.35864589097E+01 -0.87767290877E+02  0.15287610503E+03  0.12499748173E+03 0.  0.
          5    1    4    4  502    0 -0.41656480942E+02  0.37578607517E+02 -0.53206801477E+01  0.56549215597E+02  0.47000000000E+01 0.  1.
         -5    1    4    4    0  502  0.36109137910E+02 -0.33992148608E+02 -0.82446610730E+02  0.96326889436E+02  0.47000000000E+01 0.  1.
          5    1    3    3  503    0  0.56363708928E+02  0.38479136776E+00 -0.79506695814E+02  0.97572641800E+02  0.47000000000E+01 0.  1.
         -5    1    3    3    0  503 -0.50816365896E+02 -0.39712502774E+01 -0.88825881653E+00  0.51195242703E+02  0.47000000000E+01 0.  1.
<mgrwt>
<rscale>  0 0.12517349E+03</rscale>
<asrwt>0</asrwt>
<pdfrwt beam="2">  1        5 0.36138941E-01 0.12517402E+03</pdfrwt>
<pdfrwt beam="1">  1       -5 0.10267827E-01 0.12517402E+03</pdfrwt>
<totfact> 0.39942415E+02</totfact>
</mgrwt>
</event>
<event>
 8    1  0.1821556E-007  0.1751692E+03  0.7546771E-02  0.1172563E+00
         -5   -1    0    0    0  501 -0.00000000000E+00  0.00000000000E+00  0.93599132508E+02  0.93717061447E+02  0.47000000000E+01 0.  1.
          5   -1    0    0  501    0  0.00000000000E+00 -0.00000000000E+00 -0.44063393312E+03  0.44065899857E+03  0.47000000000E+01 0.  1.
         25    2    1    2    0    0 -0.85706888991E+02 -0.87804149792E+02 -0.38140455276E+02  0.17927339346E+03  0.12501606189E+03 0.  0.
         25    2    1    2    0    0  0.85706888991E+02  0.87804149792E+02 -0.30889434534E+03  0.35510266656E+03  0.12500779045E+03 0.  0.
          5    1    3    3  502    0 -0.10368923010E+03 -0.95892924279E+02 -0.62047743203E+01  0.14144786527E+03  0.47000000000E+01 0. -1.
         -5    1    3    3    0  502  0.17982341109E+02  0.80887744863E+01 -0.31935680955E+02  0.37825528186E+02  0.47000000000E+01 0. -1.
          5    1    4    4  503    0  0.11605395332E+03  0.64452814815E+02 -0.20497041246E+03  0.24424914616E+03  0.47000000000E+01 0. -1.
         -5    1    4    4    0  503 -0.30347064328E+02  0.23351334977E+02 -0.10392393288E+03  0.11085352040E+03  0.47000000000E+01 0. -1.
<mgrwt>
<rscale>  0 0.17516774E+03</rscale>
<asrwt>0</asrwt>
<pdfrwt beam="2">  1        5 0.67800834E-01 0.17516922E+03</pdfrwt>
<pdfrwt beam="1">  1       -5 0.14410866E-01 0.17516922E+03</pdfrwt>
<totfact> 0.64141089E+01</totfact>
</mgrwt>
</event>
<event>
 8    1  0.1821556E-007  0.1325644E+03  0.7546771E-02  0.1223707E+00
         -5   -1    0    0    0  501 -0.00000000000E+00  0.00000000000E+00  0.17391337971E+03  0.17397687675E+03  0.47000000000E+01 0. -1.
          5   -1    0    0  501    0  0.00000000000E+00 -0.00000000000E+00 -0.10092185244E+03  0.10103123428E+03  0.47000000000E+01 0. -1.
         25    2    1    2    0    0  0.79655192003E+01  0.43362827167E+02  0.34248498081E+02  0.13689819642E+03  0.12499748913E+03 0.  0.
         25    2    1    2    0    0 -0.79655192003E+01 -0.43362827167E+02  0.38743029192E+02  0.13810991460E+03  0.12501816638E+03 0.  0.
          5    1    3    3  502    0  0.61814157520E+02 -0.14305247288E+01  0.20920032542E+02  0.65442908191E+02  0.47000000000E+01 0. -1.
         -5    1    3    3    0  502 -0.53848638320E+02  0.44793351896E+02  0.13328465538E+02  0.71455288234E+02  0.47000000000E+01 0. -1.
          5    1    4    4  503    0 -0.47189587904E+02 -0.68232885521E+02  0.11032572095E+02  0.83823573773E+02  0.47000000000E+01 0. -1.
         -5    1    4    4    0  503  0.39224068704E+02  0.24870058354E+02  0.27710457097E+02  0.54286340830E+02  0.47000000000E+01 0. -1.
<mgrwt>
<rscale>  0 0.13255955E+03</rscale>
<asrwt>0</asrwt>
<pdfrwt beam="2">  1        5 0.15539737E-01 0.13256442E+03</pdfrwt>
<pdfrwt beam="1">  1       -5 0.26769203E-01 0.13256442E+03</pdfrwt>
<totfact> 0.35251604E+02</totfact>
</mgrwt>
</event>
<event>
 8    1  0.1821556E-007  0.1469758E+03  0.7546771E-02  0.1204239E+00
         -5   -1    0    0    0  501 -0.00000000000E+00  0.00000000000E+00  0.82627438936E+02  0.82761003287E+02  0.47000000000E+01 0. -1.
          5   -1    0    0  501    0  0.00000000000E+00 -0.00000000000E+00 -0.28180207591E+03  0.28184126736E+03  0.47000000000E+01 0. -1.
         25    2    1    2    0    0 -0.76387827243E+02  0.11887812836E+02 -0.50154904619E+02  0.15529683984E+03  0.12500069505E+03 0.  0.
         25    2    1    2    0    0  0.76387827243E+02 -0.11887812836E+02 -0.14901973236E+03  0.20930543081E+03  0.12500184994E+03 0.  0.
          5    1    3    3  502    0 -0.22693604502E+02 -0.54226149029E+02 -0.60836229982E+01  0.59283854401E+02  0.47000000000E+01 0. -1.
         -5    1    3    3    0  502 -0.53694222741E+02  0.66113961865E+02 -0.44071281620E+02  0.96012985439E+02  0.47000000000E+01 0. -1.
          5    1    4    4  503    0  0.83901664141E+02 -0.51139378247E+02 -0.70337381789E+02  0.12093040366E+03  0.47000000000E+01 0. -1.
         -5    1    4    4    0  503 -0.75138368972E+01  0.39251565411E+02 -0.78682350567E+02  0.88375027145E+02  0.47000000000E+01 0. -1.
<mgrwt>
<rscale>  0 0.14697554E+03</rscale>
<asrwt>0</asrwt>
<pdfrwt beam="2">  1        5 0.43367454E-01 0.14697579E+03</pdfrwt>
<pdfrwt beam="1">  1       -5 0.12725203E-01 0.14697579E+03</pdfrwt>
<totfact> 0.19935959E+02</totfact>
</mgrwt>
</event>
<event>
 8    1  0.1821556E-007  0.1387338E+03  0.7546771E-02  0.1215044E+00
         -5   -1    0    0    0  501 -0.00000000000E+00  0.00000000000E+00  0.83557387211E+02  0.83689467423E+02  0.47000000000E+01 0. -1.
          5   -1    0    0  501    0  0.00000000000E+00 -0.00000000000E+00 -0.39730784412E+03  0.39733564275E+03  0.47000000000E+01 0. -1.
         25    2    1    2    0    0 -0.22807098102E+02 -0.55698970964E+02 -0.83556898259E+00  0.13873632729E+03  0.12499812496E+03 0.  0.
         25    2    1    2    0    0  0.22807098102E+02  0.55698970964E+02 -0.31291488793E+03  0.34228878288E+03  0.12499337867E+03 0.  0.
          5    1    3    3  502    0 -0.41655296233E+01  0.31910402640E+02 -0.30175855511E+02  0.44365501119E+02  0.47000000000E+01 0. -1.
         -5    1    3    3    0  502 -0.18641568478E+02 -0.87609373605E+02  0.29340286529E+02  0.94370826172E+02  0.47000000000E+01 0. -1.
          5    1    4    4  503    0 -0.51703578441E+02  0.16960506948E+02 -0.12230446393E+03  0.13394547665E+03  0.47000000000E+01 0. -1.
         -5    1    4    4    0  503  0.74510676542E+02  0.38738464016E+02 -0.19061042400E+03  0.20834330623E+03  0.47000000000E+01 0. -1.
<mgrwt>
<rscale>  0 0.13873274E+03</rscale>
<asrwt>0</asrwt>
<pdfrwt beam="2">  1        5 0.61136581E-01 0.13873381E+03</pdfrwt>
<pdfrwt beam="1">  1       -5 0.12867281E-01 0.13873381E+03</pdfrwt>
<totfact> 0.92221202E+01</totfact>
</mgrwt>
</event>
<event>
 8    1  0.1821556E-007  0.1467160E+03  0.7546771E-02  0.1204589E+00
          5   -1    0    0  501    0  0.00000000000E+00  0.00000000000E+00  0.88065083834E+02  0.88190413259E+02  0.47000000000E+01 0.  1.
         -5   -1    0    0    0  501 -0.00000000000E+00 -0.00000000000E+00 -0.35681658155E+03  0.35684753448E+03  0.47000000000E+01 0.  1.
         25    2    1    2    0    0  0.81748305077E+01  0.76380944227E+02 -0.25945180914E+03  0.29802753333E+03  0.12491714398E+03 0.  0.
         25    2    1    2    0    0 -0.81748305077E+01 -0.76380944227E+02 -0.92996885713E+01  0.14701041441E+03  0.12499880497E+03 0.  0.
          5    1    3    3  502    0 -0.10999307928E+02  0.23419806793E+02  0.57086512703E+01  0.26910050621E+02  0.47000000000E+01 0.  1.
         -5    1    3    3    0  502  0.19174138436E+02  0.52961137434E+02 -0.26516046041E+03  0.27111748271E+03  0.47000000000E+01 0.  1.
          5    1    4    4  503    0  0.25622163184E+02 -0.99135808609E+02 -0.20421383252E+02  0.10451567676E+03  0.47000000000E+01 0. -1.
         -5    1    4    4    0  503 -0.33796993692E+02  0.22754864383E+02  0.11121694681E+02  0.42494737653E+02  0.47000000000E+01 0. -1.
<mgrwt>
<rscale>  0 0.14669858E+03</rscale>
<asrwt>0</asrwt>
<pdfrwt beam="1">  1        5 0.13560496E-01 0.14671598E+03</pdfrwt>
<pdfrwt beam="2">  1       -5 0.54906880E-01 0.14671598E+03</pdfrwt>
<totfact> 0.10798539E+02</totfact>
</mgrwt>
</event>
<event>
 8    1  0.1821556E-007  0.1295110E+03  0.7546771E-02  0.1228185E+00
         -5   -1    0    0    0  501 -0.00000000000E+00  0.00000000000E+00  0.15796519859E+02  0.16480899237E+02  0.47000000000E+01 0. -1.
          5   -1    0    0  501    0  0.00000000000E+00 -0.00000000000E+00 -0.11958116270E+04  0.11958208634E+04  0.47000000000E+01 0. -1.
         25    2    1    2    0    0  0.26160152400E+02  0.21503368284E+02 -0.37028241766E+03  0.39227817208E+03  0.12500538803E+03 0.  0.
         25    2    1    2    0    0 -0.26160152400E+02 -0.21503368284E+02 -0.80973268951E+03  0.82002359056E+03  0.12499964878E+03 0.  0.
          5    1    3    3  502    0 -0.13513040075E+02 -0.32559107574E+01  0.38784582926E+01  0.15176812764E+02  0.47000000000E+01 0. -1.
         -5    1    3    3    0  502  0.39673192475E+02  0.24759279041E+02 -0.37416087596E+03  0.37710135931E+03  0.47000000000E+01 0. -1.
          5    1    4    4  503    0 -0.47956680169E+02  0.21204809540E+02 -0.15856742862E+03  0.16707844427E+03  0.47000000000E+01 0.  1.
         -5    1    4    4    0  503  0.21796527769E+02 -0.42708177824E+02 -0.65116526089E+03  0.65294514629E+03  0.47000000000E+01 0.  1.
<mgrwt>
<rscale>  0 0.12950960E+03</rscale>
<asrwt>0</asrwt>
<pdfrwt beam="2">  1        5 0.18402431E+00 0.12951099E+03</pdfrwt>
<pdfrwt beam="1">  1       -5 0.24835898E-02 0.12951099E+03</pdfrwt>
<totfact> 0.90846686E+01</totfact>
</mgrwt>
</event>
<event>
 8    1  0.1821556E-007  0.1590673E+03  0.7546771E-02  0.1189754E+00
         -5   -1    0    0    0  501 -0.00000000000E+00  0.00000000000E+00  0.61974363507E+02  0.62152326844E+02  0.47000000000E+01 0. -1.
          5   -1    0    0  501    0  0.00000000000E+00 -0.00000000000E+00 -0.40931308142E+03  0.40934006476E+03  0.47000000000E+01 0. -1.
         25    2    1    2    0    0  0.89841754815E+02  0.40057131393E+02 -0.15793628780E+03  0.22415517786E+03  0.12500223228E+03 0.  0.
         25    2    1    2    0    0 -0.89841754815E+02 -0.40057131393E+02 -0.18940243011E+03  0.24733721374E+03  0.12500520824E+03 0.  0.
          5    1    3    3  502    0 -0.22113867070E+02  0.41099539688E+02 -0.43041854255E+02  0.63662284730E+02  0.47000000000E+01 0.  1.
         -5    1    3    3    0  502  0.11195562188E+03 -0.10424082952E+01 -0.11489443355E+03  0.16049289313E+03  0.47000000000E+01 0.  1.
          5    1    4    4  503    0  0.44315189321E+01  0.30545127861E+02 -0.10203039296E+02  0.32845626908E+02  0.47000000000E+01 0. -1.
         -5    1    4    4    0  503 -0.94273273747E+02 -0.70602259254E+02 -0.17919939081E+03  0.21449158683E+03  0.47000000000E+01 0. -1.
<mgrwt>
<rscale>  0 0.15906675E+03</rscale>
<asrwt>0</asrwt>
<pdfrwt beam="2">  1        5 0.62987007E-01 0.15906733E+03</pdfrwt>
<pdfrwt beam="1">  1       -5 0.95502828E-02 0.15906733E+03</pdfrwt>
<totfact> 0.15257388E+02</totfact>
</mgrwt>
</event>
<event>
 8    1  0.1821556E-007  0.1416745E+03  0.7546771E-02  0.1211096E+00
          5   -1    0    0  501    0  0.00000000000E+00  0.00000000000E+00  0.14366789649E+03  0.14374475462E+03  0.47000000000E+01 0.  1.
         -5   -1    0    0    0  501 -0.00000000000E+00 -0.00000000000E+00 -0.14979216878E+03  0.14986588614E+03  0.47000000000E+01 0.  1.
         25    2    1    2    0    0 -0.22912882999E+01 -0.66633265788E+02 -0.41435106813E+02  0.14760940977E+03  0.12500571052E+03 0.  0.
         25    2    1    2    0    0  0.22912882999E+01  0.66633265788E+02  0.35310834523E+02  0.14600123100E+03  0.12499704919E+03 0.  0.
          5    1    4    4  502    0  0.47472424224E+02  0.47747693761E+02  0.60581682852E+02  0.90695664827E+02  0.47000000000E+01 0.  1.
         -5    1    4    4    0  502 -0.45181135924E+02  0.18885572028E+02 -0.25270848329E+02  0.55305566171E+02  0.47000000000E+01 0.  1.
          5    1    3    3  503    0 -0.31758374721E+02  0.20398812567E+02 -0.40553013327E+02  0.55599845404E+02  0.47000000000E+01 0. -1.
         -5    1    3    3    0  503  0.29467086421E+02 -0.87032078356E+02 -0.88209348590E+00  0.92009564361E+02  0.47000000000E+01 0. -1.
<mgrwt>
<rscale>  0 0.14167261E+03</rscale>
<asrwt>0</asrwt>
<pdfrwt beam="1">  1        5 0.22114336E-01 0.14167452E+03</pdfrwt>
<pdfrwt beam="2">  1       -5 0.23056532E-01 0.14167452E+03</pdfrwt>
<totfact> 0.24979734E+02</totfact>
</mgrwt>
</event>
<event>
 8    1  0.1821556E-007  0.1309836E+03  0.7546771E-02  0.1226004E+00
         -5   -1    0    0    0  501 -0.00000000000E+00  0.00000000000E+00  0.23232150743E+03  0.23236904444E+03  0.47000000000E+01 0.  1.
          5   -1    0    0  501    0  0.00000000000E+00 -0.00000000000E+00 -0.90378123390E+02  0.90500249654E+02  0.47000000000E+01 0.  1.
         25    2    1    2    0    0 -0.39105127215E+02 -0.10425226626E+01  0.14021208911E+03  0.19187429339E+03  0.12500406675E+03 0.  0.
         25    2    1    2    0    0  0.39105127215E+02  0.10425226626E+01  0.17312949363E+01  0.13099500071E+03  0.12500557988E+03 0.  0.
          5    1    4    4  502    0  0.55607200574E+02 -0.42186810806E+02  0.30489156136E+02  0.76312295232E+02  0.47000000000E+01 0.  1.
         -5    1    4    4    0  502 -0.16502073360E+02  0.43229333469E+02 -0.28757861200E+02  0.54682705476E+02  0.47000000000E+01 0.  1.
          5    1    3    3  503    0  0.23341073502E+02 -0.41328503552E+02  0.22859125491E+02  0.52891214169E+02  0.47000000000E+01 0.  1.
         -5    1    3    3    0  503 -0.62446200717E+02  0.40285980890E+02  0.11735296362E+03  0.13898307922E+03  0.47000000000E+01 0.  1.
<mgrwt>
<rscale>  0 0.13098320E+03</rscale>
<asrwt>0</asrwt>
<pdfrwt beam="2">  1        5 0.13917378E-01 0.13098356E+03</pdfrwt>
<pdfrwt beam="1">  1       -5 0.35754821E-01 0.13098356E+03</pdfrwt>
<totfact> 0.24221201E+02</totfact>
</mgrwt>
</event>
<event>
 8    1  0.1821556E-007  0.1289237E+03  0.7546771E-02  0.1229062E+00
         -5   -1    0    0    0  501 -0.00000000000E+00  0.00000000000E+00  0.20767450373E+03  0.20772768111E+03  0.47000000000E+01 0. -1.
          5   -1    0    0  501    0  0.00000000000E+00 -0.00000000000E+00 -0.94308949943E+02  0.94425992392E+02  0.47000000000E+01 0. -1.
         25    2    1    2    0    0 -0.30920533079E+02 -0.62766172290E+01  0.11567459775E+03  0.17320926452E+03  0.12500144584E+03 0.  0.
         25    2    1    2    0    0  0.30920533079E+02  0.62766172290E+01 -0.23090439619E+01  0.12894440898E+03  0.12500341449E+03 0.  0.
          5    1    4    4  502    0  0.10315051566E+02 -0.50099689109E+02  0.31141103812E+02  0.60068606479E+02  0.47000000000E+01 0. -1.
         -5    1    4    4    0  502  0.20605481513E+02  0.56376306338E+02 -0.33450147774E+02  0.68875802506E+02  0.47000000000E+01 0. -1.
          5    1    3    3  503    0  0.24723211836E+02  0.40410901514E+02  0.16909499805E+02  0.50520286503E+02  0.47000000000E+01 0.  1.
         -5    1    3    3    0  503 -0.55643744915E+02 -0.46687518743E+02  0.98765097946E+02  0.12268897802E+03  0.47000000000E+01 0.  1.
<mgrwt>
<rscale>  0 0.12892326E+03</rscale>
<asrwt>0</asrwt>
<pdfrwt beam="2">  1        5 0.14522163E-01 0.12892373E+03</pdfrwt>
<pdfrwt beam="1">  1       -5 0.31963018E-01 0.12892373E+03</pdfrwt>
<totfact> 0.27892927E+02</totfact>
</mgrwt>
</event>
<event>
 8    1  0.1821556E-007  0.1304202E+03  0.7546771E-02  0.1226834E+00
          5   -1    0    0  501    0  0.00000000000E+00  0.00000000000E+00  0.10004694749E+03  0.10015728482E+03  0.47000000000E+01 0. -1.
         -5   -1    0    0    0  501 -0.00000000000E+00 -0.00000000000E+00 -0.19346008478E+03  0.19351716824E+03  0.47000000000E+01 0. -1.
         25    2    1    2    0    0  0.31633945578E+02 -0.19569461415E+02 -0.98060814546E+02  0.16317145946E+03  0.12500132599E+03 0.  0.
         25    2    1    2    0    0 -0.31633945578E+02  0.19569461415E+02  0.46476772586E+01  0.13050299359E+03  0.12500304036E+03 0.  0.
          5    1    3    3  502    0 -0.48503868914E+00 -0.36663430788E+02 -0.11641944819E+03  0.12214753512E+03  0.47000000000E+01 0.  1.
         -5    1    3    3    0  502  0.32118984267E+02  0.17093969372E+02  0.18358633639E+02  0.41023924341E+02  0.47000000000E+01 0.  1.
          5    1    4    4  503    0 -0.56020001509E+02  0.56973213915E+02 -0.15105260481E+02  0.81452112110E+02  0.47000000000E+01 0. -1.
         -5    1    4    4    0  503  0.24386055931E+02 -0.37403752500E+02  0.19752937740E+02  0.49050881484E+02  0.47000000000E+01 0. -1.
<mgrwt>
<rscale>  0 0.13041980E+03</rscale>
<asrwt>0</asrwt>
<pdfrwt beam="1">  1        5 0.15404717E-01 0.13042021E+03</pdfrwt>
<pdfrwt beam="2">  1       -5 0.29775968E-01 0.13042021E+03</pdfrwt>
<totfact> 0.28944115E+02</totfact>
</mgrwt>
</event>
<event>
 8    1  0.1821556E-007  0.1488842E+03  0.7546771E-02  0.1201852E+00
          5   -1    0    0  501    0  0.00000000000E+00  0.00000000000E+00  0.68752930526E+03  0.68754536984E+03  0.47000000000E+01 0. -1.
         -5   -1    0    0    0  501 -0.00000000000E+00 -0.00000000000E+00 -0.33624859155E+02  0.33951747424E+02  0.47000000000E+01 0. -1.
         25    2    1    2    0    0  0.19865356236E+02  0.78403072497E+02  0.24932761574E+03  0.29039513900E+03  0.12499361035E+03 0.  0.
         25    2    1    2    0    0 -0.19865356236E+02 -0.78403072497E+02  0.40457683037E+03  0.43110197827E+03  0.12499931937E+03 0.  0.
          5    1    4    4  502    0 -0.23507516586E+01 -0.38006394942E+02  0.18681337910E+02  0.42674283544E+02  0.47000000000E+01 0.  1.
         -5    1    4    4    0  502 -0.17514604577E+02 -0.40396677555E+02  0.38589549246E+03  0.38842769473E+03  0.47000000000E+01 0.  1.
          5    1    3    3  503    0 -0.52115163771E+02  0.22585439775E+02  0.10962127872E+03  0.12355163752E+03  0.47000000000E+01 0. -1.
         -5    1    3    3    0  503  0.71980520007E+02  0.55817632723E+02  0.13970633702E+03  0.16684350148E+03  0.47000000000E+01 0. -1.
<mgrwt>
<rscale>  0 0.14888300E+03</rscale>
<asrwt>0</asrwt>
<pdfrwt beam="1">  1        5 0.10580012E+00 0.14888420E+03</pdfrwt>
<pdfrwt beam="2">  1       -5 0.51994364E-02 0.14888420E+03</pdfrwt>
<totfact> 0.12544328E+02</totfact>
</mgrwt>
</event>
<event>
 8    1  0.1821556E-007  0.1419504E+03  0.7546771E-02  0.1210729E+00
          5   -1    0    0  501    0  0.00000000000E+00  0.00000000000E+00  0.15829748733E+03  0.15836724565E+03  0.47000000000E+01 0.  1.
         -5   -1    0    0    0  501 -0.00000000000E+00 -0.00000000000E+00 -0.12717430124E+03  0.12726112091E+03  0.47000000000E+01 0.  1.
         25    2    1    2    0    0 -0.37005917769E+02 -0.56170501518E+02  0.17617441057E+02  0.14303693685E+03  0.12499851152E+03 0.  0.
         25    2    1    2    0    0  0.37005917769E+02  0.56170501518E+02  0.13505745029E+02  0.14259142971E+03  0.12500138995E+03 0.  0.
          5    1    3    3  502    0 -0.22996946522E+02 -0.91356875259E+02  0.35639407337E+02  0.10083251242E+03  0.47000000000E+01 0. -1.
         -5    1    3    3    0  502 -0.14008971247E+02  0.35186373741E+02 -0.18021966280E+02  0.42204424425E+02  0.47000000000E+01 0. -1.
          5    1    4    4  503    0 -0.42636715256E+02  0.76451431162E+01 -0.13096184567E+02  0.45496568566E+02  0.47000000000E+01 0. -1.
         -5    1    4    4    0  503  0.79642633025E+02  0.48525358402E+02  0.26601929596E+02  0.97094861148E+02  0.47000000000E+01 0. -1.
<mgrwt>
<rscale>  0 0.14194975E+03</rscale>
<asrwt>0</asrwt>
<pdfrwt beam="1">  1        5 0.24365504E-01 0.14195038E+03</pdfrwt>
<pdfrwt beam="2">  1       -5 0.19577322E-01 0.14195038E+03</pdfrwt>
<totfact> 0.28279397E+02</totfact>
</mgrwt>
</event>
<event>
 8    1  0.1821556E-007  0.1366396E+03  0.7546771E-02  0.1217928E+00
         -5   -1    0    0    0  501 -0.00000000000E+00  0.00000000000E+00  0.23864237782E+03  0.23868865597E+03  0.47000000000E+01 0. -1.
          5   -1    0    0  501    0  0.00000000000E+00 -0.00000000000E+00 -0.79882114226E+02  0.80020261017E+02  0.47000000000E+01 0. -1.
         25    2    1    2    0    0  0.24406092090E+02 -0.49451190878E+02  0.10313363479E+03  0.17119267519E+03  0.12501723003E+03 0.  0.
         25    2    1    2    0    0 -0.24406092090E+02  0.49451190878E+02  0.55626628803E+02  0.14751624180E+03  0.12500256859E+03 0.  0.
          5    1    3    3  502    0  0.41630100234E+02  0.75827026819E+01 -0.95578214568E+01  0.43634900899E+02  0.47000000000E+01 0.  1.
         -5    1    3    3    0  502 -0.17224008144E+02 -0.57033893560E+02  0.11269145625E+03  0.12755777429E+03  0.47000000000E+01 0.  1.
          5    1    4    4  503    0  0.13015861317E+02  0.80214369414E+02  0.12239836512E+02  0.82314405204E+02  0.47000000000E+01 0. -1.
         -5    1    4    4    0  503 -0.37421953407E+02 -0.30763178536E+02  0.43386792291E+02  0.65201836598E+02  0.47000000000E+01 0. -1.
<mgrwt>
<rscale>  0 0.13663627E+03</rscale>
<asrwt>0</asrwt>
<pdfrwt beam="2">  1        5 0.12303743E-01 0.13663962E+03</pdfrwt>
<pdfrwt beam="1">  1       -5 0.36728398E-01 0.13663962E+03</pdfrwt>
<totfact> 0.29016599E+02</totfact>
</mgrwt>
</event>
<event>
 8    1  0.1821556E-007  0.1312329E+03  0.7546771E-02  0.1225638E+00
         -5   -1    0    0    0  501 -0.00000000000E+00  0.00000000000E+00  0.39039864145E+03  0.39042693202E+03  0.47000000000E+01 0.  1.
          5   -1    0    0  501    0  0.00000000000E+00 -0.00000000000E+00 -0.44447811161E+02  0.44695614069E+02  0.47000000000E+01 0.  1.
         25    2    1    2    0    0 -0.36092340589E+02  0.17156298764E+02  0.15021777454E+03  0.19946795403E+03  0.12500035704E+03 0.  0.
         25    2    1    2    0    0  0.36092340589E+02 -0.17156298764E+02  0.19573305575E+03  0.23565459206E+03  0.12499864803E+03 0.  0.
          5    1    3    3  502    0 -0.66567326947E+02 -0.12853329239E+02  0.13942699426E+03  0.15510768458E+03  0.47000000000E+01 0.  1.
         -5    1    3    3    0  502  0.30474986358E+02  0.30009628003E+02  0.10790780284E+02  0.44360269448E+02  0.47000000000E+01 0.  1.
          5    1    4    4  503    0  0.96893677980E+00  0.41158785930E+02  0.17824880410E+02  0.45108766990E+02  0.47000000000E+01 0.  1.
         -5    1    4    4    0  503  0.35123403809E+02 -0.58315084694E+02  0.17790817534E+03  0.19054582507E+03  0.47000000000E+01 0.  1.
<mgrwt>
<rscale>  0 0.13123253E+03</rscale>
<asrwt>0</asrwt>
<pdfrwt beam="2">  1        5 0.68593627E-02 0.13123294E+03</pdfrwt>
<pdfrwt beam="1">  1       -5 0.60082568E-01 0.13123294E+03</pdfrwt>
<totfact> 0.28041327E+02</totfact>
</mgrwt>
</event>
<event>
 8    1  0.1821556E-007  0.1426681E+03  0.7546771E-02  0.1209784E+00
         -5   -1    0    0    0  501 -0.00000000000E+00  0.00000000000E+00  0.30612340578E+02  0.30971041243E+02  0.47000000000E+01 0.  1.
          5   -1    0    0  501    0  0.00000000000E+00 -0.00000000000E+00 -0.82213913977E+03  0.82215257413E+03  0.47000000000E+01 0.  1.
         25    2    1    2    0    0  0.35976488591E+02 -0.58602043010E+02 -0.20675698597E+03  0.25120236341E+03  0.12500267580E+03 0.  0.
         25    2    1    2    0    0 -0.35976488591E+02  0.58602043010E+02 -0.58476981322E+03  0.60192125196E+03  0.12499980773E+03 0.  0.
          5    1    3    3  502    0  0.19927427071E+02 -0.97358569954E+02 -0.15798756974E+03  0.18670285398E+03  0.47000000000E+01 0. -1.
         -5    1    3    3    0  502  0.16049061520E+02  0.38756526944E+02 -0.48769416228E+02  0.64499509421E+02  0.47000000000E+01 0. -1.
          5    1    4    4  503    0  0.23872825701E+01  0.78672800886E+02 -0.20464566951E+03  0.21931039366E+03  0.47000000000E+01 0.  1.
         -5    1    4    4    0  503 -0.38363771161E+02 -0.20070757876E+02 -0.38012414371E+03  0.38261085831E+03  0.47000000000E+01 0.  1.
<mgrwt>
<rscale>  0 0.14266743E+03</rscale>
<asrwt>0</asrwt>
<pdfrwt beam="2">  1        5 0.12651155E+00 0.14266806E+03</pdfrwt>
<pdfrwt beam="1">  1       -5 0.47382173E-02 0.14266806E+03</pdfrwt>
<totfact> 0.91974627E+01</totfact>
</mgrwt>
</event>
<event>
 8    1  0.1821556E-007  0.1828131E+03  0.7546771E-02  0.1165108E+00
          5   -1    0    0  501    0  0.00000000000E+00  0.00000000000E+00  0.13989400792E+03  0.13997293828E+03  0.47000000000E+01 0. -1.
         -5   -1    0    0    0  501 -0.00000000000E+00 -0.00000000000E+00 -0.24815282377E+03  0.24819732865E+03  0.47000000000E+01 0. -1.
         25    2    1    2    0    0 -0.11597042156E+03  0.65920660428E+02 -0.91944229693E+02  0.20463062542E+03  0.12500111734E+03 0.  0.
         25    2    1    2    0    0  0.11597042156E+03 -0.65920660428E+02 -0.16314586160E+02  0.18353964151E+03  0.12500384849E+03 0.  0.
          5    1    3    3  502    0 -0.12488509370E+03  0.88204738696E+02 -0.59797714996E+02  0.16423830027E+03  0.47000000000E+01 0.  1.
         -5    1    3    3    0  502  0.89146721389E+01 -0.22284078268E+02 -0.32146514697E+02  0.40392325147E+02  0.47000000000E+01 0.  1.
          5    1    4    4  503    0  0.42910126432E+02 -0.48131648369E+02  0.51124378688E+02  0.82424065790E+02  0.47000000000E+01 0.  1.
         -5    1    4    4    0  503  0.73060295127E+02 -0.17789012059E+02 -0.67438964848E+02  0.10111557572E+03  0.47000000000E+01 0.  1.
<mgrwt>
<rscale>  0 0.18281265E+03</rscale>
<asrwt>0</asrwt>
<pdfrwt beam="1">  1        5 0.21531650E-01 0.18281311E+03</pdfrwt>
<pdfrwt beam="2">  1       -5 0.38186852E-01 0.18281311E+03</pdfrwt>
<totfact> 0.10551853E+02</totfact>
</mgrwt>
</event>
<event>
 8    1  0.1821556E-007  0.2849481E+03  0.7546771E-02  0.1093017E+00
          5   -1    0    0  501    0  0.00000000000E+00  0.00000000000E+00  0.11083157214E+03  0.11093118310E+03  0.47000000000E+01 0.  1.
         -5   -1    0    0    0  501 -0.00000000000E+00 -0.00000000000E+00 -0.75469770440E+03  0.75471233926E+03  0.47000000000E+01 0.  1.
         25    2    1    2    0    0 -0.17524686756E+03  0.18670252308E+03 -0.39671843218E+03  0.48844671434E+03  0.12500152644E+03 0.  0.
         25    2    1    2    0    0  0.17524686756E+03 -0.18670252308E+03 -0.24714770008E+03  0.37719680801E+03  0.12500459832E+03 0.  0.
          5    1    4    4  502    0  0.12804652671E+03 -0.18219463636E+03 -0.24258209161E+03  0.32933107915E+03  0.47000000000E+01 0.  1.
         -5    1    4    4    0  502  0.47200340844E+02 -0.45078867215E+01 -0.45656084708E+01  0.47865728859E+02  0.47000000000E+01 0.  1.
          5    1    3    3  503    0 -0.85161193239E+02  0.29765531601E+02 -0.20890823402E+03  0.22760306665E+03  0.47000000000E+01 0.  1.
         -5    1    3    3    0  503 -0.90085674320E+02  0.15693699148E+03 -0.18781019815E+03  0.26084364770E+03  0.47000000000E+01 0.  1.
<mgrwt>
<rscale>  0 0.28494781E+03</rscale>
<asrwt>0</asrwt>
<pdfrwt beam="1">  1        5 0.17059800E-01 0.28494815E+03</pdfrwt>
<pdfrwt beam="2">  1       -5 0.11611612E+00 0.28494815E+03</pdfrwt>
<totfact> 0.14572920E+01</totfact>
</mgrwt>
</event>
<event>
 8    1  0.1821556E-007  0.1606970E+03  0.7546771E-02  0.1187916E+00
         -5   -1    0    0    0  501 -0.00000000000E+00  0.00000000000E+00  0.10297959547E+03  0.10308679394E+03  0.47000000000E+01 0. -1.
          5   -1    0    0  501    0  0.00000000000E+00 -0.00000000000E+00 -0.25292547965E+03  0.25296914487E+03  0.47000000000E+01 0. -1.
         25    2    1    2    0    0  0.13982318441E+02  0.10000949257E+03 -0.92467921290E+02  0.18538892421E+03  0.12498533082E+03 0.  0.
         25    2    1    2    0    0 -0.13982318441E+02 -0.10000949257E+03 -0.57477962890E+02  0.17066701460E+03  0.12500443920E+03 0.  0.
          5    1    4    4  502    0 -0.47626168656E+02 -0.64367535184E+02  0.16415500470E+02  0.81871791126E+02  0.47000000000E+01 0. -1.
         -5    1    4    4    0  502  0.33643850216E+02 -0.35641957387E+02 -0.73893463359E+02  0.88795223469E+02  0.47000000000E+01 0. -1.
          5    1    3    3  503    0  0.93786350345E+01  0.98718106769E+02 -0.68511716596E+01  0.99510059554E+02  0.47000000000E+01 0. -1.
         -5    1    3    3    0  503  0.46036834062E+01  0.12913858015E+01 -0.85616749630E+02  0.85878864661E+02  0.47000000000E+01 0. -1.
<mgrwt>
<rscale>  0 0.16069325E+03</rscale>
<asrwt>0</asrwt>
<pdfrwt beam="2">  1        5 0.38923217E-01 0.16069696E+03</pdfrwt>
<pdfrwt beam="1">  1       -5 0.15854620E-01 0.16069696E+03</pdfrwt>
<totfact> 0.17241839E+02</totfact>
</mgrwt>
</event>
<event>
 8    1  0.1821556E-007  0.1308385E+03  0.7546771E-02  0.1226217E+00
         -5   -1    0    0    0  501 -0.00000000000E+00  0.00000000000E+00  0.24428616949E+03  0.24433137867E+03  0.47000000000E+01 0.  1.
          5   -1    0    0  501    0  0.00000000000E+00 -0.00000000000E+00 -0.74769085782E+02  0.74916661623E+02  0.47000000000E+01 0.  1.
         25    2    1    2    0    0 -0.37833650590E+02 -0.78924482966E+01  0.12524805094E+03  0.18112326903E+03  0.12499955385E+03 0.  0.
         25    2    1    2    0    0  0.37833650590E+02  0.78924482966E+01  0.44269032769E+02  0.13812477127E+03  0.12500011727E+03 0.  0.
          5    1    3    3  502    0 -0.69613920567E+02  0.27402152158E+02  0.44070912832E+02  0.86955800482E+02  0.47000000000E+01 0.  1.
         -5    1    3    3    0  502  0.31780269977E+02 -0.35294600454E+02  0.81177138107E+02  0.94167468545E+02  0.47000000000E+01 0.  1.
          5    1    4    4  503    0  0.56524285948E+01 -0.54932930509E+02  0.37799037611E+02  0.67085274447E+02  0.47000000000E+01 0.  1.
         -5    1    4    4    0  503  0.32181221995E+02  0.62825378806E+02  0.64699951583E+01  0.71039496821E+02  0.47000000000E+01 0.  1.
<mgrwt>
<rscale>  0 0.13083834E+03</rscale>
<asrwt>0</asrwt>
<pdfrwt beam="2">  1        5 0.11517766E-01 0.13083847E+03</pdfrwt>
<pdfrwt beam="1">  1       -5 0.37597318E-01 0.13083847E+03</pdfrwt>
<totfact> 0.30639998E+02</totfact>
</mgrwt>
</event>
<event>
 8    1  0.1821556E-007  0.1300080E+03  0.7546771E-02  0.1227448E+00
         -5   -1    0    0    0  501 -0.00000000000E+00  0.00000000000E+00  0.12461441471E+03  0.12470301662E+03  0.47000000000E+01 0. -1.
          5   -1    0    0  501    0  0.00000000000E+00 -0.00000000000E+00 -0.18992656178E+03  0.18998470693E+03  0.47000000000E+01 0. -1.
         25    2    1    2    0    0  0.23421134481E+02 -0.26981948109E+02  0.51580402040E+02  0.13985649645E+03  0.12499090631E+03 0.  0.
         25    2    1    2    0    0 -0.23421134481E+02  0.26981948109E+02 -0.11689254911E+03  0.17483122711E+03  0.12500205946E+03 0.  0.
          5    1    4    4  502    0 -0.53553460208E+02  0.59200077147E+02 -0.49177685811E+02  0.93878416136E+02  0.47000000000E+01 0. -1.
         -5    1    4    4    0  502  0.30132325728E+02 -0.32218129037E+02 -0.67714863298E+02  0.80952810969E+02  0.47000000000E+01 0. -1.
          5    1    3    3  503    0  0.42922300948E+02  0.26905249619E+02  0.63263003942E+02  0.81181981027E+02  0.47000000000E+01 0. -1.
         -5    1    3    3    0  503 -0.19501166467E+02 -0.53887197728E+02 -0.11682601902E+02  0.58674515420E+02  0.47000000000E+01 0. -1.
<mgrwt>
<rscale>  0 0.13000536E+03</rscale>
<asrwt>0</asrwt>
<pdfrwt beam="2">  1        5 0.29230759E-01 0.13000804E+03</pdfrwt>
<pdfrwt beam="1">  1       -5 0.19182737E-01 0.13000804E+03</pdfrwt>
<totfact> 0.20048499E+02</totfact>
</mgrwt>
</event>
<event>
 8    1  0.1821556E-007  0.2064088E+03  0.7546771E-02  0.1144445E+00
          5   -1    0    0  501    0  0.00000000000E+00  0.00000000000E+00  0.24104861727E+03  0.24109443355E+03  0.47000000000E+01 0. -1.
         -5   -1    0    0    0  501 -0.00000000000E+00 -0.00000000000E+00 -0.21154081911E+03  0.21159302482E+03  0.47000000000E+01 0. -1.
         25    2    1    2    0    0  0.10387425591E+03  0.12722930533E+03 -0.77160252569E+02  0.22035948059E+03  0.12500975535E+03 0.  0.
         25    2    1    2    0    0 -0.10387425591E+03 -0.12722930533E+03  0.10666805072E+03  0.23232797777E+03  0.12498423515E+03 0.  0.
          5    1    4    4  502    0 -0.26993732661E+02  0.52764249573E+01  0.69105342293E+02  0.74526106813E+02  0.47000000000E+01 0. -1.
         -5    1    4    4    0  502 -0.76880523247E+02 -0.13250573029E+03  0.37562708432E+02  0.15780187096E+03  0.47000000000E+01 0. -1.
          5    1    3    3  503    0 -0.29001048041E+02  0.26561003511E+02 -0.13255762260E+02  0.41765451369E+02  0.47000000000E+01 0. -1.
         -5    1    3    3    0  503  0.13287530395E+03  0.10066830182E+03 -0.63904490309E+02  0.17859402922E+03  0.47000000000E+01 0. -1.
<mgrwt>
<rscale>  0 0.20640494E+03</rscale>
<asrwt>0</asrwt>
<pdfrwt beam="1">  1        5 0.37091943E-01 0.20640881E+03</pdfrwt>
<pdfrwt beam="2">  1       -5 0.32552281E-01 0.20640881E+03</pdfrwt>
<totfact> 0.51845312E+01</totfact>
</mgrwt>
</event>
<event>
 8    1  0.1821556E-007  0.1878698E+03  0.7546771E-02  0.1160398E+00
          5   -1    0    0  501    0  0.00000000000E+00  0.00000000000E+00  0.10359125655E+03  0.10369782270E+03  0.47000000000E+01 0.  1.
         -5   -1    0    0    0  501 -0.00000000000E+00 -0.00000000000E+00 -0.34275136043E+03  0.34278358344E+03  0.47000000000E+01 0.  1.
         25    2    1    2    0    0  0.10009995902E+03  0.98229344536E+02 -0.13804306009E+03  0.23313288121E+03  0.12500419169E+03 0.  0.
         25    2    1    2    0    0 -0.10009995902E+03 -0.98229344536E+02 -0.10111704379E+03  0.21334852493E+03  0.12499572241E+03 0.  0.
          5    1    3    3  502    0  0.10864798049E+03  0.30074171803E+02 -0.11349539534E+03  0.16003791500E+03  0.47000000000E+01 0.  1.
         -5    1    3    3    0  502 -0.85480214661E+01  0.68155172732E+02 -0.24547664752E+02  0.73094966215E+02  0.47000000000E+01 0.  1.
          5    1    4    4  503    0 -0.47697126559E+01 -0.16962146671E+02  0.27983207323E+02  0.33400815418E+02  0.47000000000E+01 0.  1.
         -5    1    4    4    0  503 -0.95330246368E+02 -0.81267197864E+02 -0.12910025111E+03  0.17994770951E+03  0.47000000000E+01 0.  1.
<mgrwt>
<rscale>  0 0.18786837E+03</rscale>
<asrwt>0</asrwt>
<pdfrwt beam="1">  1        5 0.15947793E-01 0.18786978E+03</pdfrwt>
<pdfrwt beam="2">  1       -5 0.52741654E-01 0.18786978E+03</pdfrwt>
<totfact> 0.94529396E+01</totfact>
</mgrwt>
</event>
<event>
 8    1  0.1821556E-007  0.1340842E+03  0.7546771E-02  0.1221521E+00
         -5   -1    0    0    0  501 -0.00000000000E+00  0.00000000000E+00  0.40338694431E+02  0.40611578009E+02  0.47000000000E+01 0. -1.
          5   -1    0    0  501    0  0.00000000000E+00 -0.00000000000E+00 -0.68953715358E+03  0.68955317138E+03  0.47000000000E+01 0. -1.
         25    2    1    2    0    0  0.46979618563E+02 -0.12085264404E+02 -0.10674037369E+03  0.17138282100E+03  0.12500170312E+03 0.  0.
         25    2    1    2    0    0 -0.46979618563E+02  0.12085264404E+02 -0.54245808545E+03  0.55878192839E+03  0.12499332321E+03 0.  0.
          5    1    3    3  502    0  0.12475090984E+02  0.20310273888E+02 -0.11965691984E+03  0.12209833572E+03  0.47000000000E+01 0.  1.
         -5    1    3    3    0  502  0.34504527579E+02 -0.32395538292E+02  0.12916546148E+02  0.49284485278E+02  0.47000000000E+01 0.  1.
          5    1    4    4  503    0  0.17255428870E+02  0.50478133512E+02 -0.15119548070E+03  0.16039936151E+03  0.47000000000E+01 0.  1.
         -5    1    4    4    0  503 -0.64235047433E+02 -0.38392869108E+02 -0.39126260475E+03  0.39838256688E+03  0.47000000000E+01 0.  1.
<mgrwt>
<rscale>  0 0.13408221E+03</rscale>
<asrwt>0</asrwt>
<pdfrwt beam="2">  1        5 0.10610485E+00 0.13408417E+03</pdfrwt>
<pdfrwt beam="1">  1       -5 0.62281767E-02 0.13408417E+03</pdfrwt>
<totfact> 0.89058206E+01</totfact>
</mgrwt>
</event>
<event>
 8    1  0.1821556E-007  0.1329021E+03  0.7546771E-02  0.1223219E+00
         -5   -1    0    0    0  501 -0.00000000000E+00  0.00000000000E+00  0.15162250848E+04  0.15162323694E+04  0.47000000000E+01 0. -1.
          5   -1    0    0  501    0  0.00000000000E+00 -0.00000000000E+00 -0.17928442134E+02  0.18534266571E+02  0.47000000000E+01 0. -1.
         25    2    1    2    0    0 -0.44458830882E+02 -0.78948445603E+01  0.12104986453E+04  0.12177725272E+04  0.12499616550E+03 0.  0.
         25    2    1    2    0    0  0.44458830882E+02  0.78948445603E+01  0.28779799736E+03  0.31699410874E+03  0.12497464333E+03 0.  0.
          5    1    3    3  502    0 -0.71259510751E+02  0.36566307014E+01  0.11257078599E+04  0.11279767571E+04  0.47000000000E+01 0.  1.
         -5    1    3    3    0  502  0.26800679870E+02 -0.11551475262E+02  0.84790785462E+02  0.89795770064E+02  0.47000000000E+01 0.  1.
          5    1    4    4  503    0  0.64382152968E+02  0.35711623290E+02  0.26626098333E+03  0.27629220565E+03  0.47000000000E+01 0. -1.
         -5    1    4    4    0  503 -0.19923322086E+02 -0.27816778730E+02  0.21537014034E+02  0.40701903092E+02  0.47000000000E+01 0. -1.
<mgrwt>
<rscale>  0 0.13289700E+03</rscale>
<asrwt>0</asrwt>
<pdfrwt beam="2">  1        5 0.28053824E-02 0.13290206E+03</pdfrwt>
<pdfrwt beam="1">  1       -5 0.23331270E+00 0.13290206E+03</pdfrwt>
<totfact> 0.35393273E+01</totfact>
</mgrwt>
</event>
<event>
 8    1  0.1821556E-007  0.1278098E+03  0.7546771E-02  0.1230750E+00
          5   -1    0    0  501    0  0.00000000000E+00  0.00000000000E+00  0.84335286494E+02  0.84466150309E+02  0.47000000000E+01 0. -1.
         -5   -1    0    0    0  501 -0.00000000000E+00 -0.00000000000E+00 -0.19800351669E+03  0.19805929067E+03  0.47000000000E+01 0. -1.
         25    2    1    2    0    0 -0.22565918218E+02 -0.14174914063E+02 -0.78462436480E+02  0.14995544642E+03  0.12498053096E+03 0.  0.
         25    2    1    2    0    0  0.22565918218E+02  0.14174914063E+02 -0.35205793714E+02  0.13256999456E+03  0.12500082677E+03 0.  0.
          5    1    4    4  502    0  0.64985464021E+02 -0.62470404701E+01 -0.50690140567E+02  0.82787175331E+02  0.47000000000E+01 0.  1.
         -5    1    4    4    0  502 -0.42419545803E+02  0.20421954533E+02  0.15484346853E+02  0.49782819230E+02  0.47000000000E+01 0.  1.
          5    1    3    3  503    0 -0.21360537506E+02  0.26544007185E+02 -0.98487387133E+02  0.10432023919E+03  0.47000000000E+01 0. -1.
         -5    1    3    3    0  503 -0.12053807120E+01 -0.40718921248E+02  0.20024950653E+02  0.45635207230E+02  0.47000000000E+01 0. -1.
<mgrwt>
<rscale>  0 0.12780488E+03</rscale>
<asrwt>0</asrwt>
<pdfrwt beam="1">  1        5 0.12989016E-01 0.12780984E+03</pdfrwt>
<pdfrwt beam="2">  1       -5 0.30476436E-01 0.12780984E+03</pdfrwt>
<totfact> 0.37302304E+02</totfact>
</mgrwt>
</event>
<event>
 8    1  0.1821556E-007  0.1378306E+03  0.7546771E-02  0.1216279E+00
          5   -1    0    0  501    0  0.00000000000E+00  0.00000000000E+00  0.11767053452E+04  0.11767147315E+04  0.47000000000E+01 0.  1.
         -5   -1    0    0    0  501 -0.00000000000E+00 -0.00000000000E+00 -0.18093985054E+02  0.18694445569E+02  0.47000000000E+01 0.  1.
         25    2    1    2    0    0  0.42167791074E+02 -0.39934059179E+02  0.36986574321E+03  0.39471140229E+03  0.12499428550E+03 0.  0.
         25    2    1    2    0    0 -0.42167791074E+02  0.39934059179E+02  0.78874561694E+03  0.80069777483E+03  0.12499770671E+03 0.  0.
          5    1    3    3  502    0  0.26067448459E+02  0.14475456950E+02  0.12224634292E+02  0.32566584202E+02  0.47000000000E+01 0. -1.
         -5    1    3    3    0  502  0.16100342616E+02 -0.54409516129E+02  0.35764110892E+03  0.36214481809E+03  0.47000000000E+01 0. -1.
          5    1    4    4  503    0 -0.11497613936E+02  0.42867771719E+02  0.82783839485E+02  0.94048365527E+02  0.47000000000E+01 0.  1.
         -5    1    4    4    0  503 -0.30670177139E+02 -0.29337125403E+01  0.70596177746E+03  0.70664940930E+03  0.47000000000E+01 0.  1.
<mgrwt>
<rscale>  0 0.13782984E+03</rscale>
<asrwt>0</asrwt>
<pdfrwt beam="1">  1        5 0.18107849E+00 0.13783061E+03</pdfrwt>
<pdfrwt beam="2">  1       -5 0.28306014E-02 0.13783061E+03</pdfrwt>
<totfact> 0.78735855E+01</totfact>
</mgrwt>
</event>
<event>
 8    1  0.1821556E-007  0.1295696E+03  0.7546771E-02  0.1228117E+00
         -5   -1    0    0    0  501 -0.00000000000E+00  0.00000000000E+00  0.86268713091E+02  0.86396648421E+02  0.47000000000E+01 0.  1.
          5   -1    0    0  501    0  0.00000000000E+00 -0.00000000000E+00 -0.20391616036E+03  0.20397031759E+03  0.47000000000E+01 0.  1.
         25    2    1    2    0    0 -0.27512910486E+02 -0.20143873663E+02 -0.27167844235E+02  0.13233267622E+03  0.12494442583E+03 0.  0.
         25    2    1    2    0    0  0.27512910486E+02  0.20143873663E+02 -0.90479603034E+02  0.15803428979E+03  0.12500216916E+03 0.  0.
          5    1    4    4  502    0  0.71568985448E+02 -0.14382252372E+02 -0.56007104384E+02  0.92129553363E+02  0.47000000000E+01 0. -1.
         -5    1    4    4    0  502 -0.44056074962E+02  0.34526126034E+02 -0.34472498650E+02  0.65904736424E+02  0.47000000000E+01 0. -1.
          5    1    3    3  503    0 -0.77725736887E+01 -0.49276315698E+02 -0.63929616847E+02  0.81225944751E+02  0.47000000000E+01 0. -1.
         -5    1    3    3    0  503 -0.19740336797E+02  0.29132442035E+02  0.36761772612E+02  0.51106731468E+02  0.47000000000E+01 0. -1.
<mgrwt>
<rscale>  0 0.12955566E+03</rscale>
<asrwt>0</asrwt>
<pdfrwt beam="2">  1        5 0.31385724E-01 0.12956959E+03</pdfrwt>
<pdfrwt beam="1">  1       -5 0.13286117E-01 0.12956959E+03</pdfrwt>
<totfact> 0.33982775E+02</totfact>
</mgrwt>
</event>
<event>
 8    1  0.1821556E-007  0.1282350E+03  0.7546771E-02  0.1230112E+00
          5   -1    0    0  501    0  0.00000000000E+00  0.00000000000E+00  0.19786121654E+03  0.19791703062E+03  0.47000000000E+01 0.  1.
         -5   -1    0    0    0  501 -0.00000000000E+00 -0.00000000000E+00 -0.83109464291E+02  0.83242255223E+02  0.47000000000E+01 0.  1.
         25    2    1    2    0    0  0.21243602458E+02  0.18950254460E+02  0.63475300494E+02  0.14305250881E+03  0.12499801485E+03 0.  0.
         25    2    1    2    0    0 -0.21243602458E+02 -0.18950254460E+02  0.51276451751E+02  0.13810677703E+03  0.12503521331E+03 0.  0.
          5    1    4    4  502    0  0.39745765948E+02  0.29392379200E+02  0.13431946765E+02  0.51440694588E+02  0.47000000000E+01 0. -1.
         -5    1    4    4    0  502 -0.60989368406E+02 -0.48342633660E+02  0.37844504985E+02  0.86666082439E+02  0.47000000000E+01 0. -1.
          5    1    3    3  503    0  0.14727421974E+01  0.14925147608E+02 -0.37138918299E+02  0.40327636345E+02  0.47000000000E+01 0.  1.
         -5    1    3    3    0  503  0.19770860261E+02  0.40251068525E+01  0.10061421879E+03  0.10272487247E+03  0.47000000000E+01 0.  1.
<mgrwt>
<rscale>  0 0.12822590E+03</rscale>
<asrwt>0</asrwt>
<pdfrwt beam="1">  1        5 0.30454695E-01 0.12823497E+03</pdfrwt>
<pdfrwt beam="2">  1       -5 0.12800579E-01 0.12823497E+03</pdfrwt>
<totfact> 0.38387099E+02</totfact>
</mgrwt>
</event>
<event>
 8    1  0.1821556E-007  0.1456627E+03  0.7546771E-02  0.1205909E+00
          5   -1    0    0  501    0  0.00000000000E+00  0.00000000000E+00  0.22005781751E+02  0.22502098357E+02  0.47000000000E+01 0.  1.
         -5   -1    0    0    0  501 -0.00000000000E+00 -0.00000000000E+00 -0.13065876182E+04  0.13065960715E+04  0.47000000000E+01 0.  1.
         25    2    1    2    0    0  0.45839276248E+02  0.59091866231E+02 -0.98797644777E+03  0.99865547944E+03  0.12498886896E+03 0.  0.
         25    2    1    2    0    0 -0.45839276248E+02 -0.59091866231E+02 -0.29660538866E+03  0.33044269039E+03  0.12499810858E+03 0.  0.
          5    1    4    4  502    0 -0.32830820875E+02  0.17919496450E+02 -0.21150980912E+03  0.21484287399E+03  0.47000000000E+01 0. -1.
         -5    1    4    4    0  502 -0.13008455372E+02 -0.77011362681E+02 -0.85095579544E+02  0.11559981640E+03  0.47000000000E+01 0. -1.
          5    1    3    3  503    0  0.67738982796E+02  0.61125501357E+02 -0.95098529936E+03  0.95536381882E+03  0.47000000000E+01 0.  1.
         -5    1    3    3    0  503 -0.21899706548E+02 -0.20336351255E+01 -0.36991148410E+02  0.43291660622E+02  0.47000000000E+01 0.  1.
<mgrwt>
<rscale>  0 0.14566069E+03</rscale>
<asrwt>0</asrwt>
<pdfrwt beam="1">  1        5 0.34243344E-02 0.14566268E+03</pdfrwt>
<pdfrwt beam="2">  1       -5 0.20105225E+00 0.14566268E+03</pdfrwt>
<totfact> 0.42772822E+01</totfact>
</mgrwt>
</event>
<event>
 8    1  0.1821556E-007  0.1487303E+03  0.7546771E-02  0.1202043E+00
         -5   -1    0    0    0  501 -0.00000000000E+00  0.00000000000E+00  0.13849144610E+03  0.13857117537E+03  0.47000000000E+01 0. -1.
          5   -1    0    0  501    0  0.00000000000E+00 -0.00000000000E+00 -0.15981217679E+03  0.15988127424E+03  0.47000000000E+01 0. -1.
         25    2    1    2    0    0  0.59368874659E+02 -0.54500886458E+02 -0.47741396527E+01  0.14880452456E+03  0.12499993687E+03 0.  0.
         25    2    1    2    0    0 -0.59368874659E+02  0.54500886458E+02 -0.16546591041E+02  0.14964792504E+03  0.12500280754E+03 0.  0.
          5    1    3    3  502    0  0.50879366745E+02 -0.54707464798E+02 -0.58001863961E+02  0.94699117673E+02  0.47000000000E+01 0.  1.
         -5    1    3    3    0  502  0.84895079137E+01  0.20657834011E+00  0.53227724308E+02  0.54105406886E+02  0.47000000000E+01 0.  1.
          5    1    4    4  503    0  0.24071356810E+02  0.42710769566E+02  0.25381456667E+02  0.55407115049E+02  0.47000000000E+01 0. -1.
         -5    1    4    4    0  503 -0.83440231468E+02  0.11790116892E+02 -0.41928047708E+02  0.94240809994E+02  0.47000000000E+01 0. -1.
<mgrwt>
<rscale>  0 0.14872973E+03</rscale>
<asrwt>0</asrwt>
<pdfrwt beam="2">  1        5 0.24597937E-01 0.14873033E+03</pdfrwt>
<pdfrwt beam="1">  1       -5 0.21317825E-01 0.14873033E+03</pdfrwt>
<totfact> 0.24050746E+02</totfact>
</mgrwt>
</event>
<event>
 8    1  0.1821556E-007  0.1355107E+03  0.7546771E-02  0.1219501E+00
         -5   -1    0    0    0  501 -0.00000000000E+00  0.00000000000E+00  0.12356865434E+03  0.12365800555E+03  0.47000000000E+01 0. -1.
          5   -1    0    0  501    0  0.00000000000E+00 -0.00000000000E+00 -0.15666792943E+03  0.15673841301E+03  0.47000000000E+01 0. -1.
         25    2    1    2    0    0 -0.38870188663E+02  0.35035750595E+02  0.15593247959E+02  0.13640493515E+03  0.12499904626E+03 0.  0.
         25    2    1    2    0    0  0.38870188663E+02 -0.35035750595E+02 -0.48692523048E+02  0.14399148341E+03  0.12499676039E+03 0.  0.
          5    1    3    3  502    0 -0.26042162987E+02  0.63691526453E+02 -0.34485882879E+02  0.77111418823E+02  0.47000000000E+01 0. -1.
         -5    1    3    3    0  502 -0.12828025677E+02 -0.28655775859E+02  0.50079130838E+02  0.59293516326E+02  0.47000000000E+01 0. -1.
          5    1    4    4  503    0  0.60529900465E+02  0.28404988030E+02 -0.14445816433E+02  0.68567366930E+02  0.47000000000E+01 0.  1.
         -5    1    4    4    0  503 -0.21659711802E+02 -0.63440738624E+02 -0.34246706615E+02  0.75424116478E+02  0.47000000000E+01 0.  1.
<mgrwt>
<rscale>  0 0.13551020E+03</rscale>
<asrwt>0</asrwt>
<pdfrwt beam="2">  1        5 0.24115053E-01 0.13551073E+03</pdfrwt>
<pdfrwt beam="1">  1       -5 0.19022857E-01 0.13551073E+03</pdfrwt>
<totfact> 0.29946736E+02</totfact>
</mgrwt>
</event>
<event>
 8    1  0.1821556E-007  0.1288854E+03  0.7546771E-02  0.1229128E+00
         -5   -1    0    0    0  501 -0.00000000000E+00  0.00000000000E+00  0.21625124365E+03  0.21630231247E+03  0.47000000000E+01 0.  1.
          5   -1    0    0  501    0  0.00000000000E+00 -0.00000000000E+00 -0.10440816781E+03  0.10451390101E+03  0.47000000000E+01 0.  1.
         25    2    1    2    0    0 -0.23361422740E+02 -0.20971882228E+02  0.13852884233E+03  0.18919713398E+03  0.12497895596E+03 0.  0.
         25    2    1    2    0    0  0.23361422740E+02  0.20971882228E+02 -0.26685766482E+02  0.13161907951E+03  0.12500350411E+03 0.  0.
          5    1    3    3  502    0  0.43082746434E+01  0.19629929037E+02 -0.16548476998E+02  0.26454440749E+02  0.47000000000E+01 0.  1.
         -5    1    3    3    0  502 -0.27669697383E+02 -0.40601811265E+02  0.15507731932E+03  0.16274269323E+03  0.47000000000E+01 0.  1.
          5    1    4    4  503    0 -0.31289884863E+01  0.42892202693E+02  0.38408547799E+02  0.57851863970E+02  0.47000000000E+01 0.  1.
         -5    1    4    4    0  503  0.26490411226E+02 -0.21920320465E+02 -0.65094314281E+02  0.73767215536E+02  0.47000000000E+01 0.  1.
<mgrwt>
<rscale>  0 0.12887947E+03</rscale>
<asrwt>0</asrwt>
<pdfrwt beam="2">  1        5 0.16074857E-01 0.12888542E+03</pdfrwt>
<pdfrwt beam="1">  1       -5 0.33281483E-01 0.12888542E+03</pdfrwt>
<totfact> 0.21415726E+02</totfact>
</mgrwt>
</event>
<event>
 8    1  0.1821556E-007  0.1397036E+03  0.7546771E-02  0.1213736E+00
          5   -1    0    0  501    0  0.00000000000E+00  0.00000000000E+00  0.30011324793E+03  0.30015004844E+03  0.47000000000E+01 0. -1.
         -5   -1    0    0    0  501 -0.00000000000E+00 -0.00000000000E+00 -0.70812284466E+02  0.70968088824E+02  0.47000000000E+01 0. -1.
         25    2    1    2    0    0 -0.44295817708E+02  0.43934139479E+02  0.61097524538E+02  0.15247949760E+03  0.12499904642E+03 0.  0.
         25    2    1    2    0    0  0.44295817708E+02 -0.43934139479E+02  0.16820343892E+03  0.21863863966E+03  0.12497251622E+03 0.  0.
          5    1    4    4  502    0  0.69190499262E+01  0.25725852696E+02  0.12605967225E+03  0.12892953004E+03  0.47000000000E+01 0. -1.
         -5    1    4    4    0  502  0.37376767782E+02 -0.69659992175E+02  0.42143766670E+02  0.89709109620E+02  0.47000000000E+01 0. -1.
          5    1    3    3  503    0 -0.22484039815E+02  0.76600078610E+02  0.75888024055E+02  0.11024602616E+03  0.47000000000E+01 0. -1.
         -5    1    3    3    0  503 -0.21811777894E+02 -0.32665939131E+02 -0.14790499517E+02  0.42233471443E+02  0.47000000000E+01 0. -1.
<mgrwt>
<rscale>  0 0.13969764E+03</rscale>
<asrwt>0</asrwt>
<pdfrwt beam="1">  1        5 0.46186086E-01 0.13970358E+03</pdfrwt>
<pdfrwt beam="2">  1       -5 0.10909013E-01 0.13970358E+03</pdfrwt>
<totfact> 0.22582197E+02</totfact>
</mgrwt>
</event>
<event>
 8    1  0.1821556E-007  0.1644827E+03  0.7546771E-02  0.1183727E+00
          5   -1    0    0  501    0  0.00000000000E+00  0.00000000000E+00  0.95469383304E+03  0.95470540212E+03  0.47000000000E+01 0. -1.
         -5   -1    0    0    0  501 -0.00000000000E+00 -0.00000000000E+00 -0.31932030916E+02  0.32276068509E+02  0.47000000000E+01 0. -1.
         25    2    1    2    0    0  0.98912865903E+02 -0.40587572994E+02  0.29212653861E+03  0.33524885338E+03  0.12499109172E+03 0.  0.
         25    2    1    2    0    0 -0.98912865903E+02  0.40587572994E+02  0.63063526351E+03  0.65173261725E+03  0.12499385058E+03 0.  0.
          5    1    3    3  502    0  0.18056636055E+01 -0.63122620934E+02  0.92971172167E+02  0.11248757509E+03  0.47000000000E+01 0. -1.
         -5    1    3    3    0  502  0.97107202297E+02  0.22535047940E+02  0.19915536644E+03  0.22276127829E+03  0.47000000000E+01 0. -1.
          5    1    4    4  503    0 -0.11875069284E+03  0.43788873679E+02  0.60820812244E+03  0.62125550517E+03  0.47000000000E+01 0. -1.
         -5    1    4    4    0  503  0.19837826942E+02 -0.32013006852E+01  0.22427141073E+02  0.30477112077E+02  0.47000000000E+01 0. -1.
<mgrwt>
<rscale>  0 0.16448221E+03</rscale>
<asrwt>0</asrwt>
<pdfrwt beam="1">  1        5 0.14690334E+00 0.16448273E+03</pdfrwt>
<pdfrwt beam="2">  1       -5 0.49399743E-02 0.16448273E+03</pdfrwt>
<totfact> 0.60222721E+01</totfact>
</mgrwt>
</event>
<event>
 8    1  0.1821556E-007  0.1465365E+03  0.7546771E-02  0.1204795E+00
         -5   -1    0    0    0  501 -0.00000000000E+00  0.00000000000E+00  0.18945342396E+03  0.18951171429E+03  0.47000000000E+01 0.  1.
          5   -1    0    0  501    0  0.00000000000E+00 -0.00000000000E+00 -0.11525028592E+03  0.11534608101E+03  0.47000000000E+01 0.  1.
         25    2    1    2    0    0  0.76240304435E+02  0.59061836985E+01  0.57336665207E+02  0.15735453734E+03  0.12500196086E+03 0.  0.
         25    2    1    2    0    0 -0.76240304435E+02 -0.59061836985E+01  0.16866472839E+02  0.14750325795E+03  0.12500106469E+03 0.  0.
          5    1    3    3  502    0  0.25350250675E+02 -0.39511565290E+02 -0.22476949223E+02  0.52259948788E+02  0.47000000000E+01 0.  1.
         -5    1    3    3    0  502  0.50890053760E+02  0.45417748989E+02  0.79813614430E+02  0.10509458855E+03  0.47000000000E+01 0.  1.
          5    1    4    4  503    0 -0.83801955644E+00  0.44871417760E+02 -0.19917336472E+02  0.49324808167E+02  0.47000000000E+01 0.  1.
         -5    1    4    4    0  503 -0.75402284879E+02 -0.50777601458E+02  0.36783809310E+02  0.98178449785E+02  0.47000000000E+01 0.  1.
<mgrwt>
<rscale>  0 0.14653635E+03</rscale>
<asrwt>0</asrwt>
<pdfrwt beam="2">  1        5 0.17742666E-01 0.14653654E+03</pdfrwt>
<pdfrwt beam="1">  1       -5 0.29158533E-01 0.14653654E+03</pdfrwt>
<totfact> 0.24239006E+02</totfact>
</mgrwt>
</event>
<event>
 8    1  0.1821556E-007  0.1514798E+03  0.7546771E-02  0.1198667E+00
         -5   -1    0    0    0  501 -0.00000000000E+00  0.00000000000E+00  0.29830971945E+03  0.29834674243E+03  0.47000000000E+01 0.  1.
          5   -1    0    0  501    0  0.00000000000E+00 -0.00000000000E+00 -0.84188294441E+02  0.84319386388E+02  0.47000000000E+01 0.  1.
         25    2    1    2    0    0 -0.65264474444E+02 -0.55328542395E+02  0.16366256813E+03  0.22300325070E+03  0.12499725752E+03 0.  0.
         25    2    1    2    0    0  0.65264474444E+02  0.55328542395E+02  0.50458856876E+02  0.15966287811E+03  0.12500175672E+03 0.  0.
          5    1    3    3  502    0 -0.15966436216E+02  0.86265147584E+01 -0.16843956448E+02  0.25202236233E+02  0.47000000000E+01 0.  1.
         -5    1    3    3    0  502 -0.49298038228E+02 -0.63955057154E+02  0.18050652458E+03  0.19780101447E+03  0.47000000000E+01 0.  1.
          5    1    4    4  503    0 -0.35212022766E+02  0.30369890622E+02  0.68950879339E+01  0.47242449569E+02  0.47000000000E+01 0. -1.
         -5    1    4    4    0  503  0.10047649721E+03  0.24958651773E+02  0.43563768942E+02  0.11242042855E+03  0.47000000000E+01 0. -1.
<mgrwt>
<rscale>  0 0.15147890E+03</rscale>
<asrwt>0</asrwt>
<pdfrwt beam="2">  1        5 0.12964977E-01 0.15147983E+03</pdfrwt>
<pdfrwt beam="1">  1       -5 0.45906735E-01 0.15147983E+03</pdfrwt>
<totfact> 0.17296804E+02</totfact>
</mgrwt>
</event>
<event>
 8    1  0.1821556E-007  0.1421923E+03  0.7546771E-02  0.1210409E+00
         -5   -1    0    0    0  501 -0.00000000000E+00  0.00000000000E+00  0.17915256716E+03  0.17921420792E+03  0.47000000000E+01 0.  1.
          5   -1    0    0  501    0  0.00000000000E+00 -0.00000000000E+00 -0.24673360369E+03  0.24677836451E+03  0.47000000000E+01 0.  1.
         25    2    1    2    0    0 -0.66207883454E+02 -0.14493599815E+02  0.12313892623E+03  0.18810024476E+03  0.12499983464E+03 0.  0.
         25    2    1    2    0    0  0.66207883454E+02  0.14493599815E+02 -0.19071996276E+03  0.23789232766E+03  0.12500042839E+03 0.  0.
          5    1    4    4  502    0  0.18153348990E+00  0.60320704694E+02 -0.66917904098E+02  0.90214833914E+02  0.47000000000E+01 0. -1.
         -5    1    4    4    0  502  0.66026349964E+02 -0.45827104879E+02 -0.12380205866E+03  0.14767749375E+03  0.47000000000E+01 0. -1.
          5    1    3    3  503    0 -0.37062989220E+01  0.30763919852E+02 -0.11052174621E+02  0.33232453719E+02  0.47000000000E+01 0.  1.
         -5    1    3    3    0  503 -0.62501584532E+02 -0.45257519667E+02  0.13419110085E+03  0.15486779104E+03  0.47000000000E+01 0.  1.
<mgrwt>
<rscale>  0 0.14219219E+03</rscale>
<asrwt>0</asrwt>
<pdfrwt beam="2">  1        5 0.37967201E-01 0.14219232E+03</pdfrwt>
<pdfrwt beam="1">  1       -5 0.27570118E-01 0.14219232E+03</pdfrwt>
<totfact> 0.61653286E+01</totfact>
</mgrwt>
</event>
<event>
 8    1  0.1821556E-007  0.1394814E+03  0.7546771E-02  0.1214028E+00
          5   -1    0    0  501    0  0.00000000000E+00  0.00000000000E+00  0.92729492791E+03  0.92730683882E+03  0.47000000000E+01 0. -1.
         -5   -1    0    0    0  501 -0.00000000000E+00 -0.00000000000E+00 -0.51919733833E+02  0.52132032008E+02  0.47000000000E+01 0. -1.
         25    2    1    2    0    0  0.31981108949E+02 -0.52990929142E+02  0.59357452669E+02  0.15158621178E+03  0.12499697002E+03 0.  0.
         25    2    1    2    0    0 -0.31981108949E+02  0.52990929142E+02  0.81601774141E+03  0.82785265905E+03  0.12499696358E+03 0.  0.
          5    1    4    4  502    0  0.39380481508E+02  0.37205519330E+02  0.19201744539E+03  0.19956919182E+03  0.47000000000E+01 0.  1.
         -5    1    4    4    0  502 -0.71361590457E+02  0.15785409811E+02  0.62400029602E+03  0.62828346723E+03  0.47000000000E+01 0.  1.
          5    1    3    3  503    0  0.46565206465E+02 -0.85718230028E+02  0.61453571824E+02  0.11538875553E+03  0.47000000000E+01 0.  1.
         -5    1    3    3    0  503 -0.14584097517E+02  0.32727300886E+02 -0.20961191552E+01  0.36197456253E+02  0.47000000000E+01 0.  1.
<mgrwt>
<rscale>  0 0.13948144E+03</rscale>
<asrwt>0</asrwt>
<pdfrwt beam="1">  1        5 0.14267800E+00 0.13948144E+03</pdfrwt>
<pdfrwt beam="2">  1       -5 0.80048984E-02 0.13948144E+03</pdfrwt>
<totfact> 0.27517102E+01</totfact>
</mgrwt>
</event>
<event>
 8    1  0.1821556E-007  0.1665684E+03  0.7546771E-02  0.1181478E+00
          5   -1    0    0  501    0  0.00000000000E+00  0.00000000000E+00  0.35773903683E+03  0.35776990996E+03  0.47000000000E+01 0.  1.
         -5   -1    0    0    0  501 -0.00000000000E+00 -0.00000000000E+00 -0.81456162100E+02  0.81591643837E+02  0.47000000000E+01 0.  1.
         25    2    1    2    0    0  0.92716812552E+02  0.59326871277E+02  0.89437822516E+02  0.18904954993E+03  0.12499809297E+03 0.  0.
         25    2    1    2    0    0 -0.92716812552E+02 -0.59326871277E+02  0.18684505221E+03  0.25031200386E+03  0.12501576203E+03 0.  0.
          5    1    3    3  502    0 -0.12450904971E+02  0.47970102006E+02  0.62294310492E+02  0.79742252544E+02  0.47000000000E+01 0.  1.
         -5    1    3    3    0  502  0.10516771752E+03  0.11356769272E+02  0.27143512024E+02  0.10930729739E+03  0.47000000000E+01 0.  1.
          5    1    4    4  503    0 -0.13940781184E+02 -0.30574840362E+02  0.15785287403E+03  0.16145831066E+03  0.47000000000E+01 0.  1.
         -5    1    4    4    0  503 -0.78776031368E+02 -0.28752030915E+02  0.28992178187E+02  0.88853693203E+02  0.47000000000E+01 0.  1.
<mgrwt>
<rscale>  0 0.16656507E+03</rscale>
<asrwt>0</asrwt>
<pdfrwt beam="1">  1        5 0.55049572E-01 0.16656838E+03</pdfrwt>
<pdfrwt beam="2">  1       -5 0.12544514E-01 0.16656838E+03</pdfrwt>
<totfact> 0.12842470E+02</totfact>
</mgrwt>
</event>
<event>
 8    1  0.1821556E-007  0.2022658E+03  0.7546771E-02  0.1147843E+00
         -5   -1    0    0    0  501 -0.00000000000E+00  0.00000000000E+00  0.96604111706E+02  0.96718376736E+02  0.47000000000E+01 0.  1.
          5   -1    0    0  501    0  0.00000000000E+00 -0.00000000000E+00 -0.50480029498E+03  0.50482217444E+03  0.47000000000E+01 0.  1.
         25    2    1    2    0    0 -0.29132542754E+02 -0.15632612776E+03 -0.32507610744E+03  0.38286179178E+03  0.12498845031E+03 0.  0.
         25    2    1    2    0    0  0.29132542754E+02  0.15632612776E+03 -0.83120075830E+02  0.21867875940E+03  0.12499955815E+03 0.  0.
          5    1    3    3  502    0  0.38844069234E+02 -0.10722024635E+02 -0.51648303546E+02  0.65676942576E+02  0.47000000000E+01 0.  1.
         -5    1    3    3    0  502 -0.67976611988E+02 -0.14560410312E+03 -0.27342780389E+03  0.31718484921E+03  0.47000000000E+01 0.  1.
          5    1    4    4  503    0  0.76741216730E+02  0.72372953842E+02 -0.45807567504E+02  0.11509770647E+03  0.47000000000E+01 0.  1.
         -5    1    4    4    0  503 -0.47608673975E+02  0.83953173918E+02 -0.37312508326E+02  0.10358105293E+03  0.47000000000E+01 0.  1.
<mgrwt>
<rscale>  0 0.20226408E+03</rscale>
<asrwt>0</asrwt>
<pdfrwt beam="2">  1        5 0.77672055E-01 0.20226580E+03</pdfrwt>
<pdfrwt beam="1">  1       -5 0.14872644E-01 0.20226580E+03</pdfrwt>
<totfact> 0.46177372E+01</totfact>
</mgrwt>
</event>
<event>
 8    1  0.1821556E-007  0.1319638E+03  0.7546771E-02  0.1224575E+00
          5   -1    0    0  501    0  0.00000000000E+00  0.00000000000E+00  0.69101052521E+02  0.69260706461E+02  0.47000000000E+01 0.  1.
         -5   -1    0    0    0  501 -0.00000000000E+00 -0.00000000000E+00 -0.25351362023E+03  0.25355718417E+03  0.47000000000E+01 0.  1.
         25    2    1    2    0    0 -0.21087306677E+02  0.36630410609E+02 -0.77896604053E+02  0.15322988489E+03  0.12500022086E+03 0.  0.
         25    2    1    2    0    0  0.21087306677E+02 -0.36630410609E+02 -0.10651596366E+03  0.16958800574E+03  0.12501191820E+03 0.  0.
          5    1    3    3  502    0  0.29786856287E+02 -0.27566797279E+02 -0.54115614244E+02  0.67806893637E+02  0.47000000000E+01 0. -1.
         -5    1    3    3    0  502 -0.50874162964E+02  0.64197207887E+02 -0.23780989809E+02  0.85422991250E+02  0.47000000000E+01 0. -1.
          5    1    4    4  503    0  0.15009207647E+02 -0.32984105997E+02 -0.13500167790E+03  0.13985982482E+03  0.47000000000E+01 0.  1.
         -5    1    4    4    0  503  0.60780990301E+01 -0.36463046117E+01  0.28485714241E+02  0.29728180923E+02  0.47000000000E+01 0.  1.
<mgrwt>
<rscale>  0 0.13196102E+03</rscale>
<asrwt>0</asrwt>
<pdfrwt beam="1">  1        5 0.10646563E-01 0.13196379E+03</pdfrwt>
<pdfrwt beam="2">  1       -5 0.39017727E-01 0.13196379E+03</pdfrwt>
<totfact> 0.32736179E+02</totfact>
</mgrwt>
</event>
<event>
 8    1  0.1821556E-007  0.1669025E+03  0.7546771E-02  0.1181117E+00
          5   -1    0    0  501    0  0.00000000000E+00  0.00000000000E+00  0.59649753722E+02  0.59834631436E+02  0.47000000000E+01 0. -1.
         -5   -1    0    0    0  501 -0.00000000000E+00 -0.00000000000E+00 -0.57759154858E+03  0.57761067077E+03  0.47000000000E+01 0. -1.
         25    2    1    2    0    0 -0.10912641192E+03  0.17994197898E+02 -0.39899105535E+03  0.43249313933E+03  0.12499635348E+03 0.  0.
         25    2    1    2    0    0  0.10912641192E+03 -0.17994197898E+02 -0.11895073950E+03  0.20495216288E+03  0.12499498271E+03 0.  0.
          5    1    4    4  502    0  0.27580644532E+02 -0.44115703855E+02 -0.10606686119E+03  0.11823348223E+03  0.47000000000E+01 0. -1.
         -5    1    4    4    0  502  0.81545767385E+02  0.26121505956E+02 -0.12883878320E+02  0.86718680642E+02  0.47000000000E+01 0. -1.
          5    1    3    3  503    0  0.20835266854E+02 -0.20099268710E+02 -0.47997329176E+02  0.56248756036E+02  0.47000000000E+01 0.  1.
         -5    1    3    3    0  503 -0.12996167877E+03  0.38093466608E+02 -0.35099372618E+03  0.37624438330E+03  0.47000000000E+01 0.  1.
<mgrwt>
<rscale>  0 0.16690227E+03</rscale>
<asrwt>0</asrwt>
<pdfrwt beam="1">  1        5 0.91925779E-02 0.16690253E+03</pdfrwt>
<pdfrwt beam="2">  1       -5 0.88875927E-01 0.16690253E+03</pdfrwt>
<totfact> 0.75134886E+01</totfact>
</mgrwt>
</event>
<event>
 8    1  0.1821556E-007  0.1897284E+03  0.7546771E-02  0.1158707E+00
         -5   -1    0    0    0  501 -0.00000000000E+00  0.00000000000E+00  0.65966683025E+02  0.66133904083E+02  0.47000000000E+01 0.  1.
          5   -1    0    0  501    0  0.00000000000E+00 -0.00000000000E+00 -0.61261643318E+03  0.61263446214E+03  0.47000000000E+01 0.  1.
         25    2    1    2    0    0  0.94186990137E+02  0.10723335184E+03 -0.16043150478E+03  0.24846557429E+03  0.12500677192E+03 0.  0.
         25    2    1    2    0    0 -0.94186990137E+02 -0.10723335184E+03 -0.38621824538E+03  0.43030279193E+03  0.12500311525E+03 0.  0.
          5    1    3    3  502    0  0.12398447220E+03  0.82444992950E+02 -0.13985991057E+03  0.20433357726E+03  0.47000000000E+01 0.  1.
         -5    1    3    3    0  502 -0.29797482067E+02  0.24788358891E+02 -0.20571594208E+02  0.44131997035E+02  0.47000000000E+01 0.  1.
          5    1    4    4  503    0  0.17680916612E+02 -0.61107908630E+02 -0.90223321821E+02  0.11049492798E+03  0.47000000000E+01 0.  1.
         -5    1    4    4    0  503 -0.11186790675E+03 -0.46125443211E+02 -0.29599492356E+03  0.31980786395E+03  0.47000000000E+01 0.  1.
<mgrwt>
<rscale>  0 0.18972782E+03</rscale>
<asrwt>0</asrwt>
<pdfrwt beam="2">  1        5 0.94262928E-01 0.18972842E+03</pdfrwt>
<pdfrwt beam="1">  1       -5 0.10162971E-01 0.18972842E+03</pdfrwt>
<totfact> 0.56759765E+01</totfact>
</mgrwt>
</event>
<event>
 8    1  0.1821556E-007  0.1593538E+03  0.7546771E-02  0.1189433E+00
          5   -1    0    0  501    0  0.00000000000E+00  0.00000000000E+00  0.57802336719E+03  0.57804247510E+03  0.47000000000E+01 0. -1.
         -5   -1    0    0    0  501 -0.00000000000E+00 -0.00000000000E+00 -0.53722388471E+02  0.53927590555E+02  0.47000000000E+01 0. -1.
         25    2    1    2    0    0  0.57001731960E+02 -0.80721907885E+02  0.12652881069E+03  0.20346528547E+03  0.12499343422E+03 0.  0.
         25    2    1    2    0    0 -0.57001731960E+02  0.80721907885E+02  0.39777216802E+03  0.42850478018E+03  0.12501369974E+03 0.  0.
          5    1    4    4  502    0  0.26502979237E+02  0.63862814895E+02  0.23104898072E+03  0.24121896386E+03  0.47000000000E+01 0. -1.
         -5    1    4    4    0  502 -0.83504711198E+02  0.16859092989E+02  0.16672318730E+03  0.18728581632E+03  0.47000000000E+01 0. -1.
          5    1    3    3  503    0  0.58288951816E+02 -0.71673734215E+02  0.15091113702E+03  0.17700561392E+03  0.47000000000E+01 0.  1.
         -5    1    3    3    0  503 -0.12872198553E+01 -0.90481736700E+01 -0.24382326329E+02  0.26459671558E+02  0.47000000000E+01 0.  1.
<mgrwt>
<rscale>  0 0.15934987E+03</rscale>
<asrwt>0</asrwt>
<pdfrwt beam="1">  1        5 0.88943931E-01 0.15935385E+03</pdfrwt>
<pdfrwt beam="2">  1       -5 0.82822371E-02 0.15935385E+03</pdfrwt>
<totfact> 0.88640207E+01</totfact>
</mgrwt>
</event>
<event>
 8    1  0.1821556E-007  0.1294697E+03  0.7546771E-02  0.1228246E+00
         -5   -1    0    0    0  501 -0.00000000000E+00  0.00000000000E+00  0.46904340736E+02  0.47139231855E+02  0.47000000000E+01 0. -1.
          5   -1    0    0  501    0  0.00000000000E+00 -0.00000000000E+00 -0.36517539804E+03  0.36520564252E+03  0.47000000000E+01 0. -1.
         25    2    1    2    0    0  0.97868090824E+01  0.32268110029E+02 -0.12686688401E+03  0.18126491181E+03  0.12499899774E+03 0.  0.
         25    2    1    2    0    0 -0.97868090824E+01 -0.32268110029E+02 -0.19140417329E+03  0.23107996257E+03  0.12500151597E+03 0.  0.
          5    1    3    3  502    0  0.11411754544E+02 -0.44572344014E+02 -0.76042838347E+02  0.89002950831E+02  0.47000000000E+01 0.  1.
         -5    1    3    3    0  502 -0.16249454613E+01  0.76840454043E+02 -0.50824045665E+02  0.92261960976E+02  0.47000000000E+01 0.  1.
          5    1    4    4  503    0 -0.71017894831E+01 -0.40002422186E+02 -0.20800226672E+03  0.21198505172E+03  0.47000000000E+01 0.  1.
         -5    1    4    4    0  503 -0.26850195993E+01  0.77343121574E+01  0.16598093430E+02  0.19094910849E+02  0.47000000000E+01 0.  1.
<mgrwt>
<rscale>  0 0.12946905E+03</rscale>
<asrwt>0</asrwt>
<pdfrwt beam="2">  1        5 0.56201224E-01 0.12946965E+03</pdfrwt>
<pdfrwt beam="1">  1       -5 0.72364477E-02 0.12946965E+03</pdfrwt>
<totfact> 0.29461757E+02</totfact>
</mgrwt>
</event>
<event>
 8    1  0.1821556E-007  0.1284288E+03  0.7546771E-02  0.1229810E+00
          5   -1    0    0  501    0  0.00000000000E+00  0.00000000000E+00  0.21410191044E+02  0.21919997275E+02  0.47000000000E+01 0.  1.
         -5   -1    0    0    0  501 -0.00000000000E+00 -0.00000000000E+00 -0.87509911635E+03  0.87511173769E+03  0.47000000000E+01 0.  1.
         25    2    1    2    0    0 -0.28213237959E+01  0.29280172323E+02 -0.58896137097E+03  0.60280133422E+03  0.12501465386E+03 0.  0.
         25    2    1    2    0    0  0.28213237959E+01 -0.29280172323E+02 -0.26472755434E+03  0.29423040075E+03  0.12500224933E+03 0.  0.
          5    1    3    3  502    0 -0.25227399531E+02  0.66363897607E+02 -0.21868737520E+03  0.22997140401E+03  0.47000000000E+01 0.  1.
         -5    1    3    3    0  502  0.22406075736E+02 -0.37083725284E+02 -0.37027399577E+03  0.37282993020E+03  0.47000000000E+01 0.  1.
          5    1    4    4  503    0  0.40597101028E+02  0.32349188209E+02 -0.76718615393E+02  0.92749288609E+02  0.47000000000E+01 0. -1.
         -5    1    4    4    0  503 -0.37775777232E+02 -0.61629360532E+02 -0.18800893895E+03  0.20148111214E+03  0.47000000000E+01 0. -1.
<mgrwt>
<rscale>  0 0.12842576E+03</rscale>
<asrwt>0</asrwt>
<pdfrwt beam="1">  1        5 0.33340630E-02 0.12842878E+03</pdfrwt>
<pdfrwt beam="2">  1       -5 0.13467079E+00 0.12842878E+03</pdfrwt>
<totfact> 0.13444627E+02</totfact>
</mgrwt>
</event>
<event>
 8    1  0.1821556E-007  0.1625080E+03  0.7546771E-02  0.1185895E+00
         -5   -1    0    0    0  501 -0.00000000000E+00  0.00000000000E+00  0.35202418167E+02  0.35514789100E+02  0.47000000000E+01 0.  1.
          5   -1    0    0  501    0  0.00000000000E+00 -0.00000000000E+00 -0.76706044153E+03  0.76707484052E+03  0.47000000000E+01 0.  1.
         25    2    1    2    0    0  0.71942981767E+01  0.10359407585E+03 -0.30032840051E+03  0.34147621334E+03  0.12500146256E+03 0.  0.
         25    2    1    2    0    0 -0.71942981767E+01 -0.10359407585E+03 -0.43152962285E+03  0.46111341628E+03  0.12499710718E+03 0.  0.
          5    1    3    3  502    0  0.10911770731E+02 -0.19576052669E+02 -0.80917740307E+01  0.24286938579E+02  0.47000000000E+01 0.  1.
         -5    1    3    3    0  502 -0.37174725539E+01  0.12317012852E+03 -0.29223662648E+03  0.31718927476E+03  0.47000000000E+01 0.  1.
          5    1    4    4  503    0  0.41221256043E+02 -0.50411235553E+02 -0.33123481127E+03  0.33760787138E+03  0.47000000000E+01 0. -1.
         -5    1    4    4    0  503 -0.48415554219E+02 -0.53182840301E+02 -0.10029481158E+03  0.12350554491E+03  0.47000000000E+01 0. -1.
<mgrwt>
<rscale>  0 0.16250718E+03</rscale>
<asrwt>0</asrwt>
<pdfrwt beam="2">  1        5 0.11803442E+00 0.16250802E+03</pdfrwt>
<pdfrwt beam="1">  1       -5 0.54408933E-02 0.16250802E+03</pdfrwt>
<totfact> 0.90830942E+01</totfact>
</mgrwt>
</event>
<event>
 8    1  0.1821556E-007  0.1678208E+03  0.7546771E-02  0.1180145E+00
         -5   -1    0    0    0  501 -0.00000000000E+00  0.00000000000E+00  0.34027364215E+02  0.34350422347E+02  0.47000000000E+01 0. -1.
          5   -1    0    0  501    0  0.00000000000E+00 -0.00000000000E+00 -0.89318970786E+03  0.89320207357E+03  0.47000000000E+01 0. -1.
         25    2    1    2    0    0  0.86032702036E+02  0.71625548170E+02 -0.29988051563E+03  0.34363471170E+03  0.12499858582E+03 0.  0.
         25    2    1    2    0    0 -0.86032702036E+02 -0.71625548170E+02 -0.55928182801E+03  0.58391778422E+03  0.12502787932E+03 0.  0.
          5    1    3    3  502    0  0.73376384708E+01  0.18780742740E+02  0.74344715307E+01  0.21998149993E+02  0.47000000000E+01 0.  1.
         -5    1    3    3    0  502  0.78695063566E+02  0.52844805431E+02 -0.30731498716E+03  0.32163656171E+03  0.47000000000E+01 0.  1.
          5    1    4    4  503    0 -0.61855500681E+02 -0.10565087390E+03 -0.46171219408E+03  0.47769074753E+03  0.47000000000E+01 0. -1.
         -5    1    4    4    0  503 -0.24177201355E+02  0.34025325725E+02 -0.97569633936E+02  0.10622703668E+03  0.47000000000E+01 0. -1.
<mgrwt>
<rscale>  0 0.16781533E+03</rscale>
<asrwt>0</asrwt>
<pdfrwt beam="2">  1        5 0.13743959E+00 0.16782078E+03</pdfrwt>
<pdfrwt beam="1">  1       -5 0.52607816E-02 0.16782078E+03</pdfrwt>
<totfact> 0.65248902E+01</totfact>
</mgrwt>
</event>
<event>
 8    1  0.1821556E-007  0.1437367E+03  0.7546771E-02  0.1208389E+00
         -5   -1    0    0    0  501 -0.00000000000E+00  0.00000000000E+00  0.41124607306E+03  0.41127292959E+03  0.47000000000E+01 0.  1.
          5   -1    0    0  501    0  0.00000000000E+00 -0.00000000000E+00 -0.51004368886E+02  0.51220461199E+02  0.47000000000E+01 0.  1.
         25    2    1    2    0    0  0.70961601355E+02  0.78449622031E-01  0.21087297366E+03  0.25520120438E+03  0.12499875470E+03 0.  0.
         25    2    1    2    0    0 -0.70961601355E+02 -0.78449622031E-01  0.14936873052E+03  0.20729218641E+03  0.12499391132E+03 0.  0.
          5    1    3    3  502    0 -0.36133586895E+01 -0.23400466689E+02  0.15998719532E+03  0.16179811763E+03  0.47000000000E+01 0.  1.
         -5    1    3    3    0  502  0.74574960045E+02  0.23478916311E+02  0.50885778333E+02  0.93403086745E+02  0.47000000000E+01 0.  1.
          5    1    4    4  503    0 -0.36282282844E+02  0.58040085105E+02  0.10763430327E+03  0.12764125026E+03  0.47000000000E+01 0. -1.
         -5    1    4    4    0  503 -0.34679318512E+02 -0.58118534727E+02  0.41734427250E+02  0.79650936147E+02  0.47000000000E+01 0. -1.
<mgrwt>
<rscale>  0 0.14373566E+03</rscale>
<asrwt>0</asrwt>
<pdfrwt beam="2">  1        5 0.78655144E-02 0.14373672E+03</pdfrwt>
<pdfrwt beam="1">  1       -5 0.63287314E-01 0.14373672E+03</pdfrwt>
<totfact> 0.20429568E+02</totfact>
</mgrwt>
</event>
<event>
 8    1  0.1821556E-007  0.1481283E+03  0.7546771E-02  0.1202796E+00
          5   -1    0    0  501    0  0.00000000000E+00  0.00000000000E+00  0.69046735265E+02  0.69206514511E+02  0.47000000000E+01 0. -1.
         -5   -1    0    0    0  501 -0.00000000000E+00 -0.00000000000E+00 -0.32255036543E+03  0.32258460633E+03  0.47000000000E+01 0. -1.
         25    2    1    2    0    0 -0.20643019412E+02 -0.76753016905E+02 -0.10155350363E+03  0.17958644681E+03  0.12498407069E+03 0.  0.
         25    2    1    2    0    0  0.20643019412E+02  0.76753016905E+02 -0.15195012654E+03  0.21220467403E+03  0.12499929147E+03 0.  0.
          5    1    3    3  502    0  0.37214535861E+01 -0.91617208828E+02 -0.11544112782E+03  0.14750019038E+03  0.47000000000E+01 0.  1.
         -5    1    3    3    0  502 -0.24364472998E+02  0.14864191924E+02  0.13887624193E+02  0.32086256431E+02  0.47000000000E+01 0.  1.
          5    1    4    4  503    0 -0.38553221976E+01  0.10776533258E+03 -0.11767802716E+03  0.15968230488E+03  0.47000000000E+01 0.  1.
         -5    1    4    4    0  503  0.24498341609E+02 -0.31012315674E+02 -0.34272099381E+02  0.52522369150E+02  0.47000000000E+01 0.  1.
<mgrwt>
<rscale>  0 0.14812505E+03</rscale>
<asrwt>0</asrwt>
<pdfrwt beam="1">  1        5 0.10637499E-01 0.14812826E+03</pdfrwt>
<pdfrwt beam="2">  1       -5 0.49638057E-01 0.14812826E+03</pdfrwt>
<totfact> 0.20679275E+02</totfact>
</mgrwt>
</event>
<event>
 8    1  0.1821556E-007  0.1356297E+03  0.7546771E-02  0.1219336E+00
         -5   -1    0    0    0  501 -0.00000000000E+00  0.00000000000E+00  0.27750343080E+03  0.27754322925E+03  0.47000000000E+01 0.  1.
          5   -1    0    0  501    0  0.00000000000E+00 -0.00000000000E+00 -0.66158517037E+02  0.66325254440E+02  0.47000000000E+01 0.  1.
         25    2    1    2    0    0 -0.50543613251E+02 -0.14712629352E+02  0.10633238328E+03  0.17233704765E+03  0.12498945537E+03 0.  0.
         25    2    1    2    0    0  0.50543613251E+02  0.14712629352E+02  0.10501253048E+03  0.17153143605E+03  0.12499713474E+03 0.  0.
          5    1    3    3  502    0  0.10183679624E+02 -0.10187803956E+02  0.11010614475E+03  0.11114383380E+03  0.47000000000E+01 0. -1.
         -5    1    3    3    0  502 -0.60727292875E+02 -0.45248253961E+01 -0.37737614699E+01  0.61193213843E+02  0.47000000000E+01 0. -1.
          5    1    4    4  503    0 -0.30987582975E+02  0.37604853175E+02  0.25156212540E+02  0.55038898157E+02  0.47000000000E+01 0.  1.
         -5    1    4    4    0  503  0.81531196226E+02 -0.22892223823E+02  0.79856317938E+02  0.11649253789E+03  0.47000000000E+01 0.  1.
<mgrwt>
<rscale>  0 0.13562788E+03</rscale>
<asrwt>0</asrwt>
<pdfrwt beam="2">  1        5 0.10194121E-01 0.13562965E+03</pdfrwt>
<pdfrwt beam="1">  1       -5 0.42708723E-01 0.13562965E+03</pdfrwt>
<totfact> 0.29626321E+02</totfact>
</mgrwt>
</event>
<event>
 8    1  0.1821556E-007  0.1304989E+03  0.7546771E-02  0.1226719E+00
          5   -1    0    0  501    0  0.00000000000E+00  0.00000000000E+00  0.44785994748E+02  0.45031936729E+02  0.47000000000E+01 0.  1.
         -5   -1    0    0    0  501 -0.00000000000E+00 -0.00000000000E+00 -0.41457178939E+03  0.41459843048E+03  0.47000000000E+01 0.  1.
         25    2    1    2    0    0 -0.36381740129E+02 -0.89775353319E+01 -0.25224829351E+03  0.28400555988E+03  0.12500291721E+03 0.  0.
         25    2    1    2    0    0  0.36381740129E+02  0.89775353319E+01 -0.11753750113E+03  0.17562480733E+03  0.12499912648E+03 0.  0.
          5    1    3    3  502    0 -0.59649955852E+02 -0.51384547355E+02 -0.12511262394E+03  0.14789776067E+03  0.47000000000E+01 0.  1.
         -5    1    3    3    0  502  0.23268215724E+02  0.42407012023E+02 -0.12713566956E+03  0.13610779922E+03  0.47000000000E+01 0.  1.
          5    1    4    4  503    0 -0.90725042857E+01 -0.39743841482E+02 -0.97661277687E+02  0.10593251828E+03  0.47000000000E+01 0.  1.
         -5    1    4    4    0  503  0.45454244414E+02  0.48721376814E+02 -0.19876223444E+02  0.69692289045E+02  0.47000000000E+01 0.  1.
<mgrwt>
<rscale>  0 0.13049797E+03</rscale>
<asrwt>0</asrwt>
<pdfrwt beam="1">  1        5 0.69111212E-02 0.13049888E+03</pdfrwt>
<pdfrwt beam="2">  1       -5 0.63801241E-01 0.13049888E+03</pdfrwt>
<totfact> 0.24212756E+02</totfact>
</mgrwt>
</event>
<event>
 8    1  0.1821556E-007  0.1515770E+03  0.7546771E-02  0.1198548E+00
          5   -1    0    0  501    0  0.00000000000E+00  0.00000000000E+00  0.28858516464E+02  0.29238740952E+02  0.47000000000E+01 0.  1.
         -5   -1    0    0    0  501 -0.00000000000E+00 -0.00000000000E+00 -0.81128548028E+03  0.81129909436E+03  0.47000000000E+01 0.  1.
         25    2    1    2    0    0 -0.34597134928E+02 -0.78448685048E+02 -0.45838914839E+03  0.48280038058E+03  0.12499775273E+03 0.  0.
         25    2    1    2    0    0  0.34597134928E+02  0.78448685048E+02 -0.32403781542E+03  0.35773745474E+03  0.12499769105E+03 0.  0.
          5    1    3    3  502    0  0.41263938373E+02 -0.11766328928E+02 -0.21418757081E+03  0.21849385482E+03  0.47000000000E+01 0.  1.
         -5    1    3    3    0  502 -0.75861073301E+02 -0.66682356120E+02 -0.24420157758E+03  0.26430652575E+03  0.47000000000E+01 0.  1.
          5    1    4    4  503    0  0.69955428901E+02  0.10581355177E+02 -0.11523077079E+03  0.13529947394E+03  0.47000000000E+01 0.  1.
         -5    1    4    4    0  503 -0.35358293973E+02  0.67867329871E+02 -0.20880704463E+03  0.22243798080E+03  0.47000000000E+01 0.  1.
<mgrwt>
<rscale>  0 0.15157702E+03</rscale>
<asrwt>0</asrwt>
<pdfrwt beam="1">  1        5 0.44700677E-02 0.15157703E+03</pdfrwt>
<pdfrwt beam="2">  1       -5 0.12484343E+00 0.15157703E+03</pdfrwt>
<totfact> 0.10679598E+02</totfact>
</mgrwt>
</event>
<event>
 8    1  0.1821556E-007  0.1366182E+03  0.7546771E-02  0.1217955E+00
         -5   -1    0    0    0  501 -0.00000000000E+00  0.00000000000E+00  0.19911082280E+03  0.19916628669E+03  0.47000000000E+01 0. -1.
          5   -1    0    0  501    0  0.00000000000E+00 -0.00000000000E+00 -0.97937797860E+02  0.98050508666E+02  0.47000000000E+01 0. -1.
         25    2    1    2    0    0 -0.16004429276E+02 -0.52755970645E+02  0.81803201619E+02  0.15923664613E+03  0.12500084591E+03 0.  0.
         25    2    1    2    0    0  0.16004429276E+02  0.52755970645E+02  0.19369823317E+02  0.13798014923E+03  0.12499598926E+03 0.  0.
          5    1    3    3  502    0 -0.14509722492E+02  0.37495917057E+01 -0.30003300755E+02  0.33865610004E+02  0.47000000000E+01 0. -1.
         -5    1    3    3    0  502 -0.14947067840E+01 -0.56505562351E+02  0.11180650237E+03  0.12537103612E+03  0.47000000000E+01 0. -1.
          5    1    4    4  503    0  0.30680194881E+02 -0.22098140000E+02  0.43509968836E+02  0.57834328366E+02  0.47000000000E+01 0.  1.
         -5    1    4    4    0  503 -0.14675765606E+02  0.74854110645E+02 -0.24140145519E+02  0.80145820866E+02  0.47000000000E+01 0.  1.
<mgrwt>
<rscale>  0 0.13661714E+03</rscale>
<asrwt>0</asrwt>
<pdfrwt beam="2">  1        5 0.15080290E-01 0.13661825E+03</pdfrwt>
<pdfrwt beam="1">  1       -5 0.30645371E-01 0.13661825E+03</pdfrwt>
<totfact> 0.28895791E+02</totfact>
</mgrwt>
</event>
<event>
 8    1  0.1821556E-007  0.1344096E+03  0.7546771E-02  0.1221063E+00
          5   -1    0    0  501    0  0.00000000000E+00  0.00000000000E+00  0.23693422923E+02  0.24155088280E+02  0.47000000000E+01 0.  1.
         -5   -1    0    0    0  501 -0.00000000000E+00 -0.00000000000E+00 -0.85293592366E+03  0.85294887296E+03  0.47000000000E+01 0.  1.
         25    2    1    2    0    0  0.36424729177E+02  0.33296309354E+02 -0.56356534647E+03  0.57937194346E+03  0.12502217408E+03 0.  0.
         25    2    1    2    0    0 -0.36424729177E+02 -0.33296309354E+02 -0.26567715427E+03  0.29773201778E+03  0.12499839598E+03 0.  0.
          5    1    4    4  502    0 -0.65323376000E+02 -0.46667689574E+02 -0.24862413594E+03  0.26130646313E+03  0.47000000000E+01 0. -1.
         -5    1    4    4    0  502  0.28898646823E+02  0.13371380220E+02 -0.17053018330E+02  0.36425554647E+02  0.47000000000E+01 0. -1.
          5    1    3    3  503    0  0.28595949346E+01 -0.31241041526E+02 -0.38772747029E+03  0.38902295713E+03  0.47000000000E+01 0. -1.
         -5    1    3    3    0  503  0.33565134242E+02  0.64537350880E+02 -0.17583787618E+03  0.19034898633E+03  0.47000000000E+01 0. -1.
<mgrwt>
<rscale>  0 0.13440410E+03</rscale>
<asrwt>0</asrwt>
<pdfrwt beam="1">  1        5 0.36816515E-02 0.13440963E+03</pdfrwt>
<pdfrwt beam="2">  1       -5 0.13125740E+00 0.13440963E+03</pdfrwt>
<totfact> 0.12421031E+02</totfact>
</mgrwt>
</event>
<event>
 8    1  0.1821556E-007  0.1278401E+03  0.7546771E-02  0.1230696E+00
         -5   -1    0    0    0  501 -0.00000000000E+00  0.00000000000E+00  0.22887086379E+03  0.22891911735E+03  0.47000000000E+01 0.  1.
          5   -1    0    0  501    0  0.00000000000E+00 -0.00000000000E+00 -0.71779302856E+02  0.71933012716E+02  0.47000000000E+01 0.  1.
         25    2    1    2    0    0  0.24042734907E+02 -0.11790920809E+02  0.91146589208E+02  0.15700573025E+03  0.12500407871E+03 0.  0.
         25    2    1    2    0    0 -0.24042734907E+02  0.11790920809E+02  0.65944971723E+02  0.14384639982E+03  0.12500387406E+03 0.  0.
          5    1    3    3  502    0  0.26887726279E+02 -0.14206466913E+02  0.12187354528E+03  0.12569814861E+03  0.47000000000E+01 0. -1.
         -5    1    3    3    0  502 -0.28449913722E+01  0.24155461039E+01 -0.30726956069E+02  0.31307581640E+02  0.47000000000E+01 0. -1.
          5    1    4    4  503    0 -0.49810953681E+02  0.37789247048E+02 -0.60019190159E+01  0.62986278910E+02  0.47000000000E+01 0.  1.
         -5    1    4    4    0  503  0.25768218774E+02 -0.25998326239E+02  0.71946890738E+02  0.80860120906E+02  0.47000000000E+01 0.  1.
<mgrwt>
<rscale>  0 0.12784008E+03</rscale>
<asrwt>0</asrwt>
<pdfrwt beam="2">  1        5 0.11058506E-01 0.12784013E+03</pdfrwt>
<pdfrwt beam="1">  1       -5 0.35226437E-01 0.12784013E+03</pdfrwt>
<totfact> 0.37211919E+02</totfact>
</mgrwt>
</event>
<event>
 8    1  0.1821556E-007  0.1426712E+03  0.7546771E-02  0.1209782E+00
         -5   -1    0    0    0  501 -0.00000000000E+00  0.00000000000E+00  0.26500833058E+02  0.26914385610E+02  0.47000000000E+01 0. -1.
          5   -1    0    0  501    0  0.00000000000E+00 -0.00000000000E+00 -0.76361420435E+03  0.76362866832E+03  0.47000000000E+01 0. -1.
         25    2    1    2    0    0 -0.67672063651E+02  0.12204679969E+02 -0.34863998637E+03  0.37670269152E+03  0.12500646099E+03 0.  0.
         25    2    1    2    0    0  0.67672063651E+02 -0.12204679969E+02 -0.38847338492E+03  0.41384036242E+03  0.12499524934E+03 0.  0.
          5    1    3    3  502    0 -0.93991837944E+02 -0.97536811858E+01 -0.31318490454E+03  0.32716429257E+03  0.47000000000E+01 0.  1.
         -5    1    3    3    0  502  0.26319774293E+02  0.21958361155E+02 -0.35455081823E+02  0.49538398950E+02  0.47000000000E+01 0.  1.
          5    1    4    4  503    0  0.86907527414E+02  0.24615358331E+02 -0.18270271867E+03  0.20386566066E+03  0.47000000000E+01 0. -1.
         -5    1    4    4    0  503 -0.19235463764E+02 -0.36820038300E+02 -0.20577066625E+03  0.20997470175E+03  0.47000000000E+01 0. -1.
<mgrwt>
<rscale>  0 0.14266877E+03</rscale>
<asrwt>0</asrwt>
<pdfrwt beam="2">  1        5 0.11751202E+00 0.14267122E+03</pdfrwt>
<pdfrwt beam="1">  1       -5 0.41099762E-02 0.14267122E+03</pdfrwt>
<totfact> 0.14052526E+02</totfact>
</mgrwt>
</event>
<event>
 8    1  0.1821556E-007  0.1358088E+03  0.7546771E-02  0.1219085E+00
         -5   -1    0    0    0  501 -0.00000000000E+00  0.00000000000E+00  0.19086549385E+03  0.19092335306E+03  0.47000000000E+01 0.  1.
          5   -1    0    0  501    0  0.00000000000E+00 -0.00000000000E+00 -0.96749200702E+02  0.96863294578E+02  0.47000000000E+01 0.  1.
         25    2    1    2    0    0 -0.50843326456E+02 -0.15225896337E+02  0.54371881142E+02  0.14628853009E+03  0.12500864295E+03 0.  0.
         25    2    1    2    0    0  0.50843326456E+02  0.15225896337E+02  0.39744412010E+02  0.14149811755E+03  0.12500090888E+03 0.  0.
          5    1    4    4  502    0  0.99380078943E+01  0.48310098316E+02  0.65988608249E+02  0.82517973914E+02  0.47000000000E+01 0. -1.
         -5    1    4    4    0  502  0.40905318562E+02 -0.33084201979E+02 -0.26244196239E+02  0.58980143637E+02  0.47000000000E+01 0. -1.
          5    1    3    3  503    0  0.75464197077E+01 -0.46983023269E+02  0.63008429667E+02  0.79098072890E+02  0.47000000000E+01 0.  1.
         -5    1    3    3    0  503 -0.58389746164E+02  0.31757126932E+02 -0.86365485247E+01  0.67190457198E+02  0.47000000000E+01 0.  1.
<mgrwt>
<rscale>  0 0.13580703E+03</rscale>
<asrwt>0</asrwt>
<pdfrwt beam="2">  1        5 0.14897720E-01 0.13580881E+03</pdfrwt>
<pdfrwt beam="1">  1       -5 0.29377149E-01 0.13580881E+03</pdfrwt>
<totfact> 0.32028415E+02</totfact>
</mgrwt>
</event>
<event>
 8    1  0.1821556E-007  0.1521091E+03  0.7546771E-02  0.1197910E+00
         -5   -1    0    0    0  501 -0.00000000000E+00  0.00000000000E+00  0.32696745654E+03  0.32700123492E+03  0.47000000000E+01 0.  1.
          5   -1    0    0  501    0  0.00000000000E+00 -0.00000000000E+00 -0.13750191095E+03  0.13758221365E+03  0.47000000000E+01 0.  1.
         25    2    1    2    0    0 -0.74547657226E+02  0.44223970134E+02  0.25662995014E+03  0.29832217743E+03  0.12499630997E+03 0.  0.
         25    2    1    2    0    0  0.74547657226E+02 -0.44223970134E+02 -0.67164404542E+02  0.16626127114E+03  0.12497455866E+03 0.  0.
          5    1    4    4  502    0  0.39892303679E+02 -0.87307823498E+02 -0.48978469467E+02  0.10786580741E+03  0.47000000000E+01 0. -1.
         -5    1    4    4    0  502  0.34655353547E+02  0.43083853364E+02 -0.18185935075E+02  0.58395463734E+02  0.47000000000E+01 0. -1.
          5    1    3    3  503    0  0.37101246612E+01 -0.11408222895E+01  0.17878669274E+03  0.17889057550E+03  0.47000000000E+01 0.  1.
         -5    1    3    3    0  503 -0.78257781887E+02  0.45364792424E+02  0.77843257393E+02  0.11943160193E+03  0.47000000000E+01 0.  1.
<mgrwt>
<rscale>  0 0.15210467E+03</rscale>
<asrwt>0</asrwt>
<pdfrwt beam="2">  1        5 0.21162916E-01 0.15210914E+03</pdfrwt>
<pdfrwt beam="1">  1       -5 0.50311461E-01 0.15210914E+03</pdfrwt>
<totfact> 0.58150503E+01</totfact>
</mgrwt>
</event>
<event>
 8    1  0.1821556E-007  0.1336123E+03  0.7546771E-02  0.1222193E+00
          5   -1    0    0  501    0  0.00000000000E+00  0.00000000000E+00  0.48751129268E+03  0.48753394804E+03  0.47000000000E+01 0.  1.
         -5   -1    0    0    0  501 -0.00000000000E+00 -0.00000000000E+00 -0.36461898198E+02  0.36763569198E+02  0.47000000000E+01 0.  1.
         25    2    1    2    0    0 -0.38358538269E+02  0.27497955478E+02  0.21976994055E+03  0.25719851727E+03  0.12499894203E+03 0.  0.
         25    2    1    2    0    0  0.38358538269E+02 -0.27497955478E+02  0.23127945394E+03  0.26709899997E+03  0.12499669977E+03 0.  0.
          5    1    3    3  502    0 -0.77548386128E+02 -0.34074817755E+01  0.95231715375E+02  0.12294930962E+03  0.47000000000E+01 0. -1.
         -5    1    3    3    0  502  0.39189847859E+02  0.30905437253E+02  0.12453822517E+03  0.13424920765E+03  0.47000000000E+01 0. -1.
          5    1    4    4  503    0 -0.51586023723E+01 -0.58613428469E+02  0.19115699558E+03  0.20006307039E+03  0.47000000000E+01 0. -1.
         -5    1    4    4    0  503  0.43517140641E+02  0.31115472992E+02  0.40122458362E+02  0.67035929575E+02  0.47000000000E+01 0. -1.
<mgrwt>
<rscale>  0 0.13361179E+03</rscale>
<asrwt>0</asrwt>
<pdfrwt beam="1">  1        5 0.75026680E-01 0.13361231E+03</pdfrwt>
<pdfrwt beam="2">  1       -5 0.56344714E-02 0.13361231E+03</pdfrwt>
<totfact> 0.23926834E+02</totfact>
</mgrwt>
</event>
<event>
 8    1  0.1821556E-007  0.1472521E+03  0.7546771E-02  0.1203898E+00
         -5   -1    0    0    0  501 -0.00000000000E+00  0.00000000000E+00  0.64625009219E+02  0.64795692886E+02  0.47000000000E+01 0.  1.
          5   -1    0    0  501    0  0.00000000000E+00 -0.00000000000E+00 -0.33484651637E+03  0.33487950000E+03  0.47000000000E+01 0.  1.
         25    2    1    2    0    0  0.64276442986E+02  0.43825668579E+02 -0.13453956421E+03  0.19945949120E+03  0.12502417343E+03 0.  0.
         25    2    1    2    0    0 -0.64276442986E+02 -0.43825668579E+02 -0.13568194294E+03  0.20021570169E+03  0.12499834885E+03 0.  0.
          5    1    4    4  502    0 -0.55507730613E+02 -0.70959291433E+02 -0.37202049448E+02  0.97582845222E+02  0.47000000000E+01 0.  1.
         -5    1    4    4    0  502 -0.87687123728E+01  0.27133622854E+02 -0.98479893488E+02  0.10263285647E+03  0.47000000000E+01 0.  1.
          5    1    3    3  503    0  0.91529237257E+02  0.43286204488E+02 -0.55152053495E+02  0.11539122920E+03  0.47000000000E+01 0. -1.
         -5    1    3    3    0  503 -0.27252794272E+02  0.53946409068E+00 -0.79387510716E+02  0.84068261995E+02  0.47000000000E+01 0. -1.
<mgrwt>
<rscale>  0 0.14724666E+03</rscale>
<asrwt>0</asrwt>
<pdfrwt beam="2">  1        5 0.51530515E-01 0.14725215E+03</pdfrwt>
<pdfrwt beam="1">  1       -5 0.99579760E-02 0.14725215E+03</pdfrwt>
<totfact> 0.21396465E+02</totfact>
</mgrwt>
</event>
<event>
 8    1  0.1821556E-007  0.2132397E+03  0.7546771E-02  0.1139026E+00
          5   -1    0    0  501    0  0.00000000000E+00  0.00000000000E+00  0.66637130478E+03  0.66638787942E+03  0.47000000000E+01 0.  1.
         -5   -1    0    0    0  501 -0.00000000000E+00 -0.00000000000E+00 -0.78943332845E+02  0.79083119568E+02  0.47000000000E+01 0.  1.
         25    2    1    2    0    0 -0.14992208417E+03 -0.85849294031E+02  0.15596061990E+03  0.26418602498E+03  0.12499523281E+03 0.  0.
         25    2    1    2    0    0  0.14992208417E+03  0.85849294031E+02  0.43146735204E+03  0.48128497401E+03  0.12499767087E+03 0.  0.
          5    1    4    4  502    0 -0.22009118908E+02  0.44607881533E+01  0.48300347201E+02  0.53472548900E+02  0.47000000000E+01 0. -1.
         -5    1    4    4    0  502  0.17193120308E+03  0.81388505878E+02  0.38316700484E+03  0.42781242511E+03  0.47000000000E+01 0. -1.
          5    1    3    3  503    0 -0.84039953304E+02 -0.11308485057E+03  0.11426278271E+03  0.18146341420E+03  0.47000000000E+01 0. -1.
         -5    1    3    3    0  503 -0.65882130868E+02  0.27235556540E+02  0.41697837187E+02  0.82722610778E+02  0.47000000000E+01 0. -1.
<mgrwt>
<rscale>  0 0.21323930E+03</rscale>
<asrwt>0</asrwt>
<pdfrwt beam="1">  1        5 0.10253069E+00 0.21323965E+03</pdfrwt>
<pdfrwt beam="2">  1       -5 0.12157156E-01 0.21323965E+03</pdfrwt>
<totfact> 0.34654781E+01</totfact>
</mgrwt>
</event>
<event>
 8    1  0.1821556E-007  0.1798438E+03  0.7546771E-02  0.1167956E+00
          5   -1    0    0  501    0  0.00000000000E+00  0.00000000000E+00  0.73273637815E+03  0.73275145163E+03  0.47000000000E+01 0.  1.
         -5   -1    0    0    0  501 -0.00000000000E+00 -0.00000000000E+00 -0.51280204169E+02  0.51495138990E+02  0.47000000000E+01 0.  1.
         25    2    1    2    0    0  0.62999497765E+01  0.12914236165E+03  0.19331088806E+03  0.26402586550E+03  0.12499247685E+03 0.  0.
         25    2    1    2    0    0 -0.62999497765E+01 -0.12914236165E+03  0.48814528592E+03  0.52022072512E+03  0.12500537484E+03 0.  0.
          5    1    4    4  502    0  0.54764874692E+02 -0.59214157743E+02  0.16114379650E+03  0.18026347696E+03  0.47000000000E+01 0.  1.
         -5    1    4    4    0  502 -0.61064824469E+02 -0.69928203907E+02  0.32700148942E+03  0.33995724816E+03  0.47000000000E+01 0.  1.
          5    1    3    3  503    0 -0.44681187406E+02  0.87009827105E+02  0.16512741559E+03  0.19197987369E+03  0.47000000000E+01 0. -1.
         -5    1    3    3    0  503  0.50981137183E+02  0.42132534546E+02  0.28183472467E+02  0.72045991811E+02  0.47000000000E+01 0. -1.
<mgrwt>
<rscale>  0 0.17984153E+03</rscale>
<asrwt>0</asrwt>
<pdfrwt beam="1">  1        5 0.11274637E+00 0.17984377E+03</pdfrwt>
<pdfrwt beam="2">  1       -5 0.79069549E-02 0.17984377E+03</pdfrwt>
<totfact> 0.55621189E+01</totfact>
</mgrwt>
</event>
<event>
 8    1  0.1821556E-007  0.1252424E+03  0.7546771E-02  0.1234693E+00
         -5   -1    0    0    0  501 -0.00000000000E+00  0.00000000000E+00  0.60401596834E+03  0.60403425400E+03  0.47000000000E+01 0. -1.
          5   -1    0    0  501    0  0.00000000000E+00 -0.00000000000E+00 -0.27900058687E+02  0.28293166573E+02  0.47000000000E+01 0. -1.
         25    2    1    2    0    0  0.47885053486E+01 -0.61459586559E+01  0.37544057062E+03  0.39577933252E+03  0.12499982155E+03 0.  0.
         25    2    1    2    0    0 -0.47885053486E+01  0.61459586559E+01  0.20067533903E+03  0.23654808806E+03  0.12499481461E+03 0.  0.
          5    1    4    4  502    0 -0.26155465466E+02 -0.40522470534E+02  0.27185150380E+02  0.55563489749E+02  0.47000000000E+01 0. -1.
         -5    1    4    4    0  502  0.21366960118E+02  0.46668429190E+02  0.17349018865E+03  0.18098459831E+03  0.47000000000E+01 0. -1.
          5    1    3    3  503    0  0.59639265199E+02  0.20480849241E+02  0.16771497409E+03  0.17923925261E+03  0.47000000000E+01 0.  1.
         -5    1    3    3    0  503 -0.54850759851E+02 -0.26626807897E+02  0.20772559653E+03  0.21654007991E+03  0.47000000000E+01 0.  1.
<mgrwt>
<rscale>  0 0.12524115E+03</rscale>
<asrwt>0</asrwt>
<pdfrwt beam="2">  1        5 0.43239626E-02 0.12524240E+03</pdfrwt>
<pdfrwt beam="1">  1       -5 0.92957175E-01 0.12524240E+03</pdfrwt>
<totfact> 0.22009271E+02</totfact>
</mgrwt>
</event>
<event>
 8    1  0.1821556E-007  0.1347318E+03  0.7546771E-02  0.1220599E+00
          5   -1    0    0  501    0  0.00000000000E+00  0.00000000000E+00  0.12025937299E+03  0.12035118110E+03  0.47000000000E+01 0.  1.
         -5   -1    0    0    0  501 -0.00000000000E+00 -0.00000000000E+00 -0.18452835199E+03  0.18458819758E+03  0.47000000000E+01 0.  1.
         25    2    1    2    0    0 -0.43840536339E+02  0.24611162423E+02 -0.97331023295E+02  0.16621034596E+03  0.12499939626E+03 0.  0.
         25    2    1    2    0    0  0.43840536339E+02 -0.24611162423E+02  0.33062044295E+02  0.13872903272E+03  0.12499977522E+03 0.  0.
          5    1    4    4  502    0  0.35020142072E+02 -0.13216691365E+02 -0.45278992347E+02  0.58935290186E+02  0.47000000000E+01 0.  1.
         -5    1    4    4    0  502  0.88203942672E+01 -0.11394471058E+02  0.78341036641E+02  0.79793742535E+02  0.47000000000E+01 0.  1.
          5    1    3    3  503    0 -0.82612460978E+02  0.32604573250E+02 -0.88316225401E+02  0.12533843215E+03  0.47000000000E+01 0. -1.
         -5    1    3    3    0  503  0.38771924639E+02 -0.79934108275E+01 -0.90147978948E+01  0.40871913803E+02  0.47000000000E+01 0. -1.
<mgrwt>
<rscale>  0 0.13473167E+03</rscale>
<asrwt>0</asrwt>
<pdfrwt beam="1">  1        5 0.18513108E-01 0.13473175E+03</pdfrwt>
<pdfrwt beam="2">  1       -5 0.28400643E-01 0.13473175E+03</pdfrwt>
<totfact> 0.22933854E+02</totfact>
</mgrwt>
</event>
<event>
 8    1  0.1821556E-007  0.1419402E+03  0.7546771E-02  0.1210742E+00
          5   -1    0    0  501    0  0.00000000000E+00  0.00000000000E+00  0.39845888024E+03  0.39848659857E+03  0.47000000000E+01 0. -1.
         -5   -1    0    0    0  501 -0.00000000000E+00 -0.00000000000E+00 -0.54731964807E+02  0.54933395777E+02  0.47000000000E+01 0. -1.
         25    2    1    2    0    0 -0.40831958967E+02 -0.53426692391E+02  0.10839106448E+03  0.17859282605E+03  0.12500045729E+03 0.  0.
         25    2    1    2    0    0  0.40831958967E+02  0.53426692391E+02  0.23533585095E+03  0.27482716830E+03  0.12500139744E+03 0.  0.
          5    1    4    4  502    0  0.27132432755E+02 -0.20517050321E+02  0.79025096259E+01  0.35237166735E+02  0.47000000000E+01 0. -1.
         -5    1    4    4    0  502  0.13699526211E+02  0.73943742712E+02  0.22743334133E+03  0.23959000157E+03  0.47000000000E+01 0. -1.
          5    1    3    3  503    0 -0.79190085836E+02 -0.88959792030E+01  0.80494716378E+02  0.11336532762E+03  0.47000000000E+01 0.  1.
         -5    1    3    3    0  503  0.38358126870E+02 -0.44530713188E+02  0.27896348100E+02  0.65227498429E+02  0.47000000000E+01 0.  1.
<mgrwt>
<rscale>  0 0.14193996E+03</rscale>
<asrwt>0</asrwt>
<pdfrwt beam="1">  1        5 0.61318994E-01 0.14194016E+03</pdfrwt>
<pdfrwt beam="2">  1       -5 0.84379290E-02 0.14194016E+03</pdfrwt>
<totfact> 0.19332842E+02</totfact>
</mgrwt>
</event>
<event>
 8    1  0.1821556E-007  0.1398836E+03  0.7546771E-02  0.1213486E+00
         -5   -1    0    0    0  501 -0.00000000000E+00  0.00000000000E+00  0.79143759752E+03  0.79145155301E+03  0.47000000000E+01 0.  1.
          5   -1    0    0  501    0  0.00000000000E+00 -0.00000000000E+00 -0.41677904020E+02  0.41942075336E+02  0.47000000000E+01 0.  1.
         25    2    1    2    0    0  0.50475492401E+02 -0.37341426404E+02  0.64132702726E+03  0.65640477978E+03  0.12499888624E+03 0.  0.
         25    2    1    2    0    0 -0.50475492401E+02  0.37341426404E+02  0.10843266624E+03  0.17698884857E+03  0.12500100781E+03 0.  0.
          5    1    4    4  502    0 -0.61923666040E+01 -0.13654394351E+02 -0.23749704074E+02  0.28476768301E+02  0.47000000000E+01 0.  1.
         -5    1    4    4    0  502 -0.44283125797E+02  0.50995820755E+02  0.13218237032E+03  0.14851208027E+03  0.47000000000E+01 0.  1.
          5    1    3    3  503    0 -0.28906371345E+02 -0.28742284928E+02  0.85325955972E+02  0.94680019063E+02  0.47000000000E+01 0. -1.
         -5    1    3    3    0  503  0.79381863747E+02 -0.85991414759E+01  0.55600107129E+03  0.56172476071E+03  0.47000000000E+01 0. -1.
<mgrwt>
<rscale>  0 0.13988308E+03</rscale>
<asrwt>0</asrwt>
<pdfrwt beam="2">  1        5 0.64333802E-02 0.13988356E+03</pdfrwt>
<pdfrwt beam="1">  1       -5 0.12178101E+00 0.13988356E+03</pdfrwt>
<totfact> 0.60472907E+01</totfact>
</mgrwt>
</event>
<event>
 8    1  0.1821556E-007  0.1878057E+03  0.7546771E-02  0.1160456E+00
          5   -1    0    0  501    0  0.00000000000E+00  0.00000000000E+00  0.66686320501E+03  0.66687976742E+03  0.47000000000E+01 0. -1.
         -5   -1    0    0    0  501 -0.00000000000E+00 -0.00000000000E+00 -0.52853048087E+02  0.53061612227E+02  0.47000000000E+01 0. -1.
         25    2    1    2    0    0 -0.51675032294E+02 -0.13029158822E+03  0.29264929452E+03  0.34772670215E+03  0.12499617146E+03 0.  0.
         25    2    1    2    0    0  0.51675032294E+02  0.13029158822E+03  0.32136086240E+03  0.37221467750E+03  0.12499902136E+03 0.  0.
          5    1    4    4  502    0 -0.26343011591E+02  0.92937897880E+02  0.12882146089E+03  0.16108527527E+03  0.47000000000E+01 0.  1.
         -5    1    4    4    0  502  0.78018043885E+02  0.37353690337E+02  0.19253940150E+03  0.21112940223E+03  0.47000000000E+01 0.  1.
          5    1    3    3  503    0 -0.53107797859E+02 -0.15416909131E+03  0.24765694914E+03  0.29655455040E+03  0.47000000000E+01 0.  1.
         -5    1    3    3    0  503  0.14327655656E+01  0.23877503091E+02  0.44992345381E+02  0.51172151742E+02  0.47000000000E+01 0.  1.
<mgrwt>
<rscale>  0 0.18780518E+03</rscale>
<asrwt>0</asrwt>
<pdfrwt beam="1">  1        5 0.10261166E+00 0.18780565E+03</pdfrwt>
<pdfrwt beam="2">  1       -5 0.81485556E-02 0.18780565E+03</pdfrwt>
<totfact> 0.67595499E+01</totfact>
</mgrwt>
</event>
<event>
 8    1  0.1821556E-007  0.1428588E+03  0.7546771E-02  0.1209560E+00
          5   -1    0    0  501    0  0.00000000000E+00  0.00000000000E+00  0.27094440520E+03  0.27098516695E+03  0.47000000000E+01 0.  1.
         -5   -1    0    0    0  501 -0.00000000000E+00 -0.00000000000E+00 -0.75381793559E+02  0.75528172229E+02  0.47000000000E+01 0.  1.
         25    2    1    2    0    0  0.62459990960E+02  0.29322678315E+02  0.88454041177E+02  0.16802608148E+03  0.12509027429E+03 0.  0.
         25    2    1    2    0    0 -0.62459990960E+02 -0.29322678315E+02  0.10710857046E+03  0.17848725770E+03  0.12499754142E+03 0.  0.
          5    1    3    3  502    0 -0.23082190055E+02 -0.29055455538E+02  0.35693448922E+02  0.51702217459E+02  0.47000000000E+01 0.  1.
         -5    1    3    3    0  502  0.85542181015E+02  0.58378133853E+02  0.52760592256E+02  0.11632386402E+03  0.47000000000E+01 0.  1.
          5    1    4    4  503    0 -0.51413973241E+02 -0.70428720402E+02  0.33901087654E+02  0.93674836782E+02  0.47000000000E+01 0.  1.
         -5    1    4    4    0  503 -0.11046017719E+02  0.41106042087E+02  0.73207482804E+02  0.84812420918E+02  0.47000000000E+01 0.  1.
<mgrwt>
<rscale>  0 0.14283853E+03</rscale>
<asrwt>0</asrwt>
<pdfrwt beam="1">  1        5 0.41698151E-01 0.14285883E+03</pdfrwt>
<pdfrwt beam="2">  1       -5 0.11611594E-01 0.14285883E+03</pdfrwt>
<totfact> 0.25199698E+02</totfact>
</mgrwt>
</event>
<event>
 8    1  0.1821556E-007  0.1328402E+03  0.7546771E-02  0.1223303E+00
          5   -1    0    0  501    0  0.00000000000E+00  0.00000000000E+00  0.29054335209E+03  0.29058136459E+03  0.47000000000E+01 0. -1.
         -5   -1    0    0    0  501 -0.00000000000E+00 -0.00000000000E+00 -0.64076285030E+02  0.64248426465E+02  0.47000000000E+01 0. -1.
         25    2    1    2    0    0 -0.15963257209E+02  0.42011424162E+02  0.71984466105E+02  0.15108632478E+03  0.12500211533E+03 0.  0.
         25    2    1    2    0    0  0.15963257209E+02 -0.42011424162E+02  0.15448260096E+03  0.20374346627E+03  0.12500696263E+03 0.  0.
          5    1    3    3  502    0 -0.14573172480E+02  0.42840824124E+02 -0.26384221960E+02  0.52592116673E+02  0.47000000000E+01 0.  1.
         -5    1    3    3    0  502 -0.13900847296E+01 -0.82939996240E+00  0.98368688065E+02  0.98494208112E+02  0.47000000000E+01 0.  1.
          5    1    4    4  503    0  0.30801661579E+02 -0.24993547564E+02  0.17085391948E+03  0.17546102581E+03  0.47000000000E+01 0. -1.
         -5    1    4    4    0  503 -0.14838404369E+02 -0.17017876598E+02 -0.16371318523E+02  0.28282440459E+02  0.47000000000E+01 0. -1.
<mgrwt>
<rscale>  0 0.13283909E+03</rscale>
<asrwt>0</asrwt>
<pdfrwt beam="1">  1        5 0.44715144E-01 0.13284023E+03</pdfrwt>
<pdfrwt beam="2">  1       -5 0.98740555E-02 0.13284023E+03</pdfrwt>
<totfact> 0.28276960E+02</totfact>
</mgrwt>
</event>
<event>
 8    1  0.1821556E-007  0.1513505E+03  0.7546771E-02  0.1198825E+00
          5   -1    0    0  501    0  0.00000000000E+00  0.00000000000E+00  0.10982236774E+03  0.10992289323E+03  0.47000000000E+01 0. -1.
         -5   -1    0    0    0  501 -0.00000000000E+00 -0.00000000000E+00 -0.22264538162E+03  0.22269498413E+03  0.47000000000E+01 0. -1.
         25    2    1    2    0    0 -0.42338879104E+02  0.74078991846E+02 -0.98538019139E+02  0.18060099276E+03  0.12500679842E+03 0.  0.
         25    2    1    2    0    0  0.42338879104E+02 -0.74078991846E+02 -0.14284994738E+02  0.15201688460E+03  0.12499917764E+03 0.  0.
          5    1    4    4  502    0  0.77607794863E+02 -0.12486430693E+02  0.30451883524E+01  0.78805101022E+02  0.47000000000E+01 0.  1.
         -5    1    4    4    0  502 -0.35268915759E+02 -0.61592561154E+02 -0.17330183091E+02  0.73211783575E+02  0.47000000000E+01 0.  1.
          5    1    3    3  503    0 -0.40050863713E+02  0.87396826841E+02 -0.12060329756E+03  0.15430334542E+03  0.47000000000E+01 0. -1.
         -5    1    3    3    0  503 -0.22880153912E+01 -0.13317834994E+02  0.22065278423E+02  0.26297647333E+02  0.47000000000E+01 0. -1.
<mgrwt>
<rscale>  0 0.15134894E+03</rscale>
<asrwt>0</asrwt>
<pdfrwt beam="1">  1        5 0.16907297E-01 0.15135051E+03</pdfrwt>
<pdfrwt beam="2">  1       -5 0.34264684E-01 0.15135051E+03</pdfrwt>
<totfact> 0.19452664E+02</totfact>
</mgrwt>
</event>
<event>
 8    1  0.1821556E-007  0.1323531E+03  0.7546771E-02  0.1224026E+00
         -5   -1    0    0    0  501 -0.00000000000E+00  0.00000000000E+00  0.45468510181E+03  0.45470939270E+03  0.47000000000E+01 0.  1.
          5   -1    0    0  501    0  0.00000000000E+00 -0.00000000000E+00 -0.73061797477E+02  0.73212814797E+02  0.47000000000E+01 0.  1.
         25    2    1    2    0    0 -0.37374795990E+02 -0.22261052351E+02  0.37249819068E+03  0.39531283259E+03  0.12499961490E+03 0.  0.
         25    2    1    2    0    0  0.37374795990E+02  0.22261052351E+02  0.91251136556E+01  0.13260937491E+03  0.12493817986E+03 0.  0.
          5    1    4    4  502    0  0.46558574830E+02 -0.39421753842E+02 -0.18953827148E+02  0.64055547221E+02  0.47000000000E+01 0. -1.
         -5    1    4    4    0  502 -0.91837788401E+01  0.61682806193E+02  0.28078940804E+02  0.68553827685E+02  0.47000000000E+01 0. -1.
          5    1    3    3  503    0  0.98904676728E+01 -0.61458373477E+02  0.11829438716E+03  0.13375576644E+03  0.47000000000E+01 0. -1.
         -5    1    3    3    0  503 -0.47265263663E+02  0.39197321126E+02  0.25420380352E+03  0.26155706615E+03  0.47000000000E+01 0. -1.
<mgrwt>
<rscale>  0 0.13233856E+03</rscale>
<asrwt>0</asrwt>
<pdfrwt beam="2">  1        5 0.11253762E-01 0.13235306E+03</pdfrwt>
<pdfrwt beam="1">  1       -5 0.69965041E-01 0.13235306E+03</pdfrwt>
<totfact> 0.85348288E+01</totfact>
</mgrwt>
</event>
<event>
 8    1  0.1821556E-007  0.1659518E+03  0.7546771E-02  0.1182137E+00
         -5   -1    0    0    0  501 -0.00000000000E+00  0.00000000000E+00  0.62713719385E+02  0.62889590546E+02  0.47000000000E+01 0.  1.
          5   -1    0    0  501    0  0.00000000000E+00 -0.00000000000E+00 -0.44927002010E+03  0.44929460375E+03  0.47000000000E+01 0.  1.
         25    2    1    2    0    0  0.81495403693E+02 -0.72615745969E+02 -0.15331799784E+03  0.22593450426E+03  0.12500177746E+03 0.  0.
         25    2    1    2    0    0 -0.81495403693E+02  0.72615745969E+02 -0.23323830287E+03  0.28624969004E+03  0.12499692690E+03 0.  0.
          5    1    3    3  502    0 -0.23555143707E+02 -0.10914889058E+02  0.42308283849E+01  0.26720207840E+02  0.47000000000E+01 0.  1.
         -5    1    3    3    0  502  0.10505054740E+03 -0.61700856911E+02 -0.15754882622E+03  0.19921429642E+03  0.47000000000E+01 0.  1.
          5    1    4    4  503    0 -0.93406639115E+02  0.97340574309E+02 -0.21157850756E+03  0.25097319080E+03  0.47000000000E+01 0. -1.
         -5    1    4    4    0  503  0.11911235422E+02 -0.24724828340E+02 -0.21659795314E+02  0.35276499242E+02  0.47000000000E+01 0. -1.
<mgrwt>
<rscale>  0 0.16595086E+03</rscale>
<asrwt>0</asrwt>
<pdfrwt beam="2">  1        5 0.69133882E-01 0.16595178E+03</pdfrwt>
<pdfrwt beam="1">  1       -5 0.96636844E-02 0.16595178E+03</pdfrwt>
<totfact> 0.12294715E+02</totfact>
</mgrwt>
</event>
<event>
 8    1  0.1821556E-007  0.1259093E+03  0.7546771E-02  0.1233658E+00
          5   -1    0    0  501    0  0.00000000000E+00  0.00000000000E+00  0.77222935392E+02  0.77365830639E+02  0.47000000000E+01 0.  1.
         -5   -1    0    0    0  501 -0.00000000000E+00 -0.00000000000E+00 -0.24055904229E+03  0.24060495180E+03  0.47000000000E+01 0.  1.
         25    2    1    2    0    0 -0.13097155769E+02  0.74770021941E+01 -0.14283978890E+03  0.19041100837E+03  0.12500282303E+03 0.  0.
         25    2    1    2    0    0  0.13097155769E+02 -0.74770021941E+01 -0.20496318006E+02  0.12755977407E+03  0.12499582336E+03 0.  0.
          5    1    4    4  502    0  0.12037862027E+02 -0.65960370179E+02 -0.10296819441E+02  0.67998492975E+02  0.47000000000E+01 0.  1.
         -5    1    4    4    0  502  0.10592937421E+01  0.58483367985E+02 -0.10199498565E+02  0.59561281090E+02  0.47000000000E+01 0.  1.
          5    1    3    3  503    0 -0.58894539363E+02 -0.30117328044E+02 -0.70578263730E+02  0.96845245244E+02  0.47000000000E+01 0. -1.
         -5    1    3    3    0  503  0.45797383594E+02  0.37594330238E+02 -0.72261525166E+02  0.93565763126E+02  0.47000000000E+01 0. -1.
<mgrwt>
<rscale>  0 0.12590754E+03</rscale>
<asrwt>0</asrwt>
<pdfrwt beam="1">  1        5 0.11894975E-01 0.12590928E+03</pdfrwt>
<pdfrwt beam="2">  1       -5 0.37023606E-01 0.12590928E+03</pdfrwt>
<totfact> 0.29442853E+02</totfact>
</mgrwt>
</event>
<event>
 8    1  0.1821556E-007  0.1567897E+03  0.7546771E-02  0.1192370E+00
         -5   -1    0    0    0  501 -0.00000000000E+00  0.00000000000E+00  0.90983516663E+02  0.91104831400E+02  0.47000000000E+01 0.  1.
          5   -1    0    0  501    0  0.00000000000E+00 -0.00000000000E+00 -0.28750156587E+03  0.28753998049E+03  0.47000000000E+01 0.  1.
         25    2    1    2    0    0  0.93447065847E+02 -0.15025589988E+02 -0.51382705961E+02  0.16499455875E+03  0.12499959790E+03 0.  0.
         25    2    1    2    0    0 -0.93447065847E+02  0.15025589988E+02 -0.14513534325E+03  0.21365025313E+03  0.12499616128E+03 0.  0.
          5    1    3    3  502    0  0.21327549604E+02  0.51101028202E+02 -0.34997823358E+02  0.65674325998E+02  0.47000000000E+01 0. -1.
         -5    1    3    3    0  502  0.72119516243E+02 -0.66126618190E+02 -0.16384882603E+02  0.99320232754E+02  0.47000000000E+01 0. -1.
          5    1    4    4  503    0 -0.11429449019E+03  0.17284442864E+02 -0.69363991472E+02  0.13489045839E+03  0.47000000000E+01 0.  1.
         -5    1    4    4    0  503  0.20847424341E+02 -0.22588528761E+01 -0.75771351774E+02  0.78759794741E+02  0.47000000000E+01 0.  1.
<mgrwt>
<rscale>  0 0.15678905E+03</rscale>
<asrwt>0</asrwt>
<pdfrwt beam="2">  1        5 0.44243297E-01 0.15678974E+03</pdfrwt>
<pdfrwt beam="1">  1       -5 0.14009751E-01 0.15678974E+03</pdfrwt>
<totfact> 0.16438401E+02</totfact>
</mgrwt>
</event>
<event>
 8    1  0.1821556E-007  0.1356448E+03  0.7546771E-02  0.1219316E+00
         -5   -1    0    0    0  501 -0.00000000000E+00  0.00000000000E+00  0.10262108920E+04  0.10262216548E+04  0.47000000000E+01 0.  1.
          5   -1    0    0  501    0  0.00000000000E+00 -0.00000000000E+00 -0.19795729499E+02  0.20346029253E+02  0.47000000000E+01 0.  1.
         25    2    1    2    0    0 -0.44915800177E+02  0.27470822624E+02  0.67458352088E+03  0.68808606980E+03  0.12500975007E+03 0.  0.
         25    2    1    2    0    0  0.44915800177E+02 -0.27470822624E+02  0.33183164163E+03  0.35848161429E+03  0.12499901680E+03 0.  0.
          5    1    4    4  502    0 -0.36527223296E+02 -0.38265607786E+02  0.11995914234E+03  0.13118986474E+03  0.47000000000E+01 0.  1.
         -5    1    4    4    0  502  0.81443023473E+02  0.10794785162E+02  0.21187249929E+03  0.22729174955E+03  0.47000000000E+01 0.  1.
          5    1    3    3  503    0 -0.88448988437E+02  0.16853727819E+02  0.47482367665E+03  0.48330827181E+03  0.47000000000E+01 0.  1.
         -5    1    3    3    0  503  0.43533188260E+02  0.10617094805E+02  0.19975984423E+03  0.20477779799E+03  0.47000000000E+01 0.  1.
<mgrwt>
<rscale>  0 0.13564233E+03</rscale>
<asrwt>0</asrwt>
<pdfrwt beam="2">  1        5 0.30886562E-02 0.13564480E+03</pdfrwt>
<pdfrwt beam="1">  1       -5 0.15792172E+00 0.13564480E+03</pdfrwt>
<totfact> 0.10073249E+02</totfact>
</mgrwt>
</event>
<event>
 8    1  0.1821556E-007  0.1255228E+03  0.7546771E-02  0.1234255E+00
          5   -1    0    0  501    0  0.00000000000E+00  0.00000000000E+00  0.10232075148E+03  0.10242863947E+03  0.47000000000E+01 0.  1.
         -5   -1    0    0    0  501 -0.00000000000E+00 -0.00000000000E+00 -0.20569453272E+03  0.20574822184E+03  0.47000000000E+01 0.  1.
         25    2    1    2    0    0 -0.11342747171E+02 -0.86281112878E+00 -0.12908089315E+03  0.18004956037E+03  0.12500625928E+03 0.  0.
         25    2    1    2    0    0  0.11342747171E+02  0.86281112878E+00  0.25707111906E+02  0.12812730093E+03  0.12500538903E+03 0.  0.
          5    1    4    4  502    0  0.14121629575E+02  0.61728930056E+02  0.20810048517E+02  0.66820875084E+02  0.47000000000E+01 0. -1.
         -5    1    4    4    0  502 -0.27788824043E+01 -0.60866118927E+02  0.48970633886E+01  0.61306425850E+02  0.47000000000E+01 0. -1.
          5    1    3    3  503    0  0.12176866703E+02  0.30212258371E+02  0.10899631353E+02  0.34669130393E+02  0.47000000000E+01 0.  1.
         -5    1    3    3    0  503 -0.23519613874E+02 -0.31075069500E+02 -0.13998052450E+03  0.14538042998E+03  0.47000000000E+01 0.  1.
<mgrwt>
<rscale>  0 0.12552256E+03</rscale>
<asrwt>0</asrwt>
<pdfrwt beam="1">  1        5 0.15754083E-01 0.12552278E+03</pdfrwt>
<pdfrwt beam="2">  1       -5 0.31657742E-01 0.12552278E+03</pdfrwt>
<totfact> 0.24295932E+02</totfact>
</mgrwt>
</event>
<event>
 8    1  0.1821556E-007  0.1324464E+03  0.7546771E-02  0.1223871E+00
          5   -1    0    0  501    0  0.00000000000E+00  0.00000000000E+00  0.52696661319E+02  0.52905841967E+02  0.47000000000E+01 0.  1.
         -5   -1    0    0    0  501 -0.00000000000E+00 -0.00000000000E+00 -0.33255238266E+03  0.33258559381E+03  0.47000000000E+01 0.  1.
         25    2    1    2    0    0 -0.38296124518E+02  0.21212210937E+02 -0.14782194585E+03  0.19847550590E+03  0.12499859088E+03 0.  0.
         25    2    1    2    0    0  0.38296124518E+02 -0.21212210937E+02 -0.13203377549E+03  0.18701592988E+03  0.12500195644E+03 0.  0.
          5    1    4    4  502    0 -0.23007044286E+02  0.38626495043E+02 -0.59125893649E+02  0.74426416721E+02  0.47000000000E+01 0. -1.
         -5    1    4    4    0  502  0.61303168804E+02 -0.59838705981E+02 -0.72907881844E+02  0.11258951316E+03  0.47000000000E+01 0. -1.
          5    1    3    3  503    0 -0.38496434260E+02 -0.24872594513E+02 -0.27141332303E+01  0.46152767281E+02  0.47000000000E+01 0.  1.
         -5    1    3    3    0  503  0.20030974201E+00  0.46084805450E+02 -0.14510781262E+03  0.15232273862E+03  0.47000000000E+01 0.  1.
<mgrwt>
<rscale>  0 0.13244557E+03</rscale>
<asrwt>0</asrwt>
<pdfrwt beam="1">  1        5 0.81258244E-02 0.13244637E+03</pdfrwt>
<pdfrwt beam="2">  1       -5 0.51180549E-01 0.13244637E+03</pdfrwt>
<totfact> 0.29781471E+02</totfact>
</mgrwt>
</event>
<event>
 8    1  0.1821556E-007  0.1515418E+03  0.7546771E-02  0.1198595E+00
         -5   -1    0    0    0  501 -0.00000000000E+00  0.00000000000E+00  0.27269541184E+03  0.27273591190E+03  0.47000000000E+01 0. -1.
          5   -1    0    0  501    0  0.00000000000E+00 -0.00000000000E+00 -0.87738780849E+02  0.87864575711E+02  0.47000000000E+01 0. -1.
         25    2    1    2    0    0  0.75091921974E+02 -0.41246373554E+02  0.12918437872E+03  0.19912149775E+03  0.12498282716E+03 0.  0.
         25    2    1    2    0    0 -0.75091921974E+02  0.41246373554E+02  0.55772252274E+02  0.16147898986E+03  0.12499943986E+03 0.  0.
          5    1    4    4  502    0 -0.44188382686E+02  0.16979585426E+02 -0.37230013094E+02  0.60407643230E+02  0.47000000000E+01 0.  1.
         -5    1    4    4    0  502 -0.30903539288E+02  0.24266788128E+02  0.93002265368E+02  0.10107134663E+03  0.47000000000E+01 0.  1.
          5    1    3    3  503    0  0.88519539882E+02 -0.70826568766E+02  0.75803319769E+02  0.13645638524E+03  0.47000000000E+01 0. -1.
         -5    1    3    3    0  503 -0.13427617908E+02  0.29580195212E+02  0.53381058952E+02  0.62665112514E+02  0.47000000000E+01 0. -1.
<mgrwt>
<rscale>  0 0.15153838E+03</rscale>
<asrwt>0</asrwt>
<pdfrwt beam="2">  1        5 0.13511066E-01 0.15154181E+03</pdfrwt>
<pdfrwt beam="1">  1       -5 0.41965932E-01 0.15154181E+03</pdfrwt>
<totfact> 0.19362070E+02</totfact>
</mgrwt>
</event>
<event>
 8    1  0.1821556E-007  0.1426508E+03  0.7546771E-02  0.1209813E+00
         -5   -1    0    0    0  501 -0.00000000000E+00  0.00000000000E+00  0.17337934797E+04  0.17337998501E+04  0.47000000000E+01 0. -1.
          5   -1    0    0  501    0  0.00000000000E+00 -0.00000000000E+00 -0.11286678745E+02  0.12226165265E+02  0.47000000000E+01 0. -1.
         25    2    1    2    0    0  0.61214455345E+02 -0.31204940473E+02  0.90374368536E+03  0.91493272267E+03  0.12501312064E+03 0.  0.
         25    2    1    2    0    0 -0.61214455345E+02  0.31204940473E+02  0.81876311558E+03  0.83109329269E+03  0.12498825493E+03 0.  0.
          5    1    4    4  502    0 -0.23201861156E+02  0.57294452558E+02  0.17484584714E+03  0.18551048735E+03  0.47000000000E+01 0. -1.
         -5    1    4    4    0  502 -0.38012594188E+02 -0.26089512085E+02  0.64391726843E+03  0.64558280533E+03  0.47000000000E+01 0. -1.
          5    1    3    3  503    0 -0.36579306491E+02 -0.24502779495E+02  0.25713176522E+03  0.26091620600E+03  0.47000000000E+01 0. -1.
         -5    1    3    3    0  503  0.97793761836E+02 -0.67021609776E+01  0.64661192014E+03  0.65401651667E+03  0.47000000000E+01 0. -1.
<mgrwt>
<rscale>  0 0.14264531E+03</rscale>
<asrwt>0</asrwt>
<pdfrwt beam="2">  1        5 0.18091696E-02 0.14265076E+03</pdfrwt>
<pdfrwt beam="1">  1       -5 0.26681032E+00 0.14265076E+03</pdfrwt>
<totfact> 0.44499195E+01</totfact>
</mgrwt>
</event>
<event>
 8    1  0.1821556E-007  0.1577005E+03  0.7546771E-02  0.1191319E+00
         -5   -1    0    0    0  501 -0.00000000000E+00  0.00000000000E+00  0.58740489735E+02  0.58928220187E+02  0.47000000000E+01 0.  1.
          5   -1    0    0  501    0  0.00000000000E+00 -0.00000000000E+00 -0.45111971089E+03  0.45114419374E+03  0.47000000000E+01 0.  1.
         25    2    1    2    0    0 -0.26149920030E+00 -0.96135237452E+02 -0.13194637240E+03  0.20561435495E+03  0.12500146203E+03 0.  0.
         25    2    1    2    0    0  0.26149920030E+00  0.96135237452E+02 -0.26043284875E+03  0.30445805898E+03  0.12500955447E+03 0.  0.
          5    1    4    4  502    0 -0.38965559065E+01  0.29059593371E+02  0.54353513371E+01  0.30187350976E+02  0.47000000000E+01 0. -1.
         -5    1    4    4    0  502  0.41580551068E+01  0.67075644081E+02 -0.26586820009E+03  0.27427070801E+03  0.47000000000E+01 0. -1.
          5    1    3    3  503    0  0.37940562169E+02  0.11091571932E+02 -0.55955095301E+02  0.68670021958E+02  0.47000000000E+01 0. -1.
         -5    1    3    3    0  503 -0.38202061369E+02 -0.10722680938E+03 -0.75991277097E+02  0.13694433299E+03  0.47000000000E+01 0. -1.
<mgrwt>
<rscale>  0 0.15769887E+03</rscale>
<asrwt>0</asrwt>
<pdfrwt beam="2">  1        5 0.69419354E-01 0.15770048E+03</pdfrwt>
<pdfrwt beam="1">  1       -5 0.90533228E-02 0.15770048E+03</pdfrwt>
<totfact> 0.13436474E+02</totfact>
</mgrwt>
</event>
<event>
 8    1  0.1821556E-007  0.1317177E+03  0.7546771E-02  0.1224929E+00
         -5   -1    0    0    0  501 -0.00000000000E+00  0.00000000000E+00  0.62656445448E+03  0.62658208210E+03  0.47000000000E+01 0.  1.
          5   -1    0    0  501    0  0.00000000000E+00 -0.00000000000E+00 -0.27554301774E+02  0.27952272649E+02  0.47000000000E+01 0.  1.
         25    2    1    2    0    0 -0.14427340615E+02 -0.38920242263E+02  0.31723360919E+03  0.34349163148E+03  0.12500561861E+03 0.  0.
         25    2    1    2    0    0  0.14427340615E+02  0.38920242263E+02  0.28177654351E+03  0.31104272327E+03  0.12500648708E+03 0.  0.
          5    1    3    3  502    0 -0.31268409954E+02 -0.70746359111E+02  0.11932323978E+03  0.14227749766E+03  0.47000000000E+01 0.  1.
         -5    1    3    3    0  502  0.16841069340E+02  0.31826116848E+02  0.19791036941E+03  0.20121413382E+03  0.47000000000E+01 0.  1.
          5    1    4    4  503    0  0.25787217149E+02  0.22904408957E+02  0.28785917740E+03  0.28995618381E+03  0.47000000000E+01 0. -1.
         -5    1    4    4    0  503 -0.11359876534E+02  0.16015833305E+02 -0.60826338872E+01  0.21086539459E+02  0.47000000000E+01 0. -1.
<mgrwt>
<rscale>  0 0.13171750E+03</rscale>
<asrwt>0</asrwt>
<pdfrwt beam="2">  1        5 0.42710924E-02 0.13171771E+03</pdfrwt>
<pdfrwt beam="1">  1       -5 0.96426503E-01 0.13171771E+03</pdfrwt>
<totfact> 0.20941536E+02</totfact>
</mgrwt>
</event>
<event>
 8    1  0.1821556E-007  0.1388333E+03  0.7546771E-02  0.1214912E+00
         -5   -1    0    0    0  501 -0.00000000000E+00  0.00000000000E+00  0.41896698244E+03  0.41899334407E+03  0.47000000000E+01 0.  1.
          5   -1    0    0  501    0  0.00000000000E+00 -0.00000000000E+00 -0.76150435307E+02  0.76295339291E+02  0.47000000000E+01 0.  1.
         25    2    1    2    0    0 -0.42659838914E+02  0.42735604703E+02  0.32738398642E+03  0.35560030117E+03  0.12500042345E+03 0.  0.
         25    2    1    2    0    0  0.42659838914E+02 -0.42735604703E+02  0.15432560712E+02  0.13968838219E+03  0.12501394492E+03 0.  0.
          5    1    4    4  502    0 -0.17974450024E+02 -0.24095017535E+02  0.56361310191E+02  0.64049496564E+02  0.47000000000E+01 0. -1.
         -5    1    4    4    0  502  0.60634288937E+02 -0.18640587168E+02 -0.40928749479E+02  0.75638885626E+02  0.47000000000E+01 0. -1.
          5    1    3    3  503    0 -0.14671934079E+02  0.16356078626E+02  0.31370710944E+03  0.31451077480E+03  0.47000000000E+01 0.  1.
         -5    1    3    3    0  503 -0.27987904835E+02  0.26379526077E+02  0.13676876989E+02  0.41089526369E+02  0.47000000000E+01 0.  1.
<mgrwt>
<rscale>  0 0.13883024E+03</rscale>
<asrwt>0</asrwt>
<pdfrwt beam="2">  1        5 0.11728626E-01 0.13883328E+03</pdfrwt>
<pdfrwt beam="1">  1       -5 0.64469633E-01 0.13883328E+03</pdfrwt>
<totfact> 0.96722522E+01</totfact>
</mgrwt>
</event>
<event>
 8    1  0.1821556E-007  0.1313587E+03  0.7546771E-02  0.1225459E+00
         -5   -1    0    0    0  501 -0.00000000000E+00  0.00000000000E+00  0.89805592542E+02  0.89928496328E+02  0.47000000000E+01 0. -1.
          5   -1    0    0  501    0  0.00000000000E+00 -0.00000000000E+00 -0.28597135952E+03  0.28600997966E+03  0.47000000000E+01 0. -1.
         25    2    1    2    0    0 -0.39502494932E+01 -0.40163089347E+02  0.97344045933E+01  0.13170503070E+03  0.12499111273E+03 0.  0.
         25    2    1    2    0    0  0.39502494932E+01  0.40163089347E+02 -0.20590017157E+03  0.24423344529E+03  0.12500566759E+03 0.  0.
          5    1    4    4  502    0  0.58660649462E+01 -0.33231690053E+02 -0.14433573877E+03  0.14830256716E+03  0.47000000000E+01 0. -1.
         -5    1    4    4    0  502 -0.19158154530E+01  0.73394779400E+02 -0.61564432800E+02  0.95930878127E+02  0.47000000000E+01 0. -1.
          5    1    3    3  503    0 -0.48199884049E+01  0.22057175121E+02  0.51627137881E+02  0.56543811583E+02  0.47000000000E+01 0. -1.
         -5    1    3    3    0  503  0.86973891173E+00 -0.62220264468E+02 -0.41892733288E+02  0.75161219113E+02  0.47000000000E+01 0. -1.
<mgrwt>
<rscale>  0 0.13135519E+03</rscale>
<asrwt>0</asrwt>
<pdfrwt beam="2">  1        5 0.44008018E-01 0.13135865E+03</pdfrwt>
<pdfrwt beam="1">  1       -5 0.13828670E-01 0.13135865E+03</pdfrwt>
<totfact> 0.16052517E+02</totfact>
</mgrwt>
</event>
<event>
 8    1  0.1821556E-007  0.1563162E+03  0.7546771E-02  0.1192922E+00
          5   -1    0    0  501    0  0.00000000000E+00  0.00000000000E+00  0.81125030731E+02  0.81261064546E+02  0.47000000000E+01 0. -1.
         -5   -1    0    0    0  501 -0.00000000000E+00 -0.00000000000E+00 -0.31374447538E+03  0.31377967722E+03  0.47000000000E+01 0. -1.
         25    2    1    2    0    0  0.86017976305E+02  0.37526203004E+02 -0.76170400808E+02  0.17388695346E+03  0.12500973748E+03 0.  0.
         25    2    1    2    0    0 -0.86017976305E+02 -0.37526203004E+02 -0.15644904385E+03  0.22115378830E+03  0.12500154639E+03 0.  0.
          5    1    3    3  502    0  0.23568177843E+02  0.14902414607E+02  0.34574000922E+02  0.44665338997E+02  0.47000000000E+01 0.  1.
         -5    1    3    3    0  502  0.62449798462E+02  0.22623788397E+02 -0.11074440173E+03  0.12922161446E+03  0.47000000000E+01 0.  1.
          5    1    4    4  503    0 -0.92011183444E+02 -0.31119058965E+02 -0.17494174453E+03  0.20015283582E+03  0.47000000000E+01 0. -1.
         -5    1    4    4    0  503  0.59932071382E+01 -0.64071440393E+01  0.18492700682E+02  0.21000952480E+02  0.47000000000E+01 0. -1.
<mgrwt>
<rscale>  0 0.15631452E+03</rscale>
<asrwt>0</asrwt>
<pdfrwt beam="1">  1        5 0.12493946E-01 0.15631616E+03</pdfrwt>
<pdfrwt beam="2">  1       -5 0.48281552E-01 0.15631616E+03</pdfrwt>
<totfact> 0.16788960E+02</totfact>
</mgrwt>
</event>
<event>
 8    1  0.1821556E-007  0.1288572E+03  0.7546771E-02  0.1229162E+00
         -5   -1    0    0    0  501 -0.00000000000E+00  0.00000000000E+00  0.19138773411E+03  0.19144543549E+03  0.47000000000E+01 0. -1.
          5   -1    0    0  501    0  0.00000000000E+00 -0.00000000000E+00 -0.87418501787E+02  0.87544756866E+02  0.47000000000E+01 0. -1.
         25    2    1    2    0    0 -0.36577956625E+01  0.31071827232E+02  0.65293523226E+02  0.14445400203E+03  0.12499950644E+03 0.  0.
         25    2    1    2    0    0  0.36577956625E+01 -0.31071827232E+02  0.38675709099E+02  0.13453619032E+03  0.12500135245E+03 0.  0.
          5    1    3    3  502    0  0.15307161726E+02  0.70546085156E+02  0.69362501990E+02  0.10022128523E+03  0.47000000000E+01 0. -1.
         -5    1    3    3    0  502 -0.18964957389E+02 -0.39474257925E+02 -0.40689787639E+01  0.44232716802E+02  0.47000000000E+01 0. -1.
          5    1    4    4  503    0 -0.24760209084E+02  0.40910539031E+02  0.35534879342E+00  0.48051601747E+02  0.47000000000E+01 0.  1.
         -5    1    4    4    0  503  0.28418004747E+02 -0.71982366263E+02  0.38320360305E+02  0.86484588572E+02  0.47000000000E+01 0.  1.
<mgrwt>
<rscale>  0 0.12885674E+03</rscale>
<asrwt>0</asrwt>
<pdfrwt beam="2">  1        5 0.13463151E-01 0.12885719E+03</pdfrwt>
<pdfrwt beam="1">  1       -5 0.29458417E-01 0.12885719E+03</pdfrwt>
<totfact> 0.37509433E+02</totfact>
</mgrwt>
</event>
<event>
 8    1  0.1821556E-007  0.1306114E+03  0.7546771E-02  0.1226552E+00
         -5   -1    0    0    0  501 -0.00000000000E+00  0.00000000000E+00  0.27790355061E+02  0.28184993071E+02  0.47000000000E+01 0. -1.
          5   -1    0    0  501    0  0.00000000000E+00 -0.00000000000E+00 -0.86327529934E+03  0.86328809354E+03  0.47000000000E+01 0. -1.
         25    2    1    2    0    0  0.36025630915E+02  0.11687159370E+02 -0.17593907816E+03  0.21911894154E+03  0.12499646212E+03 0.  0.
         25    2    1    2    0    0 -0.36025630915E+02 -0.11687159370E+02 -0.65954586612E+03  0.67235414507E+03  0.12499964440E+03 0.  0.
          5    1    3    3  502    0 -0.11723649560E+02 -0.50442639540E+02 -0.65758001038E+02  0.83833815034E+02  0.47000000000E+01 0.  1.
         -5    1    3    3    0  502  0.47749280475E+02  0.62129798910E+02 -0.11018107712E+03  0.13528512650E+03  0.47000000000E+01 0.  1.
          5    1    4    4  503    0  0.28635773027E+02 -0.34972476185E+02 -0.11806422816E+03  0.12650823514E+03  0.47000000000E+01 0.  1.
         -5    1    4    4    0  503 -0.64661403942E+02  0.23285316815E+02 -0.54148163796E+03  0.54584590993E+03  0.47000000000E+01 0.  1.
<mgrwt>
<rscale>  0 0.13061067E+03</rscale>
<asrwt>0</asrwt>
<pdfrwt beam="2">  1        5 0.13284291E+00 0.13061143E+03</pdfrwt>
<pdfrwt beam="1">  1       -5 0.43067808E-02 0.13061143E+03</pdfrwt>
<totfact> 0.92248667E+01</totfact>
</mgrwt>
</event>
<event>
 8    1  0.1821556E-007  0.1530608E+03  0.7546771E-02  0.1196771E+00
          5   -1    0    0  501    0  0.00000000000E+00  0.00000000000E+00  0.27558043209E+02  0.27955960822E+02  0.47000000000E+01 0. -1.
         -5   -1    0    0    0  501 -0.00000000000E+00 -0.00000000000E+00 -0.93322316393E+03  0.93323499918E+03  0.47000000000E+01 0. -1.
         25    2    1    2    0    0  0.88266040984E+02  0.19863003427E+01 -0.60190882429E+03  0.62106509095E+03  0.12503109637E+03 0.  0.
         25    2    1    2    0    0 -0.88266040984E+02 -0.19863003427E+01 -0.30375629644E+03  0.34012586905E+03  0.12499151890E+03 0.  0.
          5    1    4    4  502    0 -0.29605796699E+02 -0.60991610252E+02 -0.16218611760E+03  0.17584910140E+03  0.47000000000E+01 0. -1.
         -5    1    4    4    0  502 -0.58660244286E+02  0.59005309909E+02 -0.14157017883E+03  0.16427676766E+03  0.47000000000E+01 0. -1.
          5    1    3    3  503    0  0.47104740474E+02 -0.37437777239E+02 -0.10687450935E+03  0.12273831711E+03  0.47000000000E+01 0.  1.
         -5    1    3    3    0  503  0.41161300511E+02  0.39424077582E+02 -0.49503431494E+03  0.49832677384E+03  0.47000000000E+01 0.  1.
<mgrwt>
<rscale>  0 0.15305274E+03</rscale>
<asrwt>0</asrwt>
<pdfrwt beam="1">  1        5 0.42712191E-02 0.15306082E+03</pdfrwt>
<pdfrwt beam="2">  1       -5 0.14360429E+00 0.15306082E+03</pdfrwt>
<totfact> 0.79834608E+01</totfact>
</mgrwt>
</event>
<event>
 8    1  0.1821556E-007  0.1340167E+03  0.7546771E-02  0.1221627E+00
          5   -1    0    0  501    0  0.00000000000E+00  0.00000000000E+00  0.37517396055E+03  0.37520339907E+03  0.47000000000E+01 0. -1.
         -5   -1    0    0    0  501 -0.00000000000E+00 -0.00000000000E+00 -0.47882654693E+02  0.48112769828E+02  0.47000000000E+01 0. -1.
         25    2    1    2    0    0 -0.24139862499E+02 -0.41884550776E+02  0.15112191321E+03  0.20198590179E+03  0.12499369309E+03 0.  0.
         25    2    1    2    0    0  0.24139862499E+02  0.41884550776E+02  0.17616939264E+03  0.22133026711E+03  0.12495752750E+03 0.  0.
          5    1    4    4  502    0 -0.34012241104E+02  0.51250100725E+02  0.41726803769E+02  0.74475643818E+02  0.47000000000E+01 0.  1.
         -5    1    4    4    0  502  0.58152103603E+02 -0.93655499496E+01  0.13444258888E+03  0.14685462329E+03  0.47000000000E+01 0.  1.
          5    1    3    3  503    0 -0.21036678567E+00 -0.83002168524E+02  0.74271625787E+02  0.11147990236E+03  0.47000000000E+01 0. -1.
         -5    1    3    3    0  503 -0.23929495713E+02  0.41117617748E+02  0.76850287424E+02  0.90505999423E+02  0.47000000000E+01 0. -1.
<mgrwt>
<rscale>  0 0.13400825E+03</rscale>
<asrwt>0</asrwt>
<pdfrwt beam="1">  1        5 0.57739035E-01 0.13401669E+03</pdfrwt>
<pdfrwt beam="2">  1       -5 0.73865281E-02 0.13401669E+03</pdfrwt>
<totfact> 0.27165249E+02</totfact>
</mgrwt>
</event>
<event>
 8    1  0.1821556E-007  0.1409033E+03  0.7546771E-02  0.1212120E+00
         -5   -1    0    0    0  501 -0.00000000000E+00  0.00000000000E+00  0.83726688435E+02  0.83858501992E+02  0.47000000000E+01 0.  1.
          5   -1    0    0  501    0  0.00000000000E+00 -0.00000000000E+00 -0.29155377892E+03  0.29159165969E+03  0.47000000000E+01 0.  1.
         25    2    1    2    0    0  0.58141223758E+02  0.29122998994E+02 -0.22568306559E+02  0.14269588389E+03  0.12499694335E+03 0.  0.
         25    2    1    2    0    0 -0.58141223758E+02 -0.29122998994E+02 -0.18525878392E+03  0.23275427779E+03  0.12500074336E+03 0.  0.
          5    1    3    3  502    0  0.26552244331E+02 -0.34907524740E+02  0.30485970074E+02  0.53619411912E+02  0.47000000000E+01 0.  1.
         -5    1    3    3    0  502  0.31588979427E+02  0.64030523734E+02 -0.53054276633E+02  0.89076471977E+02  0.47000000000E+01 0.  1.
          5    1    4    4  503    0 -0.20987607046E+02  0.45035675488E+02 -0.34668168232E+02  0.60767290583E+02  0.47000000000E+01 0. -1.
         -5    1    4    4    0  503 -0.37153616712E+02 -0.74158674482E+02 -0.15059061569E+03  0.17198698721E+03  0.47000000000E+01 0. -1.
<mgrwt>
<rscale>  0 0.14090245E+03</rscale>
<asrwt>0</asrwt>
<pdfrwt beam="2">  1        5 0.44867480E-01 0.14090329E+03</pdfrwt>
<pdfrwt beam="1">  1       -5 0.12894083E-01 0.14090329E+03</pdfrwt>
<totfact> 0.17892376E+02</totfact>
</mgrwt>
</event>
<event>
 8    1  0.1821556E-007  0.1367147E+03  0.7546771E-02  0.1217819E+00
          5   -1    0    0  501    0  0.00000000000E+00  0.00000000000E+00  0.30670609899E+03  0.30674210855E+03  0.47000000000E+01 0.  1.
         -5   -1    0    0    0  501 -0.00000000000E+00 -0.00000000000E+00 -0.61632514178E+02  0.61811461751E+02  0.47000000000E+01 0.  1.
         25    2    1    2    0    0  0.30468794349E+02 -0.46230816301E+02  0.14378521360E+03  0.19840588725E+03  0.12500029056E+03 0.  0.
         25    2    1    2    0    0 -0.30468794349E+02  0.46230816301E+02  0.10128837120E+03  0.17014768305E+03  0.12500105640E+03 0.  0.
          5    1    4    4  502    0 -0.64665769114E+02  0.12151717209E+02  0.10219123491E+03  0.12163249738E+03  0.47000000000E+01 0. -1.
         -5    1    4    4    0  502  0.34196974766E+02  0.34079099091E+02 -0.90286370034E+00  0.48515185673E+02  0.47000000000E+01 0. -1.
          5    1    3    3  503    0 -0.18888663582E+02  0.22451153737E+01 -0.15303811466E+02  0.24861995099E+02  0.47000000000E+01 0. -1.
         -5    1    3    3    0  503  0.49357457931E+02 -0.48475931674E+02  0.15908902507E+03  0.17354389215E+03  0.47000000000E+01 0. -1.
<mgrwt>
<rscale>  0 0.13671449E+03</rscale>
<asrwt>0</asrwt>
<pdfrwt beam="1">  1        5 0.47202088E-01 0.13671467E+03</pdfrwt>
<pdfrwt beam="2">  1       -5 0.94984606E-02 0.13671467E+03</pdfrwt>
<totfact> 0.27282843E+02</totfact>
</mgrwt>
</event>
<event>
 8    1  0.1821556E-007  0.1440484E+03  0.7546771E-02  0.1207984E+00
         -5   -1    0    0    0  501 -0.00000000000E+00  0.00000000000E+00  0.50631183035E+02  0.50848861300E+02  0.47000000000E+01 0.  1.
          5   -1    0    0  501    0  0.00000000000E+00 -0.00000000000E+00 -0.40937218878E+03  0.40939916823E+03  0.47000000000E+01 0.  1.
         25    2    1    2    0    0 -0.79392906323E+01 -0.71134715175E+02 -0.17010883591E+03  0.22290573928E+03  0.12500708983E+03 0.  0.
         25    2    1    2    0    0  0.79392906323E+01  0.71134715175E+02 -0.18863216984E+03  0.23734229025E+03  0.12500434875E+03 0.  0.
          5    1    4    4  502    0  0.56791817515E+02  0.72780039610E+02 -0.10117967132E+03  0.13704619875E+03  0.47000000000E+01 0. -1.
         -5    1    4    4    0  502 -0.48852526882E+02 -0.16453244350E+01 -0.87452498512E+02  0.10029609151E+03  0.47000000000E+01 0. -1.
          5    1    3    3  503    0  0.12689227345E+02  0.16885955242E+00 -0.14315940584E+03  0.14379760250E+03  0.47000000000E+01 0. -1.
         -5    1    3    3    0  503 -0.20628517977E+02 -0.71303574727E+02 -0.26949430068E+02  0.79108136774E+02  0.47000000000E+01 0. -1.
<mgrwt>
<rscale>  0 0.14404784E+03</rscale>
<asrwt>0</asrwt>
<pdfrwt beam="2">  1        5 0.62999154E-01 0.14404844E+03</pdfrwt>
<pdfrwt beam="1">  1       -5 0.78082329E-02 0.14404844E+03</pdfrwt>
<totfact> 0.20911805E+02</totfact>
</mgrwt>
</event>
<event>
 8    1  0.1821556E-007  0.1288795E+03  0.7546771E-02  0.1229130E+00
          5   -1    0    0  501    0  0.00000000000E+00  0.00000000000E+00  0.76155737114E+03  0.76157187417E+03  0.47000000000E+01 0. -1.
         -5   -1    0    0    0  501 -0.00000000000E+00 -0.00000000000E+00 -0.21617614060E+02  0.22122640838E+02  0.47000000000E+01 0. -1.
         25    2    1    2    0    0 -0.31337593598E+02 -0.11124085257E+01  0.34695295061E+03  0.37011433256E+03  0.12499994801E+03 0.  0.
         25    2    1    2    0    0  0.31337593598E+02  0.11124085257E+01  0.39298680647E+03  0.41358018245E+03  0.12500661997E+03 0.  0.
          5    1    4    4  502    0  0.69845695164E+02 -0.65555778026E+01  0.34148410794E+03  0.34864721813E+03  0.47000000000E+01 0.  1.
         -5    1    4    4    0  502 -0.38508101566E+02  0.76679863283E+01  0.51502698531E+02  0.64932964329E+02  0.47000000000E+01 0.  1.
          5    1    3    3  503    0 -0.59752779507E+02 -0.42923714318E+02  0.15624914209E+03  0.17276783356E+03  0.47000000000E+01 0. -1.
         -5    1    3    3    0  503  0.28415185909E+02  0.41811305793E+02  0.19070380852E+03  0.19734649900E+03  0.47000000000E+01 0. -1.
<mgrwt>
<rscale>  0 0.12887793E+03</rscale>
<asrwt>0</asrwt>
<pdfrwt beam="1">  1        5 0.11720263E+00 0.12887955E+03</pdfrwt>
<pdfrwt beam="2">  1       -5 0.33657509E-02 0.12887955E+03</pdfrwt>
<totfact> 0.18957107E+02</totfact>
</mgrwt>
</event>
<event>
 8    1  0.1821556E-007  0.1812105E+03  0.7546771E-02  0.1166637E+00
         -5   -1    0    0    0  501 -0.00000000000E+00  0.00000000000E+00  0.24380056277E+03  0.24384586199E+03  0.47000000000E+01 0.  1.
          5   -1    0    0  501    0  0.00000000000E+00 -0.00000000000E+00 -0.15716035167E+03  0.15723061451E+03  0.47000000000E+01 0.  1.
         25    2    1    2    0    0 -0.11599580244E+03 -0.61288127473E+02  0.11928926059E+03  0.21694820030E+03  0.12500133267E+03 0.  0.
         25    2    1    2    0    0  0.11599580244E+03  0.61288127473E+02 -0.32649049495E+02  0.18412827619E+03  0.12500400357E+03 0.  0.
          5    1    4    4  502    0  0.12056273965E+03  0.15495854657E+02 -0.54105876999E+02  0.13313538834E+03  0.47000000000E+01 0.  1.
         -5    1    4    4    0  502 -0.45669372046E+01  0.45792272816E+02  0.21456827504E+02  0.50992887853E+02  0.47000000000E+01 0.  1.
          5    1    3    3  503    0 -0.99541387613E+02 -0.11085881567E+02  0.16961341183E+02  0.10169150266E+03  0.47000000000E+01 0.  1.
         -5    1    3    3    0  503 -0.16454414827E+02 -0.50202245906E+02  0.10232791941E+03  0.11525669764E+03  0.47000000000E+01 0.  1.
<mgrwt>
<rscale>  0 0.18121008E+03</rscale>
<asrwt>0</asrwt>
<pdfrwt beam="2">  1        5 0.24187405E-01 0.18121055E+03</pdfrwt>
<pdfrwt beam="1">  1       -5 0.37516668E-01 0.18121055E+03</pdfrwt>
<totfact> 0.87435820E+01</totfact>
</mgrwt>
</event>
<event>
 8    1  0.1821556E-007  0.1262122E+03  0.7546771E-02  0.1233189E+00
          5   -1    0    0  501    0  0.00000000000E+00  0.00000000000E+00  0.40084645641E+02  0.40359246972E+02  0.47000000000E+01 0. -1.
         -5   -1    0    0    0  501 -0.00000000000E+00 -0.00000000000E+00 -0.44236175606E+03  0.44238672361E+03  0.47000000000E+01 0. -1.
         25    2    1    2    0    0  0.36639282396E+01  0.17052606304E+02 -0.27947094796E+03  0.30664695923E+03  0.12499652437E+03 0.  0.
         25    2    1    2    0    0 -0.36639282396E+01 -0.17052606304E+02 -0.12280616247E+03  0.17609901135E+03  0.12500117002E+03 0.  0.
          5    1    3    3  502    0  0.18491791020E+02  0.21673413361E+02 -0.28721794857E+03  0.28866576375E+03  0.47000000000E+01 0.  1.
         -5    1    3    3    0  502 -0.14827862780E+02 -0.46208070569E+01  0.77470006131E+01  0.17981195482E+02  0.47000000000E+01 0.  1.
          5    1    4    4  503    0 -0.30109560886E+02  0.45390496334E+02 -0.34448225856E+02  0.64619293395E+02  0.47000000000E+01 0.  1.
         -5    1    4    4    0  503  0.26445632647E+02 -0.62443102638E+02 -0.88357936611E+02  0.11147971795E+03  0.47000000000E+01 0.  1.
<mgrwt>
<rscale>  0 0.12621101E+03</rscale>
<asrwt>0</asrwt>
<pdfrwt beam="1">  1        5 0.61899127E-02 0.12621216E+03</pdfrwt>
<pdfrwt beam="2">  1       -5 0.68078695E-01 0.12621216E+03</pdfrwt>
<totfact> 0.24944539E+02</totfact>
</mgrwt>
</event>
<event>
 8    1  0.1821556E-007  0.1258821E+03  0.7546771E-02  0.1233701E+00
          5   -1    0    0  501    0  0.00000000000E+00  0.00000000000E+00  0.12594520674E+02  0.13442914528E+02  0.47000000000E+01 0.  1.
         -5   -1    0    0    0  501 -0.00000000000E+00 -0.00000000000E+00 -0.12918834276E+04  0.12918919772E+04  0.47000000000E+01 0.  1.
         25    2    1    2    0    0  0.85119320688E+01 -0.11942198477E+02 -0.79749459950E+03  0.80736695625E+03  0.12501478604E+03 0.  0.
         25    2    1    2    0    0 -0.85119320688E+01  0.11942198477E+02 -0.48179430747E+03  0.49796793543E+03  0.12502496113E+03 0.  0.
          5    1    4    4  502    0  0.36616496217E+01 -0.45818981156E+02 -0.84704087235E+02  0.96486574747E+02  0.47000000000E+01 0. -1.
         -5    1    4    4    0  502 -0.12173581690E+02  0.57761179632E+02 -0.39709022024E+03  0.40148136068E+03  0.47000000000E+01 0. -1.
          5    1    3    3  503    0  0.23330468532E+02 -0.21167205488E+02 -0.47710660343E+02  0.57365132794E+02  0.47000000000E+01 0. -1.
         -5    1    3    3    0  503 -0.14818536463E+02  0.92250070110E+01 -0.74978393916E+03  0.75000182346E+03  0.47000000000E+01 0. -1.
<mgrwt>
<rscale>  0 0.12587960E+03</rscale>
<asrwt>0</asrwt>
<pdfrwt beam="1">  1        5 0.20035383E-02 0.12588213E+03</pdfrwt>
<pdfrwt beam="2">  1       -5 0.19881712E+00 0.12588213E+03</pdfrwt>
<totfact> 0.10025231E+02</totfact>
</mgrwt>
</event>
<event>
 8    1  0.1821556E-007  0.1634474E+03  0.7546771E-02  0.1184865E+00
          5   -1    0    0  501    0  0.00000000000E+00  0.00000000000E+00  0.43273919757E+03  0.43276472028E+03  0.47000000000E+01 0. -1.
         -5   -1    0    0    0  501 -0.00000000000E+00 -0.00000000000E+00 -0.61610185056E+02  0.61789197297E+02  0.47000000000E+01 0. -1.
         25    2    1    2    0    0 -0.66871035272E+02  0.81347198413E+02  0.18505315407E+03  0.24690025284E+03  0.12500385184E+03 0.  0.
         25    2    1    2    0    0  0.66871035272E+02 -0.81347198413E+02  0.18607585845E+03  0.24765366473E+03  0.12497603974E+03 0.  0.
          5    1    3    3  502    0 -0.47862567812E+02 -0.16137771812E+02  0.11373769743E+03  0.12453757221E+03  0.47000000000E+01 0.  1.
         -5    1    3    3    0  502 -0.19008467460E+02  0.97484970225E+02  0.71315456639E+02  0.12236268063E+03  0.47000000000E+01 0.  1.
          5    1    4    4  503    0  0.24161203637E+02  0.69012041242E+01  0.13424297949E+03  0.13665525209E+03  0.47000000000E+01 0. -1.
         -5    1    4    4    0  503  0.42709831635E+02 -0.88248402538E+02  0.51832878957E+02  0.11099841264E+03  0.47000000000E+01 0. -1.
<mgrwt>
<rscale>  0 0.16344212E+03</rscale>
<asrwt>0</asrwt>
<pdfrwt beam="1">  1        5 0.66590990E-01 0.16344744E+03</pdfrwt>
<pdfrwt beam="2">  1       -5 0.94942241E-02 0.16344744E+03</pdfrwt>
<totfact> 0.13731865E+02</totfact>
</mgrwt>
</event>
<event>
 8    1  0.1821556E-007  0.1734585E+03  0.7546771E-02  0.1174289E+00
          5   -1    0    0  501    0  0.00000000000E+00  0.00000000000E+00  0.56660163118E+02  0.56854763077E+02  0.47000000000E+01 0.  1.
         -5   -1    0    0    0  501 -0.00000000000E+00 -0.00000000000E+00 -0.82647311828E+03  0.82648648219E+03  0.47000000000E+01 0.  1.
         25    2    1    2    0    0  0.11799741028E+03  0.23218249940E+02 -0.64944648539E+03  0.67221170237E+03  0.12500143781E+03 0.  0.
         25    2    1    2    0    0 -0.11799741028E+03 -0.23218249940E+02 -0.12036646978E+03  0.21112954290E+03  0.12500048350E+03 0.  0.
          5    1    4    4  502    0 -0.74982634100E+02  0.69683611964E-01 -0.13946112319E+03  0.15841052728E+03  0.47000000000E+01 0. -1.
         -5    1    4    4    0  502 -0.43014776179E+02 -0.23287933552E+02  0.19094653412E+02  0.52719015618E+02  0.47000000000E+01 0. -1.
          5    1    3    3  503    0  0.13976311735E+03  0.16158281126E+02 -0.61273815225E+03  0.62870100385E+03  0.47000000000E+01 0.  1.
         -5    1    3    3    0  503 -0.21765707067E+02  0.70599688133E+01 -0.36708333137E+02  0.43510698517E+02  0.47000000000E+01 0.  1.
<mgrwt>
<rscale>  0 0.17345828E+03</rscale>
<asrwt>0</asrwt>
<pdfrwt beam="1">  1        5 0.87329460E-02 0.17345845E+03</pdfrwt>
<pdfrwt beam="2">  1       -5 0.12716570E+00 0.17345845E+03</pdfrwt>
<totfact> 0.34094439E+01</totfact>
</mgrwt>
</event>
<event>
 8    1  0.1821556E-007  0.1325355E+03  0.7546771E-02  0.1223743E+00
          5   -1    0    0  501    0  0.00000000000E+00  0.00000000000E+00  0.15478609731E+02  0.16176444578E+02  0.47000000000E+01 0. -1.
         -5   -1    0    0    0  501 -0.00000000000E+00 -0.00000000000E+00 -0.11274114147E+04  0.11274212114E+04  0.47000000000E+01 0. -1.
         25    2    1    2    0    0  0.43239786428E+02 -0.83680696511E+01 -0.62885106072E+03  0.64266488872E+03  0.12499919566E+03 0.  0.
         25    2    1    2    0    0 -0.43239786428E+02  0.83680696511E+01 -0.48308174423E+03  0.50093276727E+03  0.12500384791E+03 0.  0.
          5    1    3    3  502    0  0.43248445943E+02  0.53648750477E+02 -0.37483384994E+03  0.38114448909E+03  0.47000000000E+01 0. -1.
         -5    1    3    3    0  502 -0.86595145170E-02 -0.62016820128E+02 -0.25401721078E+03  0.26152039963E+03  0.47000000000E+01 0. -1.
          5    1    4    4  503    0 -0.36813932577E+02  0.20943013829E+02 -0.42791492683E+02  0.60391036637E+02  0.47000000000E+01 0.  1.
         -5    1    4    4    0  503 -0.64258538514E+01 -0.12574944178E+02 -0.44029025155E+03  0.44054173063E+03  0.47000000000E+01 0.  1.
<mgrwt>
<rscale>  0 0.13253443E+03</rscale>
<asrwt>0</asrwt>
<pdfrwt beam="1">  1        5 0.24357587E-02 0.13253553E+03</pdfrwt>
<pdfrwt beam="2">  1       -5 0.17350228E+00 0.13253553E+03</pdfrwt>
<totfact> 0.11220179E+02</totfact>
</mgrwt>
</event>
<event>
 8    1  0.1821556E-007  0.1412667E+03  0.7546771E-02  0.1211650E+00
         -5   -1    0    0    0  501 -0.00000000000E+00  0.00000000000E+00  0.44806810276E+03  0.44809275235E+03  0.47000000000E+01 0.  1.
          5   -1    0    0  501    0  0.00000000000E+00 -0.00000000000E+00 -0.10085128660E+03  0.10096074489E+03  0.47000000000E+01 0.  1.
         25    2    1    2    0    0  0.54604484657E+02 -0.36578688638E+02  0.37882681847E+03  0.40429346648E+03  0.12499519369E+03 0.  0.
         25    2    1    2    0    0 -0.54604484657E+02  0.36578688638E+02 -0.31610002307E+02  0.14476003076E+03  0.12504648757E+03 0.  0.
          5    1    3    3  502    0 -0.22999185275E+02 -0.18698537932E+02  0.25651748329E+03  0.25826712349E+03  0.47000000000E+01 0.  1.
         -5    1    3    3    0  502  0.77603669932E+02 -0.17880150707E+02  0.12230933518E+03  0.14602634299E+03  0.47000000000E+01 0.  1.
          5    1    4    4  503    0  0.11442057159E+01  0.33033192674E+02  0.41098574231E+02  0.52949823690E+02  0.47000000000E+01 0.  1.
         -5    1    4    4    0  503 -0.55748690373E+02  0.35454959641E+01 -0.72708576538E+02  0.91810207069E+02  0.47000000000E+01 0.  1.
<mgrwt>
<rscale>  0 0.14125533E+03</rscale>
<asrwt>0</asrwt>
<pdfrwt beam="2">  1        5 0.15525898E-01 0.14126668E+03</pdfrwt>
<pdfrwt beam="1">  1       -5 0.68943871E-01 0.14126668E+03</pdfrwt>
<totfact> 0.50636642E+01</totfact>
</mgrwt>
</event>
<event>
 8    1  0.1821556E-007  0.1535944E+03  0.7546771E-02  0.1196125E+00
          5   -1    0    0  501    0  0.00000000000E+00  0.00000000000E+00  0.10427639440E+03  0.10438226109E+03  0.47000000000E+01 0.  1.
         -5   -1    0    0    0  501 -0.00000000000E+00 -0.00000000000E+00 -0.22657373048E+03  0.22662247316E+03  0.47000000000E+01 0.  1.
         25    2    1    2    0    0  0.79204693824E+02 -0.41146149975E+02 -0.52754311995E+02  0.16240022899E+03  0.12499771102E+03 0.  0.
         25    2    1    2    0    0 -0.79204693824E+02  0.41146149975E+02 -0.69543024078E+02  0.16860450526E+03  0.12499943126E+03 0.  0.
          5    1    3    3  502    0  0.29415172634E+02 -0.57579680212E+02  0.24170278130E+02  0.69187891276E+02  0.47000000000E+01 0.  1.
         -5    1    3    3    0  502  0.49789521190E+02  0.16433530236E+02 -0.76924590125E+02  0.93212337715E+02  0.47000000000E+01 0.  1.
          5    1    4    4  503    0 -0.43371617625E+02 -0.40017483739E+02 -0.62700577793E+01  0.59530663063E+02  0.47000000000E+01 0.  1.
         -5    1    4    4    0  503 -0.35833076199E+02  0.81163633714E+02 -0.63272966299E+02  0.10907384220E+03  0.47000000000E+01 0.  1.
<mgrwt>
<rscale>  0 0.15359407E+03</rscale>
<asrwt>0</asrwt>
<pdfrwt beam="1">  1        5 0.16054415E-01 0.15359442E+03</pdfrwt>
<pdfrwt beam="2">  1       -5 0.34869390E-01 0.15359442E+03</pdfrwt>
<totfact> 0.20749183E+02</totfact>
</mgrwt>
</event>
<event>
 8    1  0.1821556E-007  0.1305809E+03  0.7546771E-02  0.1226597E+00
         -5   -1    0    0    0  501 -0.00000000000E+00  0.00000000000E+00  0.11881097970E+03  0.11890390615E+03  0.47000000000E+01 0.  1.
          5   -1    0    0  501    0  0.00000000000E+00 -0.00000000000E+00 -0.14453560652E+03  0.14461200349E+03  0.47000000000E+01 0.  1.
         25    2    1    2    0    0  0.27225103368E+02  0.26337783491E+02 -0.82518376637E+00  0.13058346531E+03  0.12496589691E+03 0.  0.
         25    2    1    2    0    0 -0.27225103368E+02 -0.26337783491E+02 -0.24899443055E+02  0.13293244433E+03  0.12496466460E+03 0.  0.
          5    1    3    3  502    0 -0.15390464063E+02  0.29599265559E+02 -0.53106579190E+02  0.62891825057E+02  0.47000000000E+01 0.  1.
         -5    1    3    3    0  502  0.42615567431E+02 -0.32614820682E+01  0.52281395423E+02  0.67691640253E+02  0.47000000000E+01 0.  1.
          5    1    4    4  503    0 -0.67541739772E+02 -0.46683597884E+02 -0.29330457317E+02  0.87313290221E+02  0.47000000000E+01 0.  1.
         -5    1    4    4    0  503  0.40316636404E+02  0.20345814393E+02  0.44310142615E+01  0.45619154109E+02  0.47000000000E+01 0.  1.
<mgrwt>
<rscale>  0 0.13058056E+03</rscale>
<asrwt>0</asrwt>
<pdfrwt beam="2">  1        5 0.22249272E-01 0.13058086E+03</pdfrwt>
<pdfrwt beam="1">  1       -5 0.18291637E-01 0.13058086E+03</pdfrwt>
<totfact> 0.37025488E+02</totfact>
</mgrwt>
</event>
<event>
 8    1  0.1821556E-007  0.1308115E+03  0.7546771E-02  0.1226265E+00
          5   -1    0    0  501    0  0.00000000000E+00  0.00000000000E+00  0.42206967403E+02  0.42467847807E+02  0.47000000000E+01 0. -1.
         -5   -1    0    0    0  501 -0.00000000000E+00 -0.00000000000E+00 -0.42022121473E+03  0.42024749768E+03  0.47000000000E+01 0. -1.
         25    2    1    2    0    0  0.26930583657E+02  0.27564925581E+02 -0.23467398318E+03  0.26865844778E+03  0.12498160555E+03 0.  0.
         25    2    1    2    0    0 -0.26930583657E+02 -0.27564925581E+02 -0.14334026414E+03  0.19405689770E+03  0.12500626689E+03 0.  0.
          5    1    4    4  502    0 -0.71114810090E+02 -0.15468728926E+02 -0.12452830003E+03  0.14431211071E+03  0.47000000000E+01 0.  1.
         -5    1    4    4    0  502  0.44184226433E+02 -0.12096196655E+02 -0.18811964111E+02  0.49744786990E+02  0.47000000000E+01 0.  1.
          5    1    3    3  503    0 -0.21287755190E+02 -0.41023965288E+02 -0.74258275351E+02  0.87592897583E+02  0.47000000000E+01 0. -1.
         -5    1    3    3    0  503  0.48218338847E+02  0.68588890869E+02 -0.16041570783E+03  0.18106555020E+03  0.47000000000E+01 0. -1.
<mgrwt>
<rscale>  0 0.13080561E+03</rscale>
<asrwt>0</asrwt>
<pdfrwt beam="1">  1        5 0.65154694E-02 0.13081150E+03</pdfrwt>
<pdfrwt beam="2">  1       -5 0.64671504E-01 0.13081150E+03</pdfrwt>
<totfact> 0.25983929E+02</totfact>
</mgrwt>
</event>
<event>
 8    1  0.1821556E-007  0.1503795E+03  0.7546771E-02  0.1200008E+00
         -5   -1    0    0    0  501 -0.00000000000E+00  0.00000000000E+00  0.55691972155E+03  0.55693955350E+03  0.47000000000E+01 0.  1.
          5   -1    0    0  501    0  0.00000000000E+00 -0.00000000000E+00 -0.41437085033E+02  0.41702781874E+02  0.47000000000E+01 0.  1.
         25    2    1    2    0    0  0.78346719803E+02 -0.29155490816E+02  0.30381074743E+03  0.33899108270E+03  0.12500293097E+03 0.  0.
         25    2    1    2    0    0 -0.78346719803E+02  0.29155490816E+02  0.21167188910E+03  0.25965125268E+03  0.12500213292E+03 0.  0.
          5    1    4    4  502    0 -0.31347821628E+02 -0.28743728406E+01 -0.78917750843E+01  0.32792042542E+02  0.47000000000E+01 0.  1.
         -5    1    4    4    0  502 -0.46998898175E+02  0.32029863657E+02  0.21956366418E+03  0.22685921014E+03  0.47000000000E+01 0.  1.
          5    1    3    3  503    0 -0.10376966717E+02 -0.35634815100E+02  0.21922556445E+02  0.43361387969E+02  0.47000000000E+01 0. -1.
         -5    1    3    3    0  503  0.88723686520E+02  0.64793242840E+01  0.28188819098E+03  0.29562969473E+03  0.47000000000E+01 0. -1.
<mgrwt>
<rscale>  0 0.15037930E+03</rscale>
<asrwt>0</asrwt>
<pdfrwt beam="2">  1        5 0.63968998E-02 0.15037947E+03</pdfrwt>
<pdfrwt beam="1">  1       -5 0.85701923E-01 0.15037947E+03</pdfrwt>
<totfact> 0.14766245E+02</totfact>
</mgrwt>
</event>
<event>
 8    1  0.1821556E-007  0.1273511E+03  0.7546771E-02  0.1231458E+00
         -5   -1    0    0    0  501 -0.00000000000E+00  0.00000000000E+00  0.14986102598E+03  0.14993470949E+03  0.47000000000E+01 0.  1.
          5   -1    0    0  501    0  0.00000000000E+00 -0.00000000000E+00 -0.10854337475E+03  0.10864508366E+03  0.47000000000E+01 0.  1.
         25    2    1    2    0    0  0.18559271166E+02 -0.15503916252E+02  0.29541892548E+02  0.13073269558E+03  0.12503398063E+03 0.  0.
         25    2    1    2    0    0 -0.18559271166E+02  0.15503916252E+02  0.11775758684E+02  0.12784709756E+03  0.12498557476E+03 0.  0.
          5    1    4    4  502    0 -0.58539443161E+02  0.17333485405E+02  0.44698184015E+02  0.75811171843E+02  0.47000000000E+01 0.  1.
         -5    1    4    4    0  502  0.39980171995E+02 -0.18295691528E+01 -0.32922425331E+02  0.52035925722E+02  0.47000000000E+01 0.  1.
          5    1    3    3  503    0  0.13418913260E+02  0.29845417903E+02 -0.37183895917E+02  0.49754882358E+02  0.47000000000E+01 0. -1.
         -5    1    3    3    0  503  0.51403579060E+01 -0.45349334155E+02  0.66725788465E+02  0.80977813220E+02  0.47000000000E+01 0. -1.
<mgrwt>
<rscale>  0 0.12733926E+03</rscale>
<asrwt>0</asrwt>
<pdfrwt beam="2">  1        5 0.16712472E-01 0.12735115E+03</pdfrwt>
<pdfrwt beam="1">  1       -5 0.23069034E-01 0.12735115E+03</pdfrwt>
<totfact> 0.40436727E+02</totfact>
</mgrwt>
</event>
<event>
 8    1  0.1821556E-007  0.1810412E+03  0.7546771E-02  0.1166800E+00
          5   -1    0    0  501    0  0.00000000000E+00  0.00000000000E+00  0.29992200502E+03  0.29995882900E+03  0.47000000000E+01 0.  1.
         -5   -1    0    0    0  501 -0.00000000000E+00 -0.00000000000E+00 -0.15105043586E+03  0.15112353944E+03  0.47000000000E+01 0.  1.
         25    2    1    2    0    0 -0.12661703320E+03 -0.33439887222E+02 -0.44252653761E+02  0.18637119750E+03  0.12500330691E+03 0.  0.
         25    2    1    2    0    0  0.12661703320E+03  0.33439887222E+02  0.19312422292E+03  0.26471117093E+03  0.12499975754E+03 0.  0.
          5    1    4    4  502    0  0.12164088531E+03  0.17850350273E+02  0.20828805942E+03  0.24191144182E+03  0.47000000000E+01 0. -1.
         -5    1    4    4    0  502  0.49761478894E+01  0.15589536950E+02 -0.15163836505E+02  0.22799729114E+02  0.47000000000E+01 0. -1.
          5    1    3    3  503    0  0.16110393337E+01  0.34909826963E+02 -0.13590418151E+02  0.37789958082E+02  0.47000000000E+01 0. -1.
         -5    1    3    3    0  503 -0.12822807254E+03 -0.68349714185E+02 -0.30662235610E+02  0.14858123942E+03  0.47000000000E+01 0. -1.
<mgrwt>
<rscale>  0 0.18104061E+03</rscale>
<asrwt>0</asrwt>
<pdfrwt beam="1">  1        5 0.46150303E-01 0.18104123E+03</pdfrwt>
<pdfrwt beam="2">  1       -5 0.23246985E-01 0.18104123E+03</pdfrwt>
<totfact> 0.61441514E+01</totfact>
</mgrwt>
</event>
<event>
 8    1  0.1821556E-007  0.1584913E+03  0.7546771E-02  0.1190413E+00
          5   -1    0    0  501    0  0.00000000000E+00  0.00000000000E+00  0.54422502892E+03  0.54424532345E+03  0.47000000000E+01 0.  1.
         -5   -1    0    0    0  501 -0.00000000000E+00 -0.00000000000E+00 -0.47258175416E+02  0.47491316508E+02  0.47000000000E+01 0.  1.
         25    2    1    2    0    0 -0.93672018788E+02  0.26775947587E+02  0.20059095576E+03  0.25564863111E+03  0.12501236971E+03 0.  0.
         25    2    1    2    0    0  0.93672018788E+02 -0.26775947587E+02  0.29637589774E+03  0.33608800885E+03  0.12500031385E+03 0.  0.
          5    1    3    3  502    0 -0.98446665011E+02  0.37091513326E+02  0.21335123074E+03  0.23792512241E+03  0.47000000000E+01 0.  1.
         -5    1    3    3    0  502  0.47746462229E+01 -0.10315565740E+02 -0.12760274980E+02  0.17723508700E+02  0.47000000000E+01 0.  1.
          5    1    4    4  503    0  0.18774531878E+02  0.47760447842E+02  0.11706994987E+03  0.12791015045E+03  0.47000000000E+01 0.  1.
         -5    1    4    4    0  503  0.74897486910E+02 -0.74536395429E+02  0.17930594787E+03  0.20817785840E+03  0.47000000000E+01 0.  1.
<mgrwt>
<rscale>  0 0.15848892E+03</rscale>
<asrwt>0</asrwt>
<pdfrwt beam="1">  1        5 0.83746421E-01 0.15849130E+03</pdfrwt>
<pdfrwt beam="2">  1       -5 0.72899837E-02 0.15849130E+03</pdfrwt>
<totfact> 0.12694486E+02</totfact>
</mgrwt>
</event>
<event>
 8    1  0.1821556E-007  0.1289274E+03  0.7546771E-02  0.1229060E+00
         -5   -1    0    0    0  501 -0.00000000000E+00  0.00000000000E+00  0.45279524071E+02  0.45522799783E+02  0.47000000000E+01 0. -1.
          5   -1    0    0  501    0  0.00000000000E+00 -0.00000000000E+00 -0.36632103989E+03  0.36635118980E+03  0.47000000000E+01 0. -1.
         25    2    1    2    0    0 -0.94719711776E+01  0.30071396937E+02 -0.16804995728E+03  0.21180230291E+03  0.12500168088E+03 0.  0.
         25    2    1    2    0    0  0.94719711776E+01 -0.30071396937E+02 -0.15299155854E+03  0.20007168668E+03  0.12501302202E+03 0.  0.
          5    1    4    4  502    0  0.39548226419E+02 -0.67607904314E+01 -0.15644393872E+03  0.16157526563E+03  0.47000000000E+01 0.  1.
         -5    1    4    4    0  502 -0.30076255241E+02 -0.23310606505E+02  0.34523801773E+01  0.38496421053E+02  0.47000000000E+01 0.  1.
          5    1    3    3  503    0 -0.26488980250E+02 -0.44643094106E+02 -0.69877595366E+02  0.87175915598E+02  0.47000000000E+01 0.  1.
         -5    1    3    3    0  503  0.17017009073E+02  0.74714491043E+02 -0.98172361915E+02  0.12462638731E+03  0.47000000000E+01 0.  1.
<mgrwt>
<rscale>  0 0.12892461E+03</rscale>
<asrwt>0</asrwt>
<pdfrwt beam="2">  1        5 0.56378114E-01 0.12892735E+03</pdfrwt>
<pdfrwt beam="1">  1       -5 0.69871136E-02 0.12892735E+03</pdfrwt>
<totfact> 0.31010447E+02</totfact>
</mgrwt>
</event>
<event>
 8    1  0.1821556E-007  0.1592819E+03  0.7546771E-02  0.1189522E+00
         -5   -1    0    0    0  501 -0.00000000000E+00  0.00000000000E+00  0.17644222915E+03  0.17650481645E+03  0.47000000000E+01 0.  1.
          5   -1    0    0  501    0  0.00000000000E+00 -0.00000000000E+00 -0.16200122130E+03  0.16206938546E+03  0.47000000000E+01 0.  1.
         25    2    1    2    0    0  0.10386005672E+02 -0.98111109869E+02  0.64209357207E+02  0.17169819859E+03  0.12499508331E+03 0.  0.
         25    2    1    2    0    0 -0.10386005672E+02  0.98111109869E+02 -0.49768349353E+02  0.16687600332E+03  0.12504820227E+03 0.  0.
          5    1    4    4  502    0 -0.14956153318E+02  0.65187718905E+02  0.35050576341E+02  0.75655522733E+02  0.47000000000E+01 0.  1.
         -5    1    4    4    0  502  0.45701476453E+01  0.32923390963E+02 -0.84818925694E+02  0.91220480583E+02  0.47000000000E+01 0.  1.
          5    1    3    3  503    0 -0.78613158018E+01  0.24553021971E+02  0.35831877336E+02  0.44392168312E+02  0.47000000000E+01 0. -1.
         -5    1    3    3    0  503  0.18247321474E+02 -0.12266413184E+03  0.28377479871E+02  0.12730603028E+03  0.47000000000E+01 0. -1.
<mgrwt>
<rscale>  0 0.15927144E+03</rscale>
<asrwt>0</asrwt>
<pdfrwt beam="2">  1        5 0.24933323E-01 0.15928186E+03</pdfrwt>
<pdfrwt beam="1">  1       -5 0.27155016E-01 0.15928186E+03</pdfrwt>
<totfact> 0.15090671E+02</totfact>
</mgrwt>
</event>
<event>
 8    1  0.1821556E-007  0.1382794E+03  0.7546771E-02  0.1215664E+00
         -5   -1    0    0    0  501 -0.00000000000E+00  0.00000000000E+00  0.18176904394E+03  0.18182979771E+03  0.47000000000E+01 0.  1.
          5   -1    0    0  501    0  0.00000000000E+00 -0.00000000000E+00 -0.10745527334E+03  0.10755801118E+03  0.47000000000E+01 0.  1.
         25    2    1    2    0    0  0.25318707837E+02  0.53423053712E+02  0.58734710136E+02  0.15023632312E+03  0.12500450782E+03 0.  0.
         25    2    1    2    0    0 -0.25318707837E+02 -0.53423053712E+02  0.15579060459E+02  0.13915148577E+03  0.12500147692E+03 0.  0.
          5    1    4    4  502    0 -0.10851340189E+02 -0.93975120569E+02  0.68045322079E+01  0.94960341872E+02  0.47000000000E+01 0.  1.
         -5    1    4    4    0  502 -0.14467367647E+02  0.40552066857E+02  0.87745282509E+01  0.44191143898E+02  0.47000000000E+01 0.  1.
          5    1    3    3  503    0  0.44908644230E+02  0.36445561030E+02 -0.24458494199E+02  0.62971209166E+02  0.47000000000E+01 0. -1.
         -5    1    3    3    0  503 -0.19589936393E+02  0.16977492682E+02  0.83193204335E+02  0.87265113953E+02  0.47000000000E+01 0. -1.
<mgrwt>
<rscale>  0 0.13827869E+03</rscale>
<asrwt>0</asrwt>
<pdfrwt beam="2">  1        5 0.16544157E-01 0.13827938E+03</pdfrwt>
<pdfrwt beam="1">  1       -5 0.27977044E-01 0.13827938E+03</pdfrwt>
<totfact> 0.29295738E+02</totfact>
</mgrwt>
</event>
<event>
 8    1  0.1821556E-007  0.1329301E+03  0.7546771E-02  0.1223172E+00
          5   -1    0    0  501    0  0.00000000000E+00  0.00000000000E+00  0.27506659368E+02  0.27905309702E+02  0.47000000000E+01 0.  1.
         -5   -1    0    0    0  501 -0.00000000000E+00 -0.00000000000E+00 -0.63741428913E+03  0.63743161671E+03  0.47000000000E+01 0.  1.
         25    2    1    2    0    0  0.36025122532E+00 -0.45235119405E+02 -0.30766593703E+03  0.33515448989E+03  0.12499542982E+03 0.  0.
         25    2    1    2    0    0 -0.36025122532E+00  0.45235119405E+02 -0.30224169273E+03  0.33018243652E+03  0.12499621897E+03 0.  0.
          5    1    4    4  502    0 -0.45760345111E+02 -0.22408838278E+02 -0.10871349949E+03  0.12015356919E+03  0.47000000000E+01 0.  1.
         -5    1    4    4    0  502  0.45400093885E+02  0.67643957683E+02 -0.19352819324E+03  0.21002886733E+03  0.47000000000E+01 0.  1.
          5    1    3    3  503    0  0.81193598223E+01 -0.63412955178E+02 -0.30823565747E+03  0.31483080762E+03  0.47000000000E+01 0. -1.
         -5    1    3    3    0  503 -0.77591085970E+01  0.18177835773E+02  0.56972044203E+00  0.20323682270E+02  0.47000000000E+01 0. -1.
<mgrwt>
<rscale>  0 0.13292987E+03</rscale>
<asrwt>0</asrwt>
<pdfrwt beam="1">  1        5 0.42637925E-02 0.13293006E+03</pdfrwt>
<pdfrwt beam="2">  1       -5 0.98095724E-01 0.13293006E+03</pdfrwt>
<totfact> 0.20212760E+02</totfact>
</mgrwt>
</event>
<event>
 8    1  0.1821556E-007  0.1358966E+03  0.7546771E-02  0.1218961E+00
          5   -1    0    0  501    0  0.00000000000E+00  0.00000000000E+00  0.30622002614E+02  0.30980591410E+02  0.47000000000E+01 0. -1.
         -5   -1    0    0    0  501 -0.00000000000E+00 -0.00000000000E+00 -0.59944651947E+03  0.59946494452E+03  0.47000000000E+01 0. -1.
         25    2    1    2    0    0  0.17769354344E+02  0.50269719842E+02 -0.29078704866E+03  0.32097386697E+03  0.12499728365E+03 0.  0.
         25    2    1    2    0    0 -0.17769354344E+02 -0.50269719842E+02 -0.27803746820E+03  0.30947166896E+03  0.12500034193E+03 0.  0.
          5    1    3    3  502    0  0.18635986728E+01 -0.91775717493E+01  0.96610746459E+01  0.14252269522E+02  0.47000000000E+01 0.  1.
         -5    1    3    3    0  502  0.15905755671E+02  0.59447291591E+02 -0.30044812331E+03  0.30672159745E+03  0.47000000000E+01 0.  1.
          5    1    4    4  503    0  0.32597038108E+02 -0.35842330078E+01 -0.12912223010E+02  0.35555999813E+02  0.47000000000E+01 0. -1.
         -5    1    4    4    0  503 -0.50366392452E+02 -0.46685486834E+02 -0.26512524519E+03  0.27391566915E+03  0.47000000000E+01 0. -1.
<mgrwt>
<rscale>  0 0.13589588E+03</rscale>
<asrwt>0</asrwt>
<pdfrwt beam="1">  1        5 0.47400788E-02 0.13589658E+03</pdfrwt>
<pdfrwt beam="2">  1       -5 0.92251534E-01 0.13589658E+03</pdfrwt>
<totfact> 0.19813088E+02</totfact>
</mgrwt>
</event>
<event>
 8    1  0.1821556E-007  0.1318129E+03  0.7546771E-02  0.1224793E+00
          5   -1    0    0  501    0  0.00000000000E+00  0.00000000000E+00  0.47677923323E+03  0.47680239853E+03  0.47000000000E+01 0.  1.
         -5   -1    0    0    0  501 -0.00000000000E+00 -0.00000000000E+00 -0.36264210460E+02  0.36567512361E+02  0.47000000000E+01 0.  1.
         25    2    1    2    0    0 -0.37884283710E+02 -0.17748239124E+02  0.22102185362E+03  0.25733886443E+03  0.12498964928E+03 0.  0.
         25    2    1    2    0    0  0.37884283710E+02  0.17748239124E+02  0.21949316915E+03  0.25603104645E+03  0.12499770598E+03 0.  0.
          5    1    4    4  502    0 -0.30502417086E+02 -0.81228239898E+01  0.15553316579E+03  0.15877352858E+03  0.47000000000E+01 0.  1.
         -5    1    4    4    0  502  0.68386700796E+02  0.25871063114E+02  0.63960003359E+02  0.97257517869E+02  0.47000000000E+01 0.  1.
          5    1    3    3  503    0 -0.54509157916E+02  0.85540970432E+00  0.25839786801E+02  0.60512516097E+02  0.47000000000E+01 0. -1.
         -5    1    3    3    0  503  0.16624874206E+02 -0.18603648828E+02  0.19518206682E+03  0.19682634834E+03  0.47000000000E+01 0. -1.
<mgrwt>
<rscale>  0 0.13181101E+03</rscale>
<asrwt>0</asrwt>
<pdfrwt beam="1">  1        5 0.73375765E-01 0.13181292E+03</pdfrwt>
<pdfrwt beam="2">  1       -5 0.56042221E-02 0.13181292E+03</pdfrwt>
<totfact> 0.25278933E+02</totfact>
</mgrwt>
</event>
<event>
 8    1  0.1821556E-007  0.1467331E+03  0.7546771E-02  0.1204546E+00
         -5   -1    0    0    0  501 -0.00000000000E+00  0.00000000000E+00  0.22731138128E+03  0.22735996583E+03  0.47000000000E+01 0. -1.
          5   -1    0    0  501    0  0.00000000000E+00 -0.00000000000E+00 -0.94857591893E+02  0.94973958219E+02  0.47000000000E+01 0. -1.
         25    2    1    2    0    0  0.72910821615E+02  0.24283199015E+02  0.74594435510E+02  0.16460531580E+03  0.12499967408E+03 0.  0.
         25    2    1    2    0    0 -0.72910821615E+02 -0.24283199015E+02  0.57859353881E+02  0.15772860824E+03  0.12499978945E+03 0.  0.
          5    1    3    3  502    0 -0.21108335474E+02  0.11724127413E+02 -0.19139830767E+02  0.31167934033E+02  0.47000000000E+01 0. -1.
         -5    1    3    3    0  502  0.94019157089E+02  0.12559071602E+02  0.93734266278E+02  0.13343738177E+03  0.47000000000E+01 0. -1.
          5    1    4    4  503    0  0.12415508963E+02  0.28328094827E+02  0.47453675313E+02  0.56838078082E+02  0.47000000000E+01 0.  1.
         -5    1    4    4    0  503 -0.85326330578E+02 -0.52611293842E+02  0.10405678568E+02  0.10089053016E+03  0.47000000000E+01 0.  1.
<mgrwt>
<rscale>  0 0.14673310E+03</rscale>
<asrwt>0</asrwt>
<pdfrwt beam="2">  1        5 0.14606164E-01 0.14673312E+03</pdfrwt>
<pdfrwt beam="1">  1       -5 0.34983670E-01 0.14673312E+03</pdfrwt>
<totfact> 0.24108326E+02</totfact>
</mgrwt>
</event>
<event>
 8    1  0.1821556E-007  0.1300720E+03  0.7546771E-02  0.1227349E+00
          5   -1    0    0  501    0  0.00000000000E+00  0.00000000000E+00  0.39700940250E+02  0.39978177256E+02  0.47000000000E+01 0. -1.
         -5   -1    0    0    0  501 -0.00000000000E+00 -0.00000000000E+00 -0.72856248511E+03  0.72857764494E+03  0.47000000000E+01 0. -1.
         25    2    1    2    0    0 -0.30497324397E+02  0.19070298823E+02 -0.59268134535E+03  0.60678640617E+03  0.12499920999E+03 0.  0.
         25    2    1    2    0    0  0.30497324397E+02 -0.19070298823E+02 -0.96180199512E+02  0.16176941603E+03  0.12499980036E+03 0.  0.
          5    1    4    4  502    0  0.57089608851E+02 -0.28578976262E+02 -0.27763485004E+01  0.64076356278E+02  0.47000000000E+01 0. -1.
         -5    1    4    4    0  502 -0.26592284453E+02  0.95086774383E+01 -0.93403851012E+02  0.97693059748E+02  0.47000000000E+01 0. -1.
          5    1    3    3  503    0  0.96332902290E+01 -0.48612837596E+02 -0.18665507737E+03  0.19317923327E+03  0.47000000000E+01 0.  1.
         -5    1    3    3    0  503 -0.40130614626E+02  0.67683136420E+02 -0.40602626798E+03  0.41360717290E+03  0.47000000000E+01 0.  1.
<mgrwt>
<rscale>  0 0.13007181E+03</rscale>
<asrwt>0</asrwt>
<pdfrwt beam="1">  1        5 0.61303295E-02 0.13007195E+03</pdfrwt>
<pdfrwt beam="2">  1       -5 0.11210902E+00 0.13007195E+03</pdfrwt>
<totfact> 0.79002094E+01</totfact>
</mgrwt>
</event>
<event>
 8    1  0.1821556E-007  0.1535854E+03  0.7546771E-02  0.1196136E+00
          5   -1    0    0  501    0  0.00000000000E+00  0.00000000000E+00  0.63102633020E+02  0.63277423257E+02  0.47000000000E+01 0. -1.
         -5   -1    0    0    0  501 -0.00000000000E+00 -0.00000000000E+00 -0.39752047510E+03  0.39754825886E+03  0.47000000000E+01 0. -1.
         25    2    1    2    0    0  0.82799394143E+02 -0.33276042978E+02 -0.22430373218E+03  0.27184530854E+03  0.12499869119E+03 0.  0.
         25    2    1    2    0    0 -0.82799394143E+02  0.33276042978E+02 -0.11011410990E+03  0.18898037358E+03  0.12500171876E+03 0.  0.
          5    1    4    4  502    0 -0.36702910588E+02  0.58533334501E+02 -0.26978394247E+01  0.69300961256E+02  0.47000000000E+01 0. -1.
         -5    1    4    4    0  502 -0.46096483555E+02 -0.25257291523E+02 -0.10741627047E+03  0.11967941232E+03  0.47000000000E+01 0. -1.
          5    1    3    3  503    0  0.55326674014E+02 -0.15146549187E+02 -0.23088534536E+03  0.23795081742E+03  0.47000000000E+01 0. -1.
         -5    1    3    3    0  503  0.27472720128E+02 -0.18129493791E+02  0.65816131766E+01  0.33894491121E+02  0.47000000000E+01 0. -1.
<mgrwt>
<rscale>  0 0.15358475E+03</rscale>
<asrwt>0</asrwt>
<pdfrwt beam="1">  1        5 0.97236802E-02 0.15358537E+03</pdfrwt>
<pdfrwt beam="2">  1       -5 0.61172577E-01 0.15358537E+03</pdfrwt>
<totfact> 0.15595163E+02</totfact>
</mgrwt>
</event>
<event>
 8    1  0.1821556E-007  0.1696619E+03  0.7546771E-02  0.1178202E+00
         -5   -1    0    0    0  501 -0.00000000000E+00  0.00000000000E+00  0.67950844733E+02  0.68113194756E+02  0.47000000000E+01 0. -1.
          5   -1    0    0  501    0  0.00000000000E+00 -0.00000000000E+00 -0.42304630578E+03  0.42307241322E+03  0.47000000000E+01 0. -1.
         25    2    1    2    0    0 -0.11299423760E+03 -0.19805803024E+02 -0.18173865932E+03  0.24862067047E+03  0.12499331954E+03 0.  0.
         25    2    1    2    0    0  0.11299423760E+03  0.19805803024E+02 -0.17335680173E+03  0.24256493751E+03  0.12500080255E+03 0.  0.
          5    1    4    4  502    0  0.62156797084E+02 -0.28327202550E+02 -0.16058975556E+02  0.70326940243E+02  0.47000000000E+01 0.  1.
         -5    1    4    4    0  502  0.50837440519E+02  0.48133005574E+02 -0.15729782617E+03  0.17223799727E+03  0.47000000000E+01 0.  1.
          5    1    3    3  503    0 -0.47724734684E+02 -0.42055902450E+02 -0.16586069397E+03  0.17770258590E+03  0.47000000000E+01 0.  1.
         -5    1    3    3    0  503 -0.65269502919E+02  0.22250099426E+02 -0.15877965348E+02  0.70918084572E+02  0.47000000000E+01 0.  1.
<mgrwt>
<rscale>  0 0.16966054E+03</rscale>
<asrwt>0</asrwt>
<pdfrwt beam="2">  1        5 0.65098542E-01 0.16966192E+03</pdfrwt>
<pdfrwt beam="1">  1       -5 0.10468473E-01 0.16966192E+03</pdfrwt>
<totfact> 0.12310845E+02</totfact>
</mgrwt>
</event>
<event>
 8    1  0.1821556E-007  0.1327612E+03  0.7546771E-02  0.1223428E+00
         -5   -1    0    0    0  501 -0.00000000000E+00  0.00000000000E+00  0.12278460234E+03  0.12287452369E+03  0.47000000000E+01 0. -1.
          5   -1    0    0  501    0  0.00000000000E+00 -0.00000000000E+00 -0.14347373166E+03  0.14355069376E+03  0.47000000000E+01 0. -1.
         25    2    1    2    0    0 -0.36849945451E+02  0.25172383112E+02 -0.61262615621E+01  0.13290245589E+03  0.12503585225E+03 0.  0.
         25    2    1    2    0    0  0.36849945451E+02 -0.25172383112E+02 -0.14562867765E+02  0.13352276156E+03  0.12499873353E+03 0.  0.
          5    1    3    3  502    0 -0.49269035716E+02  0.59027859789E+02  0.29031137962E+02  0.82320247103E+02  0.47000000000E+01 0. -1.
         -5    1    3    3    0  502  0.12419090265E+02 -0.33855476677E+02 -0.35157399524E+02  0.50582208783E+02  0.47000000000E+01 0. -1.
          5    1    4    4  503    0 -0.25821669042E+02  0.33758922704E+02 -0.19977431660E+02  0.47197576526E+02  0.47000000000E+01 0.  1.
         -5    1    4    4    0  503  0.62671614493E+02 -0.58931305815E+02  0.54145638948E+01  0.86325185030E+02  0.47000000000E+01 0.  1.
<mgrwt>
<rscale>  0 0.13275244E+03</rscale>
<asrwt>0</asrwt>
<pdfrwt beam="2">  1        5 0.22085719E-01 0.13276118E+03</pdfrwt>
<pdfrwt beam="1">  1       -5 0.18902776E-01 0.13276118E+03</pdfrwt>
<totfact> 0.35544959E+02</totfact>
</mgrwt>
</event>
<event>
 8    1  0.1821556E-007  0.1274425E+03  0.7546771E-02  0.1231305E+00
          5   -1    0    0  501    0  0.00000000000E+00  0.00000000000E+00  0.57380885935E+02  0.57573049864E+02  0.47000000000E+01 0.  1.
         -5   -1    0    0    0  501 -0.00000000000E+00 -0.00000000000E+00 -0.35535388906E+03  0.35538496940E+03  0.47000000000E+01 0.  1.
         25    2    1    2    0    0 -0.17881560315E+02 -0.17132106264E+02 -0.24254501966E+03  0.27398371168E+03  0.12500291373E+03 0.  0.
         25    2    1    2    0    0  0.17881560315E+02  0.17132106264E+02 -0.55427983465E+02  0.13897430758E+03  0.12501334949E+03 0.  0.
          5    1    3    3  502    0  0.25891583734E+02 -0.22132578107E+02 -0.80170652682E+01  0.35307059597E+02  0.47000000000E+01 0. -1.
         -5    1    3    3    0  502 -0.43773144048E+02  0.50004718426E+01 -0.23452795439E+03  0.23867665209E+03  0.47000000000E+01 0. -1.
          5    1    4    4  503    0  0.63472257157E+01 -0.49917081274E+02 -0.49138132977E+02  0.70488640146E+02  0.47000000000E+01 0. -1.
         -5    1    4    4    0  503  0.11534334599E+02  0.67049187538E+02 -0.62898504888E+01  0.68485667430E+02  0.47000000000E+01 0. -1.
<mgrwt>
<rscale>  0 0.12743996E+03</rscale>
<asrwt>0</asrwt>
<pdfrwt beam="1">  1        5 0.88450015E-02 0.12744252E+03</pdfrwt>
<pdfrwt beam="2">  1       -5 0.54687000E-01 0.12744252E+03</pdfrwt>
<totfact> 0.22031879E+02</totfact>
</mgrwt>
</event>
<event>
 8    1  0.1821556E-007  0.1449759E+03  0.7546771E-02  0.1206788E+00
          5   -1    0    0  501    0  0.00000000000E+00  0.00000000000E+00  0.18239717921E+04  0.18239778476E+04  0.47000000000E+01 0.  1.
         -5   -1    0    0    0  501 -0.00000000000E+00 -0.00000000000E+00 -0.14222052420E+02  0.14978543822E+02  0.47000000000E+01 0.  1.
         25    2    1    2    0    0 -0.71960853038E+02 -0.14586223932E+02  0.48241432686E+03  0.50372768926E+03  0.12500751924E+03 0.  0.
         25    2    1    2    0    0  0.71960853038E+02  0.14586223932E+02  0.13273354129E+04  0.13352287022E+04  0.12500106616E+03 0.  0.
          5    1    3    3  502    0 -0.64766718753E+01  0.47441416540E+02  0.10257479826E+03  0.11329746034E+03  0.47000000000E+01 0. -1.
         -5    1    3    3    0  502 -0.65484181163E+02 -0.62027640472E+02  0.37983952859E+03  0.39043022891E+03  0.47000000000E+01 0. -1.
          5    1    4    4  503    0  0.89457285313E+02  0.67536391169E+01  0.12888517323E+04  0.12919787519E+04  0.47000000000E+01 0. -1.
         -5    1    4    4    0  503 -0.17496432274E+02  0.78325848155E+01  0.38483680574E+02  0.43249950263E+02  0.47000000000E+01 0. -1.
<mgrwt>
<rscale>  0 0.14497448E+03</rscale>
<asrwt>0</asrwt>
<pdfrwt beam="1">  1        5 0.28066944E+00 0.14497587E+03</pdfrwt>
<pdfrwt beam="2">  1       -5 0.22466676E-02 0.14497587E+03</pdfrwt>
<totfact> 0.25916228E+01</totfact>
</mgrwt>
</event>
<event>
 8    1  0.1821556E-007  0.1306388E+03  0.7546771E-02  0.1226521E+00
          5   -1    0    0  501    0  0.00000000000E+00  0.00000000000E+00  0.23902422195E+02  0.24360126987E+02  0.47000000000E+01 0.  1.
         -5   -1    0    0    0  501 -0.00000000000E+00 -0.00000000000E+00 -0.70690304360E+03  0.70691866792E+03  0.47000000000E+01 0.  1.
         25    2    1    2    0    0 -0.37173308286E+02 -0.77917917774E+01 -0.34880760283E+03  0.37246910074E+03  0.12499568131E+03 0.  0.
         25    2    1    2    0    0  0.37173308286E+02  0.77917917774E+01 -0.33419301858E+03  0.35880969417E+03  0.12496742013E+03 0.  0.
          5    1    4    4  502    0  0.41751530350E+02 -0.47906016415E+02 -0.24739685815E+03  0.25547107883E+03  0.47000000000E+01 0.  1.
         -5    1    4    4    0  502 -0.45782220634E+01  0.55697808193E+02 -0.86796160423E+02  0.10333861533E+03  0.47000000000E+01 0.  1.
          5    1    3    3  503    0  0.26731175428E+02 -0.40965852288E+02 -0.77797544120E+02  0.92017958380E+02  0.47000000000E+01 0. -1.
         -5    1    3    3    0  503 -0.63904483714E+02  0.33174060510E+02 -0.27101005871E+03  0.28045114236E+03  0.47000000000E+01 0. -1.
<mgrwt>
<rscale>  0 0.13063201E+03</rscale>
<asrwt>0</asrwt>
<pdfrwt beam="1">  1        5 0.37137062E-02 0.13063877E+03</pdfrwt>
<pdfrwt beam="2">  1       -5 0.10879071E+00 0.13063877E+03</pdfrwt>
<totfact> 0.19544231E+02</totfact>
</mgrwt>
</event>
<event>
 8    1  0.1821556E-007  0.1576761E+03  0.7546771E-02  0.1191347E+00
          5   -1    0    0  501    0  0.00000000000E+00  0.00000000000E+00  0.13961407727E+04  0.13961486838E+04  0.47000000000E+01 0.  1.
         -5   -1    0    0    0  501 -0.00000000000E+00 -0.00000000000E+00 -0.18643810019E+02  0.19227107219E+02  0.47000000000E+01 0.  1.
         25    2    1    2    0    0  0.41645875991E+02 -0.86614715160E+02  0.51543100485E+03  0.53900916389E+03  0.12500108053E+03 0.  0.
         25    2    1    2    0    0 -0.41645875991E+02  0.86614715160E+02  0.86206595782E+03  0.87636662708E+03  0.12499704623E+03 0.  0.
          5    1    4    4  502    0  0.36254750943E+02  0.44368950546E+02  0.19118332082E+03  0.19964008340E+03  0.47000000000E+01 0.  1.
         -5    1    4    4    0  502 -0.77900626934E+02  0.42245764614E+02  0.67088263699E+03  0.67672654368E+03  0.47000000000E+01 0.  1.
          5    1    3    3  503    0  0.62415710571E+02 -0.16153885495E+02  0.37424631062E+03  0.37978817775E+03  0.47000000000E+01 0. -1.
         -5    1    3    3    0  503 -0.20769834580E+02 -0.70460829664E+02  0.14118469423E+03  0.15922098614E+03  0.47000000000E+01 0. -1.
<mgrwt>
<rscale>  0 0.15767532E+03</rscale>
<asrwt>0</asrwt>
<pdfrwt beam="1">  1        5 0.21483641E+00 0.15767612E+03</pdfrwt>
<pdfrwt beam="2">  1       -5 0.29137554E-02 0.15767612E+03</pdfrwt>
<totfact> 0.45949738E+01</totfact>
</mgrwt>
</event>
<event>
 8    1  0.1821556E-007  0.1511540E+03  0.7546771E-02  0.1199064E+00
          5   -1    0    0  501    0  0.00000000000E+00  0.00000000000E+00  0.42528511037E+03  0.42531108039E+03  0.47000000000E+01 0.  1.
         -5   -1    0    0    0  501 -0.00000000000E+00 -0.00000000000E+00 -0.53681095715E+02  0.53886455044E+02  0.47000000000E+01 0.  1.
         25    2    1    2    0    0  0.26930511885E+01  0.84939966496E+02  0.17595211532E+03  0.23195841223E+03  0.12499403060E+03 0.  0.
         25    2    1    2    0    0 -0.26930511885E+01 -0.84939966496E+02  0.19565189933E+03  0.24723912320E+03  0.12500187157E+03 0.  0.
          5    1    4    4  502    0 -0.24343160343E+01 -0.10845629073E+03  0.19506248156E+03  0.22324908646E+03  0.47000000000E+01 0. -1.
         -5    1    4    4    0  502 -0.25873515412E+00  0.23516324233E+02  0.58941776806E+00  0.23990036736E+02  0.47000000000E+01 0. -1.
          5    1    3    3  503    0  0.24580560562E+02  0.10301501248E+03  0.17318216720E+03  0.20305282512E+03  0.47000000000E+01 0.  1.
         -5    1    3    3    0  503 -0.21887509373E+02 -0.18075045981E+02  0.27699481233E+01  0.28905587114E+02  0.47000000000E+01 0.  1.
<mgrwt>
<rscale>  0 0.15115233E+03</rscale>
<asrwt>0</asrwt>
<pdfrwt beam="1">  1        5 0.65446272E-01 0.15115396E+03</pdfrwt>
<pdfrwt beam="2">  1       -5 0.82764248E-02 0.15115396E+03</pdfrwt>
<totfact> 0.17664186E+02</totfact>
</mgrwt>
</event>
<event>
 8    1  0.1821556E-007  0.1349270E+03  0.7546771E-02  0.1220323E+00
         -5   -1    0    0    0  501 -0.00000000000E+00  0.00000000000E+00  0.53913031036E+02  0.54117510248E+02  0.47000000000E+01 0. -1.
          5   -1    0    0  501    0  0.00000000000E+00 -0.00000000000E+00 -0.35763574148E+03  0.35766662352E+03  0.47000000000E+01 0. -1.
         25    2    1    2    0    0 -0.50785913866E+02  0.14675120372E+00 -0.10220026498E+03  0.16926280943E+03  0.12500309561E+03 0.  0.
         25    2    1    2    0    0  0.50785913866E+02 -0.14675120372E+00 -0.20152244546E+03  0.24252132434E+03  0.12500426453E+03 0.  0.
          5    1    4    4  502    0  0.90643696703E+02  0.14943798559E+02 -0.13398607920E+03  0.16252370993E+03  0.47000000000E+01 0. -1.
         -5    1    4    4    0  502 -0.39857782837E+02 -0.15090549763E+02 -0.67536366254E+02  0.79997614412E+02  0.47000000000E+01 0. -1.
          5    1    3    3  503    0 -0.52592507151E+02  0.59340090077E+01 -0.12999180827E+03  0.14043199240E+03  0.47000000000E+01 0.  1.
         -5    1    3    3    0  503  0.18065932845E+01 -0.57872578039E+01  0.27791543292E+02  0.28830817032E+02  0.47000000000E+01 0.  1.
<mgrwt>
<rscale>  0 0.13492673E+03</rscale>
<asrwt>0</asrwt>
<pdfrwt beam="2">  1        5 0.55038987E-01 0.13492701E+03</pdfrwt>
<pdfrwt beam="1">  1       -5 0.83124174E-02 0.13492701E+03</pdfrwt>
<totfact> 0.24673388E+02</totfact>
</mgrwt>
</event>
<event>
 8    1  0.1821556E-007  0.3119421E+03  0.7546771E-02  0.1079419E+00
         -5   -1    0    0    0  501 -0.00000000000E+00  0.00000000000E+00  0.71975613007E+03  0.71977147538E+03  0.47000000000E+01 0.  1.
          5   -1    0    0  501    0  0.00000000000E+00 -0.00000000000E+00 -0.15441833918E+03  0.15448984910E+03  0.47000000000E+01 0.  1.
         25    2    1    2    0    0 -0.12595116018E+03  0.25654200035E+03  0.43709299603E+03  0.53698602053E+03  0.12500482538E+03 0.  0.
         25    2    1    2    0    0  0.12595116018E+03 -0.25654200035E+03  0.12824479486E+03  0.33727530395E+03  0.12502164035E+03 0.  0.
          5    1    3    3  502    0  0.11647203125E+02  0.10225792128E+03  0.17586511553E+03  0.20382092303E+03  0.47000000000E+01 0. -1.
         -5    1    3    3    0  502 -0.13759836330E+03  0.15428407907E+03  0.26122788050E+03  0.33316509749E+03  0.47000000000E+01 0. -1.
          5    1    4    4  503    0  0.53346797808E+00  0.83543423190E+01  0.24533024712E+02  0.26344618524E+02  0.47000000000E+01 0. -1.
         -5    1    4    4    0  503  0.12541769220E+03 -0.26489634266E+03  0.10371177014E+03  0.31093068543E+03  0.47000000000E+01 0. -1.
<mgrwt>
<rscale>  0 0.31194046E+03</rscale>
<asrwt>0</asrwt>
<pdfrwt beam="2">  1        5 0.23763348E-01 0.31194215E+03</pdfrwt>
<pdfrwt beam="1">  1       -5 0.11073840E+00 0.31194215E+03</pdfrwt>
<totfact> 0.89309713E+00</totfact>
</mgrwt>
</event>
<event>
 8    1  0.1821556E-007  0.2163721E+03  0.7546771E-02  0.1136618E+00
          5   -1    0    0  501    0  0.00000000000E+00  0.00000000000E+00  0.55477437760E+03  0.55479428624E+03  0.47000000000E+01 0.  1.
         -5   -1    0    0    0  501 -0.00000000000E+00 -0.00000000000E+00 -0.87609292244E+02  0.87735272767E+02  0.47000000000E+01 0.  1.
         25    2    1    2    0    0 -0.13743115217E+03  0.11093286884E+03  0.17120653349E+03  0.27591212401E+03  0.12498959992E+03 0.  0.
         25    2    1    2    0    0  0.13743115217E+03 -0.11093286884E+03  0.29595855187E+03  0.36661743499E+03  0.12499382482E+03 0.  0.
          5    1    3    3  502    0 -0.53967929271E+02  0.37234883085E+02  0.14819237673E+03  0.16211737856E+03  0.47000000000E+01 0. -1.
         -5    1    3    3    0  502 -0.83463222903E+02  0.73697985759E+02  0.23014156763E+02  0.11379474546E+03  0.47000000000E+01 0. -1.
          5    1    4    4  503    0  0.86491079774E+02 -0.50442152030E+02  0.26182297711E+03  0.28035420261E+03  0.47000000000E+01 0.  1.
         -5    1    4    4    0  503  0.50940072401E+02 -0.60490716813E+02  0.34135574757E+02  0.86263232380E+02  0.47000000000E+01 0.  1.
<mgrwt>
<rscale>  0 0.21637147E+03</rscale>
<asrwt>0</asrwt>
<pdfrwt beam="1">  1        5 0.85361123E-01 0.21637209E+03</pdfrwt>
<pdfrwt beam="2">  1       -5 0.13489576E-01 0.21637209E+03</pdfrwt>
<totfact> 0.44944188E+01</totfact>
</mgrwt>
</event>
<event>
 8    1  0.1821556E-007  0.1467145E+03  0.7546771E-02  0.1204574E+00
          5   -1    0    0  501    0  0.00000000000E+00  0.00000000000E+00  0.33444186067E+03  0.33447488421E+03  0.47000000000E+01 0. -1.
         -5   -1    0    0    0  501 -0.00000000000E+00 -0.00000000000E+00 -0.64382816114E+02  0.64554140152E+02  0.47000000000E+01 0. -1.
         25    2    1    2    0    0 -0.76798432456E+02 -0.11830648860E+01  0.14465638437E+03  0.20603545776E+03  0.12500296575E+03 0.  0.
         25    2    1    2    0    0  0.76798432456E+02  0.11830648860E+01  0.12540266019E+03  0.19299356660E+03  0.12498516191E+03 0.  0.
          5    1    3    3  502    0 -0.37637554376E+02  0.61197466704E+02  0.59975579718E+02  0.93706326322E+02  0.47000000000E+01 0.  1.
         -5    1    3    3    0  502 -0.39160878081E+02 -0.62380531590E+02  0.84680804650E+02  0.11232913144E+03  0.47000000000E+01 0.  1.
          5    1    4    4  503    0  0.15956043639E+02  0.18168722325E+02  0.12726071020E+03  0.12962282268E+03  0.47000000000E+01 0.  1.
         -5    1    4    4    0  503  0.60842388817E+02 -0.16985657439E+02 -0.18580500093E+01  0.63370743924E+02  0.47000000000E+01 0.  1.
<mgrwt>
<rscale>  0 0.14671069E+03</rscale>
<asrwt>0</asrwt>
<pdfrwt beam="1">  1        5 0.51468313E-01 0.14671449E+03</pdfrwt>
<pdfrwt beam="2">  1       -5 0.99207676E-02 0.14671449E+03</pdfrwt>
<totfact> 0.21566211E+02</totfact>
</mgrwt>
</event>
<event>
 8    1  0.1821556E-007  0.1467591E+03  0.7546771E-02  0.1204514E+00
         -5   -1    0    0    0  501 -0.00000000000E+00  0.00000000000E+00  0.55794759790E+02  0.55992367516E+02  0.47000000000E+01 0. -1.
          5   -1    0    0  501    0  0.00000000000E+00 -0.00000000000E+00 -0.38512377353E+03  0.38515245155E+03  0.47000000000E+01 0. -1.
         25    2    1    2    0    0  0.24064817643E+02 -0.73043157867E+02 -0.16476377819E+03  0.22064751144E+03  0.12499521327E+03 0.  0.
         25    2    1    2    0    0 -0.24064817643E+02  0.73043157867E+02 -0.16456523555E+03  0.22049730763E+03  0.12499170998E+03 0.  0.
          5    1    3    3  502    0 -0.20535775245E+01  0.10022689839E+02  0.16223828402E+02  0.19747761906E+02  0.47000000000E+01 0. -1.
         -5    1    3    3    0  502  0.26118395168E+02 -0.83065847706E+02 -0.18098760660E+03  0.20089974953E+03  0.47000000000E+01 0. -1.
          5    1    4    4  503    0 -0.40644228167E+02  0.10287634954E+03 -0.11075186467E+03  0.15660000672E+03  0.47000000000E+01 0.  1.
         -5    1    4    4    0  503  0.16579410524E+02 -0.29833191670E+02 -0.53813370871E+02  0.63897300905E+02  0.47000000000E+01 0.  1.
<mgrwt>
<rscale>  0 0.14675831E+03</rscale>
<asrwt>0</asrwt>
<pdfrwt beam="2">  1        5 0.59267216E-01 0.14675906E+03</pdfrwt>
<pdfrwt beam="1">  1       -5 0.86012161E-02 0.14675906E+03</pdfrwt>
<totfact> 0.20376913E+02</totfact>
</mgrwt>
</event>
<event>
 8    1  0.1821556E-007  0.1255037E+03  0.7546771E-02  0.1234285E+00
          5   -1    0    0  501    0  0.00000000000E+00  0.00000000000E+00  0.85411235066E+01  0.97488866418E+01  0.47000000000E+01 0.  1.
         -5   -1    0    0    0  501 -0.00000000000E+00 -0.00000000000E+00 -0.17328801522E+04  0.17328865260E+04  0.47000000000E+01 0.  1.
         25    2    1    2    0    0  0.72749777238E+01  0.84998426128E+01 -0.93381992778E+03  0.94221591554E+03  0.12500400535E+03 0.  0.
         25    2    1    2    0    0 -0.72749777238E+01 -0.84998426128E+01 -0.79051910096E+03  0.80041949712E+03  0.12500299900E+03 0.  0.
          5    1    3    3  502    0  0.13282377230E+01  0.65430645432E+02 -0.40416320674E+03  0.40945441903E+03  0.47000000000E+01 0.  1.
         -5    1    3    3    0  502  0.59467400008E+01 -0.56930802819E+02 -0.52965672103E+03  0.53276149651E+03  0.47000000000E+01 0.  1.
          5    1    4    4  503    0  0.16487935407E+02  0.74406198729E+01 -0.75186681513E+03  0.75209907095E+03  0.47000000000E+01 0. -1.
         -5    1    4    4    0  503 -0.23762913131E+02 -0.15940462486E+02 -0.38652285835E+02  0.48320426167E+02  0.47000000000E+01 0. -1.
<mgrwt>
<rscale>  0 0.12550343E+03</rscale>
<asrwt>0</asrwt>
<pdfrwt beam="1">  1        5 0.14074155E-02 0.12550368E+03</pdfrwt>
<pdfrwt beam="2">  1       -5 0.26669008E+00 0.12550368E+03</pdfrwt>
<totfact> 0.63864492E+01</totfact>
</mgrwt>
</event>
<event>
 8    1  0.1821556E-007  0.1385246E+03  0.7546771E-02  0.1215329E+00
         -5   -1    0    0    0  501 -0.00000000000E+00  0.00000000000E+00  0.17825429800E+02  0.18434639882E+02  0.47000000000E+01 0.  1.
          5   -1    0    0  501    0  0.00000000000E+00 -0.00000000000E+00 -0.10856468495E+04  0.10856570231E+04  0.47000000000E+01 0.  1.
         25    2    1    2    0    0  0.36480063041E+02  0.47258311255E+02 -0.44549153244E+03  0.46653163371E+03  0.12499966715E+03 0.  0.
         25    2    1    2    0    0 -0.36480063041E+02 -0.47258311255E+02 -0.62232988721E+03  0.63756002924E+03  0.12499663751E+03 0.  0.
          5    1    3    3  502    0  0.33489510049E+02 -0.31101550368E+02 -0.76222422733E+02  0.88998884520E+02  0.47000000000E+01 0. -1.
         -5    1    3    3    0  502  0.29905529918E+01  0.78359861623E+02 -0.36926910971E+03  0.37753274919E+03  0.47000000000E+01 0. -1.
          5    1    4    4  503    0 -0.11336123160E+02 -0.26724904469E+02 -0.59248123936E+03  0.59321061791E+03  0.47000000000E+01 0.  1.
         -5    1    4    4    0  503 -0.25143939881E+02 -0.20533406786E+02 -0.29848647852E+02  0.44349411333E+02  0.47000000000E+01 0.  1.
<mgrwt>
<rscale>  0 0.13852390E+03</rscale>
<asrwt>0</asrwt>
<pdfrwt beam="2">  1        5 0.16707019E+00 0.13852458E+03</pdfrwt>
<pdfrwt beam="1">  1       -5 0.27900196E-02 0.13852458E+03</pdfrwt>
<totfact> 0.10193038E+02</totfact>
</mgrwt>
</event>
<event>
 8    1  0.1821556E-007  0.1379133E+03  0.7546771E-02  0.1216174E+00
          5   -1    0    0  501    0  0.00000000000E+00  0.00000000000E+00  0.91095557163E+02  0.91216722890E+02  0.47000000000E+01 0.  1.
         -5   -1    0    0    0  501 -0.00000000000E+00 -0.00000000000E+00 -0.20968933231E+03  0.20974199886E+03  0.47000000000E+01 0.  1.
         25    2    1    2    0    0  0.60374887507E+01  0.57951190447E+02 -0.70797611526E+02  0.15502384348E+03  0.12500119401E+03 0.  0.
         25    2    1    2    0    0 -0.60374887507E+01 -0.57951190447E+02 -0.47796163622E+02  0.14593487827E+03  0.12497089139E+03 0.  0.
          5    1    4    4  502    0  0.49547047856E+02  0.66828320293E+00 -0.41438963941E+02  0.64765996373E+02  0.47000000000E+01 0.  1.
         -5    1    4    4    0  502 -0.55584536606E+02 -0.58619473650E+02 -0.63571996810E+01  0.81168881898E+02  0.47000000000E+01 0.  1.
          5    1    3    3  503    0  0.23578559968E+02  0.83725550073E+02 -0.83841900616E+02  0.12090273166E+03  0.47000000000E+01 0.  1.
         -5    1    3    3    0  503 -0.17541071217E+02 -0.25774359626E+02  0.13044289089E+02  0.34121111814E+02  0.47000000000E+01 0.  1.
<mgrwt>
<rscale>  0 0.13790648E+03</rscale>
<asrwt>0</asrwt>
<pdfrwt beam="1">  1        5 0.14028073E-01 0.13791334E+03</pdfrwt>
<pdfrwt beam="2">  1       -5 0.32273269E-01 0.13791334E+03</pdfrwt>
<totfact> 0.29822087E+02</totfact>
</mgrwt>
</event>
<event>
 8    1  0.1821556E-007  0.1542936E+03  0.7546771E-02  0.1195297E+00
          5   -1    0    0  501    0  0.00000000000E+00  0.00000000000E+00  0.64582914068E+02  0.64753708693E+02  0.47000000000E+01 0. -1.
         -5   -1    0    0    0  501 -0.00000000000E+00 -0.00000000000E+00 -0.40392092045E+03  0.40394826399E+03  0.47000000000E+01 0. -1.
         25    2    1    2    0    0 -0.86307549959E+02 -0.27096731476E+02 -0.23960474410E+03  0.28498144420E+03  0.12498305528E+03 0.  0.
         25    2    1    2    0    0  0.86307549959E+02  0.27096731476E+02 -0.99733262291E+02  0.18372052849E+03  0.12499313159E+03 0.  0.
          5    1    4    4  502    0  0.38933617228E+02 -0.49277800204E+02 -0.53008116016E+02  0.82316939368E+02  0.47000000000E+01 0. -1.
         -5    1    4    4    0  502  0.47373932732E+02  0.76374531679E+02 -0.46725146275E+02  0.10140358912E+03  0.47000000000E+01 0. -1.
          5    1    3    3  503    0 -0.42237031000E+01  0.27569090098E+02 -0.28048877650E+01  0.28422733720E+02  0.47000000000E+01 0.  1.
         -5    1    3    3    0  503 -0.82083846859E+02 -0.54665821574E+02 -0.23679985633E+03  0.25655871048E+03  0.47000000000E+01 0.  1.
<mgrwt>
<rscale>  0 0.15429154E+03</rscale>
<asrwt>0</asrwt>
<pdfrwt beam="1">  1        5 0.99510746E-02 0.15429358E+03</pdfrwt>
<pdfrwt beam="2">  1       -5 0.62156920E-01 0.15429358E+03</pdfrwt>
<totfact> 0.14481669E+02</totfact>
</mgrwt>
</event>
<event>
 8    1  0.1821556E-007  0.1451600E+03  0.7546771E-02  0.1206550E+00
         -5   -1    0    0    0  501 -0.00000000000E+00  0.00000000000E+00  0.20618808183E+03  0.20624164247E+03  0.47000000000E+01 0. -1.
          5   -1    0    0  501    0  0.00000000000E+00 -0.00000000000E+00 -0.10944983535E+03  0.10955070268E+03  0.47000000000E+01 0. -1.
         25    2    1    2    0    0 -0.72750819138E+02  0.12393520685E+02  0.89330481753E+02  0.17044459648E+03  0.12500057783E+03 0.  0.
         25    2    1    2    0    0  0.72750819138E+02 -0.12393520685E+02  0.74077647314E+01  0.14534774868E+03  0.12499924811E+03 0.  0.
          5    1    4    4  502    0  0.62487495298E+02 -0.31957328933E+02 -0.48237516508E+02  0.85293059155E+02  0.47000000000E+01 0. -1.
         -5    1    4    4    0  502  0.10263323839E+02  0.19563808248E+02  0.55645281239E+02  0.60054689522E+02  0.47000000000E+01 0. -1.
          5    1    3    3  503    0 -0.13842128002E+02 -0.53950990497E+02  0.28276938158E+02  0.62641752169E+02  0.47000000000E+01 0.  1.
         -5    1    3    3    0  503 -0.58908691135E+02  0.66344511182E+02  0.61053543596E+02  0.10780284431E+03  0.47000000000E+01 0.  1.
<mgrwt>
<rscale>  0 0.14515971E+03</rscale>
<asrwt>0</asrwt>
<pdfrwt beam="2">  1        5 0.16850316E-01 0.14516000E+03</pdfrwt>
<pdfrwt beam="1">  1       -5 0.31733122E-01 0.14516000E+03</pdfrwt>
<totfact> 0.22491612E+02</totfact>
</mgrwt>
</event>
<event>
 8    1  0.1821556E-007  0.1470493E+03  0.7546771E-02  0.1204147E+00
          5   -1    0    0  501    0  0.00000000000E+00  0.00000000000E+00  0.13044012890E+03  0.13052477630E+03  0.47000000000E+01 0. -1.
         -5   -1    0    0    0  501 -0.00000000000E+00 -0.00000000000E+00 -0.16560528520E+03  0.16567196650E+03  0.47000000000E+01 0. -1.
         25    2    1    2    0    0  0.39454734815E+02 -0.66643971803E+02 -0.16806769078E+02  0.14800588498E+03  0.12500071770E+03 0.  0.
         25    2    1    2    0    0 -0.39454734815E+02  0.66643971803E+02 -0.18358387219E+02  0.14819085782E+03  0.12500161952E+03 0.  0.
          5    1    3    3  502    0  0.62384590020E+02  0.12584099423E+02 -0.14070634554E+02  0.65347298238E+02  0.47000000000E+01 0. -1.
         -5    1    3    3    0  502 -0.22929855206E+02 -0.79228071226E+02 -0.27361345244E+01  0.82658586741E+02  0.47000000000E+01 0. -1.
          5    1    4    4  503    0 -0.20615303054E+02  0.89977608037E+02  0.24547168599E+02  0.95632704418E+02  0.47000000000E+01 0.  1.
         -5    1    4    4    0  503 -0.18839431760E+02 -0.23333636234E+02 -0.42905555818E+02  0.52558153402E+02  0.47000000000E+01 0.  1.
<mgrwt>
<rscale>  0 0.14704912E+03</rscale>
<asrwt>0</asrwt>
<pdfrwt beam="1">  1        5 0.20079353E-01 0.14704931E+03</pdfrwt>
<pdfrwt beam="2">  1       -5 0.25489377E-01 0.14704931E+03</pdfrwt>
<totfact> 0.25036600E+02</totfact>
</mgrwt>
</event>
<event>
 8    1  0.1821556E-007  0.1370304E+03  0.7546771E-02  0.1217387E+00
         -5   -1    0    0    0  501 -0.00000000000E+00  0.00000000000E+00  0.76327134684E+03  0.76328581732E+03  0.47000000000E+01 0.  1.
          5   -1    0    0  501    0  0.00000000000E+00 -0.00000000000E+00 -0.24376551500E+02  0.24825516370E+02  0.47000000000E+01 0.  1.
         25    2    1    2    0    0  0.43927976536E+02 -0.34963857142E+02  0.37984100314E+03  0.40379773449E+03  0.12498513623E+03 0.  0.
         25    2    1    2    0    0 -0.43927976536E+02  0.34963857142E+02  0.35905379220E+03  0.38431359920E+03  0.12500071362E+03 0.  0.
          5    1    4    4  502    0 -0.25681391920E+02  0.78139836937E+02  0.16247558314E+03  0.18216962734E+03  0.47000000000E+01 0.  1.
         -5    1    4    4    0  502 -0.18246584616E+02 -0.43175979795E+02  0.19657820906E+03  0.20214397186E+03  0.47000000000E+01 0.  1.
          5    1    3    3  503    0  0.30773785077E+02  0.44414090947E+02  0.18917241722E+03  0.19679413294E+03  0.47000000000E+01 0. -1.
         -5    1    3    3    0  503  0.13154191459E+02 -0.79377948089E+02  0.19066858592E+03  0.20700360154E+03  0.47000000000E+01 0. -1.
<mgrwt>
<rscale>  0 0.13702680E+03</rscale>
<asrwt>0</asrwt>
<pdfrwt beam="2">  1        5 0.37858870E-02 0.13703035E+03</pdfrwt>
<pdfrwt beam="1">  1       -5 0.11746203E+00 0.13703035E+03</pdfrwt>
<totfact> 0.15887818E+02</totfact>
</mgrwt>
</event>
<event>
 8    1  0.1821556E-007  0.1910712E+03  0.7546771E-02  0.1157501E+00
          5   -1    0    0  501    0  0.00000000000E+00  0.00000000000E+00  0.12920542205E+04  0.12920627688E+04  0.47000000000E+01 0.  1.
         -5   -1    0    0    0  501 -0.00000000000E+00 -0.00000000000E+00 -0.33314166163E+02  0.33644073284E+02  0.47000000000E+01 0.  1.
         25    2    1    2    0    0 -0.14369403914E+03  0.15344814393E+02  0.36735095483E+03  0.41407114679E+03  0.12499900149E+03 0.  0.
         25    2    1    2    0    0  0.14369403914E+03 -0.15344814393E+02  0.89138909946E+03  0.91163569533E+03  0.12498669585E+03 0.  0.
          5    1    4    4  502    0  0.53128780864E+02  0.48144739523E+02  0.49080410188E+03  0.49603562344E+03  0.47000000000E+01 0. -1.
         -5    1    4    4    0  502  0.90565258278E+02 -0.63489553916E+02  0.40058499758E+03  0.41560007189E+03  0.47000000000E+01 0. -1.
          5    1    3    3  503    0 -0.96721295333E+02  0.61378145673E+02  0.29334073069E+03  0.31494945629E+03  0.47000000000E+01 0. -1.
         -5    1    3    3    0  503 -0.46972743809E+02 -0.46033331281E+02  0.74010224148E+02  0.99121690503E+02  0.47000000000E+01 0. -1.
<mgrwt>
<rscale>  0 0.19106915E+03</rscale>
<asrwt>0</asrwt>
<pdfrwt beam="1">  1        5 0.19880360E+00 0.19107117E+03</pdfrwt>
<pdfrwt beam="2">  1       -5 0.51512917E-02 0.19107117E+03</pdfrwt>
<totfact> 0.24199078E+01</totfact>
</mgrwt>
</event>
<event>
 8    1  0.1821556E-007  0.1354368E+03  0.7546771E-02  0.1219605E+00
          5   -1    0    0  501    0  0.00000000000E+00  0.00000000000E+00  0.14024450915E+03  0.14032324236E+03  0.47000000000E+01 0. -1.
         -5   -1    0    0    0  501 -0.00000000000E+00 -0.00000000000E+00 -0.14224207475E+03  0.14231970289E+03  0.47000000000E+01 0. -1.
         25    2    1    2    0    0 -0.48951629780E+02 -0.17957568489E+02 -0.41345805292E+02  0.14160724944E+03  0.12499760459E+03 0.  0.
         25    2    1    2    0    0  0.48951629780E+02  0.17957568489E+02  0.39348239686E+02  0.14103569581E+03  0.12499618875E+03 0.  0.
          5    1    3    3  502    0  0.23364647083E+02 -0.43108543241E+02 -0.42246001216E+02  0.64892741139E+02  0.47000000000E+01 0. -1.
         -5    1    3    3    0  502 -0.72316276864E+02  0.25150974753E+02  0.90019592461E+00  0.76714508296E+02  0.47000000000E+01 0. -1.
          5    1    4    4  503    0 -0.12319372450E+02 -0.43778654058E+02  0.66563416923E+00  0.45726038070E+02  0.47000000000E+01 0. -1.
         -5    1    4    4    0  503  0.61271002231E+02  0.61736222547E+02  0.38682605517E+02  0.95309657739E+02  0.47000000000E+01 0. -1.
<mgrwt>
<rscale>  0 0.13543651E+03</rscale>
<asrwt>0</asrwt>
<pdfrwt beam="1">  1        5 0.21588106E-01 0.13543684E+03</pdfrwt>
<pdfrwt beam="2">  1       -5 0.21895424E-01 0.13543684E+03</pdfrwt>
<totfact> 0.28386632E+02</totfact>
</mgrwt>
</event>
<event>
 8    1  0.1821556E-007  0.1309550E+03  0.7546771E-02  0.1226049E+00
          5   -1    0    0  501    0  0.00000000000E+00  0.00000000000E+00  0.24413401836E+03  0.24417925571E+03  0.47000000000E+01 0. -1.
         -5   -1    0    0    0  501 -0.00000000000E+00 -0.00000000000E+00 -0.70113223139E+02  0.70270577477E+02  0.47000000000E+01 0. -1.
         25    2    1    2    0    0  0.38983174416E+02  0.19094207296E+01  0.88012795348E+02  0.15777636375E+03  0.12499518005E+03 0.  0.
         25    2    1    2    0    0 -0.38983174416E+02 -0.19094207296E+01  0.86007999873E+02  0.15667346944E+03  0.12500346479E+03 0.  0.
          5    1    3    3  502    0  0.55432903938E+02 -0.47926826521E+02  0.29765793296E+02  0.79233073839E+02  0.47000000000E+01 0.  1.
         -5    1    3    3    0  502 -0.16449729523E+02  0.49836247251E+02  0.58247002051E+02  0.78543289907E+02  0.47000000000E+01 0.  1.
          5    1    4    4  503    0 -0.15322532136E+02 -0.62544823568E+02  0.32502877772E+02  0.72285282110E+02  0.47000000000E+01 0. -1.
         -5    1    4    4    0  503 -0.23660642280E+02  0.60635402839E+02  0.53505122101E+02  0.84388187334E+02  0.47000000000E+01 0. -1.
<mgrwt>
<rscale>  0 0.13095298E+03</rscale>
<asrwt>0</asrwt>
<pdfrwt beam="1">  1        5 0.37574663E-01 0.13095495E+03</pdfrwt>
<pdfrwt beam="2">  1       -5 0.10802234E-01 0.13095495E+03</pdfrwt>
<totfact> 0.34353485E+02</totfact>
</mgrwt>
</event>
<event>
 8    1  0.1821556E-007  0.1270214E+03  0.7546771E-02  0.1231947E+00
          5   -1    0    0  501    0  0.00000000000E+00  0.00000000000E+00  0.13632384874E+02  0.14419844568E+02  0.47000000000E+01 0.  1.
         -5   -1    0    0    0  501 -0.00000000000E+00 -0.00000000000E+00 -0.12357903110E+04  0.12357992486E+04  0.47000000000E+01 0.  1.
         25    2    1    2    0    0  0.22520610188E+02 -0.15491588818E+01 -0.77627177812E+03  0.78659538469E+03  0.12499939175E+03 0.  0.
         25    2    1    2    0    0 -0.22520610188E+02  0.15491588818E+01 -0.44588614801E+03  0.46362370845E+03  0.12499163280E+03 0.  0.
          5    1    3    3  502    0 -0.32216858373E+01 -0.44454922766E+02 -0.63627342150E+03  0.63784996380E+03  0.47000000000E+01 0.  1.
         -5    1    3    3    0  502  0.25742296026E+02  0.42905763884E+02 -0.13999835662E+03  0.14874542089E+03  0.47000000000E+01 0.  1.
          5    1    4    4  503    0 -0.23333349467E+02  0.37280697219E+02 -0.41128449111E+03  0.41365603853E+03  0.47000000000E+01 0.  1.
         -5    1    4    4    0  503  0.81273927919E+00 -0.35731538337E+02 -0.34601656904E+02  0.49967669923E+02  0.47000000000E+01 0.  1.
<mgrwt>
<rscale>  0 0.12701945E+03</rscale>
<asrwt>0</asrwt>
<pdfrwt beam="1">  1        5 0.21585523E-02 0.12702136E+03</pdfrwt>
<pdfrwt beam="2">  1       -5 0.19018276E+00 0.12702136E+03</pdfrwt>
<totfact> 0.10231144E+02</totfact>
</mgrwt>
</event>
<event>
 8    1  0.1821556E-007  0.1391238E+03  0.7546771E-02  0.1214514E+00
         -5   -1    0    0    0  501 -0.00000000000E+00  0.00000000000E+00  0.70206299782E+02  0.70363445973E+02  0.47000000000E+01 0.  1.
          5   -1    0    0  501    0  0.00000000000E+00 -0.00000000000E+00 -0.30597013618E+03  0.30600623234E+03  0.47000000000E+01 0.  1.
         25    2    1    2    0    0  0.54170809129E+01  0.60834867389E+02 -0.58226769938E+02  0.15081517519E+03  0.12499853789E+03 0.  0.
         25    2    1    2    0    0 -0.54170809129E+01 -0.60834867389E+02 -0.17753706646E+03  0.22555450313E+03  0.12500079223E+03 0.  0.
          5    1    3    3  502    0 -0.49530956090E+02  0.14679399002E+02 -0.59437435438E+02  0.78890424626E+02  0.47000000000E+01 0.  1.
         -5    1    3    3    0  502  0.54948037003E+02  0.46155468387E+02  0.12106655006E+01  0.71924750562E+02  0.47000000000E+01 0.  1.
          5    1    4    4  503    0 -0.53933238811E+02  0.79708544447E+01 -0.73649671234E+02  0.91753435042E+02  0.47000000000E+01 0.  1.
         -5    1    4    4    0  503  0.48516157898E+02 -0.68805721834E+02 -0.10388739522E+03  0.13380106808E+03  0.47000000000E+01 0.  1.
<mgrwt>
<rscale>  0 0.13912327E+03</rscale>
<asrwt>0</asrwt>
<pdfrwt beam="2">  1        5 0.47087193E-01 0.13912377E+03</pdfrwt>
<pdfrwt beam="1">  1       -5 0.10815834E-01 0.13912377E+03</pdfrwt>
<totfact> 0.21984702E+02</totfact>
</mgrwt>
</event>
<event>
 8    1  0.1821556E-007  0.1466488E+03  0.7546771E-02  0.1204658E+00
         -5   -1    0    0    0  501 -0.00000000000E+00  0.00000000000E+00  0.53243662061E+03  0.53245736446E+03  0.47000000000E+01 0.  1.
          5   -1    0    0  501    0  0.00000000000E+00 -0.00000000000E+00 -0.52792674917E+02  0.53001476629E+02  0.47000000000E+01 0.  1.
         25    2    1    2    0    0 -0.47050773202E+02  0.60513498414E+02  0.38228811034E+03  0.40945095168E+03  0.12502089333E+03 0.  0.
         25    2    1    2    0    0  0.47050773202E+02 -0.60513498414E+02  0.97355835351E+02  0.17600788941E+03  0.12499983884E+03 0.  0.
          5    1    4    4  502    0  0.61570027979E+02  0.14842546474E+02  0.19137792225E+02  0.66328837035E+02  0.47000000000E+01 0.  1.
         -5    1    4    4    0  502 -0.14519254776E+02 -0.75356044888E+02  0.78218043126E+02  0.10967905238E+03  0.47000000000E+01 0.  1.
          5    1    3    3  503    0  0.14385743142E+02 -0.11371320946E+02  0.38090195937E+01  0.19309458202E+02  0.47000000000E+01 0. -1.
         -5    1    3    3    0  503 -0.61436516345E+02  0.71884819359E+02  0.37847909075E+03  0.39014149347E+03  0.47000000000E+01 0. -1.
<mgrwt>
<rscale>  0 0.14664435E+03</rscale>
<asrwt>0</asrwt>
<pdfrwt beam="2">  1        5 0.81396071E-02 0.14664884E+03</pdfrwt>
<pdfrwt beam="1">  1       -5 0.81930986E-01 0.14664884E+03</pdfrwt>
<totfact> 0.10794131E+02</totfact>
</mgrwt>
</event>
<event>
 8    1  0.1821556E-007  0.1298542E+03  0.7546771E-02  0.1227673E+00
         -5   -1    0    0    0  501 -0.00000000000E+00  0.00000000000E+00  0.18501576475E+03  0.18507545274E+03  0.47000000000E+01 0. -1.
          5   -1    0    0  501    0  0.00000000000E+00 -0.00000000000E+00 -0.94989586002E+02  0.95105790827E+02  0.47000000000E+01 0. -1.
         25    2    1    2    0    0 -0.24597210541E+02 -0.25156054516E+02  0.73686753872E+02  0.14930305655E+03  0.12499526053E+03 0.  0.
         25    2    1    2    0    0  0.24597210541E+02  0.25156054516E+02  0.16339424879E+02  0.13087818701E+03  0.12499709271E+03 0.  0.
          5    1    3    3  502    0 -0.40675512991E+02 -0.64371101553E+02  0.74527727615E+02  0.10665180850E+03  0.47000000000E+01 0.  1.
         -5    1    3    3    0  502  0.16078302450E+02  0.39215047038E+02 -0.84097374305E+00  0.42651248055E+02  0.47000000000E+01 0.  1.
          5    1    4    4  503    0 -0.11022621735E+02 -0.26131781347E+02 -0.38219187499E+02  0.47824308457E+02  0.47000000000E+01 0.  1.
         -5    1    4    4    0  503  0.35619832277E+02  0.51287835863E+02  0.54558612378E+02  0.83053878558E+02  0.47000000000E+01 0.  1.
<mgrwt>
<rscale>  0 0.12985380E+03</rscale>
<asrwt>0</asrwt>
<pdfrwt beam="2">  1        5 0.14627313E-01 0.12985424E+03</pdfrwt>
<pdfrwt beam="1">  1       -5 0.28477494E-01 0.12985424E+03</pdfrwt>
<totfact> 0.34622059E+02</totfact>
</mgrwt>
</event>
<event>
 8    1  0.1821556E-007  0.1598172E+03  0.7546771E-02  0.1188904E+00
         -5   -1    0    0    0  501 -0.00000000000E+00  0.00000000000E+00  0.15290798962E+03  0.15298020554E+03  0.47000000000E+01 0. -1.
          5   -1    0    0  501    0  0.00000000000E+00 -0.00000000000E+00 -0.16931398630E+03  0.16937920757E+03  0.47000000000E+01 0. -1.
         25    2    1    2    0    0  0.51005460283E+02  0.85522242572E+02  0.11062828338E+02  0.16019880363E+03  0.12500263822E+03 0.  0.
         25    2    1    2    0    0 -0.51005460283E+02 -0.85522242572E+02 -0.27468825025E+02  0.16216060948E+03  0.12500366381E+03 0.  0.
          5    1    3    3  502    0 -0.31948414642E+02  0.51455455914E+02  0.31016331402E+02  0.68209002010E+02  0.47000000000E+01 0. -1.
         -5    1    3    3    0  502  0.82953874925E+02  0.34066786657E+02 -0.19953503064E+02  0.91989801624E+02  0.47000000000E+01 0. -1.
          5    1    4    4  503    0 -0.37641507413E+02  0.54017921028E+00 -0.58380524228E+02  0.69624352658E+02  0.47000000000E+01 0.  1.
         -5    1    4    4    0  503 -0.13363952870E+02 -0.86062421782E+02  0.30911699203E+02  0.92536256823E+02  0.47000000000E+01 0.  1.
<mgrwt>
<rscale>  0 0.15981697E+03</rscale>
<asrwt>0</asrwt>
<pdfrwt beam="2">  1        5 0.26058878E-01 0.15981717E+03</pdfrwt>
<pdfrwt beam="1">  1       -5 0.23534878E-01 0.15981717E+03</pdfrwt>
<totfact> 0.18272538E+02</totfact>
</mgrwt>
</event>
<event>
 8    1  0.1821556E-007  0.2052889E+03  0.7546771E-02  0.1145352E+00
          5   -1    0    0  501    0  0.00000000000E+00  0.00000000000E+00  0.17950478382E+03  0.17956630367E+03  0.47000000000E+01 0.  1.
         -5   -1    0    0    0  501 -0.00000000000E+00 -0.00000000000E+00 -0.23590995282E+03  0.23595676689E+03  0.47000000000E+01 0.  1.
         25    2    1    2    0    0  0.15587873422E+03 -0.47119776340E+02 -0.13028051088E+02  0.20570145648E+03  0.12499962391E+03 0.  0.
         25    2    1    2    0    0 -0.15587873422E+03  0.47119776340E+02 -0.43377117917E+02  0.20982161408E+03  0.12500032910E+03 0.  0.
          5    1    4    4  502    0 -0.45880724014E+02  0.50587595838E+02  0.32785578621E+02  0.75902107048E+02  0.47000000000E+01 0. -1.
         -5    1    4    4    0  502 -0.10999801020E+03 -0.34678194983E+01 -0.76162696539E+02  0.13391950704E+03  0.47000000000E+01 0. -1.
          5    1    3    3  503    0  0.99916763302E+02 -0.12128167434E+02 -0.66416773438E+02  0.12068027937E+03  0.47000000000E+01 0.  1.
         -5    1    3    3    0  503  0.55961970916E+02 -0.34991608906E+02  0.53388722351E+02  0.85021177108E+02  0.47000000000E+01 0.  1.
<mgrwt>
<rscale>  0 0.20528880E+03</rscale>
<asrwt>0</asrwt>
<pdfrwt beam="1">  1        5 0.27624454E-01 0.20528891E+03</pdfrwt>
<pdfrwt beam="2">  1       -5 0.36302172E-01 0.20528891E+03</pdfrwt>
<totfact> 0.74818671E+01</totfact>
</mgrwt>
</event>
<event>
 8    1  0.1821556E-007  0.1261159E+03  0.7546771E-02  0.1233338E+00
         -5   -1    0    0    0  501 -0.00000000000E+00  0.00000000000E+00  0.89381318146E+02  0.89504804528E+02  0.47000000000E+01 0.  1.
          5   -1    0    0  501    0  0.00000000000E+00 -0.00000000000E+00 -0.18757622967E+03  0.18763510315E+03  0.47000000000E+01 0.  1.
         25    2    1    2    0    0  0.16457426693E+02 -0.28815455720E+01 -0.17252347279E+02  0.12728361907E+03  0.12499730397E+03 0.  0.
         25    2    1    2    0    0 -0.16457426693E+02  0.28815455720E+01 -0.80942564241E+02  0.14985628861E+03  0.12500423325E+03 0.  0.
          5    1    4    4  502    0 -0.68605063665E+02 -0.10066368172E+02 -0.60608973549E+02  0.92214555269E+02  0.47000000000E+01 0.  1.
         -5    1    4    4    0  502  0.52147636972E+02  0.12947913744E+02 -0.20333590691E+02  0.57641733340E+02  0.47000000000E+01 0.  1.
          5    1    3    3  503    0 -0.37830801001E+02 -0.62469633979E+01  0.34695127091E+02  0.51923365645E+02  0.47000000000E+01 0.  1.
         -5    1    3    3    0  503  0.54288227694E+02  0.33654178259E+01 -0.51947474369E+02  0.75360253428E+02  0.47000000000E+01 0.  1.
<mgrwt>
<rscale>  0 0.12611414E+03</rscale>
<asrwt>0</asrwt>
<pdfrwt beam="2">  1        5 0.28871909E-01 0.12611585E+03</pdfrwt>
<pdfrwt beam="1">  1       -5 0.13765000E-01 0.12611585E+03</pdfrwt>
<totfact> 0.37195600E+02</totfact>
</mgrwt>
</event>
<event>
 8    1  0.1821556E-007  0.1544257E+03  0.7546771E-02  0.1195141E+00
         -5   -1    0    0    0  501 -0.00000000000E+00  0.00000000000E+00  0.37047104664E+03  0.37050085884E+03  0.47000000000E+01 0.  1.
          5   -1    0    0  501    0  0.00000000000E+00 -0.00000000000E+00 -0.66469867549E+02  0.66635825889E+02  0.47000000000E+01 0.  1.
         25    2    1    2    0    0  0.35228731335E+02 -0.83555817206E+02  0.19191463163E+03  0.24633009251E+03  0.12499860216E+03 0.  0.
         25    2    1    2    0    0 -0.35228731335E+02  0.83555817206E+02  0.11208654746E+03  0.19080659222E+03  0.12498449268E+03 0.  0.
          5    1    3    3  502    0  0.70231410480E+02 -0.87632311757E+02  0.17231544961E+03  0.20573423939E+03  0.47000000000E+01 0. -1.
         -5    1    3    3    0  502 -0.35002679145E+02  0.40764945508E+01  0.19599182021E+02  0.40595853126E+02  0.47000000000E+01 0. -1.
          5    1    4    4  503    0  0.44424966568E+02  0.30444554013E+02  0.63332562615E+02  0.83267953085E+02  0.47000000000E+01 0. -1.
         -5    1    4    4    0  503 -0.79653697903E+02  0.53111263193E+02  0.48753984850E+02  0.10753863913E+03  0.47000000000E+01 0. -1.
<mgrwt>
<rscale>  0 0.15442282E+03</rscale>
<asrwt>0</asrwt>
<pdfrwt beam="2">  1        5 0.10241193E-01 0.15442567E+03</pdfrwt>
<pdfrwt beam="1">  1       -5 0.57010604E-01 0.15442567E+03</pdfrwt>
<totfact> 0.16645925E+02</totfact>
</mgrwt>
</event>
<event>
 8    1  0.1821556E-007  0.1673785E+03  0.7546771E-02  0.1180612E+00
         -5   -1    0    0    0  501 -0.00000000000E+00  0.00000000000E+00  0.27830807652E+03  0.27834775993E+03  0.47000000000E+01 0.  1.
          5   -1    0    0  501    0  0.00000000000E+00 -0.00000000000E+00 -0.10488909314E+03  0.10499434203E+03  0.47000000000E+01 0.  1.
         25    2    1    2    0    0 -0.55290047947E+02 -0.96599487630E+02  0.12563119477E+03  0.20927537526E+03  0.12499814071E+03 0.  0.
         25    2    1    2    0    0  0.55290047947E+02  0.96599487630E+02  0.47787788611E+02  0.17406672670E+03  0.12500840848E+03 0.  0.
          5    1    4    4  502    0  0.30047050421E+01  0.49033892065E+02 -0.38379871639E+02  0.62517640474E+02  0.47000000000E+01 0. -1.
         -5    1    4    4    0  502  0.52285342905E+02  0.47565595565E+02  0.86167660250E+02  0.11154908622E+03  0.47000000000E+01 0. -1.
          5    1    3    3  503    0 -0.24952860559E+02 -0.83885843412E+01  0.11168244689E+03  0.11483933360E+03  0.47000000000E+01 0. -1.
         -5    1    3    3    0  503 -0.30337187388E+02 -0.88210903289E+02  0.13948747875E+02  0.94436041663E+02  0.47000000000E+01 0. -1.
<mgrwt>
<rscale>  0 0.16737655E+03</rscale>
<asrwt>0</asrwt>
<pdfrwt beam="2">  1        5 0.16147932E-01 0.16737847E+03</pdfrwt>
<pdfrwt beam="1">  1       -5 0.42827775E-01 0.16737847E+03</pdfrwt>
<totfact> 0.13865455E+02</totfact>
</mgrwt>
</event>
<event>
 8    1  0.1821556E-007  0.1416077E+03  0.7546771E-02  0.1211188E+00
         -5   -1    0    0    0  501 -0.00000000000E+00  0.00000000000E+00  0.42698323421E+03  0.42700910095E+03  0.47000000000E+01 0. -1.
          5   -1    0    0  501    0  0.00000000000E+00 -0.00000000000E+00 -0.52904515450E+02  0.53112877488E+02  0.47000000000E+01 0. -1.
         25    2    1    2    0    0 -0.46720230296E+02  0.47354292395E+02  0.26831861904E+03  0.30339352140E+03  0.12501015388E+03 0.  0.
         25    2    1    2    0    0  0.46720230296E+02 -0.47354292395E+02  0.10576009972E+03  0.17672845704E+03  0.12499015925E+03 0.  0.
          5    1    4    4  502    0 -0.16714910552E+02 -0.47310924490E+02  0.10108089613E+03  0.11294755142E+03  0.47000000000E+01 0.  1.
         -5    1    4    4    0  502  0.63435140848E+02 -0.43367905363E-01  0.46792035889E+01  0.63780905618E+02  0.47000000000E+01 0.  1.
          5    1    3    3  503    0 -0.19298479565E+02  0.62427607369E+02  0.49012960743E+02  0.81816855208E+02  0.47000000000E+01 0.  1.
         -5    1    3    3    0  503 -0.27421750731E+02 -0.15073314973E+02  0.21930565830E+03  0.22157666619E+03  0.47000000000E+01 0.  1.
<mgrwt>
<rscale>  0 0.14160331E+03</rscale>
<asrwt>0</asrwt>
<pdfrwt beam="2">  1        5 0.81571739E-02 0.14160772E+03</pdfrwt>
<pdfrwt beam="1">  1       -5 0.65707745E-01 0.14160772E+03</pdfrwt>
<totfact> 0.17571725E+02</totfact>
</mgrwt>
</event>
<event>
 8    1  0.1821556E-007  0.1369187E+03  0.7546771E-02  0.1217536E+00
          5   -1    0    0  501    0  0.00000000000E+00  0.00000000000E+00  0.37177540507E+02  0.37473450844E+02  0.47000000000E+01 0.  1.
         -5   -1    0    0    0  501 -0.00000000000E+00 -0.00000000000E+00 -0.92043436433E+03  0.92044636402E+03  0.47000000000E+01 0.  1.
         25    2    1    2    0    0 -0.10659207713E+02 -0.54845707677E+02 -0.76453170630E+03  0.77669513717E+03  0.12499974323E+03 0.  0.
         25    2    1    2    0    0  0.10659207713E+02  0.54845707677E+02 -0.11872511752E+03  0.18122467769E+03  0.12500023966E+03 0.  0.
          5    1    4    4  502    0  0.23560817942E+02  0.33542598496E+01 -0.12521229258E+03  0.12754046972E+03  0.47000000000E+01 0.  1.
         -5    1    4    4    0  502 -0.12901610229E+02  0.51491447827E+02  0.64871750616E+01  0.53684207977E+02  0.47000000000E+01 0.  1.
          5    1    3    3  503    0  0.54238772325E+02 -0.25112862036E+02 -0.45903916328E+03  0.46293794799E+03  0.47000000000E+01 0.  1.
         -5    1    3    3    0  503 -0.64897980038E+02 -0.29732845641E+02 -0.30549254302E+03  0.31375718918E+03  0.47000000000E+01 0.  1.
<mgrwt>
<rscale>  0 0.13691859E+03</rscale>
<asrwt>0</asrwt>
<pdfrwt beam="1">  1        5 0.57433077E-02 0.13691870E+03</pdfrwt>
<pdfrwt beam="2">  1       -5 0.14162896E+00 0.13691870E+03</pdfrwt>
<totfact> 0.49004944E+01</totfact>
</mgrwt>
</event>
<event>
 8    1  0.1821556E-007  0.1364894E+03  0.7546771E-02  0.1218133E+00
         -5   -1    0    0    0  501 -0.00000000000E+00  0.00000000000E+00  0.70266476430E+02  0.70423488340E+02  0.47000000000E+01 0.  1.
          5   -1    0    0  501    0  0.00000000000E+00 -0.00000000000E+00 -0.40510975093E+03  0.40513701423E+03  0.47000000000E+01 0.  1.
         25    2    1    2    0    0  0.11109569224E+02  0.53664639573E+02 -0.27441844933E+02  0.13922077347E+03  0.12500421130E+03 0.  0.
         25    2    1    2    0    0 -0.11109569224E+02 -0.53664639573E+02 -0.30740142957E+03  0.33633972910E+03  0.12500183360E+03 0.  0.
          5    1    3    3  502    0 -0.15396539711E+02 -0.31755885034E+02 -0.34246941787E+02  0.49400735734E+02  0.47000000000E+01 0.  1.
         -5    1    3    3    0  502  0.26506108935E+02  0.85420524607E+02  0.68050968540E+01  0.89820037732E+02  0.47000000000E+01 0.  1.
          5    1    4    4  503    0  0.53810066745E+02 -0.39351557224E+01 -0.13539636079E+03  0.14582617477E+03  0.47000000000E+01 0.  1.
         -5    1    4    4    0  503 -0.64919635969E+02 -0.49729483851E+02 -0.17200506878E+03  0.19051355434E+03  0.47000000000E+01 0.  1.
<mgrwt>
<rscale>  0 0.13648890E+03</rscale>
<asrwt>0</asrwt>
<pdfrwt beam="2">  1        5 0.62338751E-01 0.13648945E+03</pdfrwt>
<pdfrwt beam="1">  1       -5 0.10824402E-01 0.13648945E+03</pdfrwt>
<totfact> 0.11935328E+02</totfact>
</mgrwt>
</event>
<event>
 8    1  0.1821556E-007  0.1449947E+03  0.7546771E-02  0.1206765E+00
          5   -1    0    0  501    0  0.00000000000E+00  0.00000000000E+00  0.48305206148E+02  0.48533317844E+02  0.47000000000E+01 0. -1.
         -5   -1    0    0    0  501 -0.00000000000E+00 -0.00000000000E+00 -0.49048888733E+03  0.49051140516E+03  0.47000000000E+01 0. -1.
         25    2    1    2    0    0 -0.56689981741E+02 -0.46708185019E+02 -0.31258984064E+03  0.34457616398E+03  0.12499966293E+03 0.  0.
         25    2    1    2    0    0  0.56689981741E+02  0.46708185019E+02 -0.12959384054E+03  0.19446855903E+03  0.12501219287E+03 0.  0.
          5    1    4    4  502    0  0.18510680761E+02 -0.24146279147E+02  0.10755292088E+02  0.32610648671E+02  0.47000000000E+01 0.  1.
         -5    1    4    4    0  502  0.38179300981E+02  0.70854464166E+02 -0.14034913263E+03  0.16185791036E+03  0.47000000000E+01 0.  1.
          5    1    3    3  503    0  0.17966179423E+02 -0.33087554776E+02 -0.22675707299E+03  0.22990961275E+03  0.47000000000E+01 0. -1.
         -5    1    3    3    0  503 -0.74656161164E+02 -0.13620630243E+02 -0.85832767656E+02  0.11466655123E+03  0.47000000000E+01 0. -1.
<mgrwt>
<rscale>  0 0.14499198E+03</rscale>
<asrwt>0</asrwt>
<pdfrwt beam="1">  1        5 0.74508497E-02 0.14499468E+03</pdfrwt>
<pdfrwt beam="2">  1       -5 0.75479105E-01 0.14499468E+03</pdfrwt>
<totfact> 0.15122044E+02</totfact>
</mgrwt>
</event>
<event>
 8    1  0.1821556E-007  0.1864419E+03  0.7546771E-02  0.1161710E+00
          5   -1    0    0  501    0  0.00000000000E+00  0.00000000000E+00  0.11701768680E+03  0.11711203621E+03  0.47000000000E+01 0. -1.
         -5   -1    0    0    0  501 -0.00000000000E+00 -0.00000000000E+00 -0.33024576239E+03  0.33027920548E+03  0.47000000000E+01 0. -1.
         25    2    1    2    0    0  0.40986525450E+02  0.13211844571E+03 -0.17776602397E+03  0.25760677000E+03  0.12500123883E+03 0.  0.
         25    2    1    2    0    0 -0.40986525450E+02 -0.13211844571E+03 -0.35462051614E+02  0.18978447169E+03  0.12500163849E+03 0.  0.
          5    1    4    4  502    0  0.35050572048E+02 -0.86617764422E+02 -0.38076059812E+02  0.10101017793E+03  0.47000000000E+01 0.  1.
         -5    1    4    4    0  502 -0.76037097498E+02 -0.45500681286E+02  0.26140081979E+01  0.88774293759E+02  0.47000000000E+01 0.  1.
          5    1    3    3  503    0  0.23530791589E+02  0.15402096451E+03 -0.16322883887E+03  0.22570312249E+03  0.47000000000E+01 0.  1.
         -5    1    3    3    0  503  0.17455733862E+02 -0.21902518799E+02 -0.14537185094E+02  0.31903647516E+02  0.47000000000E+01 0.  1.
<mgrwt>
<rscale>  0 0.18644185E+03</rscale>
<asrwt>0</asrwt>
<pdfrwt beam="1">  1        5 0.18012551E-01 0.18644192E+03</pdfrwt>
<pdfrwt beam="2">  1       -5 0.50816870E-01 0.18644192E+03</pdfrwt>
<totfact> 0.81622290E+01</totfact>
</mgrwt>
</event>
<event>
 8    1  0.1821556E-007  0.1378964E+03  0.7546771E-02  0.1216191E+00
          5   -1    0    0  501    0  0.00000000000E+00  0.00000000000E+00  0.16916180922E+02  0.17556969471E+02  0.47000000000E+01 0.  1.
         -5   -1    0    0    0  501 -0.00000000000E+00 -0.00000000000E+00 -0.13006601197E+04  0.13006686116E+04  0.47000000000E+01 0.  1.
         25    2    1    2    0    0 -0.46474256505E+02  0.35067374251E+02 -0.89906992493E+03  0.90958208447E+03  0.12499304469E+03 0.  0.
         25    2    1    2    0    0  0.46474256505E+02 -0.35067374251E+02 -0.38467401389E+03  0.40864349656E+03  0.12500333220E+03 0.  0.
          5    1    3    3  502    0 -0.63416716438E+02 -0.20158654347E+02 -0.66926126524E+03  0.67257771478E+03  0.47000000000E+01 0.  1.
         -5    1    3    3    0  502  0.16942459933E+02  0.55226028598E+02 -0.22980865969E+03  0.23700436969E+03  0.47000000000E+01 0.  1.
          5    1    4    4  503    0 -0.25028736626E+02 -0.49423146066E+02 -0.24243458571E+03  0.24872817165E+03  0.47000000000E+01 0.  1.
         -5    1    4    4    0  503  0.71502993131E+02  0.14355771814E+02 -0.14223942818E+03  0.15991532490E+03  0.47000000000E+01 0.  1.
<mgrwt>
<rscale>  0 0.13789404E+03</rscale>
<asrwt>0</asrwt>
<pdfrwt beam="1">  1        5 0.26524350E-02 0.13789638E+03</pdfrwt>
<pdfrwt beam="2">  1       -5 0.20015143E+00 0.13789638E+03</pdfrwt>
<totfact> 0.64544300E+01</totfact>
</mgrwt>
</event>
<event>
 8    1  0.1821556E-007  0.1521702E+03  0.7546771E-02  0.1197832E+00
         -5   -1    0    0    0  501 -0.00000000000E+00  0.00000000000E+00  0.27150238969E+02  0.27554046456E+02  0.47000000000E+01 0.  1.
          5   -1    0    0  501    0  0.00000000000E+00 -0.00000000000E+00 -0.89208685165E+03  0.89209923265E+03  0.47000000000E+01 0.  1.
         25    2    1    2    0    0  0.76562796816E+02 -0.40853404366E+02 -0.32816079374E+03  0.36172492256E+03  0.12499820220E+03 0.  0.
         25    2    1    2    0    0 -0.76562796816E+02  0.40853404366E+02 -0.53677581895E+03  0.55792835654E+03  0.12499963488E+03 0.  0.
          5    1    3    3  502    0  0.64793332194E+01 -0.74039873319E+02 -0.15837491592E+03  0.17501025282E+03  0.47000000000E+01 0.  1.
         -5    1    3    3    0  502  0.70083463597E+02  0.33186468953E+02 -0.16978587782E+03  0.18671466974E+03  0.47000000000E+01 0.  1.
          5    1    4    4  503    0 -0.39292163660E+01 -0.36470994735E+02 -0.23769144224E+03  0.24055120850E+03  0.47000000000E+01 0.  1.
         -5    1    4    4    0  503 -0.72633580450E+02  0.77324399101E+02 -0.29908437671E+03  0.31737714804E+03  0.47000000000E+01 0.  1.
<mgrwt>
<rscale>  0 0.15216991E+03</rscale>
<asrwt>0</asrwt>
<pdfrwt beam="2">  1        5 0.13727612E+00 0.15217020E+03</pdfrwt>
<pdfrwt beam="1">  1       -5 0.42089750E-02 0.15217020E+03</pdfrwt>
<totfact> 0.92134009E+01</totfact>
</mgrwt>
</event>
<event>
 8    1  0.1821556E-007  0.1582767E+03  0.7546771E-02  0.1190660E+00
          5   -1    0    0  501    0  0.00000000000E+00  0.00000000000E+00  0.23816640881E+02  0.24275963068E+02  0.47000000000E+01 0.  1.
         -5   -1    0    0    0  501 -0.00000000000E+00 -0.00000000000E+00 -0.12527459766E+04  0.12527547932E+04  0.47000000000E+01 0.  1.
         25    2    1    2    0    0 -0.32010235250E+02  0.91646966493E+02 -0.87678681454E+03  0.89095826928E+03  0.12501079081E+03 0.  0.
         25    2    1    2    0    0  0.32010235250E+02 -0.91646966493E+02 -0.35214252115E+03  0.38607248696E+03  0.12499515334E+03 0.  0.
          5    1    4    4  502    0 -0.41650795633E+02 -0.15920218707E+02 -0.16642243358E+03  0.17235648679E+03  0.47000000000E+01 0.  1.
         -5    1    4    4    0  502  0.73661030883E+02 -0.75726747787E+02 -0.18572008757E+03  0.21371600017E+03  0.47000000000E+01 0.  1.
          5    1    3    3  503    0  0.40861740639E+02  0.26784479588E+02 -0.47241995874E+03  0.47496294340E+03  0.47000000000E+01 0. -1.
         -5    1    3    3    0  503 -0.72871975889E+02  0.64862486905E+02 -0.40436685581E+03  0.41599532588E+03  0.47000000000E+01 0. -1.
<mgrwt>
<rscale>  0 0.15827363E+03</rscale>
<asrwt>0</asrwt>
<pdfrwt beam="1">  1        5 0.37001103E-02 0.15827672E+03</pdfrwt>
<pdfrwt beam="2">  1       -5 0.19276611E+00 0.15827672E+03</pdfrwt>
<totfact> 0.43931186E+01</totfact>
</mgrwt>
</event>
<event>
 8    1  0.1821556E-007  0.1501042E+03  0.7546771E-02  0.1200349E+00
         -5   -1    0    0    0  501 -0.00000000000E+00  0.00000000000E+00  0.18300892186E+03  0.18306926416E+03  0.47000000000E+01 0. -1.
          5   -1    0    0  501    0  0.00000000000E+00 -0.00000000000E+00 -0.12455531637E+03  0.12464396029E+03  0.47000000000E+01 0. -1.
         25    2    1    2    0    0  0.36224428070E+02  0.74798922658E+02  0.46529057735E+02  0.15715028695E+03  0.12499668578E+03 0.  0.
         25    2    1    2    0    0 -0.36224428070E+02 -0.74798922658E+02  0.11924547754E+02  0.15056293749E+03  0.12497965949E+03 0.  0.
          5    1    4    4  502    0  0.11546784537E+02 -0.64107888428E+02 -0.41947648751E+02  0.77619873922E+02  0.47000000000E+01 0. -1.
         -5    1    4    4    0  502 -0.47771212607E+02 -0.10691034229E+02  0.53872196505E+02  0.72943063571E+02  0.47000000000E+01 0. -1.
          5    1    3    3  503    0 -0.29356843071E+02  0.15793388434E+02 -0.26249286067E+02  0.42689230168E+02  0.47000000000E+01 0.  1.
         -5    1    3    3    0  503  0.65581271141E+02  0.59005534224E+02  0.72778343802E+02  0.11446105678E+03  0.47000000000E+01 0.  1.
<mgrwt>
<rscale>  0 0.15010062E+03</rscale>
<asrwt>0</asrwt>
<pdfrwt beam="2">  1        5 0.19173817E-01 0.15010416E+03</pdfrwt>
<pdfrwt beam="1">  1       -5 0.28166679E-01 0.15010416E+03</pdfrwt>
<totfact> 0.22644537E+02</totfact>
</mgrwt>
</event>
<event>
 8    1  0.1821556E-007  0.1275361E+03  0.7546771E-02  0.1231160E+00
          5   -1    0    0  501    0  0.00000000000E+00  0.00000000000E+00  0.87489304242E+03  0.87490566673E+03  0.47000000000E+01 0.  1.
         -5   -1    0    0    0  501 -0.00000000000E+00 -0.00000000000E+00 -0.18639436662E+02  0.19222866568E+02  0.47000000000E+01 0.  1.
         25    2    1    2    0    0 -0.18141584234E+02  0.17611534342E+02  0.36706659235E+03  0.38858982324E+03  0.12499953716E+03 0.  0.
         25    2    1    2    0    0  0.18141584234E+02 -0.17611534342E+02  0.48918701341E+03  0.50553871006E+03  0.12500468013E+03 0.  0.
          5    1    4    4  502    0 -0.21874384891E+01 -0.41404228558E+02  0.49615924475E+02  0.64829969854E+02  0.47000000000E+01 0.  1.
         -5    1    4    4    0  502  0.20329022723E+02  0.23792694217E+02  0.43957108894E+03  0.44070874020E+03  0.47000000000E+01 0.  1.
          5    1    3    3  503    0 -0.63020575138E+02  0.26179560154E+02  0.29725405800E+03  0.30502299464E+03  0.47000000000E+01 0. -1.
         -5    1    3    3    0  503  0.44878990904E+02 -0.85680258121E+01  0.69812534351E+02  0.83566828607E+02  0.47000000000E+01 0. -1.
<mgrwt>
<rscale>  0 0.12753483E+03</rscale>
<asrwt>0</asrwt>
<pdfrwt beam="1">  1        5 0.13464478E+00 0.12753609E+03</pdfrwt>
<pdfrwt beam="2">  1       -5 0.29134561E-02 0.12753609E+03</pdfrwt>
<totfact> 0.16687333E+02</totfact>
</mgrwt>
</event>
<event>
 8    1  0.1821556E-007  0.1336789E+03  0.7546771E-02  0.1222098E+00
          5   -1    0    0  501    0  0.00000000000E+00  0.00000000000E+00  0.13739045137E+03  0.13747081919E+03  0.47000000000E+01 0. -1.
         -5   -1    0    0    0  501 -0.00000000000E+00 -0.00000000000E+00 -0.14512935016E+03  0.14520543474E+03  0.47000000000E+01 0. -1.
         25    2    1    2    0    0 -0.28364059816E+02  0.37933240827E+02 -0.49624982241E+02  0.14258883716E+03  0.12500194787E+03 0.  0.
         25    2    1    2    0    0  0.28364059816E+02 -0.37933240827E+02  0.41886083453E+02  0.14008741676E+03  0.12500635863E+03 0.  0.
          5    1    4    4  502    0 -0.21837344672E+02 -0.33687206683E+02  0.71007787175E+02  0.81706140258E+02  0.47000000000E+01 0.  1.
         -5    1    4    4    0  502  0.50201404489E+02 -0.42460341446E+01 -0.29121703722E+02  0.58381276504E+02  0.47000000000E+01 0.  1.
          5    1    3    3  503    0  0.46697143964E+02  0.55057111491E+00 -0.42488803756E+01  0.47128222620E+02  0.47000000000E+01 0.  1.
         -5    1    3    3    0  503 -0.75061203780E+02  0.37382669712E+02 -0.45376101865E+02  0.95460614539E+02  0.47000000000E+01 0.  1.
<mgrwt>
<rscale>  0 0.13367784E+03</rscale>
<asrwt>0</asrwt>
<pdfrwt beam="1">  1        5 0.21149027E-01 0.13367887E+03</pdfrwt>
<pdfrwt beam="2">  1       -5 0.22339627E-01 0.13367887E+03</pdfrwt>
<totfact> 0.28280108E+02</totfact>
</mgrwt>
</event>
<event>
 8    1  0.1821556E-007  0.1324025E+03  0.7546771E-02  0.1223940E+00
         -5   -1    0    0    0  501 -0.00000000000E+00  0.00000000000E+00  0.35785026003E+03  0.35788112356E+03  0.47000000000E+01 0.  1.
          5   -1    0    0  501    0  0.00000000000E+00 -0.00000000000E+00 -0.55078729153E+02  0.55278896562E+02  0.47000000000E+01 0.  1.
         25    2    1    2    0    0  0.43428343322E+02 -0.43245534635E+01  0.22078638333E+03  0.25744329525E+03  0.12500280173E+03 0.  0.
         25    2    1    2    0    0 -0.43428343322E+02  0.43245534635E+01  0.81985147545E+02  0.15571672487E+03  0.12498564405E+03 0.  0.
          5    1    4    4  502    0 -0.51757599436E+02  0.43127908942E+02  0.34798373147E+01  0.67624440086E+02  0.47000000000E+01 0. -1.
         -5    1    4    4    0  502  0.83292561144E+01 -0.38803355479E+02  0.78505310231E+02  0.88092284783E+02  0.47000000000E+01 0. -1.
          5    1    3    3  503    0  0.17830699254E+02  0.34227685965E+02  0.80788310423E+01  0.39709266342E+02  0.47000000000E+01 0.  1.
         -5    1    3    3    0  503  0.25597644068E+02 -0.38552239428E+02  0.21270755229E+03  0.21773402891E+03  0.47000000000E+01 0.  1.
<mgrwt>
<rscale>  0 0.13239845E+03</rscale>
<asrwt>0</asrwt>
<pdfrwt beam="2">  1        5 0.84914223E-02 0.13240250E+03</pdfrwt>
<pdfrwt beam="1">  1       -5 0.55071657E-01 0.13240250E+03</pdfrwt>
<totfact> 0.23603013E+02</totfact>
</mgrwt>
</event>
<event>
 8    1  0.1821556E-007  0.1251881E+03  0.7546771E-02  0.1234778E+00
         -5   -1    0    0    0  501 -0.00000000000E+00  0.00000000000E+00  0.22147501043E+02  0.22640711173E+02  0.47000000000E+01 0. -1.
          5   -1    0    0  501    0  0.00000000000E+00 -0.00000000000E+00 -0.71358689211E+03  0.71360237009E+03  0.47000000000E+01 0. -1.
         25    2    1    2    0    0  0.67025027616E+01  0.14121799528E+01 -0.29365851707E+03  0.31922936611E+03  0.12500058297E+03 0.  0.
         25    2    1    2    0    0 -0.67025027616E+01 -0.14121799528E+01 -0.39778087400E+03  0.41701371515E+03  0.12499558836E+03 0.  0.
          5    1    3    3  502    0 -0.79736328959E+01  0.61952927381E+02 -0.15260010818E+03  0.16495643985E+03  0.47000000000E+01 0. -1.
         -5    1    3    3    0  502  0.14676135657E+02 -0.60540747428E+02 -0.14105840888E+03  0.15427292625E+03  0.47000000000E+01 0. -1.
          5    1    4    4  503    0  0.37058905219E+02 -0.15388889988E+02 -0.34297573590E+03  0.34534710916E+03  0.47000000000E+01 0. -1.
         -5    1    4    4    0  503 -0.43761407980E+02  0.13976710035E+02 -0.54805138101E+02  0.71666605990E+02  0.47000000000E+01 0. -1.
<mgrwt>
<rscale>  0 0.12518687E+03</rscale>
<asrwt>0</asrwt>
<pdfrwt beam="2">  1        5 0.10982171E+00 0.12518811E+03</pdfrwt>
<pdfrwt beam="1">  1       -5 0.34464382E-02 0.12518811E+03</pdfrwt>
<totfact> 0.21240721E+02</totfact>
</mgrwt>
</event>
<event>
 8    1  0.1821556E-007  0.2613199E+03  0.7546771E-02  0.1106353E+00
          5   -1    0    0  501    0  0.00000000000E+00  0.00000000000E+00  0.37168045515E+03  0.37171017035E+03  0.47000000000E+01 0. -1.
         -5   -1    0    0    0  501 -0.00000000000E+00 -0.00000000000E+00 -0.18632428385E+03  0.18638355280E+03  0.47000000000E+01 0. -1.
         25    2    1    2    0    0 -0.14887192567E+03 -0.17464361080E+03  0.59306560265E+02  0.26796525471E+03  0.12499947438E+03 0.  0.
         25    2    1    2    0    0  0.14887192567E+03  0.17464361080E+03  0.12604961103E+03  0.29012846843E+03  0.12499113050E+03 0.  0.
          5    1    4    4  502    0  0.14084751588E+03  0.11425055159E+03  0.13790528541E+03  0.22788411311E+03  0.47000000000E+01 0.  1.
         -5    1    4    4    0  502  0.80244097979E+01  0.60393059212E+02 -0.11855674372E+02  0.62244355314E+02  0.47000000000E+01 0.  1.
          5    1    3    3  503    0 -0.82806113715E+01 -0.35749378407E+01  0.44879938702E+02  0.46017905245E+02  0.47000000000E+01 0.  1.
         -5    1    3    3    0  503 -0.14059131430E+03 -0.17106867296E+03  0.14426621563E+02  0.22194734947E+03  0.47000000000E+01 0.  1.
<mgrwt>
<rscale>  0 0.26131894E+03</rscale>
<asrwt>0</asrwt>
<pdfrwt beam="1">  1        5 0.57188453E-01 0.26131994E+03</pdfrwt>
<pdfrwt beam="2">  1       -5 0.28672120E-01 0.26131994E+03</pdfrwt>
<totfact> 0.28288529E+01</totfact>
</mgrwt>
</event>
<event>
 8    1  0.1821556E-007  0.1365517E+03  0.7546771E-02  0.1218046E+00
          5   -1    0    0  501    0  0.00000000000E+00  0.00000000000E+00  0.26350428120E+03  0.26354619369E+03  0.47000000000E+01 0. -1.
         -5   -1    0    0    0  501 -0.00000000000E+00 -0.00000000000E+00 -0.70638147807E+02  0.70794335406E+02  0.47000000000E+01 0. -1.
         25    2    1    2    0    0  0.54670330911E+02 -0.56906483569E+01  0.95875407901E+02  0.16684851579E+03  0.12500041928E+03 0.  0.
         25    2    1    2    0    0 -0.54670330911E+02  0.56906483569E+01  0.96990725490E+02  0.16749201331E+03  0.12500058052E+03 0.  0.
          5    1    4    4  502    0 -0.54423449257E+02 -0.29183038283E+02  0.11297880076E+03  0.12884044774E+03  0.47000000000E+01 0. -1.
         -5    1    4    4    0  502 -0.24688165406E+00  0.34873686640E+02 -0.15988075267E+02  0.38651565571E+02  0.47000000000E+01 0. -1.
          5    1    3    3  503    0  0.22712135013E+02  0.59462207433E+02  0.44076293505E+02  0.77565487421E+02  0.47000000000E+01 0.  1.
         -5    1    3    3    0  503  0.31958195898E+02 -0.65152855790E+02  0.51799114396E+02  0.89283028370E+02  0.47000000000E+01 0.  1.
<mgrwt>
<rscale>  0 0.13655169E+03</rscale>
<asrwt>0</asrwt>
<pdfrwt beam="1">  1        5 0.40554360E-01 0.13655173E+03</pdfrwt>
<pdfrwt beam="2">  1       -5 0.10882646E-01 0.13655173E+03</pdfrwt>
<totfact> 0.29457443E+02</totfact>
</mgrwt>
</event>
<event>
 8    1  0.1821556E-007  0.1752328E+03  0.7546771E-02  0.1172498E+00
          5   -1    0    0  501    0  0.00000000000E+00  0.00000000000E+00  0.43055215122E+03  0.43057780356E+03  0.47000000000E+01 0. -1.
         -5   -1    0    0    0  501 -0.00000000000E+00 -0.00000000000E+00 -0.11034012675E+03  0.11044018097E+03  0.47000000000E+01 0. -1.
         25    2    1    2    0    0 -0.72380263474E+02 -0.99209766330E+02 -0.86559373851E+00  0.17523473928E+03  0.12499993728E+03 0.  0.
         25    2    1    2    0    0  0.72380263474E+02  0.99209766330E+02  0.32107761821E+03  0.36578324525E+03  0.12500026128E+03 0.  0.
          5    1    3    3  502    0  0.34656863450E+02 -0.38043722245E+02  0.34161085179E+01  0.51789794206E+02  0.47000000000E+01 0.  1.
         -5    1    3    3    0  502 -0.10703712692E+03 -0.61166044085E+02 -0.42817022564E+01  0.12344494507E+03  0.47000000000E+01 0.  1.
          5    1    4    4  503    0 -0.17754935508E+02  0.10046599784E+02  0.15692950368E+03  0.15831971143E+03  0.47000000000E+01 0. -1.
         -5    1    4    4    0  503  0.90135198982E+02  0.89163166546E+02  0.16414811453E+03  0.20746353382E+03  0.47000000000E+01 0. -1.
<mgrwt>
<rscale>  0 0.17523277E+03</rscale>
<asrwt>0</asrwt>
<pdfrwt beam="1">  1        5 0.66248462E-01 0.17523283E+03</pdfrwt>
<pdfrwt beam="2">  1       -5 0.16985074E-01 0.17523283E+03</pdfrwt>
<totfact> 0.50054316E+01</totfact>
</mgrwt>
</event>
<event>
 8    1  0.1821556E-007  0.1419660E+03  0.7546771E-02  0.1210711E+00
         -5   -1    0    0    0  501 -0.00000000000E+00  0.00000000000E+00  0.32484820267E+03  0.32488220139E+03  0.47000000000E+01 0.  1.
          5   -1    0    0  501    0  0.00000000000E+00 -0.00000000000E+00 -0.62624284261E+02  0.62800405884E+02  0.47000000000E+01 0.  1.
         25    2    1    2    0    0 -0.63563291060E+02  0.22040374491E+02  0.15175205821E+03  0.20780530539E+03  0.12501315011E+03 0.  0.
         25    2    1    2    0    0  0.63563291060E+02 -0.22040374491E+02  0.11047186020E+03  0.17987730188E+03  0.12500296699E+03 0.  0.
          5    1    4    4  502    0  0.23116216970E+02 -0.73005782092E+02  0.59472793916E+02  0.97073719008E+02  0.47000000000E+01 0.  1.
         -5    1    4    4    0  502  0.40447074090E+02  0.50965407602E+02  0.50999066282E+02  0.82803582870E+02  0.47000000000E+01 0.  1.
          5    1    3    3  503    0 -0.44734670676E+02  0.66749181803E+02  0.49399446484E+02  0.94440665737E+02  0.47000000000E+01 0.  1.
         -5    1    3    3    0  503 -0.18828620384E+02 -0.44708807313E+02  0.10235261173E+03  0.11336463965E+03  0.47000000000E+01 0.  1.
<mgrwt>
<rscale>  0 0.14196380E+03</rscale>
<asrwt>0</asrwt>
<pdfrwt beam="2">  1        5 0.96506685E-02 0.14196604E+03</pdfrwt>
<pdfrwt beam="1">  1       -5 0.49992809E-01 0.14196604E+03</pdfrwt>
<totfact> 0.23810946E+02</totfact>
</mgrwt>
</event>
<event>
 8    1  0.1821556E-007  0.1592953E+03  0.7546771E-02  0.1189496E+00
          5   -1    0    0  501    0  0.00000000000E+00  0.00000000000E+00  0.21112269200E+04  0.21112321516E+04  0.47000000000E+01 0. -1.
         -5   -1    0    0    0  501 -0.00000000000E+00 -0.00000000000E+00 -0.11812168233E+02  0.12712880018E+02  0.47000000000E+01 0. -1.
         25    2    1    2    0    0 -0.55913340864E+02  0.81384021343E+02  0.12010115815E+04  0.12115295328E+04  0.12500131744E+03 0.  0.
         25    2    1    2    0    0  0.55913340864E+02 -0.81384021343E+02  0.89840317030E+03  0.91241549879E+03  0.12499650157E+03 0.  0.
          5    1    3    3  502    0  0.59485869083E+01  0.82848928989E+02  0.42667636802E+03  0.43471156385E+03  0.47000000000E+01 0. -1.
         -5    1    3    3    0  502 -0.61861927773E+02 -0.14649076465E+01  0.77433521346E+03  0.77681796894E+03  0.47000000000E+01 0. -1.
          5    1    4    4  503    0  0.14833355725E+02 -0.22971210912E+02  0.29230816316E+02  0.40301806353E+02  0.47000000000E+01 0.  1.
         -5    1    4    4    0  503  0.41079985139E+02 -0.58412810431E+02  0.86917235398E+03  0.87211369243E+03  0.47000000000E+01 0.  1.
<mgrwt>
<rscale>  0 0.15929435E+03</rscale>
<asrwt>0</asrwt>
<pdfrwt beam="1">  1        5 0.32487390E+00 0.15929529E+03</pdfrwt>
<pdfrwt beam="2">  1       -5 0.18869442E-02 0.15929529E+03</pdfrwt>
<totfact> 0.18285968E+01</totfact>
</mgrwt>
</event>
<event>
 8    1  0.1821556E-007  0.1445714E+03  0.7546771E-02  0.1207308E+00
         -5   -1    0    0    0  501 -0.00000000000E+00  0.00000000000E+00  0.36804401254E+02  0.37103287612E+02  0.47000000000E+01 0.  1.
          5   -1    0    0  501    0  0.00000000000E+00 -0.00000000000E+00 -0.63592540744E+03  0.63594277559E+03  0.47000000000E+01 0.  1.
         25    2    1    2    0    0  0.65058118242E+02  0.32308760441E+02 -0.18741986547E+03  0.23669905060E+03  0.12499527922E+03 0.  0.
         25    2    1    2    0    0 -0.65058118242E+02 -0.32308760441E+02 -0.41170114071E+03  0.43634701261E+03  0.12499788557E+03 0.  0.
          5    1    3    3  502    0 -0.46593825714E+01  0.17367181987E+02  0.13812903143E+02  0.23156319857E+02  0.47000000000E+01 0. -1.
         -5    1    3    3    0  502  0.69717500814E+02  0.14941578454E+02 -0.20123276862E+03  0.21354273074E+03  0.47000000000E+01 0. -1.
          5    1    4    4  503    0 -0.25930068276E+02 -0.93302148257E+00 -0.37003747480E+03  0.37097582364E+03  0.47000000000E+01 0.  1.
         -5    1    4    4    0  503 -0.39128049967E+02 -0.31375738959E+02 -0.41663665905E+02  0.65371188960E+02  0.47000000000E+01 0.  1.
<mgrwt>
<rscale>  0 0.14457082E+03</rscale>
<asrwt>0</asrwt>
<pdfrwt beam="2">  1        5 0.97858998E-01 0.14457139E+03</pdfrwt>
<pdfrwt beam="1">  1       -5 0.56865433E-02 0.14457139E+03</pdfrwt>
<totfact> 0.12955036E+02</totfact>
</mgrwt>
</event>
<event>
 8    1  0.1821556E-007  0.1404968E+03  0.7546771E-02  0.1212662E+00
         -5   -1    0    0    0  501 -0.00000000000E+00  0.00000000000E+00  0.18788441471E+03  0.18794319166E+03  0.47000000000E+01 0. -1.
          5   -1    0    0  501    0  0.00000000000E+00 -0.00000000000E+00 -0.13328183573E+03  0.13336467949E+03  0.47000000000E+01 0. -1.
         25    2    1    2    0    0 -0.20863702148E+02 -0.60652066599E+02  0.10135145534E+03  0.17323756057E+03  0.12500067057E+03 0.  0.
         25    2    1    2    0    0  0.20863702148E+02  0.60652066599E+02 -0.46748876364E+02  0.14807031058E+03  0.12500156873E+03 0.  0.
          5    1    3    3  502    0 -0.68252260059E+02 -0.29730264487E+02  0.26229787012E+02  0.79071811389E+02  0.47000000000E+01 0.  1.
         -5    1    3    3    0  502  0.47388557910E+02 -0.30921802112E+02  0.75121668332E+02  0.94165749186E+02  0.47000000000E+01 0.  1.
          5    1    4    4  503    0 -0.24099163661E+02  0.67050320072E+02  0.13301984223E+02  0.72632967000E+02  0.47000000000E+01 0. -1.
         -5    1    4    4    0  503  0.44962865810E+02 -0.63982534730E+01 -0.60050860587E+02  0.75437343581E+02  0.47000000000E+01 0. -1.
<mgrwt>
<rscale>  0 0.14049663E+03</rscale>
<asrwt>0</asrwt>
<pdfrwt beam="2">  1        5 0.20515792E-01 0.14049683E+03</pdfrwt>
<pdfrwt beam="1">  1       -5 0.28916188E-01 0.14049683E+03</pdfrwt>
<totfact> 0.18549377E+02</totfact>
</mgrwt>
</event>
<event>
 8    1  0.1821556E-007  0.1342205E+03  0.7546771E-02  0.1221327E+00
          5   -1    0    0  501    0  0.00000000000E+00  0.00000000000E+00  0.53204528874E+03  0.53206604785E+03  0.47000000000E+01 0.  1.
         -5   -1    0    0    0  501 -0.00000000000E+00 -0.00000000000E+00 -0.34348716965E+02  0.34668780727E+02  0.47000000000E+01 0.  1.
         25    2    1    2    0    0 -0.18599680674E+01 -0.48851513502E+02  0.20932456253E+03  0.24866025043E+03  0.12500087124E+03 0.  0.
         25    2    1    2    0    0  0.18599680674E+01  0.48851513502E+02  0.28837200925E+03  0.31807457815E+03  0.12499236654E+03 0.  0.
          5    1    4    4  502    0 -0.55788040615E+02  0.51463990513E+02  0.15367649736E+03  0.17146254296E+03  0.47000000000E+01 0. -1.
         -5    1    4    4    0  502  0.57648008682E+02 -0.26124770107E+01  0.13469551189E+03  0.14661203519E+03  0.47000000000E+01 0. -1.
          5    1    3    3  503    0 -0.13844294217E+02 -0.29818185172E+02 -0.45809974292E+01  0.33524083683E+02  0.47000000000E+01 0. -1.
         -5    1    3    3    0  503  0.11984326150E+02 -0.19033328330E+02  0.21390555996E+03  0.21513616674E+03  0.47000000000E+01 0. -1.
<mgrwt>
<rscale>  0 0.13421854E+03</rscale>
<asrwt>0</asrwt>
<pdfrwt beam="1">  1        5 0.81879331E-01 0.13422052E+03</pdfrwt>
<pdfrwt beam="2">  1       -5 0.53106356E-02 0.13422052E+03</pdfrwt>
<totfact> 0.21630286E+02</totfact>
</mgrwt>
</event>
<event>
 8    1  0.1821556E-007  0.1254675E+03  0.7546771E-02  0.1234342E+00
          5   -1    0    0  501    0  0.00000000000E+00  0.00000000000E+00  0.77487934983E+02  0.77630342444E+02  0.47000000000E+01 0.  1.
         -5   -1    0    0    0  501 -0.00000000000E+00 -0.00000000000E+00 -0.20320135269E+03  0.20325570038E+03  0.47000000000E+01 0.  1.
         25    2    1    2    0    0  0.10253717378E+02 -0.34156870403E+01 -0.69138592087E+02  0.14325317003E+03  0.12499808066E+03 0.  0.
         25    2    1    2    0    0 -0.10253717378E+02  0.34156870403E+01 -0.56574825622E+02  0.13763287279E+03  0.12500116456E+03 0.  0.
          5    1    4    4  502    0 -0.25655829590E+02 -0.46578418786E+02  0.84458919982E+01  0.54048069162E+02  0.47000000000E+01 0.  1.
         -5    1    4    4    0  502  0.15402112212E+02  0.49994105826E+02 -0.65020717621E+02  0.83584803630E+02  0.47000000000E+01 0.  1.
          5    1    3    3  503    0  0.55095917179E+02  0.15219784977E+02 -0.74669745537E+02  0.94153400592E+02  0.47000000000E+01 0. -1.
         -5    1    3    3    0  503 -0.44842199801E+02 -0.18635472017E+02  0.55311534497E+01  0.49099769437E+02  0.47000000000E+01 0. -1.
<mgrwt>
<rscale>  0 0.12546674E+03</rscale>
<asrwt>0</asrwt>
<pdfrwt beam="1">  1        5 0.11936356E-01 0.12546751E+03</pdfrwt>
<pdfrwt beam="2">  1       -5 0.31276881E-01 0.12546751E+03</pdfrwt>
<totfact> 0.40905561E+02</totfact>
</mgrwt>
</event>
<event>
 8    1  0.1821556E-007  0.1299212E+03  0.7546771E-02  0.1227575E+00
          5   -1    0    0  501    0  0.00000000000E+00  0.00000000000E+00  0.43920017366E+02  0.44170781354E+02  0.47000000000E+01 0.  1.
         -5   -1    0    0    0  501 -0.00000000000E+00 -0.00000000000E+00 -0.38295202317E+03  0.38298086382E+03  0.47000000000E+01 0.  1.
         25    2    1    2    0    0  0.25346282930E+02  0.24742787157E+02 -0.16990464687E+03  0.21388286669E+03  0.12499460813E+03 0.  0.
         25    2    1    2    0    0 -0.25346282930E+02 -0.24742787157E+02 -0.16912735894E+03  0.21326877849E+03  0.12499947504E+03 0.  0.
          5    1    4    4  502    0 -0.41071305954E+02 -0.38606423457E+02 -0.18036278590E+03  0.18902415889E+03  0.47000000000E+01 0. -1.
         -5    1    4    4    0  502  0.15725023023E+02  0.13863636300E+02  0.11235426959E+02  0.24244619599E+02  0.47000000000E+01 0. -1.
          5    1    3    3  503    0  0.53296057052E+02  0.61508379025E+01 -0.17169138932E+03  0.17993978346E+03  0.47000000000E+01 0.  1.
         -5    1    3    3    0  503 -0.27949774121E+02  0.18591949254E+02  0.17867424568E+01  0.33943083230E+02  0.47000000000E+01 0.  1.
<mgrwt>
<rscale>  0 0.12991999E+03</rscale>
<asrwt>0</asrwt>
<pdfrwt beam="1">  1        5 0.67784340E-02 0.12992116E+03</pdfrwt>
<pdfrwt beam="2">  1       -5 0.58937202E-01 0.12992116E+03</pdfrwt>
<totfact> 0.29730223E+02</totfact>
</mgrwt>
</event>
<event>
 8    1  0.1821556E-007  0.1327216E+03  0.7546771E-02  0.1223473E+00
          5   -1    0    0  501    0  0.00000000000E+00  0.00000000000E+00  0.89982822723E+01  0.10151802000E+02  0.47000000000E+01 0. -1.
         -5   -1    0    0    0  501 -0.00000000000E+00 -0.00000000000E+00 -0.18407490588E+04  0.18407550591E+04  0.47000000000E+01 0. -1.
         25    2    1    2    0    0  0.44348525881E+02  0.48273044498E+01 -0.94817664403E+03  0.95742028617E+03  0.12499824590E+03 0.  0.
         25    2    1    2    0    0 -0.44348525881E+02 -0.48273044498E+01 -0.88357413253E+03  0.89348657493E+03  0.12499966911E+03 0.  0.
          5    1    4    4  502    0 -0.17151070126E+02  0.46729256373E+02 -0.16184455101E+03  0.16939165062E+03  0.47000000000E+01 0. -1.
         -5    1    4    4    0  502 -0.27197455755E+02 -0.51556560822E+02 -0.72172958153E+03  0.72409492431E+03  0.47000000000E+01 0. -1.
          5    1    3    3  503    0  0.69056677036E+02 -0.21915165331E+02 -0.84104846108E+03  0.84417634592E+03  0.47000000000E+01 0. -1.
         -5    1    3    3    0  503 -0.24708151155E+02  0.26742469781E+02 -0.10712818294E+03  0.11324394025E+03  0.47000000000E+01 0. -1.
<mgrwt>
<rscale>  0 0.13272122E+03</rscale>
<asrwt>0</asrwt>
<pdfrwt beam="1">  1        5 0.14735464E-02 0.13272156E+03</pdfrwt>
<pdfrwt beam="2">  1       -5 0.28328108E+00 0.13272156E+03</pdfrwt>
<totfact> 0.47515716E+01</totfact>
</mgrwt>
</event>
<event>
 8    1  0.1821556E-007  0.1268931E+03  0.7546771E-02  0.1232140E+00
          5   -1    0    0  501    0  0.00000000000E+00  0.00000000000E+00  0.14288202062E+03  0.14295930126E+03  0.47000000000E+01 0.  1.
         -5   -1    0    0    0  501 -0.00000000000E+00 -0.00000000000E+00 -0.12069750780E+03  0.12078898289E+03  0.47000000000E+01 0.  1.
         25    2    1    2    0    0  0.98081304595E+01 -0.19524110268E+02 -0.23174379949E+02  0.12899188434E+03  0.12499785612E+03 0.  0.
         25    2    1    2    0    0 -0.98081304595E+01  0.19524110268E+02  0.45358892770E+02  0.13475639981E+03  0.12499787131E+03 0.  0.
          5    1    3    3  502    0  0.24918150397E+02 -0.21358032468E+02 -0.71120620190E+02  0.78468543928E+02  0.47000000000E+01 0. -1.
         -5    1    3    3    0  502 -0.15110019937E+02  0.18339222001E+01  0.47946240241E+02  0.50523340412E+02  0.47000000000E+01 0. -1.
          5    1    4    4  503    0 -0.14843309241E+02  0.62854499769E+02  0.60225191562E+02  0.88431757130E+02  0.47000000000E+01 0.  1.
         -5    1    4    4    0  503  0.50351787815E+01 -0.43330389501E+02 -0.14866298791E+02  0.46324642680E+02  0.47000000000E+01 0.  1.
<mgrwt>
<rscale>  0 0.12689309E+03</rscale>
<asrwt>0</asrwt>
<pdfrwt beam="1">  1        5 0.21994830E-01 0.12689310E+03</pdfrwt>
<pdfrwt beam="2">  1       -5 0.18581829E-01 0.12689310E+03</pdfrwt>
<totfact> 0.36367054E+02</totfact>
</mgrwt>
</event>
<event>
 8    1  0.1821556E-007  0.1419001E+03  0.7546771E-02  0.1210798E+00
          5   -1    0    0  501    0  0.00000000000E+00  0.00000000000E+00  0.82724442052E+01  0.95143750782E+01  0.47000000000E+01 0.  1.
         -5   -1    0    0    0  501 -0.00000000000E+00 -0.00000000000E+00 -0.22792652303E+04  0.22792700762E+04  0.47000000000E+01 0.  1.
         25    2    1    2    0    0  0.30987074742E+02  0.59557838053E+02 -0.12330513505E+04  0.12411894542E+04  0.12501317300E+03 0.  0.
         25    2    1    2    0    0 -0.30987074742E+02 -0.59557838053E+02 -0.10379414357E+04  0.10475949971E+04  0.12500207665E+03 0.  0.
          5    1    4    4  502    0 -0.22084115759E+02  0.37747085018E+02 -0.30574847752E+03  0.30889605388E+03  0.47000000000E+01 0.  1.
         -5    1    4    4    0  502 -0.89029589831E+01 -0.97304923071E+02 -0.73219295815E+03  0.73869894321E+03  0.47000000000E+01 0.  1.
          5    1    3    3  503    0  0.22378880559E+02  0.50367700048E+02 -0.18598085833E+03  0.19403270128E+03  0.47000000000E+01 0.  1.
         -5    1    3    3    0  503  0.86081941833E+01  0.91901380057E+01 -0.10470704921E+04  0.10471567529E+04  0.47000000000E+01 0.  1.
<mgrwt>
<rscale>  0 0.14189762E+03</rscale>
<asrwt>0</asrwt>
<pdfrwt beam="1">  1        5 0.13685914E-02 0.14190006E+03</pdfrwt>
<pdfrwt beam="2">  1       -5 0.35075163E+00 0.14190006E+03</pdfrwt>
<totfact> 0.20035989E+01</totfact>
</mgrwt>
</event>
<event>
 8    1  0.1821556E-007  0.1916777E+03  0.7546771E-02  0.1156959E+00
         -5   -1    0    0    0  501 -0.00000000000E+00  0.00000000000E+00  0.12972866955E+03  0.12981378087E+03  0.47000000000E+01 0. -1.
          5   -1    0    0  501    0  0.00000000000E+00 -0.00000000000E+00 -0.28961647675E+03  0.28965461088E+03  0.47000000000E+01 0. -1.
         25    2    1    2    0    0 -0.13308379189E+03  0.58344759153E+02 -0.48242334807E+02  0.19764625609E+03  0.12498525150E+03 0.  0.
         25    2    1    2    0    0  0.13308379189E+03 -0.58344759153E+02 -0.11164547239E+03  0.22182213567E+03  0.12499976713E+03 0.  0.
          5    1    3    3  502    0 -0.54052689047E+02  0.87528302275E+02 -0.47149304614E+02  0.11326095452E+03  0.47000000000E+01 0.  1.
         -5    1    3    3    0  502 -0.79031102844E+02 -0.29183543122E+02 -0.10930301923E+01  0.84385301569E+02  0.47000000000E+01 0.  1.
          5    1    4    4  503    0  0.52724301501E+02 -0.63081749019E+01  0.21738391308E+02  0.57569894007E+02  0.47000000000E+01 0.  1.
         -5    1    4    4    0  503  0.80359490390E+02 -0.52036584251E+02 -0.13338386370E+03  0.16425224166E+03  0.47000000000E+01 0.  1.
<mgrwt>
<rscale>  0 0.19167535E+03</rscale>
<asrwt>0</asrwt>
<pdfrwt beam="2">  1        5 0.44565861E-01 0.19167772E+03</pdfrwt>
<pdfrwt beam="1">  1       -5 0.19967737E-01 0.19167772E+03</pdfrwt>
<totfact> 0.89600558E+01</totfact>
</mgrwt>
</event>
<event>
 8    1  0.1821556E-007  0.1551584E+03  0.7546771E-02  0.1194275E+00
         -5   -1    0    0    0  501 -0.00000000000E+00  0.00000000000E+00  0.15134293519E+02  0.15847297571E+02  0.47000000000E+01 0.  1.
          5   -1    0    0  501    0  0.00000000000E+00 -0.00000000000E+00 -0.16761104332E+04  0.16761170229E+04  0.47000000000E+01 0.  1.
         25    2    1    2    0    0 -0.91372958270E+02  0.99394501538E+01 -0.60158169747E+03  0.62126860009E+03  0.12500529813E+03 0.  0.
         25    2    1    2    0    0  0.91372958270E+02 -0.99394501538E+01 -0.10593944422E+04  0.10706957204E+04  0.12499972465E+03 0.  0.
          5    1    4    4  502    0  0.19345031273E+02 -0.29368481658E+02 -0.69968179826E+02  0.78449819235E+02  0.47000000000E+01 0. -1.
         -5    1    4    4    0  502  0.72027926997E+02  0.19429031504E+02 -0.98942626242E+03  0.99224590112E+03  0.47000000000E+01 0. -1.
          5    1    3    3  503    0 -0.53368868957E+02 -0.19316155693E+02 -0.84225591313E+02  0.10167295745E+03  0.47000000000E+01 0.  1.
         -5    1    3    3    0  503 -0.38004089313E+02  0.29255605847E+02 -0.51735610616E+03  0.51959564265E+03  0.47000000000E+01 0.  1.
<mgrwt>
<rscale>  0 0.15515730E+03</rscale>
<asrwt>0</asrwt>
<pdfrwt beam="2">  1        5 0.25791835E+00 0.15515842E+03</pdfrwt>
<pdfrwt beam="1">  1       -5 0.23837075E-02 0.15515842E+03</pdfrwt>
<totfact> 0.33367008E+01</totfact>
</mgrwt>
</event>
<event>
 8    1  0.1821556E-007  0.1258059E+03  0.7546771E-02  0.1233815E+00
          5   -1    0    0  501    0  0.00000000000E+00  0.00000000000E+00  0.15981214403E+03  0.15988124148E+03  0.47000000000E+01 0. -1.
         -5   -1    0    0    0  501 -0.00000000000E+00 -0.00000000000E+00 -0.10262882974E+03  0.10273639421E+03  0.47000000000E+01 0. -1.
         25    2    1    2    0    0 -0.35946564461E+01 -0.13765156470E+02  0.53636449073E+02  0.13676172222E+03  0.12499799561E+03 0.  0.
         25    2    1    2    0    0  0.35946564461E+01  0.13765156470E+02  0.35468652096E+01  0.12585591347E+03  0.12499891846E+03 0.  0.
          5    1    3    3  502    0 -0.14601738523E+02 -0.55802193156E+02  0.69341180055E+02  0.90318241681E+02  0.47000000000E+01 0. -1.
         -5    1    3    3    0  502  0.11007082077E+02  0.42037036686E+02 -0.15704730983E+02  0.46443480537E+02  0.47000000000E+01 0. -1.
          5    1    4    4  503    0  0.23019654441E+02  0.60094041580E+02 -0.23424123998E+02  0.68643848297E+02  0.47000000000E+01 0. -1.
         -5    1    4    4    0  503 -0.19424997994E+02 -0.46328885109E+02  0.26970989208E+02  0.57212065173E+02  0.47000000000E+01 0. -1.
<mgrwt>
<rscale>  0 0.12580570E+03</rscale>
<asrwt>0</asrwt>
<pdfrwt beam="1">  1        5 0.24600073E-01 0.12580592E+03</pdfrwt>
<pdfrwt beam="2">  1       -5 0.15802640E-01 0.12580592E+03</pdfrwt>
<totfact> 0.39448256E+02</totfact>
</mgrwt>
</event>
<event>
 8    1  0.1821556E-007  0.1548034E+03  0.7546771E-02  0.1194700E+00
         -5   -1    0    0    0  501 -0.00000000000E+00  0.00000000000E+00  0.72853243304E+02  0.73004692041E+02  0.47000000000E+01 0.  1.
          5   -1    0    0  501    0  0.00000000000E+00 -0.00000000000E+00 -0.52285797569E+03  0.52287909954E+03  0.47000000000E+01 0.  1.
         25    2    1    2    0    0  0.83939178079E+02  0.35961186537E+02 -0.43308147083E+02  0.16072151411E+03  0.12496726347E+03 0.  0.
         25    2    1    2    0    0 -0.83939178079E+02 -0.35961186537E+02 -0.40669658530E+03  0.43516227748E+03  0.12500041076E+03 0.  0.
          5    1    4    4  502    0 -0.70126276716E+02 -0.72577643141E+02 -0.19283343617E+03  0.21769711315E+03  0.47000000000E+01 0.  1.
         -5    1    4    4    0  502 -0.13812901363E+02  0.36616456604E+02 -0.21386314913E+03  0.21746516432E+03  0.47000000000E+01 0.  1.
          5    1    3    3  503    0  0.36046618874E+02 -0.14949852918E+02  0.37118584511E+02  0.54062335785E+02  0.47000000000E+01 0.  1.
         -5    1    3    3    0  503  0.47892559206E+02  0.50911039455E+02 -0.80426731593E+02  0.10665917832E+03  0.47000000000E+01 0.  1.
<mgrwt>
<rscale>  0 0.15479672E+03</rscale>
<asrwt>0</asrwt>
<pdfrwt beam="2">  1        5 0.80452961E-01 0.15480341E+03</pdfrwt>
<pdfrwt beam="1">  1       -5 0.11221466E-01 0.15480341E+03</pdfrwt>
<totfact> 0.65463010E+01</totfact>
</mgrwt>
</event>
<event>
 8    1  0.1821556E-007  0.1322644E+03  0.7546771E-02  0.1224135E+00
          5   -1    0    0  501    0  0.00000000000E+00  0.00000000000E+00  0.86203957838E+02  0.86331989128E+02  0.47000000000E+01 0. -1.
         -5   -1    0    0    0  501 -0.00000000000E+00 -0.00000000000E+00 -0.20560854238E+03  0.20566225395E+03  0.47000000000E+01 0. -1.
         25    2    1    2    0    0 -0.50405548574E+01  0.42935045296E+02 -0.42129831587E+02  0.13881051928E+03  0.12499844897E+03 0.  0.
         25    2    1    2    0    0  0.50405548574E+01 -0.42935045296E+02 -0.77274752951E+02  0.15318372380E+03  0.12500016194E+03 0.  0.
          5    1    4    4  502    0 -0.40923184554E+01  0.34847570464E+01 -0.10016392937E+03  0.10041809273E+03  0.47000000000E+01 0.  1.
         -5    1    4    4    0  502  0.91328733127E+01 -0.46419802343E+02  0.22889176417E+02  0.52765631063E+02  0.47000000000E+01 0.  1.
          5    1    3    3  503    0  0.40965134374E+02  0.37321583324E+02  0.21776575866E+02  0.59727314292E+02  0.47000000000E+01 0.  1.
         -5    1    3    3    0  503 -0.46005689232E+02  0.56134619722E+01 -0.63906407453E+02  0.79083204984E+02  0.47000000000E+01 0.  1.
<mgrwt>
<rscale>  0 0.13226397E+03</rscale>
<asrwt>0</asrwt>
<pdfrwt beam="1">  1        5 0.13276128E-01 0.13226438E+03</pdfrwt>
<pdfrwt beam="2">  1       -5 0.31646063E-01 0.13226438E+03</pdfrwt>
<totfact> 0.33731251E+02</totfact>
</mgrwt>
</event>
<event>
 8    1  0.1821556E-007  0.1259940E+03  0.7546771E-02  0.1233525E+00
          5   -1    0    0  501    0  0.00000000000E+00  0.00000000000E+00  0.74649922616E+02  0.74797733566E+02  0.47000000000E+01 0. -1.
         -5   -1    0    0    0  501 -0.00000000000E+00 -0.00000000000E+00 -0.21346631362E+03  0.21351804854E+03  0.47000000000E+01 0. -1.
         25    2    1    2    0    0  0.83490257209E+01 -0.13383802608E+02 -0.80226452560E+02  0.14936515507E+03  0.12499933382E+03 0.  0.
         25    2    1    2    0    0 -0.83490257209E+01  0.13383802608E+02 -0.58589938449E+02  0.13895062704E+03  0.12500265383E+03 0.  0.
          5    1    4    4  502    0 -0.50796811092E+02  0.28307213415E+02 -0.71139349686E+02  0.92002779426E+02  0.47000000000E+01 0.  1.
         -5    1    4    4    0  502  0.42447785371E+02 -0.14923410806E+02  0.12549411237E+02  0.46947847612E+02  0.47000000000E+01 0.  1.
          5    1    3    3  503    0 -0.19949032475E+02  0.49042673529E+02 -0.54158643498E+02  0.75884098394E+02  0.47000000000E+01 0.  1.
         -5    1    3    3    0  503  0.28298058196E+02 -0.62426476138E+02 -0.26067809062E+02  0.73481056674E+02  0.47000000000E+01 0.  1.
<mgrwt>
<rscale>  0 0.12599321E+03</rscale>
<asrwt>0</asrwt>
<pdfrwt beam="1">  1        5 0.11499953E-01 0.12599403E+03</pdfrwt>
<pdfrwt beam="2">  1       -5 0.32856321E-01 0.12599403E+03</pdfrwt>
<totfact> 0.39694165E+02</totfact>
</mgrwt>
</event>
<event>
 8    1  0.1821556E-007  0.1600806E+03  0.7546771E-02  0.1188608E+00
          5   -1    0    0  501    0  0.00000000000E+00  0.00000000000E+00  0.11596184180E+03  0.11605704957E+03  0.47000000000E+01 0.  1.
         -5   -1    0    0    0  501 -0.00000000000E+00 -0.00000000000E+00 -0.22084362387E+03  0.22089363097E+03  0.47000000000E+01 0.  1.
         25    2    1    2    0    0  0.15474839953E+01  0.99988500054E+02 -0.49198727666E+02  0.16747029554E+03  0.12500276091E+03 0.  0.
         25    2    1    2    0    0 -0.15474839953E+01 -0.99988500054E+02 -0.55683054402E+02  0.16948038500E+03  0.12499161372E+03 0.  0.
          5    1    4    4  502    0  0.31823685217E+02  0.11710115474E+02 -0.38551479393E+02  0.51557543664E+02  0.47000000000E+01 0.  1.
         -5    1    4    4    0  502 -0.33371169213E+02 -0.11169861553E+03 -0.17131575009E+02  0.11792284133E+03  0.47000000000E+01 0.  1.
          5    1    3    3  503    0 -0.55389341743E+02  0.17292137820E+02 -0.76766340248E+01  0.58719825605E+02  0.47000000000E+01 0. -1.
         -5    1    3    3    0  503  0.56936825738E+02  0.82696362234E+02 -0.41522093641E+02  0.10875046994E+03  0.47000000000E+01 0. -1.
<mgrwt>
<rscale>  0 0.16007838E+03</rscale>
<asrwt>0</asrwt>
<pdfrwt beam="1">  1        5 0.17851454E-01 0.16008056E+03</pdfrwt>
<pdfrwt beam="2">  1       -5 0.33987112E-01 0.16008056E+03</pdfrwt>
<totfact> 0.18219478E+02</totfact>
</mgrwt>
</event>
<event>
 8    1  0.1821556E-007  0.1411225E+03  0.7546771E-02  0.1211827E+00
          5   -1    0    0  501    0  0.00000000000E+00  0.00000000000E+00  0.25572509372E+02  0.26000831441E+02  0.47000000000E+01 0. -1.
         -5   -1    0    0    0  501 -0.00000000000E+00 -0.00000000000E+00 -0.84369692665E+03  0.84371001774E+03  0.47000000000E+01 0. -1.
         25    2    1    2    0    0 -0.54391478732E+02  0.36497696814E+02 -0.53590983566E+03  0.55417948981E+03  0.12500016053E+03 0.  0.
         25    2    1    2    0    0  0.54391478732E+02 -0.36497696814E+02 -0.28221458161E+03  0.31553135937E+03  0.12499781535E+03 0.  0.
          5    1    4    4  502    0  0.42831662873E+02 -0.58022793495E+02 -0.65949577114E+02  0.97839831515E+02  0.47000000000E+01 0.  1.
         -5    1    4    4    0  502  0.11559815858E+02  0.21525096681E+02 -0.21626500450E+03  0.21769152786E+03  0.47000000000E+01 0.  1.
          5    1    3    3  503    0 -0.52533290795E+02 -0.29714630743E+02 -0.13698351246E+03  0.14976407649E+03  0.47000000000E+01 0. -1.
         -5    1    3    3    0  503 -0.18581879371E+01  0.66212327557E+02 -0.39892632320E+03  0.40441541332E+03  0.47000000000E+01 0. -1.
<mgrwt>
<rscale>  0 0.14112196E+03</rscale>
<asrwt>0</asrwt>
<pdfrwt beam="1">  1        5 0.39681877E-02 0.14112248E+03</pdfrwt>
<pdfrwt beam="2">  1       -5 0.12983346E+00 0.14112248E+03</pdfrwt>
<totfact> 0.11479496E+02</totfact>
</mgrwt>
</event>
<event>
 8    1  0.1821556E-007  0.1710225E+03  0.7546771E-02  0.1176791E+00
          5   -1    0    0  501    0  0.00000000000E+00  0.00000000000E+00  0.26415838271E+03  0.26420019144E+03  0.47000000000E+01 0.  1.
         -5   -1    0    0    0  501 -0.00000000000E+00 -0.00000000000E+00 -0.12783200298E+03  0.12791837627E+03  0.47000000000E+01 0.  1.
         25    2    1    2    0    0  0.31281888117E+02  0.11243645648E+03 -0.37640601292E+01  0.17104383329E+03  0.12498524508E+03 0.  0.
         25    2    1    2    0    0 -0.31281888117E+02 -0.11243645648E+03  0.14009043985E+03  0.22107473441E+03  0.12501277370E+03 0.  0.
          5    1    4    4  502    0  0.24761276142E+02 -0.49185281908E+02 -0.24263387133E+01  0.55319886769E+02  0.47000000000E+01 0. -1.
         -5    1    4    4    0  502 -0.56043164259E+02 -0.63251174572E+02  0.14251677857E+03  0.16575484765E+03  0.47000000000E+01 0. -1.
          5    1    3    3  503    0  0.36549171723E+02 -0.17554356312E+02 -0.12785185208E+01  0.40837752004E+02  0.47000000000E+01 0. -1.
         -5    1    3    3    0  503 -0.52672836060E+01  0.12999081279E+03 -0.24855416084E+01  0.13020608129E+03  0.47000000000E+01 0. -1.
<mgrwt>
<rscale>  0 0.17101750E+03</rscale>
<asrwt>0</asrwt>
<pdfrwt beam="1">  1        5 0.40649611E-01 0.17102253E+03</pdfrwt>
<pdfrwt beam="2">  1       -5 0.19676322E-01 0.17102253E+03</pdfrwt>
<totfact> 0.10785034E+02</totfact>
</mgrwt>
</event>
<event>
 8    1  0.1821556E-007  0.3008461E+03  0.7546771E-02  0.1084819E+00
         -5   -1    0    0    0  501 -0.00000000000E+00  0.00000000000E+00  0.71607785788E+03  0.71609328202E+03  0.47000000000E+01 0.  1.
          5   -1    0    0  501    0  0.00000000000E+00 -0.00000000000E+00 -0.13587761533E+03  0.13595887741E+03  0.47000000000E+01 0.  1.
         25    2    1    2    0    0 -0.80569971779E+02 -0.26151892417E+03  0.40296926225E+03  0.50288284464E+03  0.12499304408E+03 0.  0.
         25    2    1    2    0    0  0.80569971779E+02  0.26151892417E+03  0.17723098031E+03  0.34916931479E+03  0.12499888782E+03 0.  0.
          5    1    4    4  502    0  0.93525694789E+02  0.26921784642E+03  0.16882482699E+03  0.33128419315E+03  0.47000000000E+01 0.  1.
         -5    1    4    4    0  502 -0.12955723010E+02 -0.76989222548E+01  0.84061533186E+01  0.17885121644E+02  0.47000000000E+01 0.  1.
          5    1    3    3  503    0  0.64852126516E+01  0.11538454989E+02  0.15544567252E+02  0.20950357938E+02  0.47000000000E+01 0. -1.
         -5    1    3    3    0  503 -0.87055184431E+02 -0.27305737916E+03  0.38742469499E+03  0.48193248670E+03  0.47000000000E+01 0. -1.
<mgrwt>
<rscale>  0 0.30084552E+03</rscale>
<asrwt>0</asrwt>
<pdfrwt beam="2">  1        5 0.20911686E-01 0.30084612E+03</pdfrwt>
<pdfrwt beam="1">  1       -5 0.11017326E+00 0.30084612E+03</pdfrwt>
<totfact> 0.11481144E+01</totfact>
</mgrwt>
</event>
<event>
 8    1  0.1821556E-007  0.1313424E+03  0.7546771E-02  0.1225480E+00
         -5   -1    0    0    0  501 -0.00000000000E+00  0.00000000000E+00  0.25864357168E+03  0.25868627171E+03  0.47000000000E+01 0.  1.
          5   -1    0    0  501    0  0.00000000000E+00 -0.00000000000E+00 -0.80201032469E+02  0.80338630864E+02  0.47000000000E+01 0.  1.
         25    2    1    2    0    0 -0.38718771163E+02 -0.11214473788E+02  0.15903624589E+03  0.20625659384E+03  0.12499738931E+03 0.  0.
         25    2    1    2    0    0  0.38718771163E+02  0.11214473788E+02  0.19406293323E+02  0.13276830873E+03  0.12500364763E+03 0.  0.
          5    1    4    4  502    0 -0.41326092614E+02 -0.21822830951E+01  0.29229443859E+02  0.50882793541E+02  0.47000000000E+01 0.  1.
         -5    1    4    4    0  502  0.80044863777E+02  0.13396756883E+02 -0.98231505358E+01  0.81885515193E+02  0.47000000000E+01 0.  1.
          5    1    3    3  503    0  0.23449754442E+02 -0.51675423776E+02  0.65647127070E+02  0.86901528746E+02  0.47000000000E+01 0.  1.
         -5    1    3    3    0  503 -0.62168525606E+02  0.40460949989E+02  0.93389118818E+02  0.11935506509E+03  0.47000000000E+01 0.  1.
<mgrwt>
<rscale>  0 0.13134089E+03</rscale>
<asrwt>0</asrwt>
<pdfrwt beam="2">  1        5 0.12352490E-01 0.13134238E+03</pdfrwt>
<pdfrwt beam="1">  1       -5 0.39805188E-01 0.13134238E+03</pdfrwt>
<totfact> 0.24140160E+02</totfact>
</mgrwt>
</event>
<event>
 8    1  0.1821556E-007  0.1992104E+03  0.7546771E-02  0.1150409E+00
          5   -1    0    0  501    0  0.00000000000E+00  0.00000000000E+00  0.76486657924E+02  0.76630926136E+02  0.47000000000E+01 0. -1.
         -5   -1    0    0    0  501 -0.00000000000E+00 -0.00000000000E+00 -0.53124354174E+03  0.53126433218E+03  0.47000000000E+01 0. -1.
         25    2    1    2    0    0  0.13485323063E+03  0.76638284143E+02 -0.27502682489E+03  0.33959007793E+03  0.12499138454E+03 0.  0.
         25    2    1    2    0    0 -0.13485323063E+03 -0.76638284143E+02 -0.17973005893E+03  0.26830518038E+03  0.12500382126E+03 0.  0.
          5    1    3    3  502    0  0.98421783633E+02 -0.88225232411E+01 -0.96060490177E+02  0.13789268357E+03  0.47000000000E+01 0. -1.
         -5    1    3    3    0  502  0.36431446999E+02  0.85460807384E+02 -0.17896633471E+03  0.20169739436E+03  0.47000000000E+01 0. -1.
          5    1    4    4  503    0 -0.22451544733E+01 -0.58674155115E+02 -0.25862690053E+02  0.64332464075E+02  0.47000000000E+01 0.  1.
         -5    1    4    4    0  503 -0.13260807616E+03 -0.17964129027E+02 -0.15386736887E+03  0.20397271631E+03  0.47000000000E+01 0.  1.
<mgrwt>
<rscale>  0 0.19920843E+03</rscale>
<asrwt>0</asrwt>
<pdfrwt beam="1">  1        5 0.11779875E-01 0.19921038E+03</pdfrwt>
<pdfrwt beam="2">  1       -5 0.81742470E-01 0.19921038E+03</pdfrwt>
<totfact> 0.62137429E+01</totfact>
</mgrwt>
</event>
<event>
 8    1  0.1821556E-007  0.1485982E+03  0.7546771E-02  0.1202209E+00
         -5   -1    0    0    0  501 -0.00000000000E+00  0.00000000000E+00  0.90139200065E+03  0.90140425384E+03  0.47000000000E+01 0.  1.
          5   -1    0    0  501    0  0.00000000000E+00 -0.00000000000E+00 -0.24665759852E+02  0.25109554139E+02  0.47000000000E+01 0.  1.
         25    2    1    2    0    0  0.77354715881E+02 -0.21712904800E+02  0.49738484756E+03  0.51910576154E+03  0.12499561103E+03 0.  0.
         25    2    1    2    0    0 -0.77354715881E+02  0.21712904800E+02  0.37934139324E+03  0.40740804644E+03  0.12500488540E+03 0.  0.
          5    1    4    4  502    0 -0.19213618614E+02  0.22008704366E+02  0.32908516465E+03  0.33041289594E+03  0.47000000000E+01 0. -1.
         -5    1    4    4    0  502 -0.58141097267E+02 -0.29579956571E+00  0.50256228588E+02  0.76995150501E+02  0.47000000000E+01 0. -1.
          5    1    3    3  503    0  0.11055847163E+03 -0.14650643308E+02  0.33378433938E+03  0.35195438939E+03  0.47000000000E+01 0.  1.
         -5    1    3    3    0  503 -0.33203755749E+02 -0.70622614924E+01  0.16360050818E+03  0.16715137214E+03  0.47000000000E+01 0.  1.
<mgrwt>
<rscale>  0 0.14859624E+03</rscale>
<asrwt>0</asrwt>
<pdfrwt beam="2">  1        5 0.38298125E-02 0.14859820E+03</pdfrwt>
<pdfrwt beam="1">  1       -5 0.13871079E+00 0.14859820E+03</pdfrwt>
<totfact> 0.10388990E+02</totfact>
</mgrwt>
</event>
<event>
 8    1  0.1821556E-007  0.1674459E+03  0.7546771E-02  0.1180540E+00
          5   -1    0    0  501    0  0.00000000000E+00  0.00000000000E+00  0.38639363065E+03  0.38642221443E+03  0.47000000000E+01 0. -1.
         -5   -1    0    0    0  501 -0.00000000000E+00 -0.00000000000E+00 -0.72529189129E+02  0.72681313112E+02  0.47000000000E+01 0. -1.
         25    2    1    2    0    0  0.65621009948E+02 -0.90040998098E+02  0.14949609471E+03  0.22446535454E+03  0.12498845855E+03 0.  0.
         25    2    1    2    0    0 -0.65621009948E+02  0.90040998098E+02  0.16436834681E+03  0.23463817300E+03  0.12499848204E+03 0.  0.
          5    1    3    3  502    0  0.95855379843E+02 -0.93519723322E+02  0.13573421667E+03  0.19073557631E+03  0.47000000000E+01 0. -1.
         -5    1    3    3    0  502 -0.30234369895E+02  0.34787252238E+01  0.13761878031E+02  0.33729778225E+02  0.47000000000E+01 0. -1.
          5    1    4    4  503    0  0.91104651710E+01 -0.20727468760E+02  0.62225794434E+02  0.66383492148E+02  0.47000000000E+01 0.  1.
         -5    1    4    4    0  503 -0.74731475119E+02  0.11076846686E+03  0.10214255238E+03  0.16825468086E+03  0.47000000000E+01 0.  1.
<mgrwt>
<rscale>  0 0.16744400E+03</rscale>
<asrwt>0</asrwt>
<pdfrwt beam="1">  1        5 0.59459073E-01 0.16744587E+03</pdfrwt>
<pdfrwt beam="2">  1       -5 0.11172238E-01 0.16744587E+03</pdfrwt>
<totfact> 0.13360607E+02</totfact>
</mgrwt>
</event>
<event>
 8    1  0.1821556E-007  0.1597181E+03  0.7546771E-02  0.1189018E+00
          5   -1    0    0  501    0  0.00000000000E+00  0.00000000000E+00  0.65110338963E+03  0.65112035292E+03  0.47000000000E+01 0.  1.
         -5   -1    0    0    0  501 -0.00000000000E+00 -0.00000000000E+00 -0.40725099463E+02  0.40995411039E+02  0.47000000000E+01 0.  1.
         25    2    1    2    0    0  0.99359218095E+02  0.33677573108E+01  0.23458945700E+03  0.28379344160E+03  0.12499163233E+03 0.  0.
         25    2    1    2    0    0 -0.99359218095E+02 -0.33677573108E+01  0.37578883317E+03  0.40832232235E+03  0.12500510305E+03 0.  0.
          5    1    4    4  502    0 -0.52150227605E+02 -0.31755333095E+02  0.33253302966E+03  0.33812475987E+03  0.47000000000E+01 0.  1.
         -5    1    4    4    0  502 -0.47208990490E+02  0.28387575784E+02  0.43255803503E+02  0.70197562484E+02  0.47000000000E+01 0.  1.
          5    1    3    3  503    0  0.51652011661E+02  0.17664771590E+02  0.22660575371E+03  0.23313565167E+03  0.47000000000E+01 0.  1.
         -5    1    3    3    0  503  0.47707206433E+02 -0.14297014279E+02  0.79837032870E+01  0.50657789936E+02  0.47000000000E+01 0.  1.
<mgrwt>
<rscale>  0 0.15971547E+03</rscale>
<asrwt>0</asrwt>
<pdfrwt beam="1">  1        5 0.10019185E+00 0.15971810E+03</pdfrwt>
<pdfrwt beam="2">  1       -5 0.62874982E-02 0.15971810E+03</pdfrwt>
<totfact> 0.10659081E+02</totfact>
</mgrwt>
</event>
<event>
 8    1  0.1821556E-007  0.2064984E+03  0.7546771E-02  0.1144371E+00
         -5   -1    0    0    0  501 -0.00000000000E+00  0.00000000000E+00  0.18918555600E+03  0.18924392883E+03  0.47000000000E+01 0. -1.
          5   -1    0    0  501    0  0.00000000000E+00 -0.00000000000E+00 -0.22565433083E+03  0.22570327206E+03  0.47000000000E+01 0. -1.
         25    2    1    2    0    0 -0.14696629941E+03  0.73598957706E+02 -0.96878060268E+01  0.20671945194E+03  0.12499271374E+03 0.  0.
         25    2    1    2    0    0  0.14696629941E+03 -0.73598957706E+02 -0.26780968801E+02  0.20822774895E+03  0.12500270159E+03 0.  0.
          5    1    3    3  502    0 -0.13943444361E+03  0.10442118794E+03 -0.52897236046E+01  0.17434396959E+03  0.47000000000E+01 0. -1.
         -5    1    3    3    0  502 -0.75318558036E+01 -0.30822230238E+02 -0.43980824222E+01  0.32375482354E+02  0.47000000000E+01 0. -1.
          5    1    4    4  503    0  0.47441574654E+02  0.34656876805E+02 -0.16056471395E+01  0.58961599522E+02  0.47000000000E+01 0.  1.
         -5    1    4    4    0  503  0.99524724759E+02 -0.10825583451E+03 -0.25175321662E+02  0.14926614943E+03  0.47000000000E+01 0.  1.
<mgrwt>
<rscale>  0 0.20649685E+03</rscale>
<asrwt>0</asrwt>
<pdfrwt beam="2">  1        5 0.34724306E-01 0.20649837E+03</pdfrwt>
<pdfrwt beam="1">  1       -5 0.29113725E-01 0.20649837E+03</pdfrwt>
<totfact> 0.73960169E+01</totfact>
</mgrwt>
</event>
<event>
 8    1  0.1821556E-007  0.1469810E+03  0.7546771E-02  0.1204233E+00
          5   -1    0    0  501    0  0.00000000000E+00  0.00000000000E+00  0.10810335656E+03  0.10820547906E+03  0.47000000000E+01 0.  1.
         -5   -1    0    0    0  501 -0.00000000000E+00 -0.00000000000E+00 -0.41997891517E+03  0.42000521329E+03  0.47000000000E+01 0.  1.
         25    2    1    2    0    0  0.42714937979E+02 -0.64449736939E+02 -0.34721445431E+03  0.37704283969E+03  0.12500036465E+03 0.  0.
         25    2    1    2    0    0 -0.42714937979E+02  0.64449736939E+02  0.35338895692E+02  0.15116785266E+03  0.12499819043E+03 0.  0.
          5    1    3    3  502    0  0.23575756597E+02  0.43733250203E+01 -0.27240377911E+03  0.27349744266E+03  0.47000000000E+01 0. -1.
         -5    1    3    3    0  502  0.19139181382E+02 -0.68823061960E+02 -0.74810675202E+02  0.10354539703E+03  0.47000000000E+01 0. -1.
          5    1    4    4  503    0  0.18734459373E+02  0.79345486105E+02  0.31897222604E+02  0.87671026817E+02  0.47000000000E+01 0.  1.
         -5    1    4    4    0  503 -0.61449397352E+02 -0.14895749166E+02  0.34416730884E+01  0.63496825840E+02  0.47000000000E+01 0.  1.
<mgrwt>
<rscale>  0 0.14698058E+03</rscale>
<asrwt>0</asrwt>
<pdfrwt beam="1">  1        5 0.16641164E-01 0.14698104E+03</pdfrwt>
<pdfrwt beam="2">  1       -5 0.64622019E-01 0.14698104E+03</pdfrwt>
<totfact> 0.52189841E+01</totfact>
</mgrwt>
</event>
<event>
 8    1  0.1821556E-007  0.1389753E+03  0.7546771E-02  0.1214716E+00
         -5   -1    0    0    0  501 -0.00000000000E+00  0.00000000000E+00  0.25798411495E+02  0.26223043982E+02  0.47000000000E+01 0. -1.
          5   -1    0    0  501    0  0.00000000000E+00 -0.00000000000E+00 -0.87736314512E+03  0.87737573389E+03  0.47000000000E+01 0. -1.
         25    2    1    2    0    0  0.25510957011E+02  0.55138528354E+02 -0.24841756895E+03  0.28464753811E+03  0.12498746399E+03 0.  0.
         25    2    1    2    0    0 -0.25510957011E+02 -0.55138528354E+02 -0.60314716468E+03  0.61895123976E+03  0.12499227459E+03 0.  0.
          5    1    3    3  502    0  0.65279888122E+02  0.17466241591E+01 -0.79289759645E+02  0.10282738193E+03  0.47000000000E+01 0.  1.
         -5    1    3    3    0  502 -0.39768931111E+02  0.53391904195E+02 -0.16912780931E+03  0.18182015619E+03  0.47000000000E+01 0.  1.
          5    1    4    4  503    0 -0.47270217114E+00 -0.86575881966E+02 -0.51110738806E+03  0.51840954748E+03  0.47000000000E+01 0. -1.
         -5    1    4    4    0  503 -0.25038254840E+02  0.31437353612E+02 -0.92039776618E+02  0.10054169228E+03  0.47000000000E+01 0. -1.
<mgrwt>
<rscale>  0 0.13897422E+03</rscale>
<asrwt>0</asrwt>
<pdfrwt beam="2">  1        5 0.13501256E+00 0.13897530E+03</pdfrwt>
<pdfrwt beam="1">  1       -5 0.40026195E-02 0.13897530E+03</pdfrwt>
<totfact> 0.10169234E+02</totfact>
</mgrwt>
</event>
<event>
 8    1  0.1821556E-007  0.1677131E+03  0.7546771E-02  0.1180255E+00
          5   -1    0    0  501    0  0.00000000000E+00  0.00000000000E+00  0.56123678807E+03  0.56125646747E+03  0.47000000000E+01 0. -1.
         -5   -1    0    0    0  501 -0.00000000000E+00 -0.00000000000E+00 -0.50225894147E+02  0.50445321318E+02  0.47000000000E+01 0. -1.
         25    2    1    2    0    0 -0.11174774240E+03 -0.38989875473E+01  0.23438691492E+03  0.28820759009E+03  0.12499451614E+03 0.  0.
         25    2    1    2    0    0  0.11174774240E+03  0.38989875473E+01  0.27662397900E+03  0.32349419870E+03  0.12499964320E+03 0.  0.
          5    1    4    4  502    0  0.13844059928E+03 -0.56401482572E+01  0.22093095626E+03  0.26082597308E+03  0.47000000000E+01 0.  1.
         -5    1    4    4    0  502 -0.26692856876E+02  0.95391358044E+01  0.55693022745E+02  0.62668225621E+02  0.47000000000E+01 0.  1.
          5    1    3    3  503    0  0.15005497534E+01 -0.25828993019E+02  0.12977827347E+03  0.13241555344E+03  0.47000000000E+01 0. -1.
         -5    1    3    3    0  503 -0.11324829215E+03  0.21930005472E+02  0.10460864145E+03  0.15579203665E+03  0.47000000000E+01 0. -1.
<mgrwt>
<rscale>  0 0.16771211E+03</rscale>
<asrwt>0</asrwt>
<pdfrwt beam="1">  1        5 0.86362517E-01 0.16771306E+03</pdfrwt>
<pdfrwt beam="2">  1       -5 0.77454532E-02 0.16771306E+03</pdfrwt>
<totfact> 0.10825865E+02</totfact>
</mgrwt>
</event>
<event>
 8    1  0.1821556E-007  0.1291920E+03  0.7546771E-02  0.1228661E+00
          5   -1    0    0  501    0  0.00000000000E+00  0.00000000000E+00  0.21122824734E+04  0.21122877023E+04  0.47000000000E+01 0.  1.
         -5   -1    0    0    0  501 -0.00000000000E+00 -0.00000000000E+00 -0.92354749218E+01  0.10362625007E+02  0.47000000000E+01 0.  1.
         25    2    1    2    0    0 -0.19955437838E+02  0.25825122919E+02  0.58395633945E+03  0.59807596305E+03  0.12499877892E+03 0.  0.
         25    2    1    2    0    0  0.19955437838E+02 -0.25825122919E+02  0.15190906590E+04  0.15245743643E+04  0.12500162161E+03 0.  0.
          5    1    3    3  502    0  0.44147425003E+02  0.40409875637E+02  0.21248322439E+03  0.22080118621E+03  0.47000000000E+01 0. -1.
         -5    1    3    3    0  502 -0.64102862841E+02 -0.14584752718E+02  0.37147311505E+03  0.37727477684E+03  0.47000000000E+01 0. -1.
          5    1    4    4  503    0  0.59887338684E+01  0.23248876468E+02  0.12715993361E+04  0.12718346342E+04  0.47000000000E+01 0. -1.
         -5    1    4    4    0  503  0.13966703969E+02 -0.49073999387E+02  0.24749132296E+03  0.25273973011E+03  0.47000000000E+01 0. -1.
<mgrwt>
<rscale>  0 0.12919127E+03</rscale>
<asrwt>0</asrwt>
<pdfrwt beam="1">  1        5 0.32505377E+00 0.12919196E+03</pdfrwt>
<pdfrwt beam="2">  1       -5 0.15079478E-02 0.12919196E+03</pdfrwt>
<totfact> 0.24752274E+01</totfact>
</mgrwt>
</event>
<event>
 8    1  0.1821556E-007  0.1759781E+03  0.7546771E-02  0.1171756E+00
          5   -1    0    0  501    0  0.00000000000E+00  0.00000000000E+00  0.80035502105E+03  0.80036882105E+03  0.47000000000E+01 0. -1.
         -5   -1    0    0    0  501 -0.00000000000E+00 -0.00000000000E+00 -0.40260056910E+02  0.40533469903E+02  0.47000000000E+01 0. -1.
         25    2    1    2    0    0 -0.10312063287E+03  0.68611951616E+02  0.29329625438E+03  0.34203424412E+03  0.12499306576E+03 0.  0.
         25    2    1    2    0    0  0.10312063287E+03 -0.68611951616E+02  0.46679870975E+03  0.49886804684E+03  0.12500731138E+03 0.  0.
          5    1    4    4  502    0  0.63177482252E+02 -0.80690791023E+02  0.16592854551E+03  0.19508144513E+03  0.47000000000E+01 0.  1.
         -5    1    4    4    0  502  0.39943150619E+02  0.12078839407E+02  0.30087016425E+03  0.30378660171E+03  0.47000000000E+01 0.  1.
          5    1    3    3  503    0  0.24754482680E+02  0.10017720949E+02  0.95519406229E+02  0.99293434385E+02  0.47000000000E+01 0. -1.
         -5    1    3    3    0  503 -0.12787511555E+03  0.58594230667E+02  0.19777684815E+03  0.24274080973E+03  0.47000000000E+01 0. -1.
<mgrwt>
<rscale>  0 0.17597557E+03</rscale>
<asrwt>0</asrwt>
<pdfrwt beam="1">  1        5 0.12315363E+00 0.17597810E+03</pdfrwt>
<pdfrwt beam="2">  1       -5 0.62159483E-02 0.17597810E+03</pdfrwt>
<totfact> 0.66567399E+01</totfact>
</mgrwt>
</event>
<event>
 8    1  0.1821556E-007  0.1263744E+03  0.7546771E-02  0.1232942E+00
         -5   -1    0    0    0  501 -0.00000000000E+00  0.00000000000E+00  0.30955981050E+03  0.30959548814E+03  0.47000000000E+01 0. -1.
          5   -1    0    0  501    0  0.00000000000E+00 -0.00000000000E+00 -0.60554189051E+02  0.60736313780E+02  0.47000000000E+01 0. -1.
         25    2    1    2    0    0  0.89758672123E+01  0.16258736966E+02  0.19619663000E+03  0.23336729319E+03  0.12498905226E+03 0.  0.
         25    2    1    2    0    0 -0.89758672123E+01 -0.16258736966E+02  0.52808991448E+02  0.13696450873E+03  0.12500229740E+03 0.  0.
          5    1    4    4  502    0 -0.57166906928E+02 -0.42388426982E+02  0.31325436094E+02  0.77898696627E+02  0.47000000000E+01 0. -1.
         -5    1    4    4    0  502  0.48191039716E+02  0.26129690016E+02  0.21483555354E+02  0.59065812107E+02  0.47000000000E+01 0. -1.
          5    1    3    3  503    0  0.19510943875E+02  0.69117349192E+02  0.11971298456E+03  0.13968240248E+03  0.47000000000E+01 0.  1.
         -5    1    3    3    0  503 -0.10535076663E+02 -0.52858612226E+02  0.76483645442E+02  0.93684890707E+02  0.47000000000E+01 0.  1.
<mgrwt>
<rscale>  0 0.12637112E+03</rscale>
<asrwt>0</asrwt>
<pdfrwt beam="2">  1        5 0.93327830E-02 0.12637439E+03</pdfrwt>
<pdfrwt beam="1">  1       -5 0.47641341E-01 0.12637439E+03</pdfrwt>
<totfact> 0.26830269E+02</totfact>
</mgrwt>
</event>
<event>
 8    1  0.1821556E-007  0.1288213E+03  0.7546771E-02  0.1229222E+00
          5   -1    0    0  501    0  0.00000000000E+00  0.00000000000E+00  0.93752386541E+02  0.93870122947E+02  0.47000000000E+01 0.  1.
         -5   -1    0    0    0  501 -0.00000000000E+00 -0.00000000000E+00 -0.18664311871E+03  0.18670228644E+03  0.47000000000E+01 0.  1.
         25    2    1    2    0    0  0.17426753991E+02 -0.25709625187E+02 -0.78777421104E+02  0.15099934003E+03  0.12502096636E+03 0.  0.
         25    2    1    2    0    0 -0.17426753991E+02  0.25709625187E+02 -0.14113311067E+02  0.12957306936E+03  0.12500127268E+03 0.  0.
          5    1    4    4  502    0  0.12777783391E+01  0.66202762271E+02  0.24129431645E+02  0.70631139884E+02  0.47000000000E+01 0.  1.
         -5    1    4    4    0  502 -0.18704532330E+02 -0.40493137084E+02 -0.38242742712E+02  0.58941929479E+02  0.47000000000E+01 0.  1.
          5    1    3    3  503    0  0.28097663257E+02  0.18648583087E+02 -0.96114147636E+02  0.10196699323E+03  0.47000000000E+01 0. -1.
         -5    1    3    3    0  503 -0.10670909266E+02 -0.44358208274E+02  0.17336726532E+02  0.49032346800E+02  0.47000000000E+01 0. -1.
<mgrwt>
<rscale>  0 0.12881649E+03</rscale>
<asrwt>0</asrwt>
<pdfrwt beam="1">  1        5 0.14437052E-01 0.12882127E+03</pdfrwt>
<pdfrwt beam="2">  1       -5 0.28727934E-01 0.12882127E+03</pdfrwt>
<totfact> 0.34747447E+02</totfact>
</mgrwt>
</event>
<event>
 8    1  0.1821556E-007  0.1277637E+03  0.7546771E-02  0.1230814E+00
         -5   -1    0    0    0  501 -0.00000000000E+00  0.00000000000E+00  0.10737537577E+04  0.10737640440E+04  0.47000000000E+01 0. -1.
          5   -1    0    0  501    0  0.00000000000E+00 -0.00000000000E+00 -0.19647099885E+02  0.20201448807E+02  0.47000000000E+01 0. -1.
         25    2    1    2    0    0  0.20402381319E+02  0.17005690393E+02  0.79356617090E+03  0.80378466938E+03  0.12496830188E+03 0.  0.
         25    2    1    2    0    0 -0.20402381319E+02 -0.17005690393E+02  0.26054048695E+03  0.29018082345E+03  0.12497245412E+03 0.  0.
          5    1    3    3  502    0 -0.24209017837E+02  0.32517928359E+02  0.67263878366E+03  0.67387574187E+03  0.47000000000E+01 0. -1.
         -5    1    3    3    0  502  0.44611399156E+02 -0.15512237966E+02  0.12092738724E+03  0.12990892751E+03  0.47000000000E+01 0. -1.
          5    1    4    4  503    0  0.31780807147E+02 -0.46238306664E+02  0.66801468413E+02  0.87364334189E+02  0.47000000000E+01 0. -1.
         -5    1    4    4    0  503 -0.52183188466E+02  0.29232616271E+02  0.19373901854E+03  0.20281648927E+03  0.47000000000E+01 0. -1.
<mgrwt>
<rscale>  0 0.12776269E+03</rscale>
<asrwt>0</asrwt>
<pdfrwt beam="2">  1        5 0.30660640E-02 0.12776371E+03</pdfrwt>
<pdfrwt beam="1">  1       -5 0.16523633E+00 0.12776371E+03</pdfrwt>
<totfact> 0.88081359E+01</totfact>
</mgrwt>
</event>
<event>
 8    1  0.1821556E-007  0.1310790E+03  0.7546771E-02  0.1225868E+00
         -5   -1    0    0    0  501 -0.00000000000E+00  0.00000000000E+00  0.62993579479E+02  0.63168671473E+02  0.47000000000E+01 0. -1.
          5   -1    0    0  501    0  0.00000000000E+00 -0.00000000000E+00 -0.33158635129E+03  0.33161965919E+03  0.47000000000E+01 0. -1.
         25    2    1    2    0    0 -0.34044286640E+02 -0.19948523550E+02 -0.50758285497E+02  0.14056354098E+03  0.12499899384E+03 0.  0.
         25    2    1    2    0    0  0.34044286640E+02  0.19948523550E+02 -0.21783448631E+03  0.25422478968E+03  0.12498569205E+03 0.  0.
          5    1    3    3  502    0 -0.58724604593E+02 -0.58280154781E+01  0.21331858590E+02  0.62926013221E+02  0.47000000000E+01 0. -1.
         -5    1    3    3    0  502  0.24680317952E+02 -0.14120508072E+02 -0.72090144086E+02  0.77637527761E+02  0.47000000000E+01 0. -1.
          5    1    4    4  503    0 -0.43775810166E+01 -0.11946833422E+02 -0.20079589730E+03  0.20125350287E+03  0.47000000000E+01 0. -1.
         -5    1    4    4    0  503  0.38421867657E+02  0.31895356972E+02 -0.17038589008E+02  0.52971286807E+02  0.47000000000E+01 0. -1.
<mgrwt>
<rscale>  0 0.13107583E+03</rscale>
<asrwt>0</asrwt>
<pdfrwt beam="2">  1        5 0.51029315E-01 0.13107900E+03</pdfrwt>
<pdfrwt beam="1">  1       -5 0.97073509E-02 0.13107900E+03</pdfrwt>
<totfact> 0.21961559E+02</totfact>
</mgrwt>
</event>
<event>
 8    1  0.1821556E-007  0.1266194E+03  0.7546771E-02  0.1232562E+00
          5   -1    0    0  501    0  0.00000000000E+00  0.00000000000E+00  0.19698688047E+03  0.19704294222E+03  0.47000000000E+01 0. -1.
         -5   -1    0    0    0  501 -0.00000000000E+00 -0.00000000000E+00 -0.12374457747E+03  0.12383380174E+03  0.47000000000E+01 0. -1.
         25    2    1    2    0    0  0.15625789381E+02 -0.12715596862E+02 -0.57332712569E+02  0.13899465744E+03  0.12500649251E+03 0.  0.
         25    2    1    2    0    0 -0.15625789381E+02  0.12715596862E+02  0.13057501557E+03  0.18188208651E+03  0.12500162802E+03 0.  0.
          5    1    3    3  502    0 -0.14916600314E+02 -0.63826412650E+02 -0.39458442857E+02  0.76650992357E+02  0.47000000000E+01 0. -1.
         -5    1    3    3    0  502  0.30542389695E+02  0.51110815787E+02 -0.17874269712E+02  0.62343665087E+02  0.47000000000E+01 0. -1.
          5    1    4    4  503    0 -0.58534862740E+02  0.39650010186E+02  0.99880214535E+02  0.12246060885E+03  0.47000000000E+01 0. -1.
         -5    1    4    4    0  503  0.42909073359E+02 -0.26934413324E+02  0.30694801031E+02  0.59421477666E+02  0.47000000000E+01 0. -1.
<mgrwt>
<rscale>  0 0.12661821E+03</rscale>
<asrwt>0</asrwt>
<pdfrwt beam="1">  1        5 0.30316849E-01 0.12661941E+03</pdfrwt>
<pdfrwt beam="2">  1       -5 0.19048803E-01 0.12661941E+03</pdfrwt>
<totfact> 0.18733124E+02</totfact>
</mgrwt>
</event>
<event>
 8    1  0.1821556E-007  0.1301762E+03  0.7546771E-02  0.1227209E+00
         -5   -1    0    0    0  501 -0.00000000000E+00  0.00000000000E+00  0.24218023858E+03  0.24222584081E+03  0.47000000000E+01 0. -1.
          5   -1    0    0  501    0  0.00000000000E+00 -0.00000000000E+00 -0.80051870311E+02  0.80189724655E+02  0.47000000000E+01 0. -1.
         25    2    1    2    0    0 -0.34058570079E+02 -0.12289673633E+02  0.13863923077E+03  0.19017538446E+03  0.12503926692E+03 0.  0.
         25    2    1    2    0    0  0.34058570079E+02  0.12289673633E+02  0.23489137492E+02  0.13224018101E+03  0.12499881447E+03 0.  0.
          5    1    3    3  502    0 -0.76332121442E+02 -0.33798497446E+01  0.12119675008E+03  0.14334838115E+03  0.47000000000E+01 0.  1.
         -5    1    3    3    0  502  0.42273551363E+02 -0.89098238888E+01  0.17442480698E+02  0.46827003315E+02  0.47000000000E+01 0.  1.
          5    1    4    4  503    0  0.80317993618E+02  0.17973202986E+02  0.22214946951E+02  0.85379212882E+02  0.47000000000E+01 0. -1.
         -5    1    4    4    0  503 -0.46259423538E+02 -0.56835293527E+01  0.12741905408E+01  0.46860968124E+02  0.47000000000E+01 0. -1.
<mgrwt>
<rscale>  0 0.13016648E+03</rscale>
<asrwt>0</asrwt>
<pdfrwt beam="2">  1        5 0.12329785E-01 0.13017619E+03</pdfrwt>
<pdfrwt beam="1">  1       -5 0.37272610E-01 0.13017619E+03</pdfrwt>
<totfact> 0.27589922E+02</totfact>
</mgrwt>
</event>
<event>
 8    1  0.1821556E-007  0.1684354E+03  0.7546771E-02  0.1179493E+00
          5   -1    0    0  501    0  0.00000000000E+00  0.00000000000E+00  0.86803993722E+03  0.86805266120E+03  0.47000000000E+01 0. -1.
         -5   -1    0    0    0  501 -0.00000000000E+00 -0.00000000000E+00 -0.34141007469E+02  0.34463000319E+02  0.47000000000E+01 0. -1.
         25    2    1    2    0    0 -0.10574065623E+03  0.39510700541E+02  0.31846429277E+03  0.36025801749E+03  0.12499660620E+03 0.  0.
         25    2    1    2    0    0  0.10574065623E+03 -0.39510700541E+02  0.51543463698E+03  0.54225764402E+03  0.12501322194E+03 0.  0.
          5    1    4    4  502    0  0.12720805500E+03 -0.33417843519E+02  0.32765751488E+03  0.35310080513E+03  0.47000000000E+01 0. -1.
         -5    1    4    4    0  502 -0.21467398765E+02 -0.60928570222E+01  0.18777712210E+03  0.18915683889E+03  0.47000000000E+01 0. -1.
          5    1    3    3  503    0  0.18464116199E+02  0.25383361153E+02  0.22388777718E+02  0.38840519798E+02  0.47000000000E+01 0.  1.
         -5    1    3    3    0  503 -0.12420477243E+03  0.14127339388E+02  0.29607551505E+03  0.32141749770E+03  0.47000000000E+01 0.  1.
<mgrwt>
<rscale>  0 0.16843233E+03</rscale>
<asrwt>0</asrwt>
<pdfrwt beam="1">  1        5 0.13357034E+00 0.16843541E+03</pdfrwt>
<pdfrwt beam="2">  1       -5 0.52782106E-02 0.16843541E+03</pdfrwt>
<totfact> 0.70052745E+01</totfact>
</mgrwt>
</event>
<event>
 8    1  0.1821556E-007  0.1475243E+03  0.7546771E-02  0.1203549E+00
          5   -1    0    0  501    0  0.00000000000E+00  0.00000000000E+00  0.24988376452E+02  0.25426540419E+02  0.47000000000E+01 0.  1.
         -5   -1    0    0    0  501 -0.00000000000E+00 -0.00000000000E+00 -0.93353080141E+03  0.93354263276E+03  0.47000000000E+01 0.  1.
         25    2    1    2    0    0 -0.46661508479E+02  0.62928260300E+02 -0.58611277033E+03  0.60439295976E+03  0.12500163174E+03 0.  0.
         25    2    1    2    0    0  0.46661508479E+02 -0.62928260300E+02 -0.32242965463E+03  0.35457621343E+03  0.12500458642E+03 0.  0.
          5    1    3    3  502    0 -0.72047801922E+02 -0.18472227382E+01 -0.38003898558E+03  0.38684107661E+03  0.47000000000E+01 0. -1.
         -5    1    3    3    0  502  0.25386293443E+02  0.64775483038E+02 -0.20607378475E+03  0.21755188315E+03  0.47000000000E+01 0. -1.
          5    1    4    4  503    0  0.67821055205E+02  0.75302861711E+01 -0.20314641326E+03  0.21435241067E+03  0.47000000000E+01 0.  1.
         -5    1    4    4    0  503 -0.21159546726E+02 -0.70458546471E+02 -0.11928324137E+03  0.14022380276E+03  0.47000000000E+01 0.  1.
<mgrwt>
<rscale>  0 0.14752364E+03</rscale>
<asrwt>0</asrwt>
<pdfrwt beam="1">  1        5 0.38789814E-02 0.14752427E+03</pdfrwt>
<pdfrwt beam="2">  1       -5 0.14365471E+00 0.14752427E+03</pdfrwt>
<totfact> 0.92411104E+01</totfact>
</mgrwt>
</event>
<event>
 8    1  0.1821556E-007  0.1314410E+03  0.7546771E-02  0.1225335E+00
         -5   -1    0    0    0  501 -0.00000000000E+00  0.00000000000E+00  0.21269221412E+03  0.21274413729E+03  0.47000000000E+01 0. -1.
          5   -1    0    0  501    0  0.00000000000E+00 -0.00000000000E+00 -0.84538171871E+02  0.84668722107E+02  0.47000000000E+01 0. -1.
         25    2    1    2    0    0  0.17122877173E+02 -0.36865786046E+02  0.94048186113E+02  0.16161907878E+03  0.12499354467E+03 0.  0.
         25    2    1    2    0    0 -0.17122877173E+02  0.36865786046E+02  0.34105856142E+02  0.13579378062E+03  0.12499784929E+03 0.  0.
          5    1    4    4  502    0  0.38854000666E+02 -0.97055543162E+01 -0.19946058764E+02  0.44986291385E+02  0.47000000000E+01 0.  1.
         -5    1    4    4    0  502 -0.55976877839E+02  0.46571340362E+02  0.54051914905E+02  0.90807489232E+02  0.47000000000E+01 0.  1.
          5    1    3    3  503    0  0.36891930186E+02  0.29808451284E+02  0.75848350098E+02  0.89580246112E+02  0.47000000000E+01 0. -1.
         -5    1    3    3    0  503 -0.19769053013E+02 -0.66674237330E+02  0.18199836015E+02  0.72038832664E+02  0.47000000000E+01 0. -1.
<mgrwt>
<rscale>  0 0.13144000E+03</rscale>
<asrwt>0</asrwt>
<pdfrwt beam="2">  1        5 0.13019909E-01 0.13144102E+03</pdfrwt>
<pdfrwt beam="1">  1       -5 0.32735916E-01 0.13144102E+03</pdfrwt>
<totfact> 0.32587500E+02</totfact>
</mgrwt>
</event>
<event>
 8    1  0.1821556E-007  0.1357302E+03  0.7546771E-02  0.1219193E+00
         -5   -1    0    0    0  501 -0.00000000000E+00  0.00000000000E+00  0.15120890211E+03  0.15128192911E+03  0.47000000000E+01 0.  1.
          5   -1    0    0  501    0  0.00000000000E+00 -0.00000000000E+00 -0.14378945593E+03  0.14386624912E+03  0.47000000000E+01 0.  1.
         25    2    1    2    0    0  0.46763836198E+02  0.24710855218E+02  0.61535514519E+02  0.14902786612E+03  0.12500081037E+03 0.  0.
         25    2    1    2    0    0 -0.46763836198E+02 -0.24710855218E+02 -0.54116068341E+02  0.14612031211E+03  0.12500045607E+03 0.  0.
          5    1    4    4  502    0 -0.70445410617E+02  0.28960050633E+02 -0.23903529982E+02  0.79966925383E+02  0.47000000000E+01 0. -1.
         -5    1    4    4    0  502  0.23681574419E+02 -0.53670905851E+02 -0.30212538360E+02  0.66153386731E+02  0.47000000000E+01 0. -1.
          5    1    3    3  503    0 -0.97131179133E+01  0.64271852213E+02  0.40720517844E+02  0.76847031302E+02  0.47000000000E+01 0. -1.
         -5    1    3    3    0  503  0.56476954111E+02 -0.39560996995E+02  0.20814996675E+02  0.72180834821E+02  0.47000000000E+01 0. -1.
<mgrwt>
<rscale>  0 0.13573011E+03</rscale>
<asrwt>0</asrwt>
<pdfrwt beam="2">  1        5 0.22132979E-01 0.13573019E+03</pdfrwt>
<pdfrwt beam="1">  1       -5 0.23274433E-01 0.13573019E+03</pdfrwt>
<totfact> 0.24145802E+02</totfact>
</mgrwt>
</event>
<event>
 8    1  0.1821556E-007  0.1274287E+03  0.7546771E-02  0.1231346E+00
          5   -1    0    0  501    0  0.00000000000E+00  0.00000000000E+00  0.36709372266E+02  0.37009026091E+02  0.47000000000E+01 0.  1.
         -5   -1    0    0    0  501 -0.00000000000E+00 -0.00000000000E+00 -0.48925936130E+03  0.48928193572E+03  0.47000000000E+01 0.  1.
         25    2    1    2    0    0 -0.19718065770E+02 -0.14654910522E+02 -0.30978627587E+03  0.33497105535E+03  0.12503800497E+03 0.  0.
         25    2    1    2    0    0  0.19718065770E+02  0.14654910522E+02 -0.14276371316E+03  0.19131990645E+03  0.12497303825E+03 0.  0.
          5    1    4    4  502    0  0.66267667758E+02  0.15346915731E+02 -0.41634329867E+02  0.79890168581E+02  0.47000000000E+01 0.  1.
         -5    1    4    4    0  502 -0.46549601988E+02 -0.69200520982E+00 -0.10112938330E+03  0.11142973787E+03  0.47000000000E+01 0.  1.
          5    1    3    3  503    0 -0.82522850001E+01  0.44955605257E+02 -0.23033800500E+03  0.23487612309E+03  0.47000000000E+01 0.  1.
         -5    1    3    3    0  503 -0.11465780770E+02 -0.59610515779E+02 -0.79448270870E+02  0.10009493226E+03  0.47000000000E+01 0.  1.
<mgrwt>
<rscale>  0 0.12741275E+03</rscale>
<asrwt>0</asrwt>
<pdfrwt beam="1">  1        5 0.56723829E-02 0.12742869E+03</pdfrwt>
<pdfrwt beam="2">  1       -5 0.75295453E-01 0.12742869E+03</pdfrwt>
<totfact> 0.23078155E+02</totfact>
</mgrwt>
</event>
<event>
 8    1  0.1821556E-007  0.1393910E+03  0.7546771E-02  0.1214152E+00
         -5   -1    0    0    0  501 -0.00000000000E+00  0.00000000000E+00  0.17558119247E+03  0.17564408657E+03  0.47000000000E+01 0. -1.
          5   -1    0    0  501    0  0.00000000000E+00 -0.00000000000E+00 -0.12040216196E+03  0.12049386127E+03  0.47000000000E+01 0. -1.
         25    2    1    2    0    0  0.37304476137E+02 -0.49109234338E+02  0.69969394789E+02  0.15596446396E+03  0.12500342785E+03 0.  0.
         25    2    1    2    0    0 -0.37304476137E+02  0.49109234338E+02 -0.14790364282E+02  0.14017348389E+03  0.12500603935E+03 0.  0.
          5    1    3    3  502    0  0.56167264915E+02 -0.29936663522E+02  0.97925989811E+02  0.11688693234E+03  0.47000000000E+01 0. -1.
         -5    1    3    3    0  502 -0.18862788778E+02 -0.19172570816E+02 -0.27956595023E+02  0.39077531619E+02  0.47000000000E+01 0. -1.
          5    1    4    4  503    0  0.28104763743E+02  0.37366830467E+02  0.33654998101E+02  0.57800576653E+02  0.47000000000E+01 0. -1.
         -5    1    4    4    0  503 -0.65409239880E+02  0.11742403872E+02 -0.48445362383E+02  0.82372907238E+02  0.47000000000E+01 0. -1.
<mgrwt>
<rscale>  0 0.13939041E+03</rscale>
<asrwt>0</asrwt>
<pdfrwt beam="2">  1        5 0.18535301E-01 0.13939100E+03</pdfrwt>
<pdfrwt beam="1">  1       -5 0.27024383E-01 0.13939100E+03</pdfrwt>
<totfact> 0.25491845E+02</totfact>
</mgrwt>
</event>
<event>
 8    1  0.1821556E-007  0.1265749E+03  0.7546771E-02  0.1232629E+00
         -5   -1    0    0    0  501 -0.00000000000E+00  0.00000000000E+00  0.18738251649E+03  0.18744145082E+03  0.47000000000E+01 0.  1.
          5   -1    0    0  501    0  0.00000000000E+00 -0.00000000000E+00 -0.89913091204E+02  0.90035848248E+02  0.47000000000E+01 0.  1.
         25    2    1    2    0    0 -0.19237798964E+02  0.52130711642E+01  0.79917280689E+02  0.14969116811E+03  0.12499361998E+03 0.  0.
         25    2    1    2    0    0  0.19237798964E+02 -0.52130711642E+01  0.17552144595E+02  0.12778613096E+03  0.12499579379E+03 0.  0.
          5    1    4    4  502    0  0.34636747456E+02 -0.46505202191E+02 -0.27709668095E+02  0.64438760160E+02  0.47000000000E+01 0.  1.
         -5    1    4    4    0  502 -0.15398948492E+02  0.41292131026E+02  0.45261812689E+02  0.63347370800E+02  0.47000000000E+01 0.  1.
          5    1    3    3  503    0  0.39327447407E+02  0.41572722369E+02  0.38547758527E+02  0.69158940508E+02  0.47000000000E+01 0.  1.
         -5    1    3    3    0  503 -0.58565246371E+02 -0.36359651205E+02  0.41369522162E+02  0.80532227600E+02  0.47000000000E+01 0.  1.
<mgrwt>
<rscale>  0 0.12657441E+03</rscale>
<asrwt>0</asrwt>
<pdfrwt beam="2">  1        5 0.13846760E-01 0.12657495E+03</pdfrwt>
<pdfrwt beam="1">  1       -5 0.28842055E-01 0.12657495E+03</pdfrwt>
<totfact> 0.36926634E+02</totfact>
</mgrwt>
</event>
<event>
 8    1  0.1821556E-007  0.1689787E+03  0.7546771E-02  0.1178917E+00
          5   -1    0    0  501    0  0.00000000000E+00  0.00000000000E+00  0.49888182479E+03  0.49890396381E+03  0.47000000000E+01 0.  1.
         -5   -1    0    0    0  501 -0.00000000000E+00 -0.00000000000E+00 -0.77538847231E+02  0.77681161357E+02  0.47000000000E+01 0.  1.
         25    2    1    2    0    0 -0.94831151877E+02 -0.62733624267E+02  0.62894241777E+02  0.18030385266E+03  0.12500135461E+03 0.  0.
         25    2    1    2    0    0  0.94831151877E+02  0.62733624267E+02  0.35844873578E+03  0.39628127251E+03  0.12499958312E+03 0.  0.
          5    1    3    3  502    0  0.75475980107E+01 -0.54545466294E+02  0.53736657391E+02  0.77083671919E+02  0.47000000000E+01 0.  1.
         -5    1    3    3    0  502 -0.10237874989E+03 -0.81881579722E+01  0.91575843864E+01  0.10322018074E+03  0.47000000000E+01 0.  1.
          5    1    4    4  503    0  0.69616009003E+02  0.27895813875E+02  0.64098240314E+02  0.98768616233E+02  0.47000000000E+01 0.  1.
         -5    1    4    4    0  503  0.25215142874E+02  0.34837810391E+02  0.29435049547E+03  0.29751265628E+03  0.47000000000E+01 0.  1.
<mgrwt>
<rscale>  0 0.16897835E+03</rscale>
<asrwt>0</asrwt>
<pdfrwt beam="1">  1        5 0.76763702E-01 0.16897868E+03</pdfrwt>
<pdfrwt beam="2">  1       -5 0.11941703E-01 0.16897868E+03</pdfrwt>
<totfact> 0.67052015E+01</totfact>
</mgrwt>
</event>
<event>
 8    1  0.1821556E-007  0.1284941E+03  0.7546771E-02  0.1229708E+00
          5   -1    0    0  501    0  0.00000000000E+00  0.00000000000E+00  0.95306618394E+02  0.95422437140E+02  0.47000000000E+01 0. -1.
         -5   -1    0    0    0  501 -0.00000000000E+00 -0.00000000000E+00 -0.17420062221E+03  0.17426401459E+03  0.47000000000E+01 0. -1.
         25    2    1    2    0    0  0.12677172677E+02 -0.26915594302E+02 -0.28181786441E+02  0.13154720643E+03  0.12500117803E+03 0.  0.
         25    2    1    2    0    0 -0.12677172677E+02  0.26915594302E+02 -0.50712217380E+02  0.13813924530E+03  0.12500224868E+03 0.  0.
          5    1    4    4  502    0 -0.50032088655E+01  0.66241075605E+02  0.78178136642E+01  0.67053116309E+02  0.47000000000E+01 0. -1.
         -5    1    4    4    0  502 -0.76739638114E+01 -0.39325481303E+02 -0.58530031044E+02  0.71086128987E+02  0.47000000000E+01 0. -1.
          5    1    3    3  503    0  0.62713023278E+02 -0.13330133964E+02 -0.43093749409E+02  0.77393649599E+02  0.47000000000E+01 0.  1.
         -5    1    3    3    0  503 -0.50035850601E+02 -0.13585460338E+02  0.14911962968E+02  0.54153556831E+02  0.47000000000E+01 0.  1.
<mgrwt>
<rscale>  0 0.12849379E+03</rscale>
<asrwt>0</asrwt>
<pdfrwt beam="1">  1        5 0.14676342E-01 0.12849405E+03</pdfrwt>
<pdfrwt beam="2">  1       -5 0.26813881E-01 0.12849405E+03</pdfrwt>
<totfact> 0.38523749E+02</totfact>
</mgrwt>
</event>
<event>
 8    1  0.1821556E-007  0.1694097E+03  0.7546771E-02  0.1178467E+00
          5   -1    0    0  501    0  0.00000000000E+00  0.00000000000E+00  0.19171612421E+03  0.19177372677E+03  0.47000000000E+01 0.  1.
         -5   -1    0    0    0  501 -0.00000000000E+00 -0.00000000000E+00 -0.15028873568E+03  0.15036220959E+03  0.47000000000E+01 0.  1.
         25    2    1    2    0    0 -0.37379130266E+02 -0.10805317136E+03  0.89256747561E+01  0.16964468329E+03  0.12500785447E+03 0.  0.
         25    2    1    2    0    0  0.37379130266E+02  0.10805317136E+03  0.32501713772E+02  0.17249125307E+03  0.12499673502E+03 0.  0.
          5    1    4    4  502    0 -0.57108608282E+01  0.51680557625E+02  0.73693057397E+02  0.90311963086E+02  0.47000000000E+01 0. -1.
         -5    1    4    4    0  502  0.43089991094E+02  0.56372613740E+02 -0.41191343625E+02  0.82179289982E+02  0.47000000000E+01 0. -1.
          5    1    3    3  503    0  0.32801889310E+02  0.75243640392E+01  0.44684295456E+01  0.34272975639E+02  0.47000000000E+01 0. -1.
         -5    1    3    3    0  503 -0.70181019576E+02 -0.11557753540E+03  0.44572452105E+01  0.13537170766E+03  0.47000000000E+01 0. -1.
<mgrwt>
<rscale>  0 0.16940766E+03</rscale>
<asrwt>0</asrwt>
<pdfrwt beam="1">  1        5 0.29504871E-01 0.16940971E+03</pdfrwt>
<pdfrwt beam="2">  1       -5 0.23131427E-01 0.16940971E+03</pdfrwt>
<totfact> 0.15091999E+02</totfact>
</mgrwt>
</event>
<event>
 8    1  0.1821556E-007  0.1431182E+03  0.7546771E-02  0.1209194E+00
         -5   -1    0    0    0  501 -0.00000000000E+00  0.00000000000E+00  0.88774497407E+02  0.88898826707E+02  0.47000000000E+01 0.  1.
          5   -1    0    0  501    0  0.00000000000E+00 -0.00000000000E+00 -0.24736850329E+03  0.24741314925E+03  0.47000000000E+01 0.  1.
         25    2    1    2    0    0 -0.71858343536E+01  0.69325813907E+02 -0.35294069352E+02  0.14740584317E+03  0.12500042632E+03 0.  0.
         25    2    1    2    0    0  0.71858343536E+01 -0.69325813907E+02 -0.12329993653E+03  0.18890613278E+03  0.12499979186E+03 0.  0.
          5    1    3    3  502    0  0.52446295187E+02  0.33733694224E+02 -0.45116027671E+02  0.77111101390E+02  0.47000000000E+01 0.  1.
         -5    1    3    3    0  502 -0.59632129541E+02  0.35592119684E+02  0.98219583190E+01  0.70294741783E+02  0.47000000000E+01 0.  1.
          5    1    4    4  503    0 -0.51263464908E+02 -0.42493431918E+02 -0.24870354971E+02  0.71233834284E+02  0.47000000000E+01 0. -1.
         -5    1    4    4    0  503  0.58449299261E+02 -0.26832381990E+02 -0.98429581564E+02  0.11767229850E+03  0.47000000000E+01 0. -1.
<mgrwt>
<rscale>  0 0.14311803E+03</rscale>
<asrwt>0</asrwt>
<pdfrwt beam="2">  1        5 0.38069691E-01 0.14311817E+03</pdfrwt>
<pdfrwt beam="1">  1       -5 0.13670613E-01 0.14311817E+03</pdfrwt>
<totfact> 0.22709914E+02</totfact>
</mgrwt>
</event>
<event>
 8    1  0.1821556E-007  0.1283798E+03  0.7546771E-02  0.1229882E+00
          5   -1    0    0  501    0  0.00000000000E+00  0.00000000000E+00  0.69980493588E+03  0.69982071867E+03  0.47000000000E+01 0. -1.
         -5   -1    0    0    0  501 -0.00000000000E+00 -0.00000000000E+00 -0.40980534399E+02  0.41249172108E+02  0.47000000000E+01 0. -1.
         25    2    1    2    0    0  0.66336054066E+01  0.28484434659E+02  0.87160820293E+02  0.15516835273E+03  0.12499936542E+03 0.  0.
         25    2    1    2    0    0 -0.66336054066E+01 -0.28484434659E+02  0.57166358119E+03  0.58590153805E+03  0.12500397791E+03 0.  0.
          5    1    3    3  502    0  0.40283281925E+02 -0.36616743030E+02  0.31967803028E+02  0.63305284954E+02  0.47000000000E+01 0. -1.
         -5    1    3    3    0  502 -0.33649676518E+02  0.65101177689E+02  0.55193017266E+02  0.91863067776E+02  0.47000000000E+01 0. -1.
          5    1    4    4  503    0  0.57482589309E+02 -0.74392250054E+01  0.32342270792E+03  0.32860908104E+03  0.47000000000E+01 0.  1.
         -5    1    4    4    0  503 -0.64116194715E+02 -0.21045209654E+02  0.24824087327E+03  0.25729245701E+03  0.47000000000E+01 0.  1.
<mgrwt>
<rscale>  0 0.12837864E+03</rscale>
<asrwt>0</asrwt>
<pdfrwt beam="1">  1        5 0.10768417E+00 0.12837976E+03</pdfrwt>
<pdfrwt beam="2">  1       -5 0.63265766E-02 0.12837976E+03</pdfrwt>
<totfact> 0.82439417E+01</totfact>
</mgrwt>
</event>
<event>
 8    1  0.1821556E-007  0.2041910E+03  0.7546771E-02  0.1146252E+00
          5   -1    0    0  501    0  0.00000000000E+00  0.00000000000E+00  0.55402018925E+03  0.55404012499E+03  0.47000000000E+01 0. -1.
         -5   -1    0    0    0  501 -0.00000000000E+00 -0.00000000000E+00 -0.82609102366E+02  0.82742696316E+02  0.47000000000E+01 0. -1.
         25    2    1    2    0    0  0.45849785679E+02 -0.15480436492E+03  0.14019472623E+03  0.24768637027E+03  0.12500952969E+03 0.  0.
         25    2    1    2    0    0 -0.45849785679E+02  0.15480436492E+03  0.33121636066E+03  0.38909645103E+03  0.12500070557E+03 0.  0.
          5    1    4    4  502    0  0.25757611181E+02  0.11518257574E+03  0.23247802677E+03  0.26076541799E+03  0.47000000000E+01 0.  1.
         -5    1    4    4    0  502 -0.71607396860E+02  0.39621789172E+02  0.98738333890E+02  0.12833103304E+03  0.47000000000E+01 0.  1.
          5    1    3    3  503    0  0.17803806995E+02 -0.47187526165E+02 -0.18431432850E+02  0.53902188137E+02  0.47000000000E+01 0.  1.
         -5    1    3    3    0  503  0.28045978685E+02 -0.10761683875E+03  0.15862615908E+03  0.19378418214E+03  0.47000000000E+01 0.  1.
<mgrwt>
<rscale>  0 0.20418968E+03</rscale>
<asrwt>0</asrwt>
<pdfrwt beam="1">  1        5 0.85245683E-01 0.20419103E+03</pdfrwt>
<pdfrwt beam="2">  1       -5 0.12720903E-01 0.20419103E+03</pdfrwt>
<totfact> 0.49382742E+01</totfact>
</mgrwt>
</event>
<event>
 8    1  0.1821556E-007  0.1337263E+03  0.7546771E-02  0.1222029E+00
         -5   -1    0    0    0  501 -0.00000000000E+00  0.00000000000E+00  0.35685096392E+03  0.35688191388E+03  0.47000000000E+01 0. -1.
          5   -1    0    0  501    0  0.00000000000E+00 -0.00000000000E+00 -0.50693377460E+02  0.50910789802E+02  0.47000000000E+01 0. -1.
         25    2    1    2    0    0 -0.45397862850E+02  0.14032440109E+02  0.17739562674E+03  0.22215225099E+03  0.12499815561E+03 0.  0.
         25    2    1    2    0    0  0.45397862850E+02 -0.14032440109E+02  0.12876195972E+03  0.18564045269E+03  0.12499944031E+03 0.  0.
          5    1    4    4  502    0 -0.29012725382E+02  0.25626873688E+02  0.10613092886E+02  0.40412901773E+02  0.47000000000E+01 0. -1.
         -5    1    4    4    0  502  0.74410588232E+02 -0.39659313797E+02  0.11814886684E+03  0.14522755092E+03  0.47000000000E+01 0. -1.
          5    1    3    3  503    0 -0.45123189903E+02  0.10785040773E+02  0.19663090504E+03  0.20208469063E+03  0.47000000000E+01 0.  1.
         -5    1    3    3    0  503 -0.27467294712E+00  0.32473993356E+01 -0.19235278294E+02  0.20067560358E+02  0.47000000000E+01 0.  1.
<mgrwt>
<rscale>  0 0.13372604E+03</rscale>
<asrwt>0</asrwt>
<pdfrwt beam="2">  1        5 0.78180861E-02 0.13372635E+03</pdfrwt>
<pdfrwt beam="1">  1       -5 0.54919252E-01 0.13372635E+03</pdfrwt>
<totfact> 0.27453921E+02</totfact>
</mgrwt>
</event>
<event>
 8    1  0.1821556E-007  0.1261754E+03  0.7546771E-02  0.1233249E+00
         -5   -1    0    0    0  501 -0.00000000000E+00  0.00000000000E+00  0.78230918561E+03  0.78232330394E+03  0.47000000000E+01 0. -1.
          5   -1    0    0  501    0  0.00000000000E+00 -0.00000000000E+00 -0.21054490050E+02  0.21572703847E+02  0.47000000000E+01 0. -1.
         25    2    1    2    0    0  0.16976498322E+02 -0.25704249329E+01  0.46675950362E+03  0.48350926940E+03  0.12498788262E+03 0.  0.
         25    2    1    2    0    0 -0.16976498322E+02  0.25704249329E+01  0.29449519194E+03  0.32038673838E+03  0.12500174189E+03 0.  0.
          5    1    3    3  502    0  0.39586704412E+02  0.24838124674E+02  0.65216337804E+02  0.80369772428E+02  0.47000000000E+01 0. -1.
         -5    1    3    3    0  502 -0.22610206090E+02 -0.27408549607E+02  0.40154316581E+03  0.40313949698E+03  0.47000000000E+01 0. -1.
          5    1    4    4  503    0  0.50834852768E+02  0.10447949672E+02  0.82106047417E+02  0.97246259212E+02  0.47000000000E+01 0.  1.
         -5    1    4    4    0  503 -0.67811351090E+02 -0.78775247388E+01  0.21238914452E+03  0.22314047917E+03  0.47000000000E+01 0.  1.
<mgrwt>
<rscale>  0 0.12617202E+03</rscale>
<asrwt>0</asrwt>
<pdfrwt beam="2">  1        5 0.32801011E-02 0.12617545E+03</pdfrwt>
<pdfrwt beam="1">  1       -5 0.12039620E+00 0.12617545E+03</pdfrwt>
<totfact> 0.18329025E+02</totfact>
</mgrwt>
</event>
<event>
 8    1  0.1821556E-007  0.1318618E+03  0.7546771E-02  0.1224720E+00
         -5   -1    0    0    0  501 -0.00000000000E+00  0.00000000000E+00  0.54702650296E+03  0.54704669356E+03  0.47000000000E+01 0. -1.
          5   -1    0    0  501    0  0.00000000000E+00 -0.00000000000E+00 -0.37816758359E+02  0.38107705426E+02  0.47000000000E+01 0. -1.
         25    2    1    2    0    0  0.23984640184E+02  0.34450645991E+02  0.37279037873E+03  0.39542358598E+03  0.12500014361E+03 0.  0.
         25    2    1    2    0    0 -0.23984640184E+02 -0.34450645991E+02  0.13641936586E+03  0.18973081300E+03  0.12500171217E+03 0.  0.
          5    1    4    4  502    0  0.29101566964E+02  0.33985641229E+02  0.50677443534E+02  0.67765908041E+02  0.47000000000E+01 0. -1.
         -5    1    4    4    0  502 -0.53086207148E+02 -0.68436287220E+02  0.85741922331E+02  0.12196490496E+03  0.47000000000E+01 0. -1.
          5    1    3    3  503    0 -0.18187774747E+02 -0.38640938769E+02  0.81655343237E+02  0.92269184337E+02  0.47000000000E+01 0.  1.
         -5    1    3    3    0  503  0.42172414931E+02  0.73091584760E+02  0.29113503550E+03  0.30315440165E+03  0.47000000000E+01 0.  1.
<mgrwt>
<rscale>  0 0.13186144E+03</rscale>
<asrwt>0</asrwt>
<pdfrwt beam="2">  1        5 0.58418970E-02 0.13186181E+03</pdfrwt>
<pdfrwt beam="1">  1       -5 0.84181850E-01 0.13186181E+03</pdfrwt>
<totfact> 0.17187098E+02</totfact>
</mgrwt>
</event>
<event>
 8    1  0.1821556E-007  0.1448807E+03  0.7546771E-02  0.1206909E+00
         -5   -1    0    0    0  501 -0.00000000000E+00  0.00000000000E+00  0.67062142431E+02  0.67226638674E+02  0.47000000000E+01 0. -1.
          5   -1    0    0  501    0  0.00000000000E+00 -0.00000000000E+00 -0.31290667282E+03  0.31294196890E+03  0.47000000000E+01 0. -1.
         25    2    1    2    0    0  0.32542174484E+02 -0.65617402980E+02 -0.13034859257E+03  0.19488761386E+03  0.12500315898E+03 0.  0.
         25    2    1    2    0    0 -0.32542174484E+02  0.65617402980E+02 -0.11549593782E+03  0.18528099371E+03  0.12500039314E+03 0.  0.
          5    1    3    3  502    0  0.58634201726E+02 -0.89857908315E+02 -0.10938077758E+03  0.15329271934E+03  0.47000000000E+01 0. -1.
         -5    1    3    3    0  502 -0.26092027241E+02  0.24240505335E+02 -0.20967814995E+02  0.41594894520E+02  0.47000000000E+01 0. -1.
          5    1    4    4  503    0  0.17728977489E+02  0.55373823232E+02 -0.12014052556E+03  0.13355303375E+03  0.47000000000E+01 0.  1.
         -5    1    4    4    0  503 -0.50271151974E+02  0.10243579748E+02  0.46445877380E+01  0.51727959964E+02  0.47000000000E+01 0.  1.
<mgrwt>
<rscale>  0 0.14488014E+03</rscale>
<asrwt>0</asrwt>
<pdfrwt beam="2">  1        5 0.48154856E-01 0.14488073E+03</pdfrwt>
<pdfrwt beam="1">  1       -5 0.10332621E-01 0.14488073E+03</pdfrwt>
<totfact> 0.23032679E+02</totfact>
</mgrwt>
</event>
<event>
 8    1  0.1821556E-007  0.1442059E+03  0.7546771E-02  0.1207791E+00
         -5   -1    0    0    0  501 -0.00000000000E+00  0.00000000000E+00  0.31191906480E+02  0.31544017339E+02  0.47000000000E+01 0.  1.
          5   -1    0    0  501    0  0.00000000000E+00 -0.00000000000E+00 -0.69654351507E+03  0.69655937176E+03  0.47000000000E+01 0.  1.
         25    2    1    2    0    0 -0.45893375572E+02  0.55360964359E+02 -0.25215706389E+03  0.29047980916E+03  0.12499718542E+03 0.  0.
         25    2    1    2    0    0  0.45893375572E+02 -0.55360964359E+02 -0.41319454469E+03  0.43762357993E+03  0.12495450234E+03 0.  0.
          5    1    3    3  502    0 -0.28535189601E+02 -0.19738117977E+02 -0.10155999661E+02  0.36456613611E+02  0.47000000000E+01 0.  1.
         -5    1    3    3    0  502 -0.17358185970E+02  0.75099082336E+02 -0.24200106423E+03  0.25402319555E+03  0.47000000000E+01 0.  1.
          5    1    4    4  503    0 -0.11290895048E+02 -0.34623836427E+02 -0.24438154911E+02  0.44109044145E+02  0.47000000000E+01 0. -1.
         -5    1    4    4    0  503  0.57184270619E+02 -0.20737127932E+02 -0.38875638978E+03  0.39351453579E+03  0.47000000000E+01 0. -1.
<mgrwt>
<rscale>  0 0.14419663E+03</rscale>
<asrwt>0</asrwt>
<pdfrwt beam="2">  1        5 0.10718883E+00 0.14420588E+03</pdfrwt>
<pdfrwt beam="1">  1       -5 0.48270605E-02 0.14420588E+03</pdfrwt>
<totfact> 0.13605287E+02</totfact>
</mgrwt>
</event>
<event>
 8    1  0.1821556E-007  0.1354465E+03  0.7546771E-02  0.1219591E+00
         -5   -1    0    0    0  501 -0.00000000000E+00  0.00000000000E+00  0.11507042632E+02  0.12429884558E+02  0.47000000000E+01 0. -1.
          5   -1    0    0  501    0  0.00000000000E+00 -0.00000000000E+00 -0.15356714034E+04  0.15356785956E+04  0.47000000000E+01 0. -1.
         25    2    1    2    0    0 -0.19693804761E+02  0.48304656516E+02 -0.72375798576E+03  0.73632288307E+03  0.12499832158E+03 0.  0.
         25    2    1    2    0    0  0.19693804761E+02 -0.48304656516E+02 -0.80040637498E+03  0.81178559713E+03  0.12499721924E+03 0.  0.
          5    1    3    3  502    0  0.29853967639E+02  0.29414218145E+02 -0.60151358026E+03  0.60299015983E+03  0.47000000000E+01 0. -1.
         -5    1    3    3    0  502 -0.49547772399E+02  0.18890438371E+02 -0.12224440550E+03  0.13333272324E+03  0.47000000000E+01 0. -1.
          5    1    4    4  503    0  0.91319793123E+01 -0.41058437949E+02 -0.79645849787E+03  0.79758223225E+03  0.47000000000E+01 0.  1.
         -5    1    4    4    0  503  0.10561825448E+02 -0.72462185667E+01 -0.39478771091E+01  0.14203364882E+02  0.47000000000E+01 0.  1.
<mgrwt>
<rscale>  0 0.13544629E+03</rscale>
<asrwt>0</asrwt>
<pdfrwt beam="2">  1        5 0.23632852E+00 0.13544654E+03</pdfrwt>
<pdfrwt beam="1">  1       -5 0.18418566E-02 0.13544654E+03</pdfrwt>
<totfact> 0.66533207E+01</totfact>
</mgrwt>
</event>
<event>
 8    1  0.1821556E-007  0.1323864E+03  0.7546771E-02  0.1223957E+00
          5   -1    0    0  501    0  0.00000000000E+00  0.00000000000E+00  0.37818275191E+02  0.38109210677E+02  0.47000000000E+01 0.  1.
         -5   -1    0    0    0  501 -0.00000000000E+00 -0.00000000000E+00 -0.14192674407E+04  0.14192752229E+04  0.47000000000E+01 0.  1.
         25    2    1    2    0    0 -0.22472867623E+02 -0.37372980931E+02 -0.12893154944E+04  0.12960943667E+04  0.12499757537E+03 0.  0.
         25    2    1    2    0    0  0.22472867623E+02  0.37372980931E+02 -0.92133671123E+02  0.16129006684E+03  0.12499641124E+03 0.  0.
          5    1    4    4  502    0  0.66762260793E+02  0.67107313559E+01 -0.18179415811E+02  0.69676499200E+02  0.47000000000E+01 0. -1.
         -5    1    4    4    0  502 -0.44289393171E+02  0.30662249575E+02 -0.73954255312E+02  0.91613567637E+02  0.47000000000E+01 0. -1.
          5    1    3    3  503    0 -0.30837042393E+02 -0.75564583391E+02 -0.10812020856E+04  0.10842882316E+04  0.47000000000E+01 0.  1.
         -5    1    3    3    0  503  0.83641747708E+01  0.38191602460E+02 -0.20811340883E+03  0.21180613507E+03  0.47000000000E+01 0.  1.
<mgrwt>
<rscale>  0 0.13238614E+03</rscale>
<asrwt>0</asrwt>
<pdfrwt beam="1">  1        5 0.58411756E-02 0.13238642E+03</pdfrwt>
<pdfrwt beam="2">  1       -5 0.21837177E+00 0.13238642E+03</pdfrwt>
<totfact> 0.13256528E+01</totfact>
</mgrwt>
</event>
<event>
 8    1  0.1821556E-007  0.1392864E+03  0.7546771E-02  0.1214293E+00
          5   -1    0    0  501    0  0.00000000000E+00  0.00000000000E+00  0.86627049024E+02  0.86754455924E+02  0.47000000000E+01 0. -1.
         -5   -1    0    0    0  501 -0.00000000000E+00 -0.00000000000E+00 -0.24958743100E+03  0.24963168010E+03  0.47000000000E+01 0. -1.
         25    2    1    2    0    0  0.54385278524E+02  0.28574208298E+02 -0.13569468801E+03  0.19445617752E+03  0.12500365083E+03 0.  0.
         25    2    1    2    0    0 -0.54385278524E+02 -0.28574208298E+02 -0.27265693966E+02  0.14192995851E+03  0.12500580449E+03 0.  0.
          5    1    4    4  502    0  0.74603223235E+01 -0.45461850765E+02  0.30545703842E+02  0.55475817321E+02  0.47000000000E+01 0. -1.
         -5    1    4    4    0  502 -0.61845600847E+02  0.16887642467E+02 -0.57811397808E+02  0.86454141189E+02  0.47000000000E+01 0. -1.
          5    1    3    3  503    0  0.53237399722E+02  0.45917962385E+02 -0.14508119586E+02  0.71939248903E+02  0.47000000000E+01 0.  1.
         -5    1    3    3    0  503  0.11478788014E+01 -0.17343754087E+02 -0.12118656842E+03  0.12251692862E+03  0.47000000000E+01 0.  1.
<mgrwt>
<rscale>  0 0.13928589E+03</rscale>
<asrwt>0</asrwt>
<pdfrwt beam="1">  1        5 0.13340443E-01 0.13928638E+03</pdfrwt>
<pdfrwt beam="2">  1       -5 0.38411270E-01 0.13928638E+03</pdfrwt>
<totfact> 0.23089576E+02</totfact>
</mgrwt>
</event>
<event>
 8    1  0.1821556E-007  0.1311618E+03  0.7546771E-02  0.1225742E+00
         -5   -1    0    0    0  501 -0.00000000000E+00  0.00000000000E+00  0.13806434505E+03  0.13814432081E+03  0.47000000000E+01 0. -1.
          5   -1    0    0  501    0  0.00000000000E+00 -0.00000000000E+00 -0.12485479571E+03  0.12494322715E+03  0.47000000000E+01 0. -1.
         25    2    1    2    0    0  0.39705961722E+02 -0.10879201087E+01  0.14153102663E+02  0.13192322982E+03  0.12500272511E+03 0.  0.
         25    2    1    2    0    0 -0.39705961722E+02  0.10879201087E+01 -0.94355332691E+00  0.13116431815E+03  0.12500176437E+03 0.  0.
          5    1    4    4  502    0 -0.79002338705E+02 -0.15622503820E+02 -0.21579058605E+02  0.83505556203E+02  0.47000000000E+01 0. -1.
         -5    1    4    4    0  502  0.39296376983E+02  0.16710423929E+02  0.20635505279E+02  0.47658761943E+02  0.47000000000E+01 0. -1.
          5    1    3    3  503    0  0.58826816736E+02 -0.47550388033E+02  0.25937754565E+02  0.80103001700E+02  0.47000000000E+01 0.  1.
         -5    1    3    3    0  503 -0.19120855014E+02  0.46462467925E+02 -0.11784651902E+02  0.51820228122E+02  0.47000000000E+01 0.  1.
<mgrwt>
<rscale>  0 0.13116161E+03</rscale>
<asrwt>0</asrwt>
<pdfrwt beam="2">  1        5 0.19221384E-01 0.13116184E+03</pdfrwt>
<pdfrwt beam="1">  1       -5 0.21253623E-01 0.13116184E+03</pdfrwt>
<totfact> 0.36879300E+02</totfact>
</mgrwt>
</event>
<event>
 8    1  0.1821556E-007  0.1360936E+03  0.7546771E-02  0.1218685E+00
          5   -1    0    0  501    0  0.00000000000E+00  0.00000000000E+00  0.42525802623E+02  0.42784738970E+02  0.47000000000E+01 0. -1.
         -5   -1    0    0    0  501 -0.00000000000E+00 -0.00000000000E+00 -0.48102329525E+03  0.48104625617E+03  0.47000000000E+01 0. -1.
         25    2    1    2    0    0 -0.17476710277E+02 -0.50903107730E+02 -0.30117641372E+03  0.33049766117E+03  0.12499964031E+03 0.  0.
         25    2    1    2    0    0  0.17476710277E+02  0.50903107730E+02 -0.13732107890E+03  0.19333333396E+03  0.12499655008E+03 0.  0.
          5    1    3    3  502    0  0.26467192676E+02 -0.65325912597E+02 -0.25639721207E+03  0.26595038542E+03  0.47000000000E+01 0. -1.
         -5    1    3    3    0  502 -0.43943902953E+02  0.14422804866E+02 -0.44779201651E+02  0.64547275755E+02  0.47000000000E+01 0. -1.
          5    1    4    4  503    0 -0.27882767408E+02 -0.89627391645E+01 -0.10893551507E+03  0.11290179740E+03  0.47000000000E+01 0. -1.
         -5    1    4    4    0  503  0.45359477685E+02  0.59865846895E+02 -0.28385563827E+02  0.80431536564E+02  0.47000000000E+01 0. -1.
<mgrwt>
<rscale>  0 0.13609290E+03</rscale>
<asrwt>0</asrwt>
<pdfrwt beam="1">  1        5 0.65641159E-02 0.13609361E+03</pdfrwt>
<pdfrwt beam="2">  1       -5 0.74025264E-01 0.13609361E+03</pdfrwt>
<totfact> 0.19202288E+02</totfact>
</mgrwt>
</event>
<event>
 8    1  0.1821556E-007  0.1644254E+03  0.7546771E-02  0.1183790E+00
          5   -1    0    0  501    0  0.00000000000E+00  0.00000000000E+00  0.13958084168E+03  0.13965994903E+03  0.47000000000E+01 0.  1.
         -5   -1    0    0    0  501 -0.00000000000E+00 -0.00000000000E+00 -0.21045519326E+03  0.21050766819E+03  0.47000000000E+01 0.  1.
         25    2    1    2    0    0 -0.81753235085E+02 -0.68756333790E+02 -0.85079903958E+02  0.18512974902E+03  0.12499363597E+03 0.  0.
         25    2    1    2    0    0  0.81753235085E+02  0.68756333790E+02  0.14205552378E+02  0.16503786820E+03  0.12499870135E+03 0.  0.
          5    1    4    4  502    0  0.11178431136E+03  0.46028446565E+02 -0.76821455753E+01  0.12122481396E+03  0.47000000000E+01 0.  1.
         -5    1    4    4    0  502 -0.30031076276E+02  0.22727887225E+02  0.21887697953E+02  0.43813054238E+02  0.47000000000E+01 0.  1.
          5    1    3    3  503    0 -0.43931085792E+02 -0.10286510963E+03 -0.47259222313E+02  0.12151829151E+03  0.47000000000E+01 0. -1.
         -5    1    3    3    0  503 -0.37822149293E+02  0.34108775843E+02 -0.37820681645E+02  0.63611457511E+02  0.47000000000E+01 0. -1.
<mgrwt>
<rscale>  0 0.16442440E+03</rscale>
<asrwt>0</asrwt>
<pdfrwt beam="1">  1        5 0.21484097E-01 0.16442536E+03</pdfrwt>
<pdfrwt beam="2">  1       -5 0.32387844E-01 0.16442536E+03</pdfrwt>
<totfact> 0.14309436E+02</totfact>
</mgrwt>
</event>
<event>
 8    1  0.1821556E-007  0.1935706E+03  0.7546771E-02  0.1155281E+00
          5   -1    0    0  501    0  0.00000000000E+00  0.00000000000E+00  0.26941061187E+03  0.26945160566E+03  0.47000000000E+01 0.  1.
         -5   -1    0    0    0  501 -0.00000000000E+00 -0.00000000000E+00 -0.14041196905E+03  0.14049060841E+03  0.47000000000E+01 0.  1.
         25    2    1    2    0    0  0.46049708804E+01  0.14772153020E+03  0.43838793777E+02  0.19847268043E+03  0.12500683500E+03 0.  0.
         25    2    1    2    0    0 -0.46049708804E+01 -0.14772153020E+03  0.85159849049E+02  0.21146953364E+03  0.12499723007E+03 0.  0.
          5    1    3    3  502    0  0.25203188824E+02  0.45690258609E+01  0.47002891625E+02  0.53734891322E+02  0.47000000000E+01 0.  1.
         -5    1    3    3    0  502 -0.20598217944E+02  0.14315250434E+03 -0.31640978483E+01  0.14473778911E+03  0.47000000000E+01 0.  1.
          5    1    4    4  503    0  0.26092455321E+00 -0.15745769840E+03  0.36923418144E+02  0.16179747735E+03  0.47000000000E+01 0.  1.
         -5    1    4    4    0  503 -0.48658954336E+01  0.97361682062E+01  0.48236430906E+02  0.49672056292E+02  0.47000000000E+01 0.  1.
<mgrwt>
<rscale>  0 0.19356902E+03</rscale>
<asrwt>0</asrwt>
<pdfrwt beam="1">  1        5 0.41456989E-01 0.19357057E+03</pdfrwt>
<pdfrwt beam="2">  1       -5 0.21611044E-01 0.19357057E+03</pdfrwt>
<totfact> 0.89971324E+01</totfact>
</mgrwt>
</event>
<event>
 8    1  0.1821556E-007  0.1334200E+03  0.7546771E-02  0.1222469E+00
          5   -1    0    0  501    0  0.00000000000E+00  0.00000000000E+00  0.12054449516E+03  0.12063608628E+03  0.47000000000E+01 0.  1.
         -5   -1    0    0    0  501 -0.00000000000E+00 -0.00000000000E+00 -0.17394710610E+03  0.17401059083E+03  0.47000000000E+01 0.  1.
         25    2    1    2    0    0  0.46544739985E+02  0.30096059502E+01 -0.84139347550E+02  0.15773495844E+03  0.12500166703E+03 0.  0.
         25    2    1    2    0    0 -0.46544739985E+02 -0.30096059502E+01  0.30736736612E+02  0.13691171867E+03  0.12499840472E+03 0.  0.
          5    1    3    3  502    0  0.29600453928E+02  0.56372297854E+02 -0.98627081353E+01  0.64601748040E+02  0.47000000000E+01 0. -1.
         -5    1    3    3    0  502  0.16944286057E+02 -0.53362691904E+02 -0.74276639414E+02  0.93133210403E+02  0.47000000000E+01 0. -1.
          5    1    4    4  503    0  0.13474994897E+02  0.50737365625E+02  0.12794714382E+02  0.54236984375E+02  0.47000000000E+01 0. -1.
         -5    1    4    4    0  503 -0.60019734883E+02 -0.53746971575E+02  0.17942022230E+02  0.82674734294E+02  0.47000000000E+01 0. -1.
<mgrwt>
<rscale>  0 0.13341920E+03</rscale>
<asrwt>0</asrwt>
<pdfrwt beam="1">  1        5 0.18557236E-01 0.13341997E+03</pdfrwt>
<pdfrwt beam="2">  1       -5 0.26773022E-01 0.13341997E+03</pdfrwt>
<totfact> 0.25517035E+02</totfact>
</mgrwt>
</event>
<event>
 8    1  0.1821556E-007  0.1263233E+03  0.7546771E-02  0.1233017E+00
          5   -1    0    0  501    0  0.00000000000E+00  0.00000000000E+00  0.17925129636E+03  0.17931290318E+03  0.47000000000E+01 0.  1.
         -5   -1    0    0    0  501 -0.00000000000E+00 -0.00000000000E+00 -0.91553852809E+02  0.91674412810E+02  0.47000000000E+01 0.  1.
         25    2    1    2    0    0 -0.11423508291E+02  0.14184090318E+02  0.20723703364E+02  0.12801186408E+03  0.12500352196E+03 0.  0.
         25    2    1    2    0    0  0.11423508291E+02 -0.14184090318E+02  0.66973740188E+02  0.14297545192E+03  0.12499925206E+03 0.  0.
          5    1    4    4  502    0  0.66256039761E+02 -0.12579123934E+02  0.19719752201E+02  0.70420563692E+02  0.47000000000E+01 0.  1.
         -5    1    4    4    0  502 -0.54832531470E+02 -0.16049663834E+01  0.47253987987E+02  0.72554888224E+02  0.47000000000E+01 0.  1.
          5    1    3    3  503    0  0.52428200808E+02 -0.15701892747E+02  0.15927604505E+02  0.57193043817E+02  0.47000000000E+01 0. -1.
         -5    1    3    3    0  503 -0.63851709099E+02  0.29885983064E+02  0.47960988595E+01  0.70818820259E+02  0.47000000000E+01 0. -1.
<mgrwt>
<rscale>  0 0.12632220E+03</rscale>
<asrwt>0</asrwt>
<pdfrwt beam="1">  1        5 0.27591135E-01 0.12632326E+03</pdfrwt>
<pdfrwt beam="2">  1       -5 0.14099221E-01 0.12632326E+03</pdfrwt>
<totfact> 0.38936285E+02</totfact>
</mgrwt>
</event>
<event>
 8    1  0.1821556E-007  0.1529088E+03  0.7546771E-02  0.1196954E+00
          5   -1    0    0  501    0  0.00000000000E+00  0.00000000000E+00  0.62419311825E+02  0.62596010167E+02  0.47000000000E+01 0. -1.
         -5   -1    0    0    0  501 -0.00000000000E+00 -0.00000000000E+00 -0.37822071206E+03  0.37824991345E+03  0.47000000000E+01 0. -1.
         25    2    1    2    0    0 -0.81563211116E+02  0.33075323951E+02 -0.18180106847E+03  0.23755571400E+03  0.12503821135E+03 0.  0.
         25    2    1    2    0    0  0.81563211116E+02 -0.33075323951E+02 -0.13400033176E+03  0.20329020962E+03  0.12499714378E+03 0.  0.
          5    1    3    3  502    0 -0.10605333261E+03  0.28344416863E+02 -0.89159163446E+02  0.14149968817E+03  0.47000000000E+01 0.  1.
         -5    1    3    3    0  502  0.24490121496E+02  0.47309070874E+01 -0.92641905024E+02  0.96056025835E+02  0.47000000000E+01 0.  1.
          5    1    4    4  503    0  0.55810223124E+02 -0.80159066983E+02 -0.98349223182E+02  0.13869000225E+03  0.47000000000E+01 0.  1.
         -5    1    4    4    0  503  0.25752987993E+02  0.47083743032E+02 -0.35651108579E+02  0.64600207364E+02  0.47000000000E+01 0.  1.
<mgrwt>
<rscale>  0 0.15290036E+03</rscale>
<asrwt>0</asrwt>
<pdfrwt beam="1">  1        5 0.96188097E-02 0.15290876E+03</pdfrwt>
<pdfrwt beam="2">  1       -5 0.58203639E-01 0.15290876E+03</pdfrwt>
<totfact> 0.17697845E+02</totfact>
</mgrwt>
</event>
<event>
 8    1  0.1821556E-007  0.1346120E+03  0.7546771E-02  0.1220770E+00
          5   -1    0    0  501    0  0.00000000000E+00  0.00000000000E+00  0.62914751598E+02  0.63090062361E+02  0.47000000000E+01 0. -1.
         -5   -1    0    0    0  501 -0.00000000000E+00 -0.00000000000E+00 -0.31407613610E+03  0.31411130076E+03  0.47000000000E+01 0. -1.
         25    2    1    2    0    0 -0.29254286241E+02  0.40486876537E+02 -0.18051692069E+03  0.22518161501E+03  0.12500160259E+03 0.  0.
         25    2    1    2    0    0  0.29254286241E+02 -0.40486876537E+02 -0.70644463811E+02  0.15201974811E+03  0.12499745242E+03 0.  0.
          5    1    3    3  502    0 -0.16974516504E+02  0.81167818373E+02 -0.77307085154E+02  0.11346728324E+03  0.47000000000E+01 0.  1.
         -5    1    3    3    0  502 -0.12279769737E+02 -0.40680941836E+02 -0.10320983553E+03  0.11171433178E+03  0.47000000000E+01 0.  1.
          5    1    4    4  503    0  0.67231060926E+02 -0.34395455728E+02 -0.82064918111E+02  0.11162349086E+03  0.47000000000E+01 0. -1.
         -5    1    4    4    0  503 -0.37976774685E+02 -0.60914208099E+01  0.11420454300E+02  0.40396257245E+02  0.47000000000E+01 0. -1.
<mgrwt>
<rscale>  0 0.13461108E+03</rscale>
<asrwt>0</asrwt>
<pdfrwt beam="1">  1        5 0.96953832E-02 0.13461204E+03</pdfrwt>
<pdfrwt beam="2">  1       -5 0.48335595E-01 0.13461204E+03</pdfrwt>
<totfact> 0.24913332E+02</totfact>
</mgrwt>
</event>
<event>
 8    1  0.1821556E-007  0.1264384E+03  0.7546771E-02  0.1232839E+00
         -5   -1    0    0    0  501 -0.00000000000E+00  0.00000000000E+00  0.29290480544E+03  0.29294251151E+03  0.47000000000E+01 0. -1.
          5   -1    0    0  501    0  0.00000000000E+00 -0.00000000000E+00 -0.57562586558E+02  0.57754145922E+02  0.47000000000E+01 0. -1.
         25    2    1    2    0    0  0.74743738273E+01 -0.17466686820E+02  0.15845245083E+03  0.20271458420E+03  0.12500028824E+03 0.  0.
         25    2    1    2    0    0 -0.74743738273E+01  0.17466686820E+02  0.76889768058E+02  0.14798207324E+03  0.12500282459E+03 0.  0.
          5    1    3    3  502    0  0.45512777044E+02 -0.42445372451E+01  0.76834264830E+01  0.46589204900E+02  0.47000000000E+01 0. -1.
         -5    1    3    3    0  502 -0.38038403216E+02 -0.13222149575E+02  0.15076902434E+03  0.15612537930E+03  0.47000000000E+01 0. -1.
          5    1    4    4  503    0  0.94579650058E+01 -0.52686979594E+02  0.27124240450E+02  0.60192901083E+02  0.47000000000E+01 0. -1.
         -5    1    4    4    0  503 -0.16932338833E+02  0.70153666414E+02  0.49765527607E+02  0.87789172155E+02  0.47000000000E+01 0. -1.
<mgrwt>
<rscale>  0 0.12643773E+03</rscale>
<asrwt>0</asrwt>
<pdfrwt beam="2">  1        5 0.88734184E-02 0.12643835E+03</pdfrwt>
<pdfrwt beam="1">  1       -5 0.45079914E-01 0.12643835E+03</pdfrwt>
<totfact> 0.32867637E+02</totfact>
</mgrwt>
</event>
<event>
 8    1  0.1821556E-007  0.1389280E+03  0.7546771E-02  0.1214781E+00
          5   -1    0    0  501    0  0.00000000000E+00  0.00000000000E+00  0.94034702558E+02  0.94152085931E+02  0.47000000000E+01 0. -1.
         -5   -1    0    0    0  501 -0.00000000000E+00 -0.00000000000E+00 -0.20671056130E+03  0.20676398659E+03  0.47000000000E+01 0. -1.
         25    2    1    2    0    0 -0.41504002358E+02 -0.44162281275E+02 -0.42545373972E+02  0.14529662336E+03  0.12501244184E+03 0.  0.
         25    2    1    2    0    0  0.41504002358E+02  0.44162281275E+02 -0.70130484765E+02  0.15561944916E+03  0.12500495496E+03 0.  0.
          5    1    3    3  502    0 -0.63343658533E+02 -0.54608217211E+02 -0.69441550201E+02  0.10880576895E+03  0.47000000000E+01 0.  1.
         -5    1    3    3    0  502  0.21839656176E+02  0.10445935936E+02  0.26896176228E+02  0.36490854405E+02  0.47000000000E+01 0.  1.
          5    1    4    4  503    0 -0.35022871365E+02 -0.12462967911E+02 -0.31605150474E+00  0.37471548892E+02  0.47000000000E+01 0.  1.
         -5    1    4    4    0  503  0.76526873723E+02  0.56625249186E+02 -0.69814433260E+02  0.11814790027E+03  0.47000000000E+01 0.  1.
<mgrwt>
<rscale>  0 0.13892635E+03</rscale>
<asrwt>0</asrwt>
<pdfrwt beam="1">  1        5 0.14480017E-01 0.13892804E+03</pdfrwt>
<pdfrwt beam="2">  1       -5 0.31814764E-01 0.13892804E+03</pdfrwt>
<totfact> 0.29048397E+02</totfact>
</mgrwt>
</event>
<event>
 8    1  0.1821556E-007  0.1767229E+03  0.7546771E-02  0.1171013E+00
          5   -1    0    0  501    0  0.00000000000E+00  0.00000000000E+00  0.28899191104E+03  0.28903012757E+03  0.47000000000E+01 0. -1.
         -5   -1    0    0    0  501 -0.00000000000E+00 -0.00000000000E+00 -0.11185949400E+03  0.11195819040E+03  0.47000000000E+01 0. -1.
         25    2    1    2    0    0  0.10839000221E+03  0.62106862563E+02  0.12592326796E+03  0.21699691777E+03  0.12500135179E+03 0.  0.
         25    2    1    2    0    0 -0.10839000221E+03 -0.62106862563E+02  0.51209149076E+02  0.18399140021E+03  0.12499921377E+03 0.  0.
          5    1    4    4  502    0 -0.93185982450E+02 -0.84601882394E+02  0.12476721033E+00  0.12594924135E+03  0.47000000000E+01 0. -1.
         -5    1    4    4    0  502 -0.15204019764E+02  0.22495019832E+02  0.51084381866E+02  0.58042158857E+02  0.47000000000E+01 0. -1.
          5    1    3    3  503    0 -0.16788102157E+01  0.65244754618E+02  0.58657794412E+02  0.87877888312E+02  0.47000000000E+01 0.  1.
         -5    1    3    3    0  503  0.11006881243E+03 -0.31378920554E+01  0.67265473549E+02  0.12911902946E+03  0.47000000000E+01 0.  1.
<mgrwt>
<rscale>  0 0.17672255E+03</rscale>
<asrwt>0</asrwt>
<pdfrwt beam="1">  1        5 0.44470826E-01 0.17672293E+03</pdfrwt>
<pdfrwt beam="2">  1       -5 0.17219685E-01 0.17672293E+03</pdfrwt>
<totfact> 0.11578139E+02</totfact>
</mgrwt>
</event>
<event>
 8    1  0.1821556E-007  0.1259355E+03  0.7546771E-02  0.1233618E+00
          5   -1    0    0  501    0  0.00000000000E+00  0.00000000000E+00  0.10285810227E+03  0.10296542722E+03  0.47000000000E+01 0. -1.
         -5   -1    0    0    0  501 -0.00000000000E+00 -0.00000000000E+00 -0.16728935565E+03  0.16735536596E+03  0.47000000000E+01 0. -1.
         25    2    1    2    0    0 -0.10979675357E+02 -0.10608824891E+02 -0.70355762678E+02  0.14425559922E+03  0.12500657634E+03 0.  0.
         25    2    1    2    0    0  0.10979675357E+02  0.10608824891E+02  0.59245092894E+01  0.12606519395E+03  0.12499693148E+03 0.  0.
          5    1    3    3  502    0 -0.64411119825E+02 -0.25250672943E+02 -0.30005210036E+02  0.75556544855E+02  0.47000000000E+01 0. -1.
         -5    1    3    3    0  502  0.53431444467E+02  0.14641848052E+02 -0.40350552642E+02  0.68699054366E+02  0.47000000000E+01 0. -1.
          5    1    4    4  503    0  0.14129426523E+02 -0.50977016487E+02 -0.22898090932E+02  0.57833463256E+02  0.47000000000E+01 0. -1.
         -5    1    4    4    0  503 -0.31497511659E+01  0.61585841378E+02  0.28822600222E+02  0.68231730699E+02  0.47000000000E+01 0. -1.
<mgrwt>
<rscale>  0 0.12593308E+03</rscale>
<asrwt>0</asrwt>
<pdfrwt beam="1">  1        5 0.15837657E-01 0.12593548E+03</pdfrwt>
<pdfrwt beam="2">  1       -5 0.25750157E-01 0.12593548E+03</pdfrwt>
<totfact> 0.36012951E+02</totfact>
</mgrwt>
</event>
<event>
 8    1  0.1821556E-007  0.1655676E+03  0.7546771E-02  0.1182551E+00
         -5   -1    0    0    0  501 -0.00000000000E+00  0.00000000000E+00  0.38853281557E+03  0.38856124199E+03  0.47000000000E+01 0.  1.
          5   -1    0    0  501    0  0.00000000000E+00 -0.00000000000E+00 -0.13428344464E+03  0.13436567086E+03  0.47000000000E+01 0.  1.
         25    2    1    2    0    0  0.16029283472E+02  0.10738275139E+03  0.30730304906E+03  0.34906680653E+03  0.12499791290E+03 0.  0.
         25    2    1    2    0    0 -0.16029283472E+02 -0.10738275139E+03 -0.53053678133E+02  0.17386010632E+03  0.12499860231E+03 0.  0.
          5    1    4    4  502    0 -0.70541539784E+02 -0.54734394334E+02 -0.24146775543E+02  0.92612739552E+02  0.47000000000E+01 0.  1.
         -5    1    4    4    0  502  0.54512256312E+02 -0.52648357057E+02 -0.28906902590E+02  0.81247366766E+02  0.47000000000E+01 0.  1.
          5    1    3    3  503    0 -0.31708785838E+02  0.34828495804E+02  0.24719633660E+02  0.53400575910E+02  0.47000000000E+01 0.  1.
         -5    1    3    3    0  503  0.47738069310E+02  0.72554255587E+02  0.28258341540E+03  0.29566623062E+03  0.47000000000E+01 0.  1.
<mgrwt>
<rscale>  0 0.16556751E+03</rscale>
<asrwt>0</asrwt>
<pdfrwt beam="2">  1        5 0.20667504E-01 0.16556764E+03</pdfrwt>
<pdfrwt beam="1">  1       -5 0.59782790E-01 0.16556764E+03</pdfrwt>
<totfact> 0.42949077E+01</totfact>
</mgrwt>
</event>
<event>
 8    1  0.1821556E-007  0.1482833E+03  0.7546771E-02  0.1202599E+00
          5   -1    0    0  501    0  0.00000000000E+00  0.00000000000E+00  0.10768525360E+03  0.10778777223E+03  0.47000000000E+01 0.  1.
         -5   -1    0    0    0  501 -0.00000000000E+00 -0.00000000000E+00 -0.20409598268E+03  0.20415009220E+03  0.47000000000E+01 0.  1.
         25    2    1    2    0    0 -0.78132658244E+02 -0.16049004217E+02 -0.44119110817E+02  0.15470444626E+03  0.12499874772E+03 0.  0.
         25    2    1    2    0    0  0.78132658244E+02  0.16049004217E+02 -0.52291618267E+02  0.15723341818E+03  0.12500260649E+03 0.  0.
          5    1    4    4  502    0  0.10827770256E+02 -0.45462860970E+02  0.82430116138E+01  0.47688044380E+02  0.47000000000E+01 0. -1.
         -5    1    4    4    0  502  0.67304887988E+02  0.61511865187E+02 -0.60534629881E+02  0.10954537380E+03  0.47000000000E+01 0. -1.
          5    1    3    3  503    0 -0.58788727973E+02 -0.68243943037E+02 -0.40066770987E+02  0.98695422565E+02  0.47000000000E+01 0. -1.
         -5    1    3    3    0  503 -0.19343930271E+02  0.52194938820E+02 -0.40523398299E+01  0.56009023691E+02  0.47000000000E+01 0. -1.
<mgrwt>
<rscale>  0 0.14828248E+03</rscale>
<asrwt>0</asrwt>
<pdfrwt beam="1">  1        5 0.16579010E-01 0.14828329E+03</pdfrwt>
<pdfrwt beam="2">  1       -5 0.31411430E-01 0.14828329E+03</pdfrwt>
<totfact> 0.23810857E+02</totfact>
</mgrwt>
</event>
<event>
 8    1  0.1821556E-007  0.1453510E+03  0.7546771E-02  0.1206306E+00
          5   -1    0    0  501    0  0.00000000000E+00  0.00000000000E+00  0.55848910473E+02  0.56046327275E+02  0.47000000000E+01 0. -1.
         -5   -1    0    0    0  501 -0.00000000000E+00 -0.00000000000E+00 -0.39261663879E+03  0.39264476955E+03  0.47000000000E+01 0. -1.
         25    2    1    2    0    0 -0.53001758040E+02 -0.51906579876E+02 -0.21253725134E+03  0.25748588861E+03  0.12499368079E+03 0.  0.
         25    2    1    2    0    0  0.53001758040E+02  0.51906579876E+02 -0.12423047699E+03  0.19120520822E+03  0.12499096307E+03 0.  0.
          5    1    3    3  502    0  0.30081570782E+02  0.19089381986E+02 -0.50371114365E+02  0.61876041952E+02  0.47000000000E+01 0.  1.
         -5    1    3    3    0  502 -0.83083328821E+02 -0.70995961862E+02 -0.16216613697E+03  0.19560984666E+03  0.47000000000E+01 0.  1.
          5    1    4    4  503    0  0.31314225981E+02 -0.31462715118E+02 -0.62901743353E+01  0.45079257809E+02  0.47000000000E+01 0.  1.
         -5    1    4    4    0  503  0.21687532058E+02  0.83369294994E+02 -0.11794030265E+03  0.14612595041E+03  0.47000000000E+01 0.  1.
<mgrwt>
<rscale>  0 0.14535037E+03</rscale>
<asrwt>0</asrwt>
<pdfrwt beam="1">  1        5 0.86094901E-02 0.14535095E+03</pdfrwt>
<pdfrwt beam="2">  1       -5 0.60419908E-01 0.14535095E+03</pdfrwt>
<totfact> 0.19440934E+02</totfact>
</mgrwt>
</event>
<event>
 8    1  0.1821556E-007  0.1392436E+03  0.7546771E-02  0.1214352E+00
          5   -1    0    0  501    0  0.00000000000E+00  0.00000000000E+00  0.89965745235E+02  0.90088430532E+02  0.47000000000E+01 0.  1.
         -5   -1    0    0    0  501 -0.00000000000E+00 -0.00000000000E+00 -0.21521333687E+03  0.21526465192E+03  0.47000000000E+01 0.  1.
         25    2    1    2    0    0 -0.57821065446E+02 -0.20503029381E+02 -0.62130479599E+02  0.15247616258E+03  0.12500053534E+03 0.  0.
         25    2    1    2    0    0  0.57821065446E+02  0.20503029381E+02 -0.63117112034E+02  0.15287691988E+03  0.12499573183E+03 0.  0.
          5    1    4    4  502    0 -0.18703012525E+02 -0.35000067138E+02 -0.37548581889E+02  0.54834235465E+02  0.47000000000E+01 0. -1.
         -5    1    4    4    0  502  0.76524077971E+02  0.55503096519E+02 -0.25568530145E+02  0.98042684410E+02  0.47000000000E+01 0. -1.
          5    1    3    3  503    0  0.22277643316E+02 -0.14741016591E+02 -0.66597597027E+02  0.71909115497E+02  0.47000000000E+01 0.  1.
         -5    1    3    3    0  503 -0.80098708762E+02 -0.57620127905E+01  0.44671174283E+01  0.80567047078E+02  0.47000000000E+01 0.  1.
<mgrwt>
<rscale>  0 0.13924253E+03</rscale>
<asrwt>0</asrwt>
<pdfrwt beam="1">  1        5 0.13854269E-01 0.13924361E+03</pdfrwt>
<pdfrwt beam="2">  1       -5 0.33123129E-01 0.13924361E+03</pdfrwt>
<totfact> 0.29058912E+02</totfact>
</mgrwt>
</event>
<event>
 8    1  0.1821556E-007  0.1439473E+03  0.7546771E-02  0.1208116E+00
         -5   -1    0    0    0  501 -0.00000000000E+00  0.00000000000E+00  0.15505512788E+03  0.15512634425E+03  0.47000000000E+01 0.  1.
          5   -1    0    0  501    0  0.00000000000E+00 -0.00000000000E+00 -0.22902279494E+03  0.22907101651E+03  0.47000000000E+01 0.  1.
         25    2    1    2    0    0  0.52014010478E+02  0.48886992845E+02  0.87049764585E+02  0.16821717780E+03  0.12499584807E+03 0.  0.
         25    2    1    2    0    0 -0.52014010478E+02 -0.48886992845E+02 -0.16101743165E+03  0.21598018296E+03  0.12500172312E+03 0.  0.
          5    1    4    4  502    0 -0.52488239589E+02 -0.84722383057E+02 -0.82215964340E+02  0.12928438528E+03  0.47000000000E+01 0. -1.
         -5    1    4    4    0  502  0.47422911094E+00  0.35835390212E+02 -0.78801467311E+02  0.86695797680E+02  0.47000000000E+01 0. -1.
          5    1    3    3  503    0  0.19313140683E+02  0.55017643929E+02  0.11200611800E+03  0.12636217399E+03  0.47000000000E+01 0.  1.
         -5    1    3    3    0  503  0.32700869794E+02 -0.61306510846E+01 -0.24956353412E+02  0.41855003806E+02  0.47000000000E+01 0.  1.
<mgrwt>
<rscale>  0 0.14394603E+03</rscale>
<asrwt>0</asrwt>
<pdfrwt beam="2">  1        5 0.35243464E-01 0.14394730E+03</pdfrwt>
<pdfrwt beam="1">  1       -5 0.23863823E-01 0.14394730E+03</pdfrwt>
<totfact> 0.94955865E+01</totfact>
</mgrwt>
</event>
<event>
 8    1  0.1821556E-007  0.1286135E+03  0.7546771E-02  0.1229528E+00
          5   -1    0    0  501    0  0.00000000000E+00  0.00000000000E+00  0.31644769468E+03  0.31648259583E+03  0.47000000000E+01 0. -1.
         -5   -1    0    0    0  501 -0.00000000000E+00 -0.00000000000E+00 -0.52520159526E+02  0.52730040363E+02  0.47000000000E+01 0. -1.
         25    2    1    2    0    0 -0.21125590797E+02  0.21668235512E+02  0.11604689812E+03  0.17322762835E+03  0.12500050257E+03 0.  0.
         25    2    1    2    0    0  0.21125590797E+02 -0.21668235512E+02  0.14788063703E+03  0.19598500785E+03  0.12500254988E+03 0.  0.
          5    1    4    4  502    0  0.12909201568E+02  0.37738088266E+00 -0.21170305978E+02  0.25240082343E+02  0.47000000000E+01 0. -1.
         -5    1    4    4    0  502  0.82163892292E+01 -0.22045616395E+02  0.16905094301E+03  0.17074492551E+03  0.47000000000E+01 0. -1.
          5    1    3    3  503    0 -0.24854892294E+02  0.58441573119E+02  0.14850267500E+02  0.65389629028E+02  0.47000000000E+01 0. -1.
         -5    1    3    3    0  503  0.37293014967E+01 -0.36773337607E+02  0.10119663062E+03  0.10783799932E+03  0.47000000000E+01 0. -1.
<mgrwt>
<rscale>  0 0.12861303E+03</rscale>
<asrwt>0</asrwt>
<pdfrwt beam="1">  1        5 0.48703090E-01 0.12861353E+03</pdfrwt>
<pdfrwt beam="2">  1       -5 0.80988539E-02 0.12861353E+03</pdfrwt>
<totfact> 0.32915427E+02</totfact>
</mgrwt>
</event>
<event>
 8    1  0.1821556E-007  0.1337042E+03  0.7546771E-02  0.1222065E+00
          5   -1    0    0  501    0  0.00000000000E+00  0.00000000000E+00  0.16799113670E+03  0.16805687135E+03  0.47000000000E+01 0.  1.
         -5   -1    0    0    0  501 -0.00000000000E+00 -0.00000000000E+00 -0.13862396352E+03  0.13870361662E+03  0.47000000000E+01 0.  1.
         25    2    1    2    0    0  0.25923365160E+02  0.39684587995E+02 -0.59377771823E+02  0.14628471059E+03  0.12500643736E+03 0.  0.
         25    2    1    2    0    0 -0.25923365160E+02 -0.39684587995E+02  0.88744944996E+02  0.16047577738E+03  0.12501968835E+03 0.  0.
          5    1    3    3  502    0  0.46870628396E+02  0.66131646712E+02 -0.73395442009E+02  0.10944967524E+03  0.47000000000E+01 0. -1.
         -5    1    3    3    0  502 -0.20947263236E+02 -0.26447058717E+02  0.14017670186E+02  0.36835035351E+02  0.47000000000E+01 0. -1.
          5    1    4    4  503    0 -0.33115555322E+02  0.27119729056E+02 -0.67817329853E+01  0.43591302007E+02  0.47000000000E+01 0.  1.
         -5    1    4    4    0  503  0.71921901618E+01 -0.66804317051E+02  0.95526677981E+02  0.11688447537E+03  0.47000000000E+01 0.  1.
<mgrwt>
<rscale>  0 0.13370109E+03</rscale>
<asrwt>0</asrwt>
<pdfrwt beam="1">  1        5 0.25855974E-01 0.13370419E+03</pdfrwt>
<pdfrwt beam="2">  1       -5 0.21337947E-01 0.13370419E+03</pdfrwt>
<totfact> 0.21050489E+02</totfact>
</mgrwt>
</event>
<event>
 8    1  0.1821556E-007  0.1286724E+03  0.7546771E-02  0.1229448E+00
         -5   -1    0    0    0  501 -0.00000000000E+00  0.00000000000E+00  0.82041819449E+01  0.94550833622E+01  0.47000000000E+01 0. -1.
          5   -1    0    0  501    0  0.00000000000E+00 -0.00000000000E+00 -0.19663646751E+04  0.19663702921E+04  0.47000000000E+01 0. -1.
         25    2    1    2    0    0  0.28527399979E+02 -0.10522031122E+02 -0.76455100828E+03  0.77530306246E+03  0.12502827166E+03 0.  0.
         25    2    1    2    0    0 -0.28527399979E+02  0.10522031122E+02 -0.11936094849E+04  0.12005223130E+04  0.12500278329E+03 0.  0.
          5    1    4    4  502    0  0.45334942524E+02  0.19754836966E+02 -0.63766760661E+03  0.63959954434E+03  0.47000000000E+01 0.  1.
         -5    1    4    4    0  502 -0.73862342504E+02 -0.92328058447E+01 -0.55594187828E+03  0.56092276863E+03  0.47000000000E+01 0.  1.
          5    1    3    3  503    0 -0.34644447240E+02 -0.44308821863E+02 -0.36853960046E+03  0.37283647424E+03  0.47000000000E+01 0.  1.
         -5    1    3    3    0  503  0.63171847220E+02  0.33786790742E+02 -0.39601140782E+03  0.40246658822E+03  0.47000000000E+01 0.  1.
<mgrwt>
<rscale>  0 0.12866624E+03</rscale>
<asrwt>0</asrwt>
<pdfrwt beam="2">  1        5 0.30261395E+00 0.12867243E+03</pdfrwt>
<pdfrwt beam="1">  1       -5 0.13588387E-02 0.12867243E+03</pdfrwt>
<totfact> 0.40412420E+01</totfact>
</mgrwt>
</event>
<event>
 8    1  0.1821556E-007  0.1387346E+03  0.7546771E-02  0.1215053E+00
          5   -1    0    0  501    0  0.00000000000E+00  0.00000000000E+00  0.23907061107E+04  0.23907107306E+04  0.47000000000E+01 0. -1.
         -5   -1    0    0    0  501 -0.00000000000E+00 -0.00000000000E+00 -0.74038288487E+01  0.87696454673E+01  0.47000000000E+01 0. -1.
         25    2    1    2    0    0  0.59022052262E+02 -0.11768663815E+02  0.12785801534E+04  0.12860849497E+04  0.12500074077E+03 0.  0.
         25    2    1    2    0    0 -0.59022052262E+02  0.11768663815E+02  0.11047221284E+04  0.11133954264E+04  0.12496515641E+03 0.  0.
          5    1    4    4  502    0 -0.57060221976E+02  0.60060037658E+02  0.85344657040E+03  0.85747082492E+03  0.47000000000E+01 0.  1.
         -5    1    4    4    0  502 -0.19618302856E+01 -0.48291373843E+02  0.25127555803E+03  0.25592460145E+03  0.47000000000E+01 0.  1.
          5    1    3    3  503    0  0.31111782691E+02 -0.56844176939E+02  0.10208988048E+04  0.10229641554E+04  0.47000000000E+01 0.  1.
         -5    1    3    3    0  503  0.27910269570E+02  0.45075513124E+02  0.25768134859E+03  0.26312079440E+03  0.47000000000E+01 0.  1.
<mgrwt>
<rscale>  0 0.13872658E+03</rscale>
<asrwt>0</asrwt>
<pdfrwt beam="1">  1        5 0.36790675E+00 0.13873460E+03</pdfrwt>
<pdfrwt beam="2">  1       -5 0.12444675E-02 0.13873460E+03</pdfrwt>
<totfact> 0.17775793E+01</totfact>
</mgrwt>
</event>
<event>
 8    1  0.1821556E-007  0.1357298E+03  0.7546771E-02  0.1219193E+00
         -5   -1    0    0    0  501 -0.00000000000E+00  0.00000000000E+00  0.36644983276E+02  0.36945159348E+02  0.47000000000E+01 0.  1.
          5   -1    0    0  501    0  0.00000000000E+00 -0.00000000000E+00 -0.71501938901E+03  0.71503483598E+03  0.47000000000E+01 0.  1.
         25    2    1    2    0    0  0.20130087360E+02  0.48909430172E+02 -0.13322478008E+03  0.19018786730E+03  0.12500092024E+03 0.  0.
         25    2    1    2    0    0 -0.20130087360E+02 -0.48909430172E+02 -0.54514962566E+03  0.56179212803E+03  0.12499971196E+03 0.  0.
          5    1    3    3  502    0 -0.33555562262E+01 -0.41602195528E+02 -0.44698539577E+02  0.61335567746E+02  0.47000000000E+01 0. -1.
         -5    1    3    3    0  502  0.23485643586E+02  0.90511625700E+02 -0.88526240504E+02  0.12885229955E+03  0.47000000000E+01 0. -1.
          5    1    4    4  503    0 -0.41219020659E+02  0.31670440938E+02 -0.19893127810E+03  0.20566421152E+03  0.47000000000E+01 0. -1.
         -5    1    4    4    0  503  0.21088933299E+02 -0.80579871109E+02 -0.34621834756E+03  0.35612791652E+03  0.47000000000E+01 0. -1.
<mgrwt>
<rscale>  0 0.13572954E+03</rscale>
<asrwt>0</asrwt>
<pdfrwt beam="2">  1        5 0.11002725E+00 0.13572982E+03</pdfrwt>
<pdfrwt beam="1">  1       -5 0.56619690E-02 0.13572982E+03</pdfrwt>
<totfact> 0.95886529E+01</totfact>
</mgrwt>
</event>
<event>
 8    1  0.1821556E-007  0.1273600E+03  0.7546771E-02  0.1231429E+00
         -5   -1    0    0    0  501 -0.00000000000E+00  0.00000000000E+00  0.12150109983E+03  0.12159197038E+03  0.47000000000E+01 0. -1.
          5   -1    0    0  501    0  0.00000000000E+00 -0.00000000000E+00 -0.13586540581E+03  0.13594667520E+03  0.47000000000E+01 0. -1.
         25    2    1    2    0    0  0.17137982888E+02  0.17307091415E+02  0.10459315047E+02  0.12778198891E+03  0.12500237417E+03 0.  0.
         25    2    1    2    0    0 -0.17137982888E+02 -0.17307091415E+02 -0.24823621027E+02  0.12975665667E+03  0.12500932733E+03 0.  0.
          5    1    4    4  502    0  0.21360915511E+02 -0.59952584346E+02 -0.32477134976E+02  0.71606252363E+02  0.47000000000E+01 0. -1.
         -5    1    4    4    0  502 -0.38498898399E+02  0.42645492930E+02  0.76535139494E+01  0.58150404306E+02  0.47000000000E+01 0. -1.
          5    1    3    3  503    0  0.56267614661E+02 -0.30704945206E+02 -0.25320963089E+01  0.64322155059E+02  0.47000000000E+01 0. -1.
         -5    1    3    3    0  503 -0.39129631773E+02  0.48012036621E+02  0.12991411356E+02  0.63459833850E+02  0.47000000000E+01 0. -1.
<mgrwt>
<rscale>  0 0.12735833E+03</rscale>
<asrwt>0</asrwt>
<pdfrwt beam="2">  1        5 0.20915612E-01 0.12736003E+03</pdfrwt>
<pdfrwt beam="1">  1       -5 0.18705718E-01 0.12736003E+03</pdfrwt>
<totfact> 0.39537608E+02</totfact>
</mgrwt>
</event>
<event>
 8    1  0.1821556E-007  0.1310055E+03  0.7546771E-02  0.1225972E+00
         -5   -1    0    0    0  501 -0.00000000000E+00  0.00000000000E+00  0.20670338168E+02  0.21197945183E+02  0.47000000000E+01 0. -1.
          5   -1    0    0  501    0  0.00000000000E+00 -0.00000000000E+00 -0.86756389939E+03  0.86757663035E+03  0.47000000000E+01 0. -1.
         25    2    1    2    0    0 -0.39199005907E+02 -0.46410613367E+00 -0.31864385728E+03  0.34452335571E+03  0.12500262952E+03 0.  0.
         25    2    1    2    0    0  0.39199005907E+02  0.46410613367E+00 -0.52824970395E+03  0.54425121983E+03  0.12499945242E+03 0.  0.
          5    1    4    4  502    0  0.52863450878E+02 -0.37036428653E+02 -0.46383333479E+03  0.46832648222E+03  0.47000000000E+01 0.  1.
         -5    1    4    4    0  502 -0.13664444971E+02  0.37500534787E+02 -0.64416369161E+02  0.75924737612E+02  0.47000000000E+01 0.  1.
          5    1    3    3  503    0 -0.53523046197E+02  0.51754074258E+02 -0.15354501199E+03  0.17070841041E+03  0.47000000000E+01 0.  1.
         -5    1    3    3    0  503  0.14324040290E+02 -0.52218180392E+02 -0.16509884529E+03  0.17381494530E+03  0.47000000000E+01 0.  1.
<mgrwt>
<rscale>  0 0.13100472E+03</rscale>
<asrwt>0</asrwt>
<pdfrwt beam="2">  1        5 0.13351291E+00 0.13100548E+03</pdfrwt>
<pdfrwt beam="1">  1       -5 0.32216172E-02 0.13100548E+03</pdfrwt>
<totfact> 0.14636022E+02</totfact>
</mgrwt>
</event>
<event>
 8    1  0.1821556E-007  0.1487500E+03  0.7546771E-02  0.1202020E+00
          5   -1    0    0  501    0  0.00000000000E+00  0.00000000000E+00  0.60530480266E+03  0.60532304939E+03  0.47000000000E+01 0.  1.
         -5   -1    0    0    0  501 -0.00000000000E+00 -0.00000000000E+00 -0.36946961348E+02  0.37244703688E+02  0.47000000000E+01 0.  1.
         25    2    1    2    0    0 -0.53057044632E+02 -0.60707446391E+02  0.32373876696E+03  0.35627705534E+03  0.12500442750E+03 0.  0.
         25    2    1    2    0    0  0.53057044632E+02  0.60707446391E+02  0.24461907435E+03  0.28629069774E+03  0.12499371201E+03 0.  0.
          5    1    3    3  502    0  0.30707551615E+02 -0.40965650902E+01  0.22734149790E+02  0.38712622469E+02  0.47000000000E+01 0. -1.
         -5    1    3    3    0  502 -0.83764596246E+02 -0.56610881301E+02  0.30100461717E+03  0.31756443287E+03  0.47000000000E+01 0. -1.
          5    1    4    4  503    0  0.64556652498E+02  0.34609208143E+02  0.24662636233E+03  0.25731694711E+03  0.47000000000E+01 0. -1.
         -5    1    4    4    0  503 -0.11499607866E+02  0.26098238249E+02 -0.20072879816E+01  0.28973750634E+02  0.47000000000E+01 0. -1.
<mgrwt>
<rscale>  0 0.14874771E+03</rscale>
<asrwt>0</asrwt>
<pdfrwt beam="1">  1        5 0.93148117E-01 0.14874996E+03</pdfrwt>
<pdfrwt beam="2">  1       -5 0.57084551E-02 0.14874996E+03</pdfrwt>
<totfact> 0.14627370E+02</totfact>
</mgrwt>
</event>
<event>
 8    1  0.1821556E-007  0.1390953E+03  0.7546771E-02  0.1214558E+00
          5   -1    0    0  501    0  0.00000000000E+00  0.00000000000E+00  0.94129294466E+03  0.94130467845E+03  0.47000000000E+01 0. -1.
         -5   -1    0    0    0  501 -0.00000000000E+00 -0.00000000000E+00 -0.24276189810E+02  0.24726977003E+02  0.47000000000E+01 0. -1.
         25    2    1    2    0    0 -0.45767319008E+01 -0.60792807406E+02  0.26434523307E+03  0.29870707736E+03  0.12502321348E+03 0.  0.
         25    2    1    2    0    0  0.45767319008E+01  0.60792807406E+02  0.65267152178E+03  0.66732457809E+03  0.12500106110E+03 0.  0.
          5    1    4    4  502    0 -0.17597270087E+02 -0.19907490047E+02  0.36038905012E+02  0.45020714665E+02  0.47000000000E+01 0. -1.
         -5    1    4    4    0  502  0.22174001988E+02  0.80700297454E+02  0.61663261677E+03  0.62230386343E+03  0.47000000000E+01 0. -1.
          5    1    3    3  503    0  0.35629413383E+02  0.19970027654E+01  0.18975208522E+03  0.19313566984E+03  0.47000000000E+01 0.  1.
         -5    1    3    3    0  503 -0.40206145284E+02 -0.62789810172E+02  0.74593147852E+02  0.10557140752E+03  0.47000000000E+01 0.  1.
<mgrwt>
<rscale>  0 0.13909037E+03</rscale>
<asrwt>0</asrwt>
<pdfrwt beam="1">  1        5 0.14484987E+00 0.13909535E+03</pdfrwt>
<pdfrwt beam="2">  1       -5 0.37703771E-02 0.13909535E+03</pdfrwt>
<totfact> 0.92984683E+01</totfact>
</mgrwt>
</event>
<event>
 8    1  0.1821556E-007  0.1282705E+03  0.7546771E-02  0.1230046E+00
         -5   -1    0    0    0  501 -0.00000000000E+00  0.00000000000E+00  0.41470286204E+03  0.41472949471E+03  0.47000000000E+01 0.  1.
          5   -1    0    0  501    0  0.00000000000E+00 -0.00000000000E+00 -0.39580323414E+02  0.39858399385E+02  0.47000000000E+01 0.  1.
         25    2    1    2    0    0  0.44164765757E+01  0.28428968585E+02  0.17780428558E+03  0.21924344155E+03  0.12500244467E+03 0.  0.
         25    2    1    2    0    0 -0.44164765757E+01 -0.28428968585E+02  0.19731825305E+03  0.23534445254E+03  0.12499922735E+03 0.  0.
          5    1    3    3  502    0  0.15989641427E+01 -0.41762908628E+02  0.12309228159E+03  0.13007881077E+03  0.47000000000E+01 0. -1.
         -5    1    3    3    0  502  0.28175124331E+01  0.70191877212E+02  0.54712003988E+02  0.89164630786E+02  0.47000000000E+01 0. -1.
          5    1    4    4  503    0  0.43780120643E+02 -0.52248940912E+02  0.14445734622E+03  0.15980195764E+03  0.47000000000E+01 0. -1.
         -5    1    4    4    0  503 -0.48196597219E+02  0.23819972327E+02  0.52860906831E+02  0.75542494903E+02  0.47000000000E+01 0. -1.
<mgrwt>
<rscale>  0 0.12826972E+03</rscale>
<asrwt>0</asrwt>
<pdfrwt beam="2">  1        5 0.61127200E-02 0.12827051E+03</pdfrwt>
<pdfrwt beam="1">  1       -5 0.63823876E-01 0.12827051E+03</pdfrwt>
<totfact> 0.29579603E+02</totfact>
</mgrwt>
</event>
<event>
 8    1  0.1821556E-007  0.1477196E+03  0.7546771E-02  0.1203305E+00
         -5   -1    0    0    0  501 -0.00000000000E+00  0.00000000000E+00  0.31454238080E+02  0.31803444675E+02  0.47000000000E+01 0. -1.
          5   -1    0    0  501    0  0.00000000000E+00 -0.00000000000E+00 -0.70964370799E+03  0.70965927197E+03  0.47000000000E+01 0. -1.
         25    2    1    2    0    0  0.70789599811E+02 -0.34431062181E+02 -0.27670002111E+03  0.31366036285E+03  0.12499302401E+03 0.  0.
         25    2    1    2    0    0 -0.70789599811E+02  0.34431062181E+02 -0.40148944879E+03  0.42780235380E+03  0.12499764372E+03 0.  0.
          5    1    3    3  502    0  0.62092188090E+02 -0.11943533053E+02 -0.38460690323E+02  0.74157956442E+02  0.47000000000E+01 0. -1.
         -5    1    3    3    0  502  0.86974117211E+01 -0.22487529128E+02 -0.23823933079E+03  0.23950240640E+03  0.47000000000E+01 0. -1.
          5    1    4    4  503    0 -0.28260069578E+02  0.23906079002E+02 -0.37402190154E+03  0.37587844442E+03  0.47000000000E+01 0.  1.
         -5    1    4    4    0  503 -0.42529530233E+02  0.10524983179E+02 -0.27467547249E+02  0.51923909374E+02  0.47000000000E+01 0.  1.
<mgrwt>
<rscale>  0 0.14771861E+03</rscale>
<asrwt>0</asrwt>
<pdfrwt beam="2">  1        5 0.10920400E+00 0.14771959E+03</pdfrwt>
<pdfrwt beam="1">  1       -5 0.48671734E-02 0.14771959E+03</pdfrwt>
<totfact> 0.12911154E+02</totfact>
</mgrwt>
</event>
<event>
 8    1  0.1821556E-007  0.1279000E+03  0.7546771E-02  0.1230610E+00
         -5   -1    0    0    0  501 -0.00000000000E+00  0.00000000000E+00  0.11748331019E+03  0.11757728596E+03  0.47000000000E+01 0.  1.
          5   -1    0    0  501    0  0.00000000000E+00 -0.00000000000E+00 -0.13997157475E+03  0.14005046140E+03  0.47000000000E+01 0.  1.
         25    2    1    2    0    0  0.16766453816E+02  0.21246762705E+02 -0.73057930632E+00  0.12789026987E+03  0.12499139363E+03 0.  0.
         25    2    1    2    0    0 -0.16766453816E+02 -0.21246762705E+02 -0.21757685253E+02  0.12973747749E+03  0.12500350915E+03 0.  0.
          5    1    4    4  502    0 -0.19315001133E+01 -0.40991726599E+02  0.43390267020E+02  0.59907074827E+02  0.47000000000E+01 0.  1.
         -5    1    4    4    0  502 -0.14834953703E+02  0.19744963894E+02 -0.65147952273E+02  0.69830402662E+02  0.47000000000E+01 0.  1.
          5    1    3    3  503    0  0.35829958079E+02  0.30634308028E+02 -0.53110420645E+02  0.71169189299E+02  0.47000000000E+01 0. -1.
         -5    1    3    3    0  503 -0.19063504263E+02 -0.93875453223E+01  0.52379841339E+02  0.56721080567E+02  0.47000000000E+01 0. -1.
<mgrwt>
<rscale>  0 0.12789706E+03</rscale>
<asrwt>0</asrwt>
<pdfrwt beam="2">  1        5 0.21547386E-01 0.12790002E+03</pdfrwt>
<pdfrwt beam="1">  1       -5 0.18087652E-01 0.12790002E+03</pdfrwt>
<totfact> 0.39845348E+02</totfact>
</mgrwt>
</event>
<event>
 8    1  0.1821556E-007  0.1681167E+03  0.7546771E-02  0.1179829E+00
          5   -1    0    0  501    0  0.00000000000E+00  0.00000000000E+00  0.64594898347E+03  0.64596608212E+03  0.47000000000E+01 0. -1.
         -5   -1    0    0    0  501 -0.00000000000E+00 -0.00000000000E+00 -0.97984945294E+02  0.98097601929E+02  0.47000000000E+01 0. -1.
         25    2    1    2    0    0 -0.11236612010E+03  0.32007354151E+01 -0.28847407428E+01  0.16813174722E+03  0.12499429203E+03 0.  0.
         25    2    1    2    0    0  0.11236612010E+03 -0.32007354151E+01  0.55084877892E+03  0.57593193683E+03  0.12500731564E+03 0.  0.
          5    1    4    4  502    0 -0.19074384777E+02  0.21399063354E+02  0.16508618642E+03  0.16762246572E+03  0.47000000000E+01 0.  1.
         -5    1    4    4    0  502  0.13144050488E+03 -0.24599798769E+02  0.38576259250E+03  0.40830947110E+03  0.47000000000E+01 0.  1.
          5    1    3    3  503    0 -0.39365823267E+02  0.38527227409E+02 -0.49729359746E+02  0.74358015802E+02  0.47000000000E+01 0.  1.
         -5    1    3    3    0  503 -0.73000296836E+02 -0.35326491994E+02  0.46844619003E+02  0.93773731419E+02  0.47000000000E+01 0.  1.
<mgrwt>
<rscale>  0 0.16811426E+03</rscale>
<asrwt>0</asrwt>
<pdfrwt beam="1">  1        5 0.99386750E-01 0.16811668E+03</pdfrwt>
<pdfrwt beam="2">  1       -5 0.15084588E-01 0.16811668E+03</pdfrwt>
<totfact> 0.23864668E+01</totfact>
</mgrwt>
</event>
<event>
 8    1  0.1821556E-007  0.1364129E+03  0.7546771E-02  0.1218241E+00
          5   -1    0    0  501    0  0.00000000000E+00  0.00000000000E+00  0.24665576694E+02  0.25109374219E+02  0.47000000000E+01 0.  1.
         -5   -1    0    0    0  501 -0.00000000000E+00 -0.00000000000E+00 -0.88907208119E+03  0.88908450417E+03  0.47000000000E+01 0.  1.
         25    2    1    2    0    0 -0.45393412847E+02  0.30364715592E+02 -0.61473114950E+03  0.62968332520E+03  0.12499650391E+03 0.  0.
         25    2    1    2    0    0  0.45393412847E+02 -0.30364715592E+02 -0.24967535500E+03  0.28451055318E+03  0.12500357634E+03 0.  0.
          5    1    3    3  502    0 -0.26955789327E+02 -0.30303092231E+02 -0.46788844584E+03  0.46966645583E+03  0.47000000000E+01 0.  1.
         -5    1    3    3    0  502 -0.18437623520E+02  0.60667807823E+02 -0.14684270366E+03  0.16001686938E+03  0.47000000000E+01 0.  1.
          5    1    4    4  503    0 -0.59355208449E+01 -0.26764112062E+02 -0.22594827766E+03  0.22765382114E+03  0.47000000000E+01 0. -1.
         -5    1    4    4    0  503  0.51328933692E+02 -0.36006035300E+01 -0.23727077336E+02  0.56856732044E+02  0.47000000000E+01 0. -1.
<mgrwt>
<rscale>  0 0.13641125E+03</rscale>
<asrwt>0</asrwt>
<pdfrwt beam="1">  1        5 0.38297987E-02 0.13641287E+03</pdfrwt>
<pdfrwt beam="2">  1       -5 0.13681539E+00 0.13641287E+03</pdfrwt>
<totfact> 0.10495560E+02</totfact>
</mgrwt>
</event>
<event>
 8    1  0.1821556E-007  0.1297545E+03  0.7546771E-02  0.1227822E+00
         -5   -1    0    0    0  501 -0.00000000000E+00  0.00000000000E+00  0.87683856565E+02  0.87809730110E+02  0.47000000000E+01 0. -1.
          5   -1    0    0  501    0  0.00000000000E+00 -0.00000000000E+00 -0.19769041878E+03  0.19774628107E+03  0.47000000000E+01 0. -1.
         25    2    1    2    0    0  0.58040113158E+01  0.34302197268E+02 -0.30182904295E+02  0.13321414926E+03  0.12499869826E+03 0.  0.
         25    2    1    2    0    0 -0.58040113158E+01 -0.34302197268E+02 -0.79823657923E+02  0.15234186192E+03  0.12500359693E+03 0.  0.
          5    1    3    3  502    0 -0.10980645700E+02  0.67636824111E+02  0.19030307303E+02  0.71271012002E+02  0.47000000000E+01 0.  1.
         -5    1    3    3    0  502  0.16784657016E+02 -0.33334626843E+02 -0.49213211598E+02  0.61943137261E+02  0.47000000000E+01 0.  1.
          5    1    4    4  503    0  0.35787792811E+02 -0.67156140305E+02 -0.52093722177E+02  0.92339369638E+02  0.47000000000E+01 0. -1.
         -5    1    4    4    0  503 -0.41591804127E+02  0.32853943037E+02 -0.27729935746E+02  0.60002492282E+02  0.47000000000E+01 0. -1.
<mgrwt>
<rscale>  0 0.12975331E+03</rscale>
<asrwt>0</asrwt>
<pdfrwt beam="2">  1        5 0.30427890E-01 0.12975449E+03</pdfrwt>
<pdfrwt beam="1">  1       -5 0.13503804E-01 0.12975449E+03</pdfrwt>
<totfact> 0.35103496E+02</totfact>
</mgrwt>
</event>
<event>
 8    1  0.1821556E-007  0.1288947E+03  0.7546771E-02  0.1229111E+00
          5   -1    0    0  501    0  0.00000000000E+00  0.00000000000E+00  0.49253806795E+02  0.49477545249E+02  0.47000000000E+01 0.  1.
         -5   -1    0    0    0  501 -0.00000000000E+00 -0.00000000000E+00 -0.36066719041E+03  0.36069781291E+03  0.47000000000E+01 0.  1.
         25    2    1    2    0    0 -0.22968939472E+02  0.21392804520E+02 -0.20902527280E+03  0.24556315945E+03  0.12499790536E+03 0.  0.
         25    2    1    2    0    0  0.22968939472E+02 -0.21392804520E+02 -0.10238811081E+03  0.16461219871E+03  0.12501450501E+03 0.  0.
          5    1    4    4  502    0  0.22479522060E+02  0.23906393077E+02  0.16694830212E+02  0.37116733394E+02  0.47000000000E+01 0.  1.
         -5    1    4    4    0  502  0.48941741172E+00 -0.45299197597E+02 -0.11908294102E+03  0.12749546531E+03  0.47000000000E+01 0.  1.
          5    1    3    3  503    0 -0.59272636772E+02 -0.21987162110E+02 -0.15387218534E+03  0.16641941050E+03  0.47000000000E+01 0.  1.
         -5    1    3    3    0  503  0.36303697300E+02  0.43379966630E+02 -0.55153087463E+02  0.79143748959E+02  0.47000000000E+01 0.  1.
<mgrwt>
<rscale>  0 0.12889070E+03</rscale>
<asrwt>0</asrwt>
<pdfrwt beam="1">  1        5 0.75970752E-02 0.12889473E+03</pdfrwt>
<pdfrwt beam="2">  1       -5 0.55506825E-01 0.12889473E+03</pdfrwt>
<totfact> 0.27812043E+02</totfact>
</mgrwt>
</event>
<event>
 8    1  0.1821556E-007  0.1273194E+03  0.7546771E-02  0.1231492E+00
          5   -1    0    0  501    0  0.00000000000E+00  0.00000000000E+00  0.18194198374E+04  0.18194259080E+04  0.47000000000E+01 0.  1.
         -5   -1    0    0    0  501 -0.00000000000E+00 -0.00000000000E+00 -0.88087220427E+01  0.99841666666E+01  0.47000000000E+01 0.  1.
         25    2    1    2    0    0  0.17636196527E+02 -0.16551712092E+02  0.69576101227E+03  0.70731436819E+03  0.12500093859E+03 0.  0.
         25    2    1    2    0    0 -0.17636196527E+02  0.16551712092E+02  0.11148501030E+04  0.11220957064E+04  0.12499210999E+03 0.  0.
          5    1    3    3  502    0  0.59854246717E+02 -0.27980031839E+02  0.22624123961E+03  0.23573841759E+03  0.47000000000E+01 0. -1.
         -5    1    3    3    0  502 -0.42218050190E+02  0.11428319747E+02  0.46951977267E+03  0.47157595060E+03  0.47000000000E+01 0. -1.
          5    1    4    4  503    0 -0.33269844479E+02  0.51002702505E+02  0.98162886050E+03  0.98352705503E+03  0.47000000000E+01 0.  1.
         -5    1    4    4    0  503  0.15633647952E+02 -0.34450990413E+02  0.13322124255E+03  0.13856865141E+03  0.47000000000E+01 0.  1.
<mgrwt>
<rscale>  0 0.12731723E+03</rscale>
<asrwt>0</asrwt>
<pdfrwt beam="1">  1        5 0.28000133E+00 0.12731940E+03</pdfrwt>
<pdfrwt beam="2">  1       -5 0.14460753E-02 0.12731940E+03</pdfrwt>
<totfact> 0.50726924E+01</totfact>
</mgrwt>
</event>
<event>
 8    1  0.1821556E-007  0.1999149E+03  0.7546771E-02  0.1149816E+00
          5   -1    0    0  501    0  0.00000000000E+00  0.00000000000E+00  0.10839949752E+04  0.10840051643E+04  0.47000000000E+01 0.  1.
         -5   -1    0    0    0  501 -0.00000000000E+00 -0.00000000000E+00 -0.40518450916E+02  0.40790131951E+02  0.47000000000E+01 0.  1.
         25    2    1    2    0    0 -0.12661409781E+03  0.91100674434E+02  0.34984877673E+03  0.40293937327E+03  0.12504203015E+03 0.  0.
         25    2    1    2    0    0  0.12661409781E+03 -0.91100674434E+02  0.69362774752E+03  0.72185592296E+03  0.12500423489E+03 0.  0.
          5    1    3    3  502    0 -0.96522285866E+02  0.43858254153E+02  0.32425166984E+03  0.34117639649E+03  0.47000000000E+01 0.  1.
         -5    1    3    3    0  502 -0.30091811941E+02  0.47242420281E+02  0.25597106893E+02  0.61762976784E+02  0.47000000000E+01 0.  1.
          5    1    4    4  503    0  0.12951988379E+03 -0.50913652605E+02  0.63793799435E+03  0.65295832559E+03  0.47000000000E+01 0.  1.
         -5    1    4    4    0  503 -0.29057859869E+01 -0.40187021829E+02  0.55689753165E+02  0.68897597370E+02  0.47000000000E+01 0.  1.
<mgrwt>
<rscale>  0 0.19990900E+03</rscale>
<asrwt>0</asrwt>
<pdfrwt beam="1">  1        5 0.16679010E+00 0.19991491E+03</pdfrwt>
<pdfrwt beam="2">  1       -5 0.62552915E-02 0.19991491E+03</pdfrwt>
<totfact> 0.29856671E+01</totfact>
</mgrwt>
</event>
<event>
 8    1  0.1821556E-007  0.2406650E+03  0.7546771E-02  0.1119352E+00
         -5   -1    0    0    0  501 -0.00000000000E+00  0.00000000000E+00  0.15674610108E+03  0.15681654952E+03  0.47000000000E+01 0. -1.
          5   -1    0    0  501    0  0.00000000000E+00 -0.00000000000E+00 -0.36946145911E+03  0.36949135277E+03  0.47000000000E+01 0. -1.
         25    2    1    2    0    0  0.19320845197E+03  0.70428526447E+02 -0.10139533572E+03  0.26114423507E+03  0.12500245660E+03 0.  0.
         25    2    1    2    0    0 -0.19320845197E+03 -0.70428526447E+02 -0.11132002232E+03  0.26516366721E+03  0.12501975761E+03 0.  0.
          5    1    3    3  502    0  0.11939229061E+02 -0.28975809473E+02 -0.21231053498E+01  0.31760672246E+02  0.47000000000E+01 0. -1.
         -5    1    3    3    0  502  0.18126922291E+03  0.99404335920E+02 -0.99272230371E+02  0.22938356283E+03  0.47000000000E+01 0. -1.
          5    1    4    4  503    0 -0.87455524490E+02 -0.87954940477E+02 -0.95703516486E+02  0.15673478678E+03  0.47000000000E+01 0.  1.
         -5    1    4    4    0  503 -0.10575292748E+03  0.17526414031E+02 -0.15616505831E+02  0.10842888044E+03  0.47000000000E+01 0.  1.
<mgrwt>
<rscale>  0 0.24066271E+03</rscale>
<asrwt>0</asrwt>
<pdfrwt beam="2">  1        5 0.56847943E-01 0.24066496E+03</pdfrwt>
<pdfrwt beam="1">  1       -5 0.24122503E-01 0.24066496E+03</pdfrwt>
<totfact> 0.39388507E+01</totfact>
</mgrwt>
</event>
<event>
 8    1  0.1821556E-007  0.1619877E+03  0.7546771E-02  0.1186473E+00
          5   -1    0    0  501    0  0.00000000000E+00  0.00000000000E+00  0.13741879938E+03  0.13749915063E+03  0.47000000000E+01 0.  1.
         -5   -1    0    0    0  501 -0.00000000000E+00 -0.00000000000E+00 -0.19161470177E+03  0.19167233482E+03  0.47000000000E+01 0.  1.
         25    2    1    2    0    0  0.93064725105E+02  0.44198032989E+02 -0.16199906521E+02  0.16278726103E+03  0.12499098449E+03 0.  0.
         25    2    1    2    0    0 -0.93064725105E+02 -0.44198032989E+02 -0.37995995868E+02  0.16638422442E+03  0.12500202100E+03 0.  0.
          5    1    3    3  502    0  0.99009567559E+02  0.72649619241E+02 -0.35089302538E+02  0.12780536294E+03  0.47000000000E+01 0. -1.
         -5    1    3    3    0  502 -0.59448424542E+01 -0.28451586252E+02  0.18889396017E+02  0.34981898090E+02  0.47000000000E+01 0. -1.
          5    1    4    4  503    0  0.14914763306E+02 -0.32552746313E+02 -0.44705575905E+02  0.57470078945E+02  0.47000000000E+01 0. -1.
         -5    1    4    4    0  503 -0.10797948841E+03 -0.11645286676E+02  0.67095800368E+01  0.10891414547E+03  0.47000000000E+01 0. -1.
<mgrwt>
<rscale>  0 0.16198557E+03</rscale>
<asrwt>0</asrwt>
<pdfrwt beam="1">  1        5 0.21151968E-01 0.16198770E+03</pdfrwt>
<pdfrwt beam="2">  1       -5 0.29489799E-01 0.16198770E+03</pdfrwt>
<totfact> 0.17655195E+02</totfact>
</mgrwt>
</event>
<event>
 8    1  0.1821556E-007  0.1463193E+03  0.7546771E-02  0.1205075E+00
         -5   -1    0    0    0  501 -0.00000000000E+00  0.00000000000E+00  0.99524305056E+02  0.99635221167E+02  0.47000000000E+01 0.  1.
          5   -1    0    0  501    0  0.00000000000E+00 -0.00000000000E+00 -0.21512355719E+03  0.21517489365E+03  0.47000000000E+01 0.  1.
         25    2    1    2    0    0 -0.38394557369E+02  0.65603070013E+02 -0.52052211806E+02  0.15530219118E+03  0.12502572935E+03 0.  0.
         25    2    1    2    0    0  0.38394557369E+02 -0.65603070013E+02 -0.63547040325E+02  0.15950792364E+03  0.12500658598E+03 0.  0.
          5    1    4    4  502    0  0.27794078937E+02  0.34808957993E+02 -0.25239804845E+02  0.51413151325E+02  0.47000000000E+01 0.  1.
         -5    1    4    4    0  502  0.10600478432E+02 -0.10041202801E+03 -0.38307235480E+02  0.10809477231E+03  0.47000000000E+01 0.  1.
          5    1    3    3  503    0  0.33201913077E+01 -0.30578962101E+01 -0.72077270827E+02  0.72371246842E+02  0.47000000000E+01 0. -1.
         -5    1    3    3    0  503 -0.41714748677E+02  0.68660966223E+02  0.20025059021E+02  0.82930944337E+02  0.47000000000E+01 0. -1.
<mgrwt>
<rscale>  0 0.14631521E+03</rscale>
<asrwt>0</asrwt>
<pdfrwt beam="2">  1        5 0.33108413E-01 0.14631930E+03</pdfrwt>
<pdfrwt beam="1">  1       -5 0.15323913E-01 0.14631930E+03</pdfrwt>
<totfact> 0.24651379E+02</totfact>
</mgrwt>
</event>
<event>
 8    1  0.1821556E-007  0.1261010E+03  0.7546771E-02  0.1233379E+00
         -5   -1    0    0    0  501 -0.00000000000E+00  0.00000000000E+00  0.12519612864E+02  0.13372759860E+02  0.47000000000E+01 0. -1.
          5   -1    0    0  501    0  0.00000000000E+00 -0.00000000000E+00 -0.12581487299E+04  0.12581575086E+04  0.47000000000E+01 0. -1.
         25    2    1    2    0    0 -0.16582464967E+02 -0.26452703270E+01 -0.52251769643E+03  0.53750602041E+03  0.12492399008E+03 0.  0.
         25    2    1    2    0    0  0.16582464967E+02  0.26452703270E+01 -0.72311142058E+03  0.73402424806E+03  0.12497797634E+03 0.  0.
          5    1    3    3  502    0 -0.51314050285E+02  0.11292484229E+02 -0.97824675343E+02  0.11114139221E+03  0.47000000000E+01 0. -1.
         -5    1    3    3    0  502  0.34731585319E+02 -0.13937754556E+02 -0.42469302109E+03  0.42636462820E+03  0.47000000000E+01 0. -1.
          5    1    4    4  503    0 -0.38601533890E+02  0.35971077321E+02 -0.46219441452E+03  0.46522012385E+03  0.47000000000E+01 0. -1.
         -5    1    4    4    0  503  0.55183998857E+02 -0.33325806994E+02 -0.26091700606E+03  0.26880412421E+03  0.47000000000E+01 0. -1.
<mgrwt>
<rscale>  0 0.12608765E+03</rscale>
<asrwt>0</asrwt>
<pdfrwt beam="2">  1        5 0.19362755E+00 0.12610103E+03</pdfrwt>
<pdfrwt beam="1">  1       -5 0.19923973E-02 0.12610103E+03</pdfrwt>
<totfact> 0.10975662E+02</totfact>
</mgrwt>
</event>
<event>
 8    1  0.1821556E-007  0.1343485E+03  0.7546771E-02  0.1221144E+00
         -5   -1    0    0    0  501 -0.00000000000E+00  0.00000000000E+00  0.44132176774E+02  0.44381742043E+02  0.47000000000E+01 0. -1.
          5   -1    0    0  501    0  0.00000000000E+00 -0.00000000000E+00 -0.48878594767E+03  0.48880854395E+03  0.47000000000E+01 0. -1.
         25    2    1    2    0    0 -0.26682982821E+02 -0.41379150773E+02 -0.11367767444E+03  0.17598627385E+03  0.12499735689E+03 0.  0.
         25    2    1    2    0    0  0.26682982821E+02  0.41379150773E+02 -0.33097609646E+03  0.35720401214E+03  0.12500125667E+03 0.  0.
          5    1    3    3  502    0  0.21055196760E+02 -0.66104019766E+02 -0.28494294357E+02  0.75147039535E+02  0.47000000000E+01 0. -1.
         -5    1    3    3    0  502 -0.47738179581E+02  0.24724868994E+02 -0.85183380078E+02  0.10083923432E+03  0.47000000000E+01 0. -1.
          5    1    4    4  503    0  0.69573221442E+01 -0.96544178599E+01 -0.28582395900E+03  0.28611018446E+03  0.47000000000E+01 0.  1.
         -5    1    4    4    0  503  0.19725660677E+02  0.51033568633E+02 -0.45152137462E+02  0.71093827678E+02  0.47000000000E+01 0.  1.
<mgrwt>
<rscale>  0 0.13434763E+03</rscale>
<asrwt>0</asrwt>
<pdfrwt beam="2">  1        5 0.75218770E-01 0.13434854E+03</pdfrwt>
<pdfrwt beam="1">  1       -5 0.68105015E-02 0.13434854E+03</pdfrwt>
<totfact> 0.17320959E+02</totfact>
</mgrwt>
</event>
<event>
 8    1  0.1821556E-007  0.1582442E+03  0.7546771E-02  0.1190694E+00
         -5   -1    0    0    0  501 -0.00000000000E+00  0.00000000000E+00  0.36097904346E+02  0.36402591915E+02  0.47000000000E+01 0.  1.
          5   -1    0    0  501    0  0.00000000000E+00 -0.00000000000E+00 -0.80243588023E+03  0.80244964445E+03  0.47000000000E+01 0.  1.
         25    2    1    2    0    0 -0.52752352999E+02 -0.81449047936E+02 -0.22652790942E+03  0.27632611857E+03  0.12499788759E+03 0.  0.
         25    2    1    2    0    0  0.52752352999E+02  0.81449047936E+02 -0.53981006646E+03  0.56252611780E+03  0.12499586870E+03 0.  0.
          5    1    3    3  502    0 -0.28015129804E+02 -0.80965681456E+02 -0.23466480354E+03  0.24985985891E+03  0.47000000000E+01 0. -1.
         -5    1    3    3    0  502 -0.24737223196E+02 -0.48336648004E+00  0.81368941219E+01  0.26466259663E+02  0.47000000000E+01 0. -1.
          5    1    4    4  503    0  0.29895836780E+02 -0.27380448620E+02 -0.22372847014E+03  0.22742024619E+03  0.47000000000E+01 0.  1.
         -5    1    4    4    0  503  0.22856516220E+02  0.10882949656E+03 -0.31608159632E+03  0.33510587161E+03  0.47000000000E+01 0.  1.
<mgrwt>
<rscale>  0 0.15824381E+03</rscale>
<asrwt>0</asrwt>
<pdfrwt beam="2">  1        5 0.12347616E+00 0.15824421E+03</pdfrwt>
<pdfrwt beam="1">  1       -5 0.55780207E-02 0.15824421E+03</pdfrwt>
<totfact> 0.77005579E+01</totfact>
</mgrwt>
</event>
<event>
 8    1  0.1821556E-007  0.1497959E+03  0.7546771E-02  0.1200725E+00
         -5   -1    0    0    0  501 -0.00000000000E+00  0.00000000000E+00  0.44235716360E+03  0.44238213140E+03  0.47000000000E+01 0. -1.
          5   -1    0    0  501    0  0.00000000000E+00 -0.00000000000E+00 -0.12475270094E+03  0.12484120470E+03  0.47000000000E+01 0. -1.
         25    2    1    2    0    0 -0.58274798800E+02  0.58457821230E+02  0.37731914439E+03  0.40596618796E+03  0.12500216001E+03 0.  0.
         25    2    1    2    0    0  0.58274798800E+02 -0.58457821230E+02 -0.59714681732E+02  0.16125714814E+03  0.12499902229E+03 0.  0.
          5    1    4    4  502    0  0.66763620067E+02 -0.88694805361E+02 -0.24393679145E+02  0.11375979538E+03  0.47000000000E+01 0. -1.
         -5    1    4    4    0  502 -0.84888212668E+01  0.30236984131E+02 -0.35321002587E+02  0.47497352764E+02  0.47000000000E+01 0. -1.
          5    1    3    3  503    0  0.23838182721E+02  0.55017963090E+02  0.22413608606E+03  0.23206531471E+03  0.47000000000E+01 0.  1.
         -5    1    3    3    0  503 -0.82112981522E+02  0.34398581396E+01  0.15318305833E+03  0.17390087325E+03  0.47000000000E+01 0.  1.
<mgrwt>
<rscale>  0 0.14979524E+03</rscale>
<asrwt>0</asrwt>
<pdfrwt beam="2">  1        5 0.19201452E-01 0.14979589E+03</pdfrwt>
<pdfrwt beam="1">  1       -5 0.68063677E-01 0.14979589E+03</pdfrwt>
<totfact> 0.35895494E+01</totfact>
</mgrwt>
</event>
<event>
 8    1  0.1821556E-007  0.1260272E+03  0.7546771E-02  0.1233474E+00
         -5   -1    0    0    0  501 -0.00000000000E+00  0.00000000000E+00  0.45513231535E+03  0.45515658237E+03  0.47000000000E+01 0. -1.
          5   -1    0    0  501    0  0.00000000000E+00 -0.00000000000E+00 -0.42351272197E+02  0.42611269128E+02  0.47000000000E+01 0. -1.
         25    2    1    2    0    0  0.15838681413E+01 -0.15970304968E+02  0.31169793379E+03  0.33621090791E+03  0.12499845356E+03 0.  0.
         25    2    1    2    0    0 -0.15838681413E+01  0.15970304968E+02  0.10108310937E+03  0.16155694359E+03  0.12500116697E+03 0.  0.
          5    1    4    4  502    0  0.54741589889E+02 -0.81446983217E+00  0.14544067951E+02  0.56841225684E+02  0.47000000000E+01 0.  1.
         -5    1    4    4    0  502 -0.56325458030E+02  0.16784774800E+02  0.86539041415E+02  0.10471571791E+03  0.47000000000E+01 0.  1.
          5    1    3    3  503    0 -0.32898144588E+02 -0.52061769674E+02  0.91621280130E+02  0.11049554177E+03  0.47000000000E+01 0. -1.
         -5    1    3    3    0  503  0.34482012729E+02  0.36091464706E+02  0.22007665366E+03  0.22571536614E+03  0.47000000000E+01 0. -1.
<mgrwt>
<rscale>  0 0.12602651E+03</rscale>
<asrwt>0</asrwt>
<pdfrwt beam="2">  1        5 0.65374472E-02 0.12602718E+03</pdfrwt>
<pdfrwt beam="1">  1       -5 0.70042218E-01 0.12602718E+03</pdfrwt>
<totfact> 0.21334804E+02</totfact>
</mgrwt>
</event>
<event>
 8    1  0.1821556E-007  0.1250154E+03  0.7546771E-02  0.1235050E+00
          5   -1    0    0  501    0  0.00000000000E+00  0.00000000000E+00  0.22658832330E+03  0.22663706285E+03  0.47000000000E+01 0.  1.
         -5   -1    0    0    0  501 -0.00000000000E+00 -0.00000000000E+00 -0.82618189987E+02  0.82751769267E+02  0.47000000000E+01 0.  1.
         25    2    1    2    0    0 -0.84008265816E+00  0.13220118420E+01  0.88641311858E+01  0.12531685602E+03  0.12499315232E+03 0.  0.
         25    2    1    2    0    0  0.84008265816E+00 -0.13220118420E+01  0.13510600213E+03  0.18407197609E+03  0.12500562834E+03 0.  0.
          5    1    4    4  502    0 -0.53802199380E+02 -0.29055337105E+02  0.50172828692E+02  0.79235673856E+02  0.47000000000E+01 0. -1.
         -5    1    4    4    0  502  0.54642282038E+02  0.27733325263E+02  0.84933173435E+02  0.10483630223E+03  0.47000000000E+01 0. -1.
          5    1    3    3  503    0  0.30261834019E+01 -0.37218945244E+02  0.53893423032E+02  0.65734303960E+02  0.47000000000E+01 0.  1.
         -5    1    3    3    0  503 -0.38662660601E+01  0.38540957086E+02 -0.45029291846E+02  0.59582552064E+02  0.47000000000E+01 0.  1.
<mgrwt>
<rscale>  0 0.12501232E+03</rscale>
<asrwt>0</asrwt>
<pdfrwt beam="1">  1        5 0.34873767E-01 0.12501544E+03</pdfrwt>
<pdfrwt beam="2">  1       -5 0.12724515E-01 0.12501544E+03</pdfrwt>
<totfact> 0.29384428E+02</totfact>
</mgrwt>
</event>
<event>
 8    1  0.1821556E-007  0.1460647E+03  0.7546771E-02  0.1205394E+00
         -5   -1    0    0    0  501 -0.00000000000E+00  0.00000000000E+00  0.26492554231E+03  0.26496722999E+03  0.47000000000E+01 0.  1.
          5   -1    0    0  501    0  0.00000000000E+00 -0.00000000000E+00 -0.12225706732E+03  0.12234737639E+03  0.47000000000E+01 0.  1.
         25    2    1    2    0    0  0.44837484732E+02  0.60822015755E+02  0.18455556907E+03  0.23536259098E+03  0.12500029407E+03 0.  0.
         25    2    1    2    0    0 -0.44837484732E+02 -0.60822015755E+02 -0.41887094085E+02  0.15195201541E+03  0.12500067479E+03 0.  0.
          5    1    3    3  502    0  0.14594093049E+02  0.92409724266E+02  0.15886657984E+03  0.18442674665E+03  0.47000000000E+01 0. -1.
         -5    1    3    3    0  502  0.30243391683E+02 -0.31587708511E+02  0.25688989238E+02  0.50935844330E+02  0.47000000000E+01 0. -1.
          5    1    4    4  503    0 -0.70432737899E+02 -0.87342129605E+01 -0.57731291559E+02  0.91608127745E+02  0.47000000000E+01 0. -1.
         -5    1    4    4    0  503  0.25595253166E+02 -0.52087802794E+02  0.15844197474E+02  0.60343887662E+02  0.47000000000E+01 0. -1.
<mgrwt>
<rscale>  0 0.14606458E+03</rscale>
<asrwt>0</asrwt>
<pdfrwt beam="2">  1        5 0.18818933E-01 0.14606466E+03</pdfrwt>
<pdfrwt beam="1">  1       -5 0.40767929E-01 0.14606466E+03</pdfrwt>
<totfact> 0.11095119E+02</totfact>
</mgrwt>
</event>
<event>
 8    1  0.1821556E-007  0.1271697E+03  0.7546771E-02  0.1231718E+00
         -5   -1    0    0    0  501 -0.00000000000E+00  0.00000000000E+00  0.20172834433E+02  0.20713117801E+02  0.47000000000E+01 0.  1.
          5   -1    0    0  501    0  0.00000000000E+00 -0.00000000000E+00 -0.82773513536E+03  0.82774847889E+03  0.47000000000E+01 0.  1.
         25    2    1    2    0    0 -0.11829543424E+02  0.20177941293E+02 -0.31384960387E+03  0.33863381538E+03  0.12499679859E+03 0.  0.
         25    2    1    2    0    0  0.11829543424E+02 -0.20177941293E+02 -0.49371269706E+03  0.50982778131E+03  0.12500020780E+03 0.  0.
          5    1    4    4  502    0 -0.32395989857E+02 -0.56036135157E+02 -0.33295108446E+03  0.33921683810E+03  0.47000000000E+01 0. -1.
         -5    1    4    4    0  502  0.44225533282E+02  0.35858193864E+02 -0.16076161259E+03  0.17061094321E+03  0.47000000000E+01 0. -1.
          5    1    3    3  503    0  0.19396443289E+01 -0.21519754790E+02 -0.42833741732E+00  0.22116408824E+02  0.47000000000E+01 0. -1.
         -5    1    3    3    0  503 -0.13769187753E+02  0.41697696082E+02 -0.31342126645E+03  0.31651740656E+03  0.47000000000E+01 0. -1.
<mgrwt>
<rscale>  0 0.12716889E+03</rscale>
<asrwt>0</asrwt>
<pdfrwt beam="2">  1        5 0.12738643E+00 0.12716973E+03</pdfrwt>
<pdfrwt beam="1">  1       -5 0.31461003E-02 0.12716973E+03</pdfrwt>
<totfact> 0.17010230E+02</totfact>
</mgrwt>
</event>
<event>
 8    1  0.1821556E-007  0.1254507E+03  0.7546771E-02  0.1234372E+00
          5   -1    0    0  501    0  0.00000000000E+00  0.00000000000E+00  0.56888276990E+03  0.56890218482E+03  0.47000000000E+01 0. -1.
         -5   -1    0    0    0  501 -0.00000000000E+00 -0.00000000000E+00 -0.30033004506E+02  0.30398542065E+02  0.47000000000E+01 0. -1.
         25    2    1    2    0    0 -0.58239015098E+00  0.10611583188E+02  0.18197357861E+03  0.22101711342E+03  0.12498494404E+03 0.  0.
         25    2    1    2    0    0  0.58239015098E+00 -0.10611583188E+02  0.35687618678E+03  0.37828361346E+03  0.12499973857E+03 0.  0.
          5    1    4    4  502    0  0.10295470142E+02 -0.41864480685E+02  0.37888449018E+02  0.57586943116E+02  0.47000000000E+01 0.  1.
         -5    1    4    4    0  502 -0.97130799907E+01  0.31252897497E+02  0.31898773777E+03  0.32069667034E+03  0.47000000000E+01 0.  1.
          5    1    3    3  503    0  0.29630512498E+02  0.13302666775E+02 -0.35153485816E+01  0.33005694809E+02  0.47000000000E+01 0. -1.
         -5    1    3    3    0  503 -0.30212902649E+02 -0.26910835868E+01  0.18548892719E+03  0.18801141861E+03  0.47000000000E+01 0. -1.
<mgrwt>
<rscale>  0 0.12544702E+03</rscale>
<asrwt>0</asrwt>
<pdfrwt beam="1">  1        5 0.87550040E-01 0.12545071E+03</pdfrwt>
<pdfrwt beam="2">  1       -5 0.46500738E-02 0.12545071E+03</pdfrwt>
<totfact> 0.22514513E+02</totfact>
</mgrwt>
</event>
<event>
 8    1  0.1821556E-007  0.1360432E+03  0.7546771E-02  0.1218757E+00
         -5   -1    0    0    0  501 -0.00000000000E+00  0.00000000000E+00  0.14437050418E+04  0.14437126922E+04  0.47000000000E+01 0.  1.
          5   -1    0    0  501    0  0.00000000000E+00 -0.00000000000E+00 -0.29998763079E+02  0.30364712847E+02  0.47000000000E+01 0.  1.
         25    2    1    2    0    0 -0.35068670434E+02  0.40638735164E+02  0.12659313317E+04  0.12732202787E+04  0.12500569280E+03 0.  0.
         25    2    1    2    0    0  0.35068670434E+02 -0.40638735164E+02  0.14777494706E+03  0.20085712635E+03  0.12499932715E+03 0.  0.
          5    1    3    3  502    0  0.16321104439E+00  0.63111751561E+02  0.31154866239E+03  0.31791158969E+03  0.47000000000E+01 0. -1.
         -5    1    3    3    0  502 -0.35231881478E+02 -0.22473016397E+02  0.95438266927E+03  0.95530868903E+03  0.47000000000E+01 0. -1.
          5    1    4    4  503    0 -0.45075964272E+02 -0.31460036058E+02  0.56979376489E+02  0.79311510948E+02  0.47000000000E+01 0. -1.
         -5    1    4    4    0  503  0.80144634706E+02 -0.91786991063E+01  0.90795570567E+02  0.12154561540E+03  0.47000000000E+01 0. -1.
<mgrwt>
<rscale>  0 0.13604170E+03</rscale>
<asrwt>0</asrwt>
<pdfrwt beam="2">  1        5 0.46439326E-02 0.13604316E+03</pdfrwt>
<pdfrwt beam="1">  1       -5 0.22213722E+00 0.13604316E+03</pdfrwt>
<totfact> 0.18483703E+01</totfact>
</mgrwt>
</event>
<event>
 8    1  0.1821556E-007  0.1259368E+03  0.7546771E-02  0.1233621E+00
          5   -1    0    0  501    0  0.00000000000E+00  0.00000000000E+00  0.95464614606E+03  0.95465771572E+03  0.47000000000E+01 0.  1.
         -5   -1    0    0    0  501 -0.00000000000E+00 -0.00000000000E+00 -0.16452380619E+02  0.17110547275E+02  0.47000000000E+01 0.  1.
         25    2    1    2    0    0  0.15107994323E+02 -0.12805801522E+01  0.41846766519E+03  0.43700716608E+03  0.12502073836E+03 0.  0.
         25    2    1    2    0    0 -0.15107994323E+02  0.12805801522E+01  0.51972610025E+03  0.53476109692E+03  0.12499728042E+03 0.  0.
          5    1    4    4  502    0 -0.39063212174E+02  0.52370535913E+02  0.21271573701E+03  0.22257286975E+03  0.47000000000E+01 0. -1.
         -5    1    4    4    0  502  0.23955217850E+02 -0.51089955761E+02  0.30701036324E+03  0.31218822717E+03  0.47000000000E+01 0. -1.
          5    1    3    3  503    0  0.36774798775E+02 -0.52218006013E+02  0.29093979315E+03  0.29790461429E+03  0.47000000000E+01 0.  1.
         -5    1    3    3    0  503 -0.21666804452E+02  0.50937425861E+02  0.12752787204E+03  0.13910255179E+03  0.47000000000E+01 0.  1.
<mgrwt>
<rscale>  0 0.12593097E+03</rscale>
<asrwt>0</asrwt>
<pdfrwt beam="1">  1        5 0.14692013E+00 0.12593680E+03</pdfrwt>
<pdfrwt beam="2">  1       -5 0.25826541E-02 0.12593680E+03</pdfrwt>
<totfact> 0.15979289E+02</totfact>
</mgrwt>
</event>
<event>
 8    1  0.1821556E-007  0.1518023E+03  0.7546771E-02  0.1198276E+00
         -5   -1    0    0    0  501 -0.00000000000E+00  0.00000000000E+00  0.13065143751E+04  0.13065228288E+04  0.47000000000E+01 0. -1.
          5   -1    0    0  501    0  0.00000000000E+00 -0.00000000000E+00 -0.17316246301E+02  0.17942753021E+02  0.47000000000E+01 0. -1.
         25    2    1    2    0    0 -0.82948232852E+02  0.23194406165E+02  0.64188540391E+03  0.65959139949E+03  0.12500221081E+03 0.  0.
         25    2    1    2    0    0  0.82948232852E+02 -0.23194406165E+02  0.64731272486E+03  0.66487418238E+03  0.12500209922E+03 0.  0.
          5    1    3    3  502    0 -0.49266168843E+02  0.51101612532E+02  0.15298684157E+03  0.16871749729E+03  0.47000000000E+01 0. -1.
         -5    1    3    3    0  502 -0.33682064009E+02 -0.27907206367E+02  0.48889856234E+03  0.49087390220E+03  0.47000000000E+01 0. -1.
          5    1    4    4  503    0 -0.13207926620E+02 -0.48832644940E+02  0.26270938232E+03  0.26757687885E+03  0.47000000000E+01 0. -1.
         -5    1    4    4    0  503  0.96156159473E+02  0.25638238775E+02  0.38460334254E+03  0.39729730353E+03  0.47000000000E+01 0. -1.
<mgrwt>
<rscale>  0 0.15180229E+03</rscale>
<asrwt>0</asrwt>
<pdfrwt beam="2">  1        5 0.27128802E-02 0.15180231E+03</pdfrwt>
<pdfrwt beam="1">  1       -5 0.20105111E+00 0.15180231E+03</pdfrwt>
<totfact> 0.63074236E+01</totfact>
</mgrwt>
</event>
<event>
 8    1  0.1821556E-007  0.1756513E+03  0.7546771E-02  0.1172081E+00
          5   -1    0    0  501    0  0.00000000000E+00  0.00000000000E+00  0.53131866651E+02  0.53339340583E+02  0.47000000000E+01 0.  1.
         -5   -1    0    0    0  501 -0.00000000000E+00 -0.00000000000E+00 -0.59687510899E+03  0.59689361342E+03  0.47000000000E+01 0.  1.
         25    2    1    2    0    0  0.76123442322E+02  0.97129654884E+02 -0.21613682888E+03  0.27850811881E+03  0.12499078012E+03 0.  0.
         25    2    1    2    0    0 -0.76123442322E+02 -0.97129654884E+02 -0.32760641346E+03  0.37172483519E+03  0.12499777048E+03 0.  0.
          5    1    4    4  502    0  0.69647047435E+01 -0.42319957107E+02 -0.22345117771E+03  0.22757856820E+03  0.47000000000E+01 0. -1.
         -5    1    4    4    0  502 -0.83088147066E+02 -0.54809697777E+02 -0.10415523575E+03  0.14414626699E+03  0.47000000000E+01 0. -1.
          5    1    3    3  503    0 -0.92920181865E+01  0.85990069819E+01  0.12776739305E+02  0.18590846950E+02  0.47000000000E+01 0.  1.
         -5    1    3    3    0  503  0.85415460509E+02  0.88530647902E+02 -0.22891356819E+03  0.25991727186E+03  0.47000000000E+01 0.  1.
<mgrwt>
<rscale>  0 0.17565009E+03</rscale>
<asrwt>0</asrwt>
<pdfrwt beam="1">  1        5 0.81915167E-02 0.17565133E+03</pdfrwt>
<pdfrwt beam="2">  1       -5 0.91844318E-01 0.17565133E+03</pdfrwt>
<totfact> 0.86072142E+01</totfact>
</mgrwt>
</event>
<event>
 8    1  0.1821556E-007  0.1589002E+03  0.7546771E-02  0.1189945E+00
          5   -1    0    0  501    0  0.00000000000E+00  0.00000000000E+00  0.13672218114E+03  0.13680294155E+03  0.47000000000E+01 0. -1.
         -5   -1    0    0    0  501 -0.00000000000E+00 -0.00000000000E+00 -0.21289010577E+03  0.21294198067E+03  0.47000000000E+01 0. -1.
         25    2    1    2    0    0  0.69444222541E+02 -0.69288529447E+02 -0.10191585805E+03  0.18877214601E+03  0.12499872251E+03 0.  0.
         25    2    1    2    0    0 -0.69444222541E+02  0.69288529447E+02  0.25747933430E+02  0.16097277621E+03  0.12500351294E+03 0.  0.
          5    1    3    3  502    0  0.39368636785E+02 -0.84242255730E+02 -0.13506326070E+02  0.94080593412E+02  0.47000000000E+01 0.  1.
         -5    1    3    3    0  502  0.30075585756E+02  0.14953726283E+02 -0.88409531984E+02  0.94691552601E+02  0.47000000000E+01 0.  1.
          5    1    4    4  503    0  0.50682567036E+01  0.51135826023E+02  0.58009797516E+02  0.77638821068E+02  0.47000000000E+01 0. -1.
         -5    1    4    4    0  503 -0.74512479245E+02  0.18152703425E+02 -0.32261864085E+02  0.83333955139E+02  0.47000000000E+01 0. -1.
<mgrwt>
<rscale>  0 0.15889927E+03</rscale>
<asrwt>0</asrwt>
<pdfrwt beam="1">  1        5 0.21044384E-01 0.15890022E+03</pdfrwt>
<pdfrwt beam="2">  1       -5 0.32762527E-01 0.15890022E+03</pdfrwt>
<totfact> 0.14390123E+02</totfact>
</mgrwt>
</event>
<event>
 8    1  0.1821556E-007  0.1922918E+03  0.7546771E-02  0.1156411E+00
          5   -1    0    0  501    0  0.00000000000E+00  0.00000000000E+00  0.21752759823E+02  0.22254719947E+02  0.47000000000E+01 0.  1.
         -5   -1    0    0    0  501 -0.00000000000E+00 -0.00000000000E+00 -0.17783911385E+04  0.17783973491E+04  0.47000000000E+01 0.  1.
         25    2    1    2    0    0 -0.76451946604E+02 -0.12452868991E+03 -0.10901311126E+04  0.11069606862E+04  0.12499529374E+03 0.  0.
         25    2    1    2    0    0  0.76451946604E+02  0.12452868991E+03 -0.66650726608E+03  0.69369138288E+03  0.12499401661E+03 0.  0.
          5    1    4    4  502    0 -0.31564032778E+02  0.21900592044E+02 -0.20766708109E+03  0.21124306063E+03  0.47000000000E+01 0. -1.
         -5    1    4    4    0  502  0.10801597938E+03  0.10262809786E+03 -0.45884018499E+03  0.48244832224E+03  0.47000000000E+01 0. -1.
          5    1    3    3  503    0 -0.58434651169E+02  0.28085791578E+01 -0.23596375972E+03  0.24315320783E+03  0.47000000000E+01 0. -1.
         -5    1    3    3    0  503 -0.18017295435E+02 -0.12733726907E+03 -0.85416735285E+03  0.86380747838E+03  0.47000000000E+01 0. -1.
<mgrwt>
<rscale>  0 0.19229155E+03</rscale>
<asrwt>0</asrwt>
<pdfrwt beam="1">  1        5 0.33856699E-02 0.19229175E+03</pdfrwt>
<pdfrwt beam="2">  1       -5 0.27363761E+00 0.19229175E+03</pdfrwt>
<totfact> 0.15773984E+01</totfact>
</mgrwt>
</event>
<event>
 8    1  0.1821556E-007  0.2667238E+03  0.7546771E-02  0.1103170E+00
          5   -1    0    0  501    0  0.00000000000E+00  0.00000000000E+00  0.12420205217E+04  0.12420294144E+04  0.47000000000E+01 0. -1.
         -5   -1    0    0    0  501 -0.00000000000E+00 -0.00000000000E+00 -0.64317672273E+02  0.64489169375E+02  0.47000000000E+01 0. -1.
         25    2    1    2    0    0  0.21488183743E+03 -0.96651192118E+02  0.37144998417E+03  0.45729274913E+03  0.12500364263E+03 0.  0.
         25    2    1    2    0    0 -0.21488183743E+03  0.96651192118E+02  0.80625286522E+03  0.84922583464E+03  0.12500071422E+03 0.  0.
          5    1    4    4  502    0 -0.55882070299E+02  0.15417710217E+02  0.67093114002E+02  0.88792384334E+02  0.47000000000E+01 0.  1.
         -5    1    4    4    0  502 -0.15899976713E+03  0.81233481901E+02  0.73915975122E+03  0.76043345031E+03  0.47000000000E+01 0.  1.
          5    1    3    3  503    0  0.11477760307E+02  0.23875633052E+02  0.63936365001E+02  0.69366660615E+02  0.47000000000E+01 0.  1.
         -5    1    3    3    0  503  0.20340407712E+03 -0.12052682517E+03  0.30751361917E+03  0.38792608852E+03  0.47000000000E+01 0.  1.
<mgrwt>
<rscale>  0 0.26672342E+03</rscale>
<asrwt>0</asrwt>
<pdfrwt beam="1">  1        5 0.19109394E+00 0.26672377E+03</pdfrwt>
<pdfrwt beam="2">  1       -5 0.99089037E-02 0.26672377E+03</pdfrwt>
<totfact> 0.95411972E+00</totfact>
</mgrwt>
</event>
<event>
 8    1  0.1821556E-007  0.1339129E+03  0.7546771E-02  0.1221765E+00
         -5   -1    0    0    0  501 -0.00000000000E+00  0.00000000000E+00  0.65740316033E+03  0.65741996107E+03  0.47000000000E+01 0. -1.
          5   -1    0    0  501    0  0.00000000000E+00 -0.00000000000E+00 -0.27102160624E+02  0.27506673926E+02  0.47000000000E+01 0. -1.
         25    2    1    2    0    0  0.46521138978E+02 -0.12049795162E+02  0.30127745027E+03  0.32969799575E+03  0.12499300952E+03 0.  0.
         25    2    1    2    0    0 -0.46521138978E+02  0.12049795162E+02  0.32902354944E+03  0.35522863924E+03  0.12498590367E+03 0.  0.
          5    1    4    4  502    0 -0.20562874026E+02  0.49970919105E+02  0.28918657217E+03  0.29422931204E+03  0.47000000000E+01 0. -1.
         -5    1    4    4    0  502 -0.25958264952E+02 -0.37921123943E+02  0.39836977272E+02  0.60999327198E+02  0.47000000000E+01 0. -1.
          5    1    3    3  503    0  0.21686548417E+02  0.12710981838E+02  0.29200196147E+03  0.29311961883E+03  0.47000000000E+01 0.  1.
         -5    1    3    3    0  503  0.24834590561E+02 -0.24760777001E+02  0.92754888014E+01  0.36578376925E+02  0.47000000000E+01 0.  1.
<mgrwt>
<rscale>  0 0.13391125E+03</rscale>
<asrwt>0</asrwt>
<pdfrwt beam="2">  1        5 0.42019718E-02 0.13391291E+03</pdfrwt>
<pdfrwt beam="1">  1       -5 0.10117136E+00 0.13391291E+03</pdfrwt>
<totfact> 0.19254363E+02</totfact>
</mgrwt>
</event>
<event>
 8    1  0.1821556E-007  0.1373087E+03  0.7546771E-02  0.1216999E+00
         -5   -1    0    0    0  501 -0.00000000000E+00  0.00000000000E+00  0.52196596942E+02  0.52407773587E+02  0.47000000000E+01 0. -1.
          5   -1    0    0  501    0  0.00000000000E+00 -0.00000000000E+00 -0.36900505764E+03  0.36903498826E+03  0.47000000000E+01 0. -1.
         25    2    1    2    0    0 -0.31831938522E+02 -0.47063974520E+02 -0.12592423591E+03  0.18630349349E+03  0.12499515386E+03 0.  0.
         25    2    1    2    0    0  0.31831938522E+02  0.47063974520E+02 -0.19088422478E+03  0.23513926836E+03  0.12500159298E+03 0.  0.
          5    1    4    4  502    0 -0.46173137257E+01  0.58700976951E+01  0.17482639995E+02  0.19583419880E+02  0.47000000000E+01 0.  1.
         -5    1    4    4    0  502  0.36449252248E+02  0.41193876825E+02 -0.20836686478E+03  0.21555584848E+03  0.47000000000E+01 0.  1.
          5    1    3    3  503    0  0.37137937391E+02 -0.16194987966E+02 -0.16949070035E+01  0.40822380365E+02  0.47000000000E+01 0. -1.
         -5    1    3    3    0  503 -0.68969875913E+02 -0.30868986554E+02 -0.12422932891E+03  0.14548111312E+03  0.47000000000E+01 0. -1.
<mgrwt>
<rscale>  0 0.13730727E+03</rscale>
<asrwt>0</asrwt>
<pdfrwt beam="2">  1        5 0.56788554E-01 0.13730873E+03</pdfrwt>
<pdfrwt beam="1">  1       -5 0.80487926E-02 0.13730873E+03</pdfrwt>
<totfact> 0.24517559E+02</totfact>
</mgrwt>
</event>
<event>
 8    1  0.1821556E-007  0.1866563E+03  0.7546771E-02  0.1161514E+00
         -5   -1    0    0    0  501 -0.00000000000E+00  0.00000000000E+00  0.32130725669E+03  0.32134163004E+03  0.47000000000E+01 0. -1.
          5   -1    0    0  501    0  0.00000000000E+00 -0.00000000000E+00 -0.14327195528E+03  0.14334902570E+03  0.47000000000E+01 0. -1.
         25    2    1    2    0    0 -0.12410591476E+03  0.61733587715E+02  0.20369601854E+03  0.27627879165E+03  0.12499835526E+03 0.  0.
         25    2    1    2    0    0  0.12410591476E+03 -0.61733587715E+02 -0.25660717131E+02  0.18841186409E+03  0.12500897646E+03 0.  0.
          5    1    4    4  502    0  0.65185617274E+02 -0.43392177793E+02 -0.75555262156E+02  0.10891617617E+03  0.47000000000E+01 0. -1.
         -5    1    4    4    0  502  0.58920297486E+02 -0.18341409922E+02  0.49894545025E+02  0.79495687914E+02  0.47000000000E+01 0. -1.
          5    1    3    3  503    0 -0.26057136236E+02 -0.32887459578E+02  0.17982246277E+02  0.45891290323E+02  0.47000000000E+01 0. -1.
         -5    1    3    3    0  503 -0.98048778523E+02  0.94621047292E+02  0.18571377226E+03  0.23038750133E+03  0.47000000000E+01 0. -1.
<mgrwt>
<rscale>  0 0.18665448E+03</rscale>
<asrwt>0</asrwt>
<pdfrwt beam="2">  1        5 0.22050412E-01 0.18665626E+03</pdfrwt>
<pdfrwt beam="1">  1       -5 0.49440458E-01 0.18665626E+03</pdfrwt>
<totfact> 0.59238488E+01</totfact>
</mgrwt>
</event>
<event>
 8    1  0.1821556E-007  0.1354771E+03  0.7546771E-02  0.1219551E+00
         -5   -1    0    0    0  501 -0.00000000000E+00  0.00000000000E+00  0.33836544369E+03  0.33839808434E+03  0.47000000000E+01 0. -1.
          5   -1    0    0  501    0  0.00000000000E+00 -0.00000000000E+00 -0.74336329551E+02  0.74484762811E+02  0.47000000000E+01 0. -1.
         25    2    1    2    0    0  0.93651508964E+01  0.51369937850E+02  0.23957056245E+03  0.27522371934E+03  0.12500985853E+03 0.  0.
         25    2    1    2    0    0 -0.93651508964E+01 -0.51369937850E+02  0.24458551687E+02  0.13765912781E+03  0.12500095260E+03 0.  0.
          5    1    4    4  502    0  0.46706816858E+02  0.13786853876E+02  0.14294066791E+02  0.50970721264E+02  0.47000000000E+01 0. -1.
         -5    1    4    4    0  502 -0.56071967754E+02 -0.65156791725E+02  0.10164484895E+02  0.86688406543E+02  0.47000000000E+01 0. -1.
          5    1    3    3  503    0 -0.20241561775E+02  0.66399360245E+02  0.57992059649E+02  0.90574636882E+02  0.47000000000E+01 0.  1.
         -5    1    3    3    0  503  0.29606712671E+02 -0.15029422395E+02  0.18157850280E+03  0.18464908246E+03  0.47000000000E+01 0.  1.
<mgrwt>
<rscale>  0 0.13547503E+03</rscale>
<asrwt>0</asrwt>
<pdfrwt beam="2">  1        5 0.11450287E-01 0.13547709E+03</pdfrwt>
<pdfrwt beam="1">  1       -5 0.52070150E-01 0.13547709E+03</pdfrwt>
<totfact> 0.15931167E+02</totfact>
</mgrwt>
</event>
<event>
 8    1  0.1821556E-007  0.1261145E+03  0.7546771E-02  0.1233344E+00
          5   -1    0    0  501    0  0.00000000000E+00  0.00000000000E+00  0.79006672406E+02  0.79146347260E+02  0.47000000000E+01 0. -1.
         -5   -1    0    0    0  501 -0.00000000000E+00 -0.00000000000E+00 -0.22139606413E+03  0.22144594648E+03  0.47000000000E+01 0. -1.
         25    2    1    2    0    0 -0.14744615097E+01 -0.16643137097E+02 -0.11685797713E+03  0.17191937081E+03  0.12498525991E+03 0.  0.
         25    2    1    2    0    0  0.14744615097E+01  0.16643137097E+02 -0.25531414593E+02  0.12867292292E+03  0.12500279962E+03 0.  0.
          5    1    3    3  502    0  0.60195613680E+02 -0.18834111110E+02 -0.69647773176E+02  0.94080486585E+02  0.47000000000E+01 0. -1.
         -5    1    3    3    0  502 -0.61670075190E+02  0.21909740124E+01 -0.47210203952E+02  0.77838884230E+02  0.47000000000E+01 0. -1.
          5    1    4    4  503    0  0.46265052598E+02  0.43989026734E+02 -0.38117655390E+02  0.74501914186E+02  0.47000000000E+01 0. -1.
         -5    1    4    4    0  503 -0.44790591088E+02 -0.27345889637E+02  0.12586240796E+02  0.54171008736E+02  0.47000000000E+01 0. -1.
<mgrwt>
<rscale>  0 0.12611016E+03</rscale>
<asrwt>0</asrwt>
<pdfrwt beam="1">  1        5 0.12169454E-01 0.12611450E+03</pdfrwt>
<pdfrwt beam="2">  1       -5 0.34075514E-01 0.12611450E+03</pdfrwt>
<totfact> 0.33418001E+02</totfact>
</mgrwt>
</event>
<event>
 8    1  0.1821556E-007  0.1281677E+03  0.7546771E-02  0.1230201E+00
          5   -1    0    0  501    0  0.00000000000E+00  0.00000000000E+00  0.41606093872E+02  0.41870718256E+02  0.47000000000E+01 0.  1.
         -5   -1    0    0    0  501 -0.00000000000E+00 -0.00000000000E+00 -0.42051584392E+03  0.42054210846E+03  0.47000000000E+01 0.  1.
         25    2    1    2    0    0 -0.13915827473E+02  0.24653449037E+02 -0.24826859172E+03  0.27939894535E+03  0.12500013690E+03 0.  0.
         25    2    1    2    0    0  0.13915827473E+02 -0.24653449037E+02 -0.13064115833E+03  0.18301388137E+03  0.12500210286E+03 0.  0.
          5    1    4    4  502    0 -0.27886166114E+02 -0.35007268557E+02 -0.13221539601E+03  0.13966441227E+03  0.47000000000E+01 0.  1.
         -5    1    4    4    0  502  0.41801993588E+02  0.10353819520E+02  0.15742376829E+01  0.43349469095E+02  0.47000000000E+01 0.  1.
          5    1    3    3  503    0  0.19371574525E+02 -0.26637194886E+02 -0.12106354044E+02  0.35404122065E+02  0.47000000000E+01 0.  1.
         -5    1    3    3    0  503 -0.33287401998E+02  0.51290643922E+02 -0.23616223767E+03  0.24399482328E+03  0.47000000000E+01 0.  1.
<mgrwt>
<rscale>  0 0.12816726E+03</rscale>
<asrwt>0</asrwt>
<pdfrwt beam="1">  1        5 0.64233139E-02 0.12816774E+03</pdfrwt>
<pdfrwt beam="2">  1       -5 0.64717118E-01 0.12816774E+03</pdfrwt>
<totfact> 0.26380013E+02</totfact>
</mgrwt>
</event>
<event>
 8    1  0.1821556E-007  0.1709903E+03  0.7546771E-02  0.1176820E+00
         -5   -1    0    0    0  501 -0.00000000000E+00  0.00000000000E+00  0.32217747158E+03  0.32221175210E+03  0.47000000000E+01 0. -1.
          5   -1    0    0  501    0  0.00000000000E+00 -0.00000000000E+00 -0.90746067102E+02  0.90867698851E+02  0.47000000000E+01 0. -1.
         25    2    1    2    0    0 -0.80492274958E+01 -0.11639344048E+03  0.12249067050E+03  0.21033700128E+03  0.12500186677E+03 0.  0.
         25    2    1    2    0    0  0.80492274958E+01  0.11639344048E+03  0.10894073397E+03  0.20274244968E+03  0.12499677730E+03 0.  0.
          5    1    4    4  502    0  0.30831805913E+02  0.71725356098E+02  0.12707426656E+03  0.14921489934E+03  0.47000000000E+01 0.  1.
         -5    1    4    4    0  502 -0.22782578417E+02  0.44668084377E+02 -0.18133532587E+02  0.53527550339E+02  0.47000000000E+01 0.  1.
          5    1    3    3  503    0  0.44096331201E+02 -0.10077196588E+03  0.53722866868E+02  0.12250596703E+03  0.47000000000E+01 0. -1.
         -5    1    3    3    0  503 -0.52145558697E+02 -0.15621474597E+02  0.68767803636E+02  0.87831034250E+02  0.47000000000E+01 0. -1.
<mgrwt>
<rscale>  0 0.17098939E+03</rscale>
<asrwt>0</asrwt>
<pdfrwt beam="2">  1        5 0.13972927E-01 0.17099032E+03</pdfrwt>
<pdfrwt beam="1">  1       -5 0.49577759E-01 0.17099032E+03</pdfrwt>
<totfact> 0.13348502E+02</totfact>
</mgrwt>
</event>
<event>
 8    1  0.1821556E-007  0.1627840E+03  0.7546771E-02  0.1185590E+00
          5   -1    0    0  501    0  0.00000000000E+00  0.00000000000E+00  0.24565906034E+03  0.24570401692E+03  0.47000000000E+01 0.  1.
         -5   -1    0    0    0  501 -0.00000000000E+00 -0.00000000000E+00 -0.12073217979E+03  0.12082362864E+03  0.47000000000E+01 0.  1.
         25    2    1    2    0    0 -0.19071466212E+02  0.10251577109E+03  0.24254999815E+01  0.16280207358E+03  0.12500171185E+03 0.  0.
         25    2    1    2    0    0  0.19071466212E+02 -0.10251577109E+03  0.12250138057E+03  0.20372557197E+03  0.12499726512E+03 0.  0.
          5    1    3    3  502    0 -0.56552761912E+02  0.10894327256E+03 -0.79818724296E+01  0.12309610800E+03  0.47000000000E+01 0. -1.
         -5    1    3    3    0  502  0.37481295700E+02 -0.64275014676E+01  0.10407372411E+02  0.39705965584E+02  0.47000000000E+01 0. -1.
          5    1    4    4  503    0  0.25810156127E+02 -0.39970746523E+02 -0.16904143961E+02  0.50711584672E+02  0.47000000000E+01 0.  1.
         -5    1    4    4    0  503 -0.67386899153E+01 -0.62545024570E+02  0.13940552453E+03  0.15301398730E+03  0.47000000000E+01 0.  1.
<mgrwt>
<rscale>  0 0.16278315E+03</rscale>
<asrwt>0</asrwt>
<pdfrwt beam="1">  1        5 0.37804194E-01 0.16278400E+03</pdfrwt>
<pdfrwt beam="2">  1       -5 0.18584674E-01 0.16278400E+03</pdfrwt>
<totfact> 0.13712272E+02</totfact>
</mgrwt>
</event>
<event>
 8    1  0.1821556E-007  0.1286126E+03  0.7546771E-02  0.1229543E+00
          5   -1    0    0  501    0  0.00000000000E+00  0.00000000000E+00  0.83309094487E+02  0.83441567724E+02  0.47000000000E+01 0.  1.
         -5   -1    0    0    0  501 -0.00000000000E+00 -0.00000000000E+00 -0.23047956864E+03  0.23052748547E+03  0.47000000000E+01 0.  1.
         25    2    1    2    0    0 -0.26185642116E+02  0.15095920361E+02 -0.13233981516E+03  0.18454001033E+03  0.12501045584E+03 0.  0.
         25    2    1    2    0    0  0.26185642116E+02 -0.15095920361E+02 -0.14830658988E+02  0.12942904287E+03  0.12497341328E+03 0.  0.
          5    1    4    4  502    0  0.25066253443E+02  0.35833140745E+02  0.36354281779E+02  0.57061851012E+02  0.47000000000E+01 0. -1.
         -5    1    4    4    0  502  0.11193886737E+01 -0.50929061106E+02 -0.51184940767E+02  0.72367191858E+02  0.47000000000E+01 0. -1.
          5    1    3    3  503    0  0.19465665863E+02  0.34708735090E+02 -0.12836507112E+03  0.13447412362E+03  0.47000000000E+01 0. -1.
         -5    1    3    3    0  503 -0.45651307979E+02 -0.19612814729E+02 -0.39747440402E+01  0.50065886709E+02  0.47000000000E+01 0. -1.
<mgrwt>
<rscale>  0 0.12860355E+03</rscale>
<asrwt>0</asrwt>
<pdfrwt beam="1">  1        5 0.12830660E-01 0.12861255E+03</pdfrwt>
<pdfrwt beam="2">  1       -5 0.35472271E-01 0.12861255E+03</pdfrwt>
<totfact> 0.28274285E+02</totfact>
</mgrwt>
</event>
<event>
 8    1  0.1821556E-007  0.1340076E+03  0.7546771E-02  0.1221630E+00
          5   -1    0    0  501    0  0.00000000000E+00  0.00000000000E+00  0.70734034391E+02  0.70890010730E+02  0.47000000000E+01 0. -1.
         -5   -1    0    0    0  501 -0.00000000000E+00 -0.00000000000E+00 -0.25374545409E+03  0.25378897823E+03  0.47000000000E+01 0. -1.
         25    2    1    2    0    0 -0.22596706004E+02  0.42685947640E+02 -0.97402810942E+02  0.16566636533E+03  0.12500134309E+03 0.  0.
         25    2    1    2    0    0  0.22596706004E+02 -0.42685947640E+02 -0.85608608756E+02  0.15901262363E+03  0.12499391718E+03 0.  0.
          5    1    3    3  502    0 -0.56194795694E+02  0.48896465573E+02 -0.14715588771E+02  0.76074686733E+02  0.47000000000E+01 0.  1.
         -5    1    3    3    0  502  0.33598089690E+02 -0.62105179324E+01 -0.82687222170E+02  0.89591678598E+02  0.47000000000E+01 0.  1.
          5    1    4    4  503    0 -0.46428894000E+02 -0.43283237669E+02 -0.51497392838E+02  0.81872781376E+02  0.47000000000E+01 0. -1.
         -5    1    4    4    0  503  0.69025600004E+02  0.59729002855E+00 -0.34111215918E+02  0.77139842252E+02  0.47000000000E+01 0. -1.
<mgrwt>
<rscale>  0 0.13400587E+03</rscale>
<asrwt>0</asrwt>
<pdfrwt beam="1">  1        5 0.10897505E-01 0.13400760E+03</pdfrwt>
<pdfrwt beam="2">  1       -5 0.39053108E-01 0.13400760E+03</pdfrwt>
<totfact> 0.31536563E+02</totfact>
</mgrwt>
</event>
<event>
 8    1  0.1821556E-007  0.1320038E+03  0.7546771E-02  0.1224513E+00
          5   -1    0    0  501    0  0.00000000000E+00  0.00000000000E+00  0.42280929865E+02  0.42541356704E+02  0.47000000000E+01 0. -1.
         -5   -1    0    0    0  501 -0.00000000000E+00 -0.00000000000E+00 -0.63601281979E+03  0.63603018556E+03  0.47000000000E+01 0. -1.
         25    2    1    2    0    0 -0.31747864048E+02 -0.28146207879E+02 -0.49881546651E+03  0.51598580866E+03  0.12499739684E+03 0.  0.
         25    2    1    2    0    0  0.31747864048E+02  0.28146207879E+02 -0.94916423414E+02  0.16258573360E+03  0.12499942979E+03 0.  0.
          5    1    3    3  502    0  0.36249336155E+02  0.24913093604E+02 -0.20600228560E+03  0.21069814493E+03  0.47000000000E+01 0. -1.
         -5    1    3    3    0  502 -0.67997200203E+02 -0.53059301482E+02 -0.29281318092E+03  0.30528766373E+03  0.47000000000E+01 0. -1.
          5    1    4    4  503    0  0.58415610352E+02  0.62624951100E+02 -0.47646766332E+02  0.98115097589E+02  0.47000000000E+01 0. -1.
         -5    1    4    4    0  503 -0.26667746304E+02 -0.34478743222E+02 -0.47269657082E+02  0.64470636011E+02  0.47000000000E+01 0. -1.
<mgrwt>
<rscale>  0 0.13200328E+03</rscale>
<asrwt>0</asrwt>
<pdfrwt beam="1">  1        5 0.65261276E-02 0.13200376E+03</pdfrwt>
<pdfrwt beam="2">  1       -5 0.97869488E-01 0.13200376E+03</pdfrwt>
<totfact> 0.99788682E+01</totfact>
</mgrwt>
</event>
<event>
 8    1  0.1821556E-007  0.1534736E+03  0.7546771E-02  0.1196274E+00
         -5   -1    0    0    0  501 -0.00000000000E+00  0.00000000000E+00  0.15730798931E+04  0.15730869144E+04  0.47000000000E+01 0.  1.
          5   -1    0    0  501    0  0.00000000000E+00 -0.00000000000E+00 -0.14779688159E+02  0.15509003259E+02  0.47000000000E+01 0.  1.
         25    2    1    2    0    0 -0.30119323588E+02  0.83809882242E+02  0.69264191860E+03  0.70944131484E+03  0.12499152688E+03 0.  0.
         25    2    1    2    0    0  0.30119323588E+02 -0.83809882242E+02  0.86565828636E+03  0.87915460278E+03  0.12496910348E+03 0.  0.
          5    1    4    4  502    0  0.33621768205E+02 -0.74296695004E+02  0.86400638961E+03  0.86785917837E+03  0.47000000000E+01 0.  1.
         -5    1    4    4    0  502 -0.35024446178E+01 -0.95131872380E+01  0.16518967481E+01  0.11295424410E+02  0.47000000000E+01 0.  1.
          5    1    3    3  503    0  0.34310460533E+02  0.79607123696E+02  0.34012448338E+03  0.35102885357E+03  0.47000000000E+01 0.  1.
         -5    1    3    3    0  503 -0.64429784121E+02  0.42027585459E+01  0.35251743522E+03  0.35841246127E+03  0.47000000000E+01 0.  1.
<mgrwt>
<rscale>  0 0.15346905E+03</rscale>
<asrwt>0</asrwt>
<pdfrwt beam="2">  1        5 0.23304407E-02 0.15347362E+03</pdfrwt>
<pdfrwt beam="1">  1       -5 0.24206880E+00 0.15347362E+03</pdfrwt>
<totfact> 0.43509494E+01</totfact>
</mgrwt>
</event>
<event>
 8    1  0.1821556E-007  0.1804275E+03  0.7546771E-02  0.1167390E+00
          5   -1    0    0  501    0  0.00000000000E+00  0.00000000000E+00  0.11495092778E+04  0.11495188862E+04  0.47000000000E+01 0. -1.
         -5   -1    0    0    0  501 -0.00000000000E+00 -0.00000000000E+00 -0.28114891284E+02  0.28505036606E+02  0.47000000000E+01 0. -1.
         25    2    1    2    0    0  0.94775407216E+02 -0.89143354343E+02  0.56138917423E+03  0.58967035470E+03  0.12499762731E+03 0.  0.
         25    2    1    2    0    0 -0.94775407216E+02  0.89143354343E+02  0.56000521227E+03  0.58835356809E+03  0.12500067155E+03 0.  0.
          5    1    4    4  502    0  0.23247027477E+02  0.10113467386E+02  0.29675702409E+02  0.39312133274E+02  0.47000000000E+01 0.  1.
         -5    1    4    4    0  502 -0.11802243469E+03  0.79029886957E+02  0.53032950986E+03  0.54904143482E+03  0.47000000000E+01 0.  1.
          5    1    3    3  503    0 -0.17412710246E+02 -0.56812101359E+02  0.13526473138E+03  0.14781561113E+03  0.47000000000E+01 0. -1.
         -5    1    3    3    0  503  0.11218811746E+03 -0.32331252984E+02  0.42612444285E+03  0.44185474357E+03  0.47000000000E+01 0. -1.
<mgrwt>
<rscale>  0 0.18042697E+03</rscale>
<asrwt>0</asrwt>
<pdfrwt beam="1">  1        5 0.17687834E+00 0.18042750E+03</pdfrwt>
<pdfrwt beam="2">  1       -5 0.43561179E-02 0.18042750E+03</pdfrwt>
<totfact> 0.44978566E+01</totfact>
</mgrwt>
</event>
<event>
 8    1  0.1821556E-007  0.1474855E+03  0.7546771E-02  0.1203599E+00
          5   -1    0    0  501    0  0.00000000000E+00  0.00000000000E+00  0.77564635925E+02  0.77706902822E+02  0.47000000000E+01 0.  1.
         -5   -1    0    0    0  501 -0.00000000000E+00 -0.00000000000E+00 -0.29785234861E+03  0.29788942844E+03  0.47000000000E+01 0.  1.
         25    2    1    2    0    0  0.73322875572E+02 -0.27400614947E+02 -0.15609709295E+03  0.21475165864E+03  0.12499973872E+03 0.  0.
         25    2    1    2    0    0 -0.73322875572E+02  0.27400614947E+02 -0.64190619736E+02  0.16084467262E+03  0.12499414093E+03 0.  0.
          5    1    4    4  502    0  0.22639363279E+02  0.27742740952E+02 -0.52975146543E+02  0.64114402410E+02  0.47000000000E+01 0.  1.
         -5    1    4    4    0  502 -0.95962238851E+02 -0.34212600576E+00 -0.11215473193E+02  0.96730270208E+02  0.47000000000E+01 0.  1.
          5    1    3    3  503    0 -0.33648410139E+01  0.27074493604E+02 -0.10294930453E+03  0.10660675242E+03  0.47000000000E+01 0.  1.
         -5    1    3    3    0  503  0.76687716586E+02 -0.54475108551E+02 -0.53147788423E+02  0.10814490622E+03  0.47000000000E+01 0.  1.
<mgrwt>
<rscale>  0 0.14748431E+03</rscale>
<asrwt>0</asrwt>
<pdfrwt beam="1">  1        5 0.11946817E-01 0.14748550E+03</pdfrwt>
<pdfrwt beam="2">  1       -5 0.45837234E-01 0.14748550E+03</pdfrwt>
<totfact> 0.19897165E+02</totfact>
</mgrwt>
</event>
<event>
 8    1  0.1821556E-007  0.1345182E+03  0.7546771E-02  0.1220917E+00
          5   -1    0    0  501    0  0.00000000000E+00  0.00000000000E+00  0.16690268700E+03  0.16696885017E+03  0.47000000000E+01 0.  1.
         -5   -1    0    0    0  501 -0.00000000000E+00 -0.00000000000E+00 -0.10993754921E+03  0.11003796948E+03  0.47000000000E+01 0.  1.
         25    2    1    2    0    0  0.28607673004E+02  0.40640248573E+02  0.11293312344E+02  0.13494672616E+03  0.12495219582E+03 0.  0.
         25    2    1    2    0    0 -0.28607673004E+02 -0.40640248573E+02  0.45671825447E+02  0.14206009349E+03  0.12500050305E+03 0.  0.
          5    1    4    4  502    0 -0.44122496177E+01  0.18178767584E+02  0.70900144815E+02  0.73476908430E+02  0.47000000000E+01 0.  1.
         -5    1    4    4    0  502 -0.24195423387E+02 -0.58819016157E+02 -0.25228319368E+02  0.68583185058E+02  0.47000000000E+01 0.  1.
          5    1    3    3  503    0 -0.22312609582E+02  0.70959912892E+02  0.55780809234E+00  0.74535648745E+02  0.47000000000E+01 0.  1.
         -5    1    3    3    0  503  0.50920282586E+02 -0.30319664319E+02  0.10735504252E+02  0.60411077416E+02  0.47000000000E+01 0.  1.
<mgrwt>
<rscale>  0 0.13450701E+03</rscale>
<asrwt>0</asrwt>
<pdfrwt beam="1">  1        5 0.25690151E-01 0.13451823E+03</pdfrwt>
<pdfrwt beam="2">  1       -5 0.16926283E-01 0.13451823E+03</pdfrwt>
<totfact> 0.32818801E+02</totfact>
</mgrwt>
</event>
<event>
 8    1  0.1821556E-007  0.1503226E+03  0.7546771E-02  0.1200078E+00
         -5   -1    0    0    0  501 -0.00000000000E+00  0.00000000000E+00  0.64789161757E+03  0.64790866495E+03  0.47000000000E+01 0.  1.
          5   -1    0    0  501    0  0.00000000000E+00 -0.00000000000E+00 -0.59828977377E+02  0.60013302975E+02  0.47000000000E+01 0.  1.
         25    2    1    2    0    0  0.81569269620E+02 -0.17843449187E+02  0.52291451510E+03  0.54409233085E+03  0.12499975985E+03 0.  0.
         25    2    1    2    0    0 -0.81569269620E+02  0.17843449187E+02  0.65148125087E+02  0.16382963707E+03  0.12499574935E+03 0.  0.
          5    1    4    4  502    0 -0.79714186480E+02  0.17641734833E+02 -0.15321660927E+02  0.83201115544E+02  0.47000000000E+01 0. -1.
         -5    1    4    4    0  502 -0.18550831395E+01  0.20171435407E+00  0.80469786014E+02  0.80628521525E+02  0.47000000000E+01 0. -1.
          5    1    3    3  503    0  0.72285367755E+02 -0.58998034861E+02  0.45107702927E+03  0.46065010457E+03  0.47000000000E+01 0.  1.
         -5    1    3    3    0  503  0.92839018651E+01  0.41154585673E+02  0.71837485837E+02  0.83442226284E+02  0.47000000000E+01 0.  1.
<mgrwt>
<rscale>  0 0.15032173E+03</rscale>
<asrwt>0</asrwt>
<pdfrwt beam="2">  1        5 0.92199476E-02 0.15032257E+03</pdfrwt>
<pdfrwt beam="1">  1       -5 0.99691131E-01 0.15032257E+03</pdfrwt>
<totfact> 0.54993409E+01</totfact>
</mgrwt>
</event>
<event>
 8    1  0.1821556E-007  0.1411366E+03  0.7546771E-02  0.1211812E+00
         -5   -1    0    0    0  501 -0.00000000000E+00  0.00000000000E+00  0.14929624734E+03  0.14937020944E+03  0.47000000000E+01 0.  1.
          5   -1    0    0  501    0  0.00000000000E+00 -0.00000000000E+00 -0.13627583090E+03  0.13635685567E+03  0.47000000000E+01 0.  1.
         25    2    1    2    0    0 -0.38378336026E+02 -0.53080516883E+02  0.27744787521E+02  0.14382445685E+03  0.12500105282E+03 0.  0.
         25    2    1    2    0    0  0.38378336026E+02  0.53080516883E+02 -0.14724371084E+02  0.14190260826E+03  0.12501641963E+03 0.  0.
          5    1    3    3  502    0 -0.22479044747E+02  0.36882131651E+02  0.29177515996E+02  0.52335614333E+02  0.47000000000E+01 0.  1.
         -5    1    3    3    0  502 -0.15899291279E+02 -0.89962648535E+02 -0.14327284752E+01  0.91488842519E+02  0.47000000000E+01 0.  1.
          5    1    4    4  503    0  0.54972008801E+02 -0.25328803146E+02 -0.31670196358E+01  0.60791364796E+02  0.47000000000E+01 0. -1.
         -5    1    4    4    0  503 -0.16593672775E+02  0.78409320029E+02 -0.11557351448E+02  0.81111243463E+02  0.47000000000E+01 0. -1.
<mgrwt>
<rscale>  0 0.14113321E+03</rscale>
<asrwt>0</asrwt>
<pdfrwt beam="2">  1        5 0.20977435E-01 0.14113661E+03</pdfrwt>
<pdfrwt beam="1">  1       -5 0.22980575E-01 0.14113661E+03</pdfrwt>
<totfact> 0.27727683E+02</totfact>
</mgrwt>
</event>
<event>
 8    1  0.1821556E-007  0.1317748E+03  0.7546771E-02  0.1224848E+00
         -5   -1    0    0    0  501 -0.00000000000E+00  0.00000000000E+00  0.15742916247E+03  0.15749930538E+03  0.47000000000E+01 0.  1.
          5   -1    0    0  501    0  0.00000000000E+00 -0.00000000000E+00 -0.11075717335E+03  0.11085685115E+03  0.47000000000E+01 0.  1.
         25    2    1    2    0    0 -0.27157297837E+02  0.31581633655E+02  0.13423365868E+02  0.13245669226E+03  0.12501867926E+03 0.  0.
         25    2    1    2    0    0  0.27157297837E+02 -0.31581633655E+02  0.33248623256E+02  0.13589946428E+03  0.12501309944E+03 0.  0.
          5    1    4    4  502    0  0.50484152500E+02 -0.61771282410E+02  0.49675855773E+02  0.94096342283E+02  0.47000000000E+01 0. -1.
         -5    1    4    4    0  502 -0.23326854663E+02  0.30189648754E+02 -0.16427232517E+02  0.41803121995E+02  0.47000000000E+01 0. -1.
          5    1    3    3  503    0  0.12416160480E+02 -0.43406544247E+02  0.14110666304E+02  0.47534093324E+02  0.47000000000E+01 0. -1.
         -5    1    3    3    0  503 -0.39573458317E+02  0.74988177903E+02 -0.68730043636E+00  0.84922598937E+02  0.47000000000E+01 0. -1.
<mgrwt>
<rscale>  0 0.13177344E+03</rscale>
<asrwt>0</asrwt>
<pdfrwt beam="2">  1        5 0.17052628E-01 0.13177476E+03</pdfrwt>
<pdfrwt beam="1">  1       -5 0.24232934E-01 0.13177476E+03</pdfrwt>
<totfact> 0.35941875E+02</totfact>
</mgrwt>
</event>
<event>
 8    1  0.1821556E-007  0.1457414E+03  0.7546771E-02  0.1205806E+00
          5   -1    0    0  501    0  0.00000000000E+00  0.00000000000E+00  0.18380983059E+03  0.18386991005E+03  0.47000000000E+01 0.  1.
         -5   -1    0    0    0  501 -0.00000000000E+00 -0.00000000000E+00 -0.12240818436E+03  0.12249838202E+03  0.47000000000E+01 0.  1.
         25    2    1    2    0    0  0.29844609431E+02 -0.68732800328E+02 -0.58530689575E+01  0.14585741361E+03  0.12500091254E+03 0.  0.
         25    2    1    2    0    0 -0.29844609431E+02  0.68732800328E+02  0.67254715190E+02  0.16051087847E+03  0.12500258732E+03 0.  0.
          5    1    3    3  502    0  0.76973947841E+02 -0.39872676436E+02 -0.18970990323E+02  0.88863982840E+02  0.47000000000E+01 0. -1.
         -5    1    3    3    0  502 -0.47129338410E+02 -0.28860123891E+02  0.13117921366E+02  0.56993430770E+02  0.47000000000E+01 0. -1.
          5    1    4    4  503    0 -0.23395410420E+01 -0.35292557106E+02  0.29777314620E+02  0.46473826024E+02  0.47000000000E+01 0. -1.
         -5    1    4    4    0  503 -0.27505068389E+02  0.10402535743E+03  0.37477400570E+02  0.11403705244E+03  0.47000000000E+01 0. -1.
<mgrwt>
<rscale>  0 0.14574101E+03</rscale>
<asrwt>0</asrwt>
<pdfrwt beam="1">  1        5 0.28289995E-01 0.14574136E+03</pdfrwt>
<pdfrwt beam="2">  1       -5 0.18843588E-01 0.14574136E+03</pdfrwt>
<totfact> 0.22962628E+02</totfact>
</mgrwt>
</event>
<event>
 8    1  0.1821556E-007  0.1316560E+03  0.7546771E-02  0.1225019E+00
         -5   -1    0    0    0  501 -0.00000000000E+00  0.00000000000E+00  0.36045471524E+03  0.36048535579E+03  0.47000000000E+01 0.  1.
          5   -1    0    0  501    0  0.00000000000E+00 -0.00000000000E+00 -0.48292765854E+02  0.48520936036E+02  0.47000000000E+01 0.  1.
         25    2    1    2    0    0  0.41014678378E+02  0.52006879041E+01  0.17352875760E+03  0.21781930290E+03  0.12499507191E+03 0.  0.
         25    2    1    2    0    0 -0.41014678378E+02 -0.52006879041E+01  0.13863319179E+03  0.19118698893E+03  0.12499620744E+03 0.  0.
          5    1    4    4  502    0 -0.60928625191E+02  0.24292197872E+02  0.22295779396E+02  0.69437742071E+02  0.47000000000E+01 0. -1.
         -5    1    4    4    0  502  0.19913946813E+02 -0.29492885776E+02  0.11633741240E+03  0.12174924686E+03  0.47000000000E+01 0. -1.
          5    1    3    3  503    0  0.13883580949E+02 -0.58595443134E+02  0.98610703464E+02  0.11563883696E+03  0.47000000000E+01 0. -1.
         -5    1    3    3    0  503  0.27131097429E+02  0.63796131038E+02  0.74918054136E+02  0.10218046593E+03  0.47000000000E+01 0. -1.
<mgrwt>
<rscale>  0 0.13165573E+03</rscale>
<asrwt>0</asrwt>
<pdfrwt beam="2">  1        5 0.74495646E-02 0.13165600E+03</pdfrwt>
<pdfrwt beam="1">  1       -5 0.55474482E-01 0.13165600E+03</pdfrwt>
<totfact> 0.29015325E+02</totfact>
</mgrwt>
</event>
<event>
 8    1  0.1821556E-007  0.1375646E+03  0.7546771E-02  0.1216655E+00
         -5   -1    0    0    0  501 -0.00000000000E+00  0.00000000000E+00  0.17125626835E+03  0.17132075020E+03  0.47000000000E+01 0.  1.
          5   -1    0    0  501    0  0.00000000000E+00 -0.00000000000E+00 -0.15824228682E+03  0.15831206946E+03  0.47000000000E+01 0.  1.
         25    2    1    2    0    0  0.50137004920E+02  0.27888485207E+02  0.97144719819E+02  0.16840757946E+03  0.12503011381E+03 0.  0.
         25    2    1    2    0    0 -0.50137004920E+02 -0.27888485207E+02 -0.84130738286E+02  0.16122524020E+03  0.12499644029E+03 0.  0.
          5    1    3    3  502    0  0.77194672649E+02  0.26879321622E+01  0.15871757923E+02  0.78995222414E+02  0.47000000000E+01 0.  1.
         -5    1    3    3    0  502 -0.27057667729E+02  0.25200553045E+02  0.81272961896E+02  0.89412357043E+02  0.47000000000E+01 0.  1.
          5    1    4    4  503    0  0.15335813542E+02  0.58048716208E+01  0.24532125664E+02  0.29879740647E+02  0.47000000000E+01 0.  1.
         -5    1    4    4    0  503 -0.65472818462E+02 -0.33693356828E+02 -0.10866286395E+03  0.13134549956E+03  0.47000000000E+01 0.  1.
<mgrwt>
<rscale>  0 0.13755694E+03</rscale>
<asrwt>0</asrwt>
<pdfrwt beam="2">  1        5 0.24355295E-01 0.13756459E+03</pdfrwt>
<pdfrwt beam="1">  1       -5 0.26357446E-01 0.13756459E+03</pdfrwt>
<totfact> 0.15941088E+02</totfact>
</mgrwt>
</event>
<event>
 8    1  0.1821556E-007  0.1523156E+03  0.7546771E-02  0.1197657E+00
         -5   -1    0    0    0  501 -0.00000000000E+00  0.00000000000E+00  0.83530494615E+03  0.83531816876E+03  0.47000000000E+01 0.  1.
          5   -1    0    0  501    0  0.00000000000E+00 -0.00000000000E+00 -0.28294774889E+02  0.28682473499E+02  0.47000000000E+01 0.  1.
         25    2    1    2    0    0 -0.72435044360E+02  0.48253321105E+02  0.47255785484E+03  0.49649770816E+03  0.12499531747E+03 0.  0.
         25    2    1    2    0    0  0.72435044360E+02 -0.48253321105E+02  0.33445231642E+03  0.36750293410E+03  0.12499934384E+03 0.  0.
          5    1    3    3  502    0 -0.49111727464E+02  0.20711856328E+02  0.45107047004E+03  0.45423298175E+03  0.47000000000E+01 0.  1.
         -5    1    3    3    0  502 -0.23323316896E+02  0.27541464778E+02  0.21487384798E+02  0.42264726411E+02  0.47000000000E+01 0.  1.
          5    1    4    4  503    0 -0.95699512112E+01 -0.31473638583E+01 -0.71917566760E+01  0.13240137066E+02  0.47000000000E+01 0. -1.
         -5    1    4    4    0  503  0.82004995571E+02 -0.45105957247E+02  0.34164407310E+03  0.35426279703E+03  0.47000000000E+01 0. -1.
<mgrwt>
<rscale>  0 0.15231482E+03</rscale>
<asrwt>0</asrwt>
<pdfrwt beam="2">  1        5 0.43838823E-02 0.15231564E+03</pdfrwt>
<pdfrwt beam="1">  1       -5 0.12853930E+00 0.15231564E+03</pdfrwt>
<totfact> 0.10240344E+02</totfact>
</mgrwt>
</event>
<event>
 8    1  0.1821556E-007  0.1432200E+03  0.7546771E-02  0.1209062E+00
         -5   -1    0    0    0  501 -0.00000000000E+00  0.00000000000E+00  0.26431320851E+02  0.26845944236E+02  0.47000000000E+01 0. -1.
          5   -1    0    0  501    0  0.00000000000E+00 -0.00000000000E+00 -0.77119780809E+03  0.77121212983E+03  0.47000000000E+01 0. -1.
         25    2    1    2    0    0 -0.10126900959E+02  0.69169923684E+02 -0.35405826014E+03  0.38192723082E+03  0.12499650236E+03 0.  0.
         25    2    1    2    0    0  0.10126900959E+02 -0.69169923684E+02 -0.39070822709E+03  0.41613084325E+03  0.12499971007E+03 0.  0.
          5    1    4    4  502    0 -0.14629998747E+02 -0.49518245135E+02 -0.44138741161E+02  0.68091203072E+02  0.47000000000E+01 0.  1.
         -5    1    4    4    0  502  0.24756899705E+02 -0.19651678549E+02 -0.34656948593E+03  0.34803964017E+03  0.47000000000E+01 0.  1.
          5    1    3    3  503    0  0.10875598109E+02  0.78866437170E+02 -0.34872324366E+03  0.35772640972E+03  0.47000000000E+01 0.  1.
         -5    1    3    3    0  503 -0.21002499067E+02 -0.96965134855E+01 -0.53350164838E+01  0.24200821096E+02  0.47000000000E+01 0.  1.
<mgrwt>
<rscale>  0 0.14321927E+03</rscale>
<asrwt>0</asrwt>
<pdfrwt beam="2">  1        5 0.11867880E+00 0.14321997E+03</pdfrwt>
<pdfrwt beam="1">  1       -5 0.40993534E-02 0.14321997E+03</pdfrwt>
<totfact> 0.13780894E+02</totfact>
</mgrwt>
</event>
<event>
 8    1  0.1821556E-007  0.1503825E+03  0.7546771E-02  0.1200008E+00
          5   -1    0    0  501    0  0.00000000000E+00  0.00000000000E+00  0.27885188343E+03  0.27889148946E+03  0.47000000000E+01 0. -1.
         -5   -1    0    0    0  501 -0.00000000000E+00 -0.00000000000E+00 -0.10091843684E+03  0.10102782238E+03  0.47000000000E+01 0. -1.
         25    2    1    2    0    0 -0.79982252140E+02  0.24340673739E+02  0.46025264817E+01  0.15045287425E+03  0.12500102025E+03 0.  0.
         25    2    1    2    0    0  0.79982252140E+02 -0.24340673739E+02  0.17333092011E+03  0.22946643758E+03  0.12498643549E+03 0.  0.
          5    1    4    4  502    0  0.80567667227E+02 -0.24230465539E+02  0.19228046791E+03  0.20993363905E+03  0.47000000000E+01 0. -1.
         -5    1    4    4    0  502 -0.58541508776E+00 -0.11020819983E+00 -0.18949547806E+02  0.19532798538E+02  0.47000000000E+01 0. -1.
          5    1    3    3  503    0 -0.11211945214E+03  0.47116312036E+01  0.60043864003E+01  0.11247716957E+03  0.47000000000E+01 0.  1.
         -5    1    3    3    0  503  0.32137200004E+02  0.19629042535E+02 -0.14018599186E+01  0.37975704683E+02  0.47000000000E+01 0.  1.
<mgrwt>
<rscale>  0 0.15037943E+03</rscale>
<asrwt>0</asrwt>
<pdfrwt beam="1">  1        5 0.42911750E-01 0.15038246E+03</pdfrwt>
<pdfrwt beam="2">  1       -5 0.15537375E-01 0.15038246E+03</pdfrwt>
<totfact> 0.14327508E+02</totfact>
</mgrwt>
</event>
<event>
 8    1  0.1821556E-007  0.1315930E+03  0.7546771E-02  0.1225114E+00
          5   -1    0    0  501    0  0.00000000000E+00  0.00000000000E+00  0.22952832280E+02  0.23429095366E+02  0.47000000000E+01 0.  1.
         -5   -1    0    0    0  501 -0.00000000000E+00 -0.00000000000E+00 -0.75377366661E+03  0.75378831941E+03  0.47000000000E+01 0.  1.
         25    2    1    2    0    0  0.38568112870E+02 -0.14214257213E+02 -0.40442351791E+03  0.42529412025E+03  0.12500864949E+03 0.  0.
         25    2    1    2    0    0 -0.38568112870E+02  0.14214257213E+02 -0.32639731642E+03  0.35192329452E+03  0.12500101047E+03 0.  0.
          5    1    3    3  502    0  0.43723077184E+01 -0.44685513064E+02 -0.47942586547E+02  0.65852059629E+02  0.47000000000E+01 0. -1.
         -5    1    3    3    0  502  0.34195805151E+02  0.30471255851E+02 -0.35648093136E+03  0.35944206063E+03  0.47000000000E+01 0. -1.
          5    1    4    4  503    0 -0.26038454083E+02 -0.53013524902E+02 -0.11018137169E+03  0.12510179688E+03  0.47000000000E+01 0.  1.
         -5    1    4    4    0  503 -0.12529658786E+02  0.67227782115E+02 -0.21621594473E+03  0.22682149764E+03  0.47000000000E+01 0.  1.
<mgrwt>
<rscale>  0 0.13159114E+03</rscale>
<asrwt>0</asrwt>
<pdfrwt beam="1">  1        5 0.35689683E-02 0.13159296E+03</pdfrwt>
<pdfrwt beam="2">  1       -5 0.11600292E+00 0.13159296E+03</pdfrwt>
<totfact> 0.17812969E+02</totfact>
</mgrwt>
</event>
<event>
 8    1  0.1821556E-007  0.1463188E+03  0.7546771E-02  0.1205071E+00
         -5   -1    0    0    0  501 -0.00000000000E+00  0.00000000000E+00  0.51214548503E+03  0.51216705071E+03  0.47000000000E+01 0.  1.
          5   -1    0    0  501    0  0.00000000000E+00 -0.00000000000E+00 -0.58764644057E+02  0.58952297590E+02  0.47000000000E+01 0.  1.
         25    2    1    2    0    0  0.37293459922E+02  0.66286640871E+02  0.38048356202E+03  0.40764804642E+03  0.12499787147E+03 0.  0.
         25    2    1    2    0    0 -0.37293459922E+02 -0.66286640871E+02  0.72897278955E+02  0.16347130188E+03  0.12499652935E+03 0.  0.
          5    1    3    3  502    0  0.21953532121E+02 -0.33240083352E+02  0.64332692237E+02  0.75813231063E+02  0.47000000000E+01 0. -1.
         -5    1    3    3    0  502  0.15339927801E+02  0.99526724222E+02  0.31615086978E+03  0.33183481535E+03  0.47000000000E+01 0. -1.
          5    1    4    4  503    0 -0.20251480146E+02 -0.31876678260E+02 -0.33223812423E+02  0.50518875452E+02  0.47000000000E+01 0. -1.
         -5    1    4    4    0  503 -0.17041979776E+02 -0.34409962610E+02  0.10612109138E+03  0.11295242643E+03  0.47000000000E+01 0. -1.
<mgrwt>
<rscale>  0 0.14631850E+03</rscale>
<asrwt>0</asrwt>
<pdfrwt beam="2">  1        5 0.90568082E-02 0.14631879E+03</pdfrwt>
<pdfrwt beam="1">  1       -5 0.78807707E-01 0.14631879E+03</pdfrwt>
<totfact> 0.98173190E+01</totfact>
</mgrwt>
</event>
<event>
 8    1  0.1821556E-007  0.1351306E+03  0.7546771E-02  0.1220036E+00
          5   -1    0    0  501    0  0.00000000000E+00  0.00000000000E+00  0.77384758853E+03  0.77386186123E+03  0.47000000000E+01 0.  1.
         -5   -1    0    0    0  501 -0.00000000000E+00 -0.00000000000E+00 -0.24370572303E+02  0.24819645331E+02  0.47000000000E+01 0.  1.
         25    2    1    2    0    0  0.28637448561E+02 -0.42602893559E+02  0.29370917421E+03  0.32330313221E+03  0.12499890513E+03 0.  0.
         25    2    1    2    0    0 -0.28637448561E+02  0.42602893559E+02  0.45576784202E+03  0.47537837435E+03  0.12500065194E+03 0.  0.
          5    1    3    3  502    0 -0.46106523817E+02 -0.21388540179E+02  0.16670107775E+03  0.17434053032E+03  0.47000000000E+01 0.  1.
         -5    1    3    3    0  502  0.74743972378E+02 -0.21214353379E+02  0.12700809646E+03  0.14896260189E+03  0.47000000000E+01 0.  1.
          5    1    4    4  503    0  0.20984813685E+02  0.55459345469E+02  0.10354736385E+03  0.11941628015E+03  0.47000000000E+01 0. -1.
         -5    1    4    4    0  503 -0.49622262246E+02 -0.12856451910E+02  0.35222047817E+03  0.35596209420E+03  0.47000000000E+01 0. -1.
<mgrwt>
<rscale>  0 0.13513017E+03</rscale>
<asrwt>0</asrwt>
<pdfrwt beam="1">  1        5 0.11908911E+00 0.13513058E+03</pdfrwt>
<pdfrwt beam="2">  1       -5 0.37849610E-02 0.13513058E+03</pdfrwt>
<totfact> 0.15281326E+02</totfact>
</mgrwt>
</event>
<event>
 8    1  0.1821556E-007  0.1355361E+03  0.7546771E-02  0.1219467E+00
         -5   -1    0    0    0  501 -0.00000000000E+00  0.00000000000E+00  0.14472319079E+03  0.14479948878E+03  0.47000000000E+01 0.  1.
          5   -1    0    0  501    0  0.00000000000E+00 -0.00000000000E+00 -0.13512257944E+03  0.13520429533E+03  0.47000000000E+01 0.  1.
         25    2    1    2    0    0 -0.40524866755E+02 -0.33204610101E+02  0.39582905821E+02  0.14119101746E+03  0.12499314390E+03 0.  0.
         25    2    1    2    0    0  0.40524866755E+02  0.33204610101E+02 -0.29982294476E+02  0.13881276665E+03  0.12500094098E+03 0.  0.
          5    1    3    3  502    0 -0.48670328435E+02  0.30789471848E+02 -0.11320587718E+02  0.58881560382E+02  0.47000000000E+01 0.  1.
         -5    1    3    3    0  502  0.81454616806E+01 -0.63994081950E+02  0.50903493539E+02  0.82309457081E+02  0.47000000000E+01 0.  1.
          5    1    4    4  503    0 -0.31199599111E+02 -0.11648537678E+02  0.21267674128E+02  0.39793308200E+02  0.47000000000E+01 0. -1.
         -5    1    4    4    0  503  0.71724465865E+02  0.44853147779E+02 -0.51249968604E+02  0.99019458448E+02  0.47000000000E+01 0. -1.
<mgrwt>
<rscale>  0 0.13553435E+03</rscale>
<asrwt>0</asrwt>
<pdfrwt beam="2">  1        5 0.20800244E-01 0.13553614E+03</pdfrwt>
<pdfrwt beam="1">  1       -5 0.22277261E-01 0.13553614E+03</pdfrwt>
<totfact> 0.29469867E+02</totfact>
</mgrwt>
</event>
<event>
 8    1  0.1821556E-007  0.1659136E+03  0.7546771E-02  0.1182179E+00
          5   -1    0    0  501    0  0.00000000000E+00  0.00000000000E+00  0.81007672337E+02  0.81143902898E+02  0.47000000000E+01 0.  1.
         -5   -1    0    0    0  501 -0.00000000000E+00 -0.00000000000E+00 -0.34566378932E+03  0.34569574085E+03  0.47000000000E+01 0.  1.
         25    2    1    2    0    0  0.10673105391E+03 -0.22610676293E+02 -0.10352182036E+03  0.19555715707E+03  0.12499229513E+03 0.  0.
         25    2    1    2    0    0 -0.10673105391E+03  0.22610676293E+02 -0.16113429662E+03  0.23128248668E+03  0.12499826617E+03 0.  0.
          5    1    3    3  502    0  0.56202073045E+02  0.32967822934E+02 -0.10096045098E+03  0.12025245538E+03  0.47000000000E+01 0.  1.
         -5    1    3    3    0  502  0.50528980864E+02 -0.55578499228E+02 -0.25613693749E+01  0.75304701690E+02  0.47000000000E+01 0.  1.
          5    1    4    4  503    0 -0.10226470426E+03  0.63403905885E+02 -0.14071680711E+03  0.18520646539E+03  0.47000000000E+01 0. -1.
         -5    1    4    4    0  503 -0.44663496501E+01 -0.40793229592E+02 -0.20417489512E+02  0.46076021287E+02  0.47000000000E+01 0. -1.
<mgrwt>
<rscale>  0 0.16591249E+03</rscale>
<asrwt>0</asrwt>
<pdfrwt beam="1">  1        5 0.12475656E-01 0.16591361E+03</pdfrwt>
<pdfrwt beam="2">  1       -5 0.53191981E-01 0.16591361E+03</pdfrwt>
<totfact> 0.13949069E+02</totfact>
</mgrwt>
</event>
<event>
 8    1  0.1821556E-007  0.1610213E+03  0.7546771E-02  0.1187549E+00
         -5   -1    0    0    0  501 -0.00000000000E+00  0.00000000000E+00  0.43879818695E+03  0.43882335725E+03  0.47000000000E+01 0.  1.
          5   -1    0    0  501    0  0.00000000000E+00 -0.00000000000E+00 -0.59507795223E+02  0.59693112603E+02  0.47000000000E+01 0.  1.
         25    2    1    2    0    0 -0.12994734782E+02 -0.10066893639E+03  0.21335494433E+03  0.26729793218E+03  0.12499901757E+03 0.  0.
         25    2    1    2    0    0  0.12994734782E+02  0.10066893639E+03  0.16593544740E+03  0.23121853767E+03  0.12499736627E+03 0.  0.
          5    1    4    4  502    0 -0.21257083848E+02  0.11513627043E+03  0.94443583351E+02  0.15049885322E+03  0.47000000000E+01 0. -1.
         -5    1    4    4    0  502  0.34251818630E+02 -0.14467334045E+02  0.71491864048E+02  0.80719684457E+02  0.47000000000E+01 0. -1.
          5    1    3    3  503    0 -0.56650835264E+02 -0.93902278239E+02  0.11294184380E+03  0.15749573034E+03  0.47000000000E+01 0. -1.
         -5    1    3    3    0  503  0.43656100481E+02 -0.67666581491E+01  0.10041310053E+03  0.10980220184E+03  0.47000000000E+01 0. -1.
<mgrwt>
<rscale>  0 0.16102096E+03</rscale>
<asrwt>0</asrwt>
<pdfrwt beam="2">  1        5 0.91712369E-02 0.16102128E+03</pdfrwt>
<pdfrwt beam="1">  1       -5 0.67523604E-01 0.16102128E+03</pdfrwt>
<totfact> 0.14073530E+02</totfact>
</mgrwt>
</event>
<event>
 8    1  0.1821556E-007  0.1348418E+03  0.7546771E-02  0.1220445E+00
         -5   -1    0    0    0  501 -0.00000000000E+00  0.00000000000E+00  0.10387227425E+02  0.11401074229E+02  0.47000000000E+01 0. -1.
          5   -1    0    0  501    0  0.00000000000E+00 -0.00000000000E+00 -0.17583498132E+04  0.17583560947E+04  0.47000000000E+01 0. -1.
         25    2    1    2    0    0 -0.29210185729E+02  0.41270436311E+02 -0.67337423435E+03  0.68674244266E+03  0.12500335677E+03 0.  0.
         25    2    1    2    0    0  0.29210185729E+02 -0.41270436311E+02 -0.10745883514E+04  0.10830147262E+04  0.12499715321E+03 0.  0.
          5    1    4    4  502    0  0.42585818742E+02 -0.17530109774E+02 -0.10264993790E+04  0.10275426618E+04  0.47000000000E+01 0.  1.
         -5    1    4    4    0  502 -0.13375633014E+02 -0.23740326537E+02 -0.48088972426E+02  0.55472064426E+02  0.47000000000E+01 0.  1.
          5    1    3    3  503    0 -0.30604960449E+02  0.76817422840E+02 -0.59255515317E+03  0.59831536802E+03  0.47000000000E+01 0.  1.
         -5    1    3    3    0  503  0.13947747208E+01 -0.35546986529E+02 -0.80819081178E+02  0.88427074645E+02  0.47000000000E+01 0.  1.
<mgrwt>
<rscale>  0 0.13484041E+03</rscale>
<asrwt>0</asrwt>
<pdfrwt beam="2">  1        5 0.27059360E+00 0.13484184E+03</pdfrwt>
<pdfrwt beam="1">  1       -5 0.16765078E-02 0.13484184E+03</pdfrwt>
<totfact> 0.46812108E+01</totfact>
</mgrwt>
</event>
<event>
 8    1  0.1821556E-007  0.1386895E+03  0.7546771E-02  0.1215103E+00
          5   -1    0    0  501    0  0.00000000000E+00  0.00000000000E+00  0.12903503403E+03  0.12912060257E+03  0.47000000000E+01 0. -1.
         -5   -1    0    0    0  501 -0.00000000000E+00 -0.00000000000E+00 -0.15331277993E+03  0.15338480528E+03  0.47000000000E+01 0. -1.
         25    2    1    2    0    0  0.71951138233E+01  0.59651869206E+02 -0.36106724012E+02  0.14331250189E+03  0.12499865006E+03 0.  0.
         25    2    1    2    0    0 -0.71951138233E+01 -0.59651869206E+02  0.11828978109E+02  0.13919290596E+03  0.12499850073E+03 0.  0.
          5    1    3    3  502    0  0.44714075849E+01 -0.34534218859E+02  0.12359879338E+02  0.37248656019E+02  0.47000000000E+01 0.  1.
         -5    1    3    3    0  502  0.27237062384E+01  0.94186088065E+02 -0.48466603350E+02  0.10606384587E+03  0.47000000000E+01 0.  1.
          5    1    4    4  503    0  0.35039911214E+02 -0.22443681615E+02  0.54265510528E+02  0.68544510030E+02  0.47000000000E+01 0.  1.
         -5    1    4    4    0  503 -0.42235025037E+02 -0.37208187591E+02 -0.42436532419E+02  0.70648395930E+02  0.47000000000E+01 0.  1.
<mgrwt>
<rscale>  0 0.13868947E+03</rscale>
<asrwt>0</asrwt>
<pdfrwt beam="1">  1        5 0.19863666E-01 0.13868950E+03</pdfrwt>
<pdfrwt beam="2">  1       -5 0.23598704E-01 0.13868950E+03</pdfrwt>
<totfact> 0.29024204E+02</totfact>
</mgrwt>
</event>
<event>
 8    1  0.1821556E-007  0.1339400E+03  0.7546771E-02  0.1221725E+00
         -5   -1    0    0    0  501 -0.00000000000E+00  0.00000000000E+00  0.29497936052E+03  0.29501680144E+03  0.47000000000E+01 0.  1.
          5   -1    0    0  501    0  0.00000000000E+00 -0.00000000000E+00 -0.65861107612E+02  0.66028596047E+02  0.47000000000E+01 0.  1.
         25    2    1    2    0    0  0.46808298449E+02  0.11090875257E+02  0.16508908754E+03  0.21258776078E+03  0.12500049956E+03 0.  0.
         25    2    1    2    0    0 -0.46808298449E+02 -0.11090875257E+02  0.64029165369E+02  0.14845763671E+03  0.12500364620E+03 0.  0.
          5    1    4    4  502    0 -0.54528058254E+01  0.28657584108E+02 -0.27482232457E+02  0.40352860110E+02  0.47000000000E+01 0.  1.
         -5    1    4    4    0  502 -0.41355492624E+02 -0.39748459365E+02  0.91511397826E+02  0.10810477660E+03  0.47000000000E+01 0.  1.
          5    1    3    3  503    0  0.27261639002E+02 -0.14946068731E+02 -0.11107051378E+02  0.33347241593E+02  0.47000000000E+01 0.  1.
         -5    1    3    3    0  503  0.19546659447E+02  0.26036943988E+02  0.17619613892E+03  0.17924051918E+03  0.47000000000E+01 0.  1.
<mgrwt>
<rscale>  0 0.13393931E+03</rscale>
<asrwt>0</asrwt>
<pdfrwt beam="2">  1        5 0.10148242E-01 0.13394005E+03</pdfrwt>
<pdfrwt beam="1">  1       -5 0.45397203E-01 0.13394005E+03</pdfrwt>
<totfact> 0.26194966E+02</totfact>
</mgrwt>
</event>
<event>
 8    1  0.1821556E-007  0.1253957E+03  0.7546771E-02  0.1234461E+00
         -5   -1    0    0    0  501 -0.00000000000E+00  0.00000000000E+00  0.69696116910E+03  0.69697701629E+03  0.47000000000E+01 0. -1.
          5   -1    0    0  501    0  0.00000000000E+00 -0.00000000000E+00 -0.22660998698E+02  0.23143268179E+02  0.47000000000E+01 0. -1.
         25    2    1    2    0    0 -0.83791244419E+01  0.47847956868E+01  0.38232915833E+03  0.40236071314E+03  0.12500181667E+03 0.  0.
         25    2    1    2    0    0  0.83791244419E+01 -0.47847956868E+01  0.29197101208E+03  0.31775957133E+03  0.12502387486E+03 0.  0.
          5    1    3    3  502    0  0.24801297042E+02  0.40329236889E+02  0.31823684768E+03  0.32177372936E+03  0.47000000000E+01 0. -1.
         -5    1    3    3    0  502 -0.33180421484E+02 -0.35544441202E+02  0.64092310652E+02  0.80586983781E+02  0.47000000000E+01 0. -1.
          5    1    4    4  503    0  0.32945596856E+02  0.49041445598E+02  0.94372822104E+02  0.11143964865E+03  0.47000000000E+01 0.  1.
         -5    1    4    4    0  503 -0.24566472414E+02 -0.53826241285E+02  0.19759818997E+03  0.20631992269E+03  0.47000000000E+01 0.  1.
<mgrwt>
<rscale>  0 0.12539017E+03</rscale>
<asrwt>0</asrwt>
<pdfrwt beam="2">  1        5 0.35246246E-02 0.12539567E+03</pdfrwt>
<pdfrwt beam="1">  1       -5 0.10726310E+00 0.12539567E+03</pdfrwt>
<totfact> 0.21723965E+02</totfact>
</mgrwt>
</event>
<event>
 8    1  0.1821556E-007  0.1325551E+03  0.7546771E-02  0.1223720E+00
         -5   -1    0    0    0  501 -0.00000000000E+00  0.00000000000E+00  0.31673801595E+02  0.32020613790E+02  0.47000000000E+01 0.  1.
          5   -1    0    0  501    0  0.00000000000E+00 -0.00000000000E+00 -0.55432471016E+03  0.55434463494E+03  0.47000000000E+01 0.  1.
         25    2    1    2    0    0 -0.88909409741E+01  0.43164211610E+02 -0.23962815794E+03  0.27384760870E+03  0.12501464201E+03 0.  0.
         25    2    1    2    0    0  0.88909409741E+01 -0.43164211610E+02 -0.28302275062E+03  0.31251764003E+03  0.12499279966E+03 0.  0.
          5    1    3    3  502    0  0.39298823257E+02 -0.16877345991E+02 -0.36001661910E+02  0.56102156619E+02  0.47000000000E+01 0. -1.
         -5    1    3    3    0  502 -0.48189764231E+02  0.60041557602E+02 -0.20362649603E+03  0.21774545208E+03  0.47000000000E+01 0. -1.
          5    1    4    4  503    0 -0.68659307060E+00 -0.34107453514E+02 -0.57756710779E+01  0.34917591149E+02  0.47000000000E+01 0. -1.
         -5    1    4    4    0  503  0.95775340446E+01 -0.90567580961E+01 -0.27724707954E+03  0.27760004888E+03  0.47000000000E+01 0. -1.
<mgrwt>
<rscale>  0 0.13254997E+03</rscale>
<asrwt>0</asrwt>
<pdfrwt beam="2">  1        5 0.85308928E-01 0.13255512E+03</pdfrwt>
<pdfrwt beam="1">  1       -5 0.49011035E-02 0.13255512E+03</pdfrwt>
<totfact> 0.22366965E+02</totfact>
</mgrwt>
</event>
<event>
 8    1  0.1821556E-007  0.1411162E+03  0.7546771E-02  0.1211846E+00
          5   -1    0    0  501    0  0.00000000000E+00  0.00000000000E+00  0.62781540073E+03  0.62783299323E+03  0.47000000000E+01 0. -1.
         -5   -1    0    0    0  501 -0.00000000000E+00 -0.00000000000E+00 -0.45760748796E+02  0.46001479654E+02  0.47000000000E+01 0. -1.
         25    2    1    2    0    0  0.31309305175E+02  0.57436698458E+02  0.10373464154E+03  0.17514182113E+03  0.12503813311E+03 0.  0.
         25    2    1    2    0    0 -0.31309305175E+02 -0.57436698458E+02  0.47832001039E+03  0.49869265176E+03  0.12500032662E+03 0.  0.
          5    1    4    4  502    0  0.15257121991E+02  0.29077179253E+02  0.56160236589E+02  0.65225181475E+02  0.47000000000E+01 0.  1.
         -5    1    4    4    0  502 -0.46566427166E+02 -0.86513877711E+02  0.42215977380E+03  0.43346747028E+03  0.47000000000E+01 0.  1.
          5    1    3    3  503    0 -0.17032226129E+02  0.47978172978E+02  0.11369976664E+03  0.12466647000E+03  0.47000000000E+01 0. -1.
         -5    1    3    3    0  503  0.48341531304E+02  0.94585254803E+01 -0.99651250991E+01  0.50475351126E+02  0.47000000000E+01 0. -1.
<mgrwt>
<rscale>  0 0.14110782E+03</rscale>
<asrwt>0</asrwt>
<pdfrwt beam="1">  1        5 0.96606850E-01 0.14111620E+03</pdfrwt>
<pdfrwt beam="2">  1       -5 0.70599866E-02 0.14111620E+03</pdfrwt>
<totfact> 0.92055337E+01</totfact>
</mgrwt>
</event>
<event>
 8    1  0.1821556E-007  0.1359336E+03  0.7546771E-02  0.1218912E+00
          5   -1    0    0  501    0  0.00000000000E+00  0.00000000000E+00  0.63044569639E+02  0.63219520411E+02  0.47000000000E+01 0. -1.
         -5   -1    0    0    0  501 -0.00000000000E+00 -0.00000000000E+00 -0.29706465141E+03  0.29710182954E+03  0.47000000000E+01 0. -1.
         25    2    1    2    0    0  0.15617475619E+02 -0.51046428860E+02 -0.13941086227E+03  0.19470480680E+03  0.12499971931E+03 0.  0.
         25    2    1    2    0    0 -0.15617475619E+02  0.51046428860E+02 -0.94609219502E+02  0.16561654315E+03  0.12501316534E+03 0.  0.
          5    1    3    3  502    0  0.64292384865E+02 -0.53007927819E+02 -0.65654837171E+02  0.10618850600E+03  0.47000000000E+01 0. -1.
         -5    1    3    3    0  502 -0.48674909246E+02  0.19614989599E+01 -0.73756025099E+02  0.88516300797E+02  0.47000000000E+01 0. -1.
          5    1    4    4  503    0 -0.24859361227E+02  0.22500171277E+02 -0.12083542321E+03  0.12548918300E+03  0.47000000000E+01 0.  1.
         -5    1    4    4    0  503  0.92418856081E+01  0.28546257582E+02  0.26226203710E+02  0.40127360150E+02  0.47000000000E+01 0.  1.
<mgrwt>
<rscale>  0 0.13593048E+03</rscale>
<asrwt>0</asrwt>
<pdfrwt beam="1">  1        5 0.97154823E-02 0.13593357E+03</pdfrwt>
<pdfrwt beam="2">  1       -5 0.45718571E-01 0.13593357E+03</pdfrwt>
<totfact> 0.27990675E+02</totfact>
</mgrwt>
</event>
<event>
 8    1  0.1821556E-007  0.1542581E+03  0.7546771E-02  0.1195343E+00
          5   -1    0    0  501    0  0.00000000000E+00  0.00000000000E+00  0.62005199710E+03  0.62006980986E+03  0.47000000000E+01 0. -1.
         -5   -1    0    0    0  501 -0.00000000000E+00 -0.00000000000E+00 -0.44203473591E+02  0.44452638589E+02  0.47000000000E+01 0. -1.
         25    2    1    2    0    0  0.61838082385E+02 -0.65936336454E+02  0.16597702451E+03  0.22659198060E+03  0.12499601637E+03 0.  0.
         25    2    1    2    0    0 -0.61838082385E+02  0.65936336454E+02  0.40987149899E+03  0.43793046785E+03  0.12496759616E+03 0.  0.
          5    1    3    3  502    0  0.20484585740E+02  0.28966562624E+01  0.14067957726E+03  0.14227031429E+03  0.47000000000E+01 0. -1.
         -5    1    3    3    0  502  0.41353496645E+02 -0.68832992716E+02  0.25297447250E+02  0.84321666305E+02  0.47000000000E+01 0. -1.
          5    1    4    4  503    0 -0.16466171285E+02  0.58948131874E+02  0.37525622596E+03  0.38024379307E+03  0.47000000000E+01 0.  1.
         -5    1    4    4    0  503 -0.45371911100E+02  0.69882045797E+01  0.34615273034E+02  0.57686674781E+02  0.47000000000E+01 0.  1.
<mgrwt>
<rscale>  0 0.15425232E+03</rscale>
<asrwt>0</asrwt>
<pdfrwt beam="1">  1        5 0.95413155E-01 0.15425807E+03</pdfrwt>
<pdfrwt beam="2">  1       -5 0.68210709E-02 0.15425807E+03</pdfrwt>
<totfact> 0.10341019E+02</totfact>
</mgrwt>
</event>
<event>
 8    1  0.1821556E-007  0.1383637E+03  0.7546771E-02  0.1215548E+00
          5   -1    0    0  501    0  0.00000000000E+00  0.00000000000E+00  0.94191859241E+03  0.94193031840E+03  0.47000000000E+01 0. -1.
         -5   -1    0    0    0  501 -0.00000000000E+00 -0.00000000000E+00 -0.26652633738E+02  0.27063866782E+02  0.47000000000E+01 0. -1.
         25    2    1    2    0    0 -0.59250049791E+02  0.29649755968E+01  0.21850995480E+03  0.25863269388E+03  0.12499964206E+03 0.  0.
         25    2    1    2    0    0  0.59250049791E+02 -0.29649755968E+01  0.69675600387E+03  0.71036149131E+03  0.12500063969E+03 0.  0.
          5    1    3    3  502    0  0.51753425683E+01 -0.10258954966E+02 -0.12964740361E+02  0.17950064633E+02  0.47000000000E+01 0. -1.
         -5    1    3    3    0  502 -0.64425392359E+02  0.13223930563E+02  0.23147469517E+03  0.24068262925E+03  0.47000000000E+01 0. -1.
          5    1    4    4  503    0  0.63534837478E+02  0.33255608145E+02  0.20499165887E+03  0.21722403470E+03  0.47000000000E+01 0. -1.
         -5    1    4    4    0  503 -0.42847876866E+01 -0.36220583742E+02  0.49176434500E+03  0.49313745660E+03  0.47000000000E+01 0. -1.
<mgrwt>
<rscale>  0 0.13836350E+03</rscale>
<asrwt>0</asrwt>
<pdfrwt beam="1">  1        5 0.14494310E+00 0.13836372E+03</pdfrwt>
<pdfrwt beam="2">  1       -5 0.41329403E-02 0.13836372E+03</pdfrwt>
<totfact> 0.79730705E+01</totfact>
</mgrwt>
</event>
<event>
 8    1  0.1821556E-007  0.1337428E+03  0.7546771E-02  0.1222018E+00
         -5   -1    0    0    0  501 -0.00000000000E+00  0.00000000000E+00  0.11022553920E+04  0.11022654123E+04  0.47000000000E+01 0.  1.
          5   -1    0    0  501    0  0.00000000000E+00 -0.00000000000E+00 -0.17065141170E+02  0.17700537934E+02  0.47000000000E+01 0.  1.
         25    2    1    2    0    0  0.44249710722E+02 -0.17330130480E+02  0.68772612445E+03  0.70060348898E+03  0.12497862295E+03 0.  0.
         25    2    1    2    0    0 -0.44249710722E+02  0.17330130480E+02  0.39746412634E+03  0.41936246123E+03  0.12501508647E+03 0.  0.
          5    1    3    3  502    0  0.90130724402E+01 -0.57818012513E+02  0.16546070266E+03  0.17556620452E+03  0.47000000000E+01 0.  1.
         -5    1    3    3    0  502  0.35236638282E+02  0.40487882034E+02  0.52226542179E+03  0.52503728446E+03  0.47000000000E+01 0.  1.
          5    1    4    4  503    0 -0.67712867792E+02  0.82762065894E+01  0.38477545091E+03  0.39080399906E+03  0.47000000000E+01 0. -1.
         -5    1    4    4    0  503  0.23463157070E+02  0.90539238902E+01  0.12688675428E+02  0.28558462172E+02  0.47000000000E+01 0. -1.
<mgrwt>
<rscale>  0 0.13373430E+03</rscale>
<asrwt>0</asrwt>
<pdfrwt beam="2">  1        5 0.26750534E-02 0.13374282E+03</pdfrwt>
<pdfrwt beam="1">  1       -5 0.16962743E+00 0.13374282E+03</pdfrwt>
<totfact> 0.10332613E+02</totfact>
</mgrwt>
</event>
<event>
 8    1  0.1821556E-007  0.1293775E+03  0.7546771E-02  0.1228384E+00
         -5   -1    0    0    0  501 -0.00000000000E+00  0.00000000000E+00  0.27659996898E+03  0.27663989741E+03  0.47000000000E+01 0.  1.
          5   -1    0    0  501    0  0.00000000000E+00 -0.00000000000E+00 -0.60965117580E+02  0.61146018363E+02  0.47000000000E+01 0.  1.
         25    2    1    2    0    0  0.23317154258E+02 -0.23869817952E+02  0.12437313738E+03  0.17946367548E+03  0.12500030249E+03 0.  0.
         25    2    1    2    0    0 -0.23317154258E+02  0.23869817952E+02  0.91261714019E+02  0.15832224030E+03  0.12499509365E+03 0.  0.
          5    1    4    4  502    0 -0.47656936299E+02 -0.32940780490E+02  0.73771971464E+02  0.93918434667E+02  0.47000000000E+01 0.  1.
         -5    1    4    4    0  502  0.24339782041E+02  0.56810598442E+02  0.17489742555E+02  0.64403805631E+02  0.47000000000E+01 0.  1.
          5    1    3    3  503    0  0.93985780078E+01 -0.41472410662E+02  0.14341471082E+03  0.14966015968E+03  0.47000000000E+01 0.  1.
         -5    1    3    3    0  503  0.13918576251E+02  0.17602592710E+02 -0.19041573439E+02  0.29803515799E+02  0.47000000000E+01 0.  1.
<mgrwt>
<rscale>  0 0.12937623E+03</rscale>
<asrwt>0</asrwt>
<pdfrwt beam="2">  1        5 0.93962356E-02 0.12937748E+03</pdfrwt>
<pdfrwt beam="1">  1       -5 0.42570829E-01 0.12937748E+03</pdfrwt>
<totfact> 0.33801012E+02</totfact>
</mgrwt>
</event>
<event>
 8    1  0.1821556E-007  0.1431927E+03  0.7546771E-02  0.1209099E+00
          5   -1    0    0  501    0  0.00000000000E+00  0.00000000000E+00  0.15699982146E+03  0.15707015611E+03  0.47000000000E+01 0. -1.
         -5   -1    0    0    0  501 -0.00000000000E+00 -0.00000000000E+00 -0.18902278717E+03  0.18908121025E+03  0.47000000000E+01 0. -1.
         25    2    1    2    0    0  0.40983745307E+02 -0.56561644153E+02 -0.11232061452E+03  0.18198924094E+03  0.12500110561E+03 0.  0.
         25    2    1    2    0    0 -0.40983745307E+02  0.56561644153E+02  0.80297648812E+02  0.16416212541E+03  0.12499041582E+03 0.  0.
          5    1    4    4  502    0 -0.58094622131E+02  0.86938819751E+02  0.74578791133E+02  0.12852015245E+03  0.47000000000E+01 0.  1.
         -5    1    4    4    0  502  0.17110876824E+02 -0.30377175598E+02  0.57188576790E+01  0.35641972956E+02  0.47000000000E+01 0.  1.
          5    1    3    3  503    0  0.84181281867E+02 -0.36230739433E+02 -0.54014555057E+02  0.10648388073E+03  0.47000000000E+01 0.  1.
         -5    1    3    3    0  503 -0.43197536560E+02 -0.20330904720E+02 -0.58306059461E+02  0.75505360216E+02  0.47000000000E+01 0.  1.
<mgrwt>
<rscale>  0 0.14319042E+03</rscale>
<asrwt>0</asrwt>
<pdfrwt beam="1">  1        5 0.24163723E-01 0.14319275E+03</pdfrwt>
<pdfrwt beam="2">  1       -5 0.29090333E-01 0.14319275E+03</pdfrwt>
<totfact> 0.13538355E+02</totfact>
</mgrwt>
</event>
<event>
 8    1  0.1821556E-007  0.1305404E+03  0.7546771E-02  0.1226660E+00
         -5   -1    0    0    0  501 -0.00000000000E+00  0.00000000000E+00  0.11253170931E+03  0.11262981666E+03  0.47000000000E+01 0. -1.
          5   -1    0    0  501    0  0.00000000000E+00 -0.00000000000E+00 -0.15544469759E+03  0.15551573556E+03  0.47000000000E+01 0. -1.
         25    2    1    2    0    0 -0.14311383749E+02 -0.34795345693E+02  0.64112811734E+00  0.13054193361E+03  0.12500101439E+03 0.  0.
         25    2    1    2    0    0  0.14311383749E+02  0.34795345693E+02 -0.43554116394E+02  0.13760361861E+03  0.12498905158E+03 0.  0.
          5    1    4    4  502    0  0.43837295671E+02  0.46602526670E+02 -0.70745032675E+02  0.95501066130E+02  0.47000000000E+01 0.  1.
         -5    1    4    4    0  502 -0.29525911922E+02 -0.11807180977E+02  0.27190916282E+02  0.42102552484E+02  0.47000000000E+01 0.  1.
          5    1    3    3  503    0 -0.66966298633E+02 -0.80911465499E+00 -0.56935356427E+01  0.67376896391E+02  0.47000000000E+01 0. -1.
         -5    1    3    3    0  503  0.52654914884E+02 -0.33986231038E+02  0.63346637600E+01  0.63165037216E+02  0.47000000000E+01 0. -1.
<mgrwt>
<rscale>  0 0.13053750E+03</rscale>
<asrwt>0</asrwt>
<pdfrwt beam="2">  1        5 0.23927580E-01 0.13054036E+03</pdfrwt>
<pdfrwt beam="1">  1       -5 0.17325582E-01 0.13054036E+03</pdfrwt>
<totfact> 0.35640918E+02</totfact>
</mgrwt>
</event>
<event>
 8    1  0.1821556E-007  0.1751985E+03  0.7546771E-02  0.1172534E+00
         -5   -1    0    0    0  501 -0.00000000000E+00  0.00000000000E+00  0.77381290251E+02  0.77523893613E+02  0.47000000000E+01 0.  1.
          5   -1    0    0  501    0  0.00000000000E+00 -0.00000000000E+00 -0.39630579589E+03  0.39633366481E+03  0.47000000000E+01 0.  1.
         25    2    1    2    0    0  0.12205909683E+03  0.13012467070E+02 -0.15451041046E+03  0.23359415677E+03  0.12500006286E+03 0.  0.
         25    2    1    2    0    0 -0.12205909683E+03 -0.13012467070E+02 -0.16441409518E+03  0.24026340166E+03  0.12500704004E+03 0.  0.
          5    1    3    3  502    0  0.12648172113E+03  0.45602399349E+02 -0.14750235404E+03  0.19964027412E+03  0.47000000000E+01 0.  1.
         -5    1    3    3    0  502 -0.44226242922E+01 -0.32589932279E+02 -0.70080564207E+01  0.33953882641E+02  0.47000000000E+01 0.  1.
          5    1    4    4  503    0 -0.94287296492E+02 -0.48687688796E+02 -0.50495890554E+02  0.11761169280E+03  0.47000000000E+01 0. -1.
         -5    1    4    4    0  503 -0.27771800342E+02  0.35675221726E+02 -0.11391820463E+03  0.12265170886E+03  0.47000000000E+01 0. -1.
<mgrwt>
<rscale>  0 0.17519724E+03</rscale>
<asrwt>0</asrwt>
<pdfrwt beam="2">  1        5 0.60983234E-01 0.17519848E+03</pdfrwt>
<pdfrwt beam="1">  1       -5 0.11917927E-01 0.17519848E+03</pdfrwt>
<totfact> 0.11421172E+02</totfact>
</mgrwt>
</event>
<event>
 8    1  0.1821556E-007  0.1281568E+03  0.7546771E-02  0.1230218E+00
         -5   -1    0    0    0  501 -0.00000000000E+00  0.00000000000E+00  0.30100450064E+03  0.30104119221E+03  0.47000000000E+01 0. -1.
          5   -1    0    0  501    0  0.00000000000E+00 -0.00000000000E+00 -0.57925827705E+02  0.58116189787E+02  0.47000000000E+01 0. -1.
         25    2    1    2    0    0 -0.26003097369E+01 -0.28130344426E+02  0.16561769961E+03  0.20940966286E+03  0.12500042635E+03 0.  0.
         25    2    1    2    0    0  0.26003097369E+01  0.28130344426E+02  0.77460973328E+02  0.14974771913E+03  0.12500439636E+03 0.  0.
          5    1    3    3  502    0 -0.23672785991E+02 -0.60756900980E+02  0.15596628443E+03  0.16911349353E+03  0.47000000000E+01 0. -1.
         -5    1    3    3    0  502  0.21072476254E+02  0.32626556554E+02  0.96514151720E+01  0.40296169332E+02  0.47000000000E+01 0. -1.
          5    1    4    4  503    0  0.31460480260E+02 -0.41599157465E+02  0.27843697419E+02  0.59309469783E+02  0.47000000000E+01 0. -1.
         -5    1    4    4    0  503 -0.28860170524E+02  0.69729501891E+02  0.49617275909E+02  0.90438249349E+02  0.47000000000E+01 0. -1.
<mgrwt>
<rscale>  0 0.12815588E+03</rscale>
<asrwt>0</asrwt>
<pdfrwt beam="2">  1        5 0.89291315E-02 0.12815685E+03</pdfrwt>
<pdfrwt beam="1">  1       -5 0.46325850E-01 0.12815685E+03</pdfrwt>
<totfact> 0.30869615E+02</totfact>
</mgrwt>
</event>
<event>
 8    1  0.1821556E-007  0.1291342E+03  0.7546771E-02  0.1228752E+00
         -5   -1    0    0    0  501 -0.00000000000E+00  0.00000000000E+00  0.16222687681E+03  0.16229494619E+03  0.47000000000E+01 0.  1.
          5   -1    0    0  501    0  0.00000000000E+00 -0.00000000000E+00 -0.16374984464E+03  0.16381728120E+03  0.47000000000E+01 0.  1.
         25    2    1    2    0    0  0.18391149101E+02  0.26620550963E+02  0.98803908751E+02  0.16259719371E+03  0.12501498678E+03 0.  0.
         25    2    1    2    0    0 -0.18391149101E+02 -0.26620550963E+02 -0.10032687658E+03  0.16351503368E+03  0.12499918390E+03 0.  0.
          5    1    4    4  502    0  0.51418964238E+02  0.44921127322E+01 -0.49046251326E+02  0.71356245201E+02  0.47000000000E+01 0.  1.
         -5    1    4    4    0  502 -0.69810113339E+02 -0.31112663696E+02 -0.51280625258E+02  0.92158788477E+02  0.47000000000E+01 0.  1.
          5    1    3    3  503    0  0.38371499926E+02 -0.17430556099E+02 -0.98805767996E+01  0.43542072647E+02  0.47000000000E+01 0. -1.
         -5    1    3    3    0  503 -0.19980350825E+02  0.44051107063E+02  0.10868448555E+03  0.11905512107E+03  0.47000000000E+01 0. -1.
<mgrwt>
<rscale>  0 0.12913035E+03</rscale>
<asrwt>0</asrwt>
<pdfrwt beam="2">  1        5 0.25202707E-01 0.12913417E+03</pdfrwt>
<pdfrwt beam="1">  1       -5 0.24968404E-01 0.12913417E+03</pdfrwt>
<totfact> 0.16215134E+02</totfact>
</mgrwt>
</event>
<event>
 8    1  0.1821556E-007  0.1445562E+03  0.7546771E-02  0.1207328E+00
          5   -1    0    0  501    0  0.00000000000E+00  0.00000000000E+00  0.13442958383E+02  0.14240896394E+02  0.47000000000E+01 0. -1.
         -5   -1    0    0    0  501 -0.00000000000E+00 -0.00000000000E+00 -0.15147573367E+04  0.15147646283E+04  0.47000000000E+01 0. -1.
         25    2    1    2    0    0 -0.17718228658E+02  0.70413316338E+02 -0.70276532420E+03  0.71747864702E+03  0.12499814911E+03 0.  0.
         25    2    1    2    0    0  0.17718228658E+02 -0.70413316338E+02 -0.79854905411E+03  0.81152687765E+03  0.12499324216E+03 0.  0.
          5    1    4    4  502    0 -0.33171127058E+02  0.25686477415E+01 -0.46724895788E+03  0.46845554779E+03  0.47000000000E+01 0. -1.
         -5    1    4    4    0  502  0.50889355716E+02 -0.72981964079E+02 -0.33130009624E+03  0.34307132986E+03  0.47000000000E+01 0. -1.
          5    1    3    3  503    0 -0.47292433278E+02 -0.16989782681E+01 -0.46031376463E+03  0.46276377633E+03  0.47000000000E+01 0.  1.
         -5    1    3    3    0  503  0.29574204619E+02  0.72112294606E+02 -0.24245155957E+03  0.25471487069E+03  0.47000000000E+01 0.  1.
<mgrwt>
<rscale>  0 0.14455518E+03</rscale>
<asrwt>0</asrwt>
<pdfrwt beam="1">  1        5 0.21300894E-02 0.14455625E+03</pdfrwt>
<pdfrwt beam="2">  1       -5 0.23310140E+00 0.14455625E+03</pdfrwt>
<totfact> 0.56414581E+01</totfact>
</mgrwt>
</event>
<event>
 8    1  0.1821556E-007  0.1506712E+03  0.7546771E-02  0.1199651E+00
         -5   -1    0    0    0  501 -0.00000000000E+00  0.00000000000E+00  0.58740935827E+02  0.58928664858E+02  0.47000000000E+01 0.  1.
          5   -1    0    0  501    0  0.00000000000E+00 -0.00000000000E+00 -0.40434044381E+03  0.40436775898E+03  0.47000000000E+01 0.  1.
         25    2    1    2    0    0 -0.62716658910E+02  0.56063231939E+02 -0.12301387851E+03  0.19451020973E+03  0.12500136841E+03 0.  0.
         25    2    1    2    0    0  0.62716658910E+02 -0.56063231939E+02 -0.22258562948E+03  0.26878621411E+03  0.12500080465E+03 0.  0.
          5    1    4    4  502    0  0.31738051041E+02  0.33478943719E+02 -0.33397423296E+02  0.57145616098E+02  0.47000000000E+01 0. -1.
         -5    1    4    4    0  502  0.30978607869E+02 -0.89542175658E+02 -0.18918820618E+03  0.21164059801E+03  0.47000000000E+01 0. -1.
          5    1    3    3  503    0  0.62182128766E+00  0.54156500701E+02  0.18645391210E+01  0.54395585630E+02  0.47000000000E+01 0.  1.
         -5    1    3    3    0  503 -0.63338480198E+02  0.19067312375E+01 -0.12487841763E+03  0.14011462410E+03  0.47000000000E+01 0.  1.
<mgrwt>
<rscale>  0 0.15067107E+03</rscale>
<asrwt>0</asrwt>
<pdfrwt beam="2">  1        5 0.62222762E-01 0.15067119E+03</pdfrwt>
<pdfrwt beam="1">  1       -5 0.90536092E-02 0.15067119E+03</pdfrwt>
<totfact> 0.16902102E+02</totfact>
</mgrwt>
</event>
<event>
 8    1  0.1821556E-007  0.1313782E+03  0.7546771E-02  0.1225427E+00
         -5   -1    0    0    0  501 -0.00000000000E+00  0.00000000000E+00  0.18752131624E+03  0.18758020696E+03  0.47000000000E+01 0. -1.
          5   -1    0    0  501    0  0.00000000000E+00 -0.00000000000E+00 -0.97036375538E+02  0.97150132154E+02  0.47000000000E+01 0. -1.
         25    2    1    2    0    0  0.25799208256E+02 -0.31104325591E+02  0.77946498129E+02  0.15275514570E+03  0.12500159899E+03 0.  0.
         25    2    1    2    0    0 -0.25799208256E+02  0.31104325591E+02  0.12538442572E+02  0.13197519342E+03  0.12500864338E+03 0.  0.
          5    1    4    4  502    0  0.31920416171E+02 -0.70678613284E+01  0.44653095141E+02  0.55541484837E+02  0.47000000000E+01 0.  1.
         -5    1    4    4    0  502 -0.57719624427E+02  0.38172186919E+02 -0.32114652569E+02  0.76433708583E+02  0.47000000000E+01 0.  1.
          5    1    3    3  503    0  0.46478854352E+02 -0.62885095896E+00  0.99430077076E+02  0.10985949928E+03  0.47000000000E+01 0. -1.
         -5    1    3    3    0  503 -0.20679646097E+02 -0.30475474632E+02 -0.21483578947E+02  0.42895646412E+02  0.47000000000E+01 0. -1.
<mgrwt>
<rscale>  0 0.13137655E+03</rscale>
<asrwt>0</asrwt>
<pdfrwt beam="2">  1        5 0.14941954E-01 0.13137823E+03</pdfrwt>
<pdfrwt beam="1">  1       -5 0.28862714E-01 0.13137823E+03</pdfrwt>
<totfact> 0.32594446E+02</totfact>
</mgrwt>
</event>
<event>
 8    1  0.1821556E-007  0.1832963E+03  0.7546771E-02  0.1164651E+00
         -5   -1    0    0    0  501 -0.00000000000E+00  0.00000000000E+00  0.19180814052E+03  0.19186571546E+03  0.47000000000E+01 0. -1.
          5   -1    0    0  501    0  0.00000000000E+00 -0.00000000000E+00 -0.27742161663E+03  0.27746142682E+03  0.47000000000E+01 0. -1.
         25    2    1    2    0    0 -0.27426555026E+02 -0.13122550842E+03  0.99718306592E+02  0.20866541862E+03  0.12500066510E+03 0.  0.
         25    2    1    2    0    0  0.27426555026E+02  0.13122550842E+03 -0.18533178270E+03  0.26066172366E+03  0.12499725806E+03 0.  0.
          5    1    4    4  502    0 -0.42275734306E+02  0.18413496242E+02 -0.74646245894E+02  0.87866071843E+02  0.47000000000E+01 0.  1.
         -5    1    4    4    0  502  0.69702289332E+02  0.11281201218E+03 -0.11068553681E+03  0.17279565182E+03  0.47000000000E+01 0.  1.
          5    1    3    3  503    0  0.33221973559E+02 -0.11254703810E+02  0.57799713517E+02  0.67773628851E+02  0.47000000000E+01 0. -1.
         -5    1    3    3    0  503 -0.60648528584E+02 -0.11997080461E+03  0.41918593075E+02  0.14089178977E+03  0.47000000000E+01 0. -1.
<mgrwt>
<rscale>  0 0.18329567E+03</rscale>
<asrwt>0</asrwt>
<pdfrwt beam="2">  1        5 0.42687740E-01 0.18329625E+03</pdfrwt>
<pdfrwt beam="1">  1       -5 0.29516436E-01 0.18329625E+03</pdfrwt>
<totfact> 0.45690168E+01</totfact>
</mgrwt>
</event>
<event>
 8    1  0.1821556E-007  0.1543218E+03  0.7546771E-02  0.1195264E+00
         -5   -1    0    0    0  501 -0.00000000000E+00  0.00000000000E+00  0.10122404140E+04  0.10122513254E+04  0.47000000000E+01 0. -1.
          5   -1    0    0  501    0  0.00000000000E+00 -0.00000000000E+00 -0.24968128891E+02  0.25406642051E+02  0.47000000000E+01 0. -1.
         25    2    1    2    0    0 -0.17749539963E+02 -0.88729547101E+02  0.62732769036E+03  0.64603038782E+03  0.12500900847E+03 0.  0.
         25    2    1    2    0    0  0.17749539963E+02  0.88729547101E+02  0.35994459474E+03  0.39162757961E+03  0.12499628445E+03 0.  0.
          5    1    4    4  502    0 -0.51628289415E+02  0.50017903939E+02  0.13497485692E+03  0.15299533647E+03  0.47000000000E+01 0. -1.
         -5    1    4    4    0  502  0.69377829378E+02  0.38711643161E+02  0.22496973783E+03  0.23863224314E+03  0.47000000000E+01 0. -1.
          5    1    3    3  503    0  0.97921554407E+01 -0.47351677332E+02  0.63283044104E+02  0.79780331695E+02  0.47000000000E+01 0.  1.
         -5    1    3    3    0  503 -0.27541695404E+02 -0.41377869769E+02  0.56404464625E+03  0.56625005612E+03  0.47000000000E+01 0.  1.
<mgrwt>
<rscale>  0 0.15431927E+03</rscale>
<asrwt>0</asrwt>
<pdfrwt beam="2">  1        5 0.38758227E-02 0.15432184E+03</pdfrwt>
<pdfrwt beam="1">  1       -5 0.15576383E+00 0.15432184E+03</pdfrwt>
<totfact> 0.75178839E+01</totfact>
</mgrwt>
</event>
<event>
 8    1  0.1821556E-007  0.1334462E+03  0.7546771E-02  0.1222431E+00
          5   -1    0    0  501    0  0.00000000000E+00  0.00000000000E+00  0.78553775347E+02  0.78694254055E+02  0.47000000000E+01 0. -1.
         -5   -1    0    0    0  501 -0.00000000000E+00 -0.00000000000E+00 -0.22956312469E+03  0.22961123277E+03  0.47000000000E+01 0. -1.
         25    2    1    2    0    0 -0.19171837838E+02  0.42585414494E+02 -0.93800831753E+02  0.16311493970E+03  0.12500724228E+03 0.  0.
         25    2    1    2    0    0  0.19171837838E+02 -0.42585414494E+02 -0.57208517588E+02  0.14519054713E+03  0.12500561426E+03 0.  0.
          5    1    3    3  502    0 -0.71414943555E+02  0.20658891429E+02 -0.38708964432E+02  0.83948543081E+02  0.47000000000E+01 0. -1.
         -5    1    3    3    0  502  0.52243105717E+02  0.21926523065E+02 -0.55091867322E+02  0.79166396619E+02  0.47000000000E+01 0. -1.
          5    1    4    4  503    0  0.37674058068E+02 -0.27742400459E+02  0.29274772550E+02  0.55390231471E+02  0.47000000000E+01 0.  1.
         -5    1    4    4    0  503 -0.18502220231E+02 -0.14843014035E+02 -0.86483290138E+02  0.89800315658E+02  0.47000000000E+01 0.  1.
<mgrwt>
<rscale>  0 0.13344582E+03</rscale>
<asrwt>0</asrwt>
<pdfrwt beam="1">  1        5 0.12099703E-01 0.13344620E+03</pdfrwt>
<pdfrwt beam="2">  1       -5 0.35331910E-01 0.13344620E+03</pdfrwt>
<totfact> 0.32053797E+02</totfact>
</mgrwt>
</event>
<event>
 8    1  0.1821556E-007  0.1334263E+03  0.7546771E-02  0.1222468E+00
         -5   -1    0    0    0  501 -0.00000000000E+00  0.00000000000E+00  0.59800168617E+02  0.59984582741E+02  0.47000000000E+01 0.  1.
          5   -1    0    0  501    0  0.00000000000E+00 -0.00000000000E+00 -0.30673923551E+03  0.30677524118E+03  0.47000000000E+01 0.  1.
         25    2    1    2    0    0 -0.43149173281E+02  0.17779107940E+02 -0.90781091337E+02  0.16138087115E+03  0.12499852477E+03 0.  0.
         25    2    1    2    0    0  0.43149173281E+02 -0.17779107940E+02 -0.15615797556E+03  0.20537895277E+03  0.12496900847E+03 0.  0.
          5    1    3    3  502    0 -0.14034817552E+02 -0.53844593168E+02 -0.34572892199E+02  0.65677935352E+02  0.47000000000E+01 0. -1.
         -5    1    3    3    0  502 -0.29114355729E+02  0.71623701108E+02 -0.56208199139E+02  0.95702935798E+02  0.47000000000E+01 0. -1.
          5    1    4    4  503    0 -0.30266914890E+02  0.17679746469E+02 -0.10052361071E+03  0.10656334211E+03  0.47000000000E+01 0.  1.
         -5    1    4    4    0  503  0.73416088171E+02 -0.35458854409E+02 -0.55634364848E+02  0.98815610661E+02  0.47000000000E+01 0.  1.
<mgrwt>
<rscale>  0 0.13341939E+03</rscale>
<asrwt>0</asrwt>
<pdfrwt beam="2">  1        5 0.47207606E-01 0.13342631E+03</pdfrwt>
<pdfrwt beam="1">  1       -5 0.92169815E-02 0.13342631E+03</pdfrwt>
<totfact> 0.28499776E+02</totfact>
</mgrwt>
</event>
<event>
 8    1  0.1821556E-007  0.1474857E+03  0.7546771E-02  0.1203598E+00
         -5   -1    0    0    0  501 -0.00000000000E+00  0.00000000000E+00  0.93430763159E+02  0.93548904347E+02  0.47000000000E+01 0.  1.
          5   -1    0    0  501    0  0.00000000000E+00 -0.00000000000E+00 -0.23262935054E+03  0.23267682466E+03  0.47000000000E+01 0.  1.
         25    2    1    2    0    0 -0.49779179571E+02  0.60404551679E+02 -0.66055793449E+02  0.16160256580E+03  0.12500137936E+03 0.  0.
         25    2    1    2    0    0  0.49779179571E+02 -0.60404551679E+02 -0.73142793937E+02  0.16462316321E+03  0.12499696387E+03 0.  0.
          5    1    4    4  502    0  0.61490830100E+01 -0.89604060853E+02 -0.65726282257E+02  0.11139449323E+03  0.47000000000E+01 0.  1.
         -5    1    4    4    0  502  0.43630096561E+02  0.29199509174E+02 -0.74165116793E+01  0.53228669976E+02  0.47000000000E+01 0.  1.
          5    1    3    3  503    0  0.25301539505E+00  0.26522392646E+02 -0.91861625866E+02  0.95729565105E+02  0.47000000000E+01 0.  1.
         -5    1    3    3    0  503 -0.50032194966E+02  0.33882159033E+02  0.25805832416E+02  0.65873000695E+02  0.47000000000E+01 0.  1.
<mgrwt>
<rscale>  0 0.14748473E+03</rscale>
<asrwt>0</asrwt>
<pdfrwt beam="2">  1        5 0.35801870E-01 0.14748567E+03</pdfrwt>
<pdfrwt beam="1">  1       -5 0.14386703E-01 0.14748567E+03</pdfrwt>
<totfact> 0.23691952E+02</totfact>
</mgrwt>
</event>
<event>
 8    1  0.1821556E-007  0.1778997E+03  0.7546771E-02  0.1169854E+00
          5   -1    0    0  501    0  0.00000000000E+00  0.00000000000E+00  0.13915847386E+03  0.13923782118E+03  0.47000000000E+01 0. -1.
         -5   -1    0    0    0  501 -0.00000000000E+00 -0.00000000000E+00 -0.23015038293E+03  0.23019836829E+03  0.47000000000E+01 0. -1.
         25    2    1    2    0    0  0.13574558725E+02 -0.12582811407E+03 -0.66254149010E+02  0.18982478046E+03  0.12500740810E+03 0.  0.
         25    2    1    2    0    0 -0.13574558725E+02  0.12582811407E+03 -0.24737760058E+02  0.17961140901E+03  0.12502527160E+03 0.  0.
          5    1    3    3  502    0 -0.12961088335E+01 -0.14511293645E+03 -0.33973673276E+02  0.14911654737E+03  0.47000000000E+01 0.  1.
         -5    1    3    3    0  502  0.14870667559E+02  0.19284822377E+02 -0.32280475734E+02  0.40708233091E+02  0.47000000000E+01 0.  1.
          5    1    4    4  503    0 -0.60656201179E+02  0.10763935890E+03 -0.10221302334E+01  0.12364684014E+03  0.47000000000E+01 0. -1.
         -5    1    4    4    0  503  0.47081642454E+02  0.18188755173E+02 -0.23715629824E+02  0.55964568871E+02  0.47000000000E+01 0. -1.
<mgrwt>
<rscale>  0 0.17789656E+03</rscale>
<asrwt>0</asrwt>
<pdfrwt beam="1">  1        5 0.21418791E-01 0.17789969E+03</pdfrwt>
<pdfrwt beam="2">  1       -5 0.35417546E-01 0.17789969E+03</pdfrwt>
<totfact> 0.12317506E+02</totfact>
</mgrwt>
</event>
<event>
 8    1  0.1821556E-007  0.1873943E+03  0.7546771E-02  0.1160841E+00
         -5   -1    0    0    0  501 -0.00000000000E+00  0.00000000000E+00  0.79666733294E+02  0.79805252921E+02  0.47000000000E+01 0. -1.
          5   -1    0    0  501    0  0.00000000000E+00 -0.00000000000E+00 -0.55549730715E+03  0.55551718988E+03  0.47000000000E+01 0. -1.
         25    2    1    2    0    0  0.14294462230E+02  0.13882267522E+03 -0.93218442360E+02  0.20929951063E+03  0.12506214594E+03 0.  0.
         25    2    1    2    0    0 -0.14294462230E+02 -0.13882267522E+03 -0.38261213150E+03  0.42602293217E+03  0.12500971467E+03 0.  0.
          5    1    3    3  502    0 -0.13069010265E+02 -0.20059571220E+02 -0.22492937366E+02  0.33184449041E+02  0.47000000000E+01 0. -1.
         -5    1    3    3    0  502  0.27363472495E+02  0.15888224644E+03 -0.70725504994E+02  0.17611506159E+03  0.47000000000E+01 0. -1.
          5    1    4    4  503    0  0.50569272820E+02 -0.48416820127E+02 -0.20195603860E+03  0.21379843627E+03  0.47000000000E+01 0. -1.
         -5    1    4    4    0  503 -0.64863735049E+02 -0.90405855095E+02 -0.18065609290E+03  0.21222449590E+03  0.47000000000E+01 0. -1.
<mgrwt>
<rscale>  0 0.18738551E+03</rscale>
<asrwt>0</asrwt>
<pdfrwt beam="2">  1        5 0.85473306E-01 0.18739426E+03</pdfrwt>
<pdfrwt beam="1">  1       -5 0.12268606E-01 0.18739426E+03</pdfrwt>
<totfact> 0.51193064E+01</totfact>
</mgrwt>
</event>
<event>
 8    1  0.1821556E-007  0.1812611E+03  0.7546771E-02  0.1166592E+00
         -5   -1    0    0    0  501 -0.00000000000E+00  0.00000000000E+00  0.17323961496E+03  0.17330335886E+03  0.47000000000E+01 0.  1.
          5   -1    0    0  501    0  0.00000000000E+00 -0.00000000000E+00 -0.19050933218E+03  0.19056729952E+03  0.47000000000E+01 0.  1.
         25    2    1    2    0    0  0.10837961954E+03  0.74053988886E+02  0.45421047771E+01  0.18131798777E+03  0.12500178707E+03 0.  0.
         25    2    1    2    0    0 -0.10837961954E+03 -0.74053988886E+02 -0.21811821992E+02  0.18255267061E+03  0.12497834519E+03 0.  0.
          5    1    3    3  502    0  0.88466646267E+02 -0.14926298961E+02 -0.10284269502E+01  0.89845921245E+02  0.47000000000E+01 0. -1.
         -5    1    3    3    0  502  0.19912973275E+02  0.88980287847E+02  0.55705317273E+01  0.91472066521E+02  0.47000000000E+01 0. -1.
          5    1    4    4  503    0  0.28144211992E+02 -0.15675477839E+02 -0.66139511690E+01  0.33221252598E+02  0.47000000000E+01 0.  1.
         -5    1    4    4    0  503 -0.13652383153E+03 -0.58378511047E+02 -0.15197870823E+02  0.14933141802E+03  0.47000000000E+01 0.  1.
<mgrwt>
<rscale>  0 0.18125705E+03</rscale>
<asrwt>0</asrwt>
<pdfrwt beam="2">  1        5 0.29318490E-01 0.18126109E+03</pdfrwt>
<pdfrwt beam="1">  1       -5 0.26661611E-01 0.18126109E+03</pdfrwt>
<totfact> 0.11865360E+02</totfact>
</mgrwt>
</event>
<event>
 8    1  0.1821556E-007  0.1511695E+03  0.7546771E-02  0.1199044E+00
         -5   -1    0    0    0  501 -0.00000000000E+00  0.00000000000E+00  0.14000389001E+03  0.14008275846E+03  0.47000000000E+01 0. -1.
          5   -1    0    0  501    0  0.00000000000E+00 -0.00000000000E+00 -0.17059726116E+03  0.17066199201E+03  0.47000000000E+01 0. -1.
         25    2    1    2    0    0  0.72293239597E+01  0.84702305350E+02  0.17341058701E+02  0.15215742531E+03  0.12499770440E+03 0.  0.
         25    2    1    2    0    0 -0.72293239597E+01 -0.84702305350E+02 -0.47934429851E+02  0.15858732516E+03  0.12500194590E+03 0.  0.
          5    1    3    3  502    0 -0.18546570612E+02  0.22192713356E+02 -0.49142657554E+02  0.57215230481E+02  0.47000000000E+01 0.  1.
         -5    1    3    3    0  502  0.25775894572E+02  0.62509591994E+02  0.66483716255E+02  0.94942194830E+02  0.47000000000E+01 0.  1.
          5    1    4    4  503    0  0.22063495013E+02 -0.24279908175E+02  0.37353129474E+02  0.49936540075E+02  0.47000000000E+01 0. -1.
         -5    1    4    4    0  503 -0.29292818972E+02 -0.60422397175E+02 -0.85287559324E+02  0.10865078508E+03  0.47000000000E+01 0. -1.
<mgrwt>
<rscale>  0 0.15116866E+03</rscale>
<asrwt>0</asrwt>
<pdfrwt beam="2">  1        5 0.26256778E-01 0.15116954E+03</pdfrwt>
<pdfrwt beam="1">  1       -5 0.21550106E-01 0.15116954E+03</pdfrwt>
<totfact> 0.20897976E+02</totfact>
</mgrwt>
</event>
<event>
 8    1  0.1821556E-007  0.1266429E+03  0.7546771E-02  0.1232524E+00
          5   -1    0    0  501    0  0.00000000000E+00  0.00000000000E+00  0.12059206515E+02  0.12942737800E+02  0.47000000000E+01 0.  1.
         -5   -1    0    0    0  501 -0.00000000000E+00 -0.00000000000E+00 -0.14967918263E+04  0.14967992054E+04  0.47000000000E+01 0.  1.
         25    2    1    2    0    0  0.58947165752E+00 -0.20312476374E+02 -0.10281872726E+04  0.10359570915E+04  0.12500033510E+03 0.  0.
         25    2    1    2    0    0 -0.58947165752E+00  0.20312476374E+02 -0.45654534721E+03  0.47378485169E+03  0.12500194984E+03 0.  0.
          5    1    4    4  502    0  0.37224776233E+02  0.54629162039E+02 -0.16584884001E+03  0.17859999172E+03  0.47000000000E+01 0. -1.
         -5    1    4    4    0  502 -0.37814247890E+02 -0.34316685665E+02 -0.29069650720E+03  0.29518485997E+03  0.47000000000E+01 0. -1.
          5    1    3    3  503    0 -0.16427375601E+02  0.50396094709E+02 -0.38704272449E+03  0.39068374116E+03  0.47000000000E+01 0.  1.
         -5    1    3    3    0  503  0.17016847258E+02 -0.70708571084E+02 -0.64114454808E+03  0.64527335033E+03  0.47000000000E+01 0.  1.
<mgrwt>
<rscale>  0 0.12664253E+03</rscale>
<asrwt>0</asrwt>
<pdfrwt beam="1">  1        5 0.19237953E-02 0.12664293E+03</pdfrwt>
<pdfrwt beam="2">  1       -5 0.23034406E+00 0.12664293E+03</pdfrwt>
<totfact> 0.66529044E+01</totfact>
</mgrwt>
</event>
<event>
 8    1  0.1821556E-007  0.1385313E+03  0.7546771E-02  0.1215324E+00
         -5   -1    0    0    0  501 -0.00000000000E+00  0.00000000000E+00  0.48085188958E+02  0.48314339456E+02  0.47000000000E+01 0. -1.
          5   -1    0    0  501    0  0.00000000000E+00 -0.00000000000E+00 -0.44609963185E+03  0.44612439021E+03  0.47000000000E+01 0. -1.
         25    2    1    2    0    0  0.32690334890E+02  0.49960677997E+02 -0.11772907862E+03  0.18178747037E+03  0.12498728372E+03 0.  0.
         25    2    1    2    0    0 -0.32690334890E+02 -0.49960677997E+02 -0.28028536428E+03  0.31265125929E+03  0.12500478858E+03 0.  0.
          5    1    3    3  502    0 -0.75368206977E+01 -0.39099907296E+02 -0.26861851876E+02  0.48262361142E+02  0.47000000000E+01 0. -1.
         -5    1    3    3    0  502  0.40227155588E+02  0.89060585292E+02 -0.90867226744E+02  0.13352510923E+03  0.47000000000E+01 0. -1.
          5    1    4    4  503    0 -0.66679263920E+02 -0.23815546358E+01 -0.21364352142E+03  0.22386924819E+03  0.47000000000E+01 0. -1.
         -5    1    4    4    0  503  0.33988929030E+02 -0.47579123361E+02 -0.66641842853E+02  0.88782011102E+02  0.47000000000E+01 0. -1.
<mgrwt>
<rscale>  0 0.13852736E+03</rscale>
<asrwt>0</asrwt>
<pdfrwt beam="2">  1        5 0.68650241E-01 0.13853131E+03</pdfrwt>
<pdfrwt beam="1">  1       -5 0.74172531E-02 0.13853131E+03</pdfrwt>
<totfact> 0.18613030E+02</totfact>
</mgrwt>
</event>
<event>
 8    1  0.1821556E-007  0.1273401E+03  0.7546771E-02  0.1231458E+00
          5   -1    0    0  501    0  0.00000000000E+00  0.00000000000E+00  0.55967295450E+02  0.56164296132E+02  0.47000000000E+01 0. -1.
         -5   -1    0    0    0  501 -0.00000000000E+00 -0.00000000000E+00 -0.29127665751E+03  0.29131457432E+03  0.47000000000E+01 0. -1.
         25    2    1    2    0    0 -0.17074222758E+02 -0.17242233720E+02 -0.13300146895E+03  0.18413138396E+03  0.12500460834E+03 0.  0.
         25    2    1    2    0    0  0.17074222758E+02  0.17242233720E+02 -0.10230789311E+03  0.16334748649E+03  0.12500669040E+03 0.  0.
          5    1    4    4  502    0  0.61760083955E+02  0.84075470836E+01 -0.99454399682E+02  0.11746600544E+03  0.47000000000E+01 0.  1.
         -5    1    4    4    0  502 -0.44685861197E+02  0.88346866362E+01 -0.28534934239E+01  0.45881481053E+02  0.47000000000E+01 0.  1.
          5    1    3    3  503    0 -0.16389110064E+02  0.47802853443E+02 -0.97397541516E+02  0.10982753216E+03  0.47000000000E+01 0. -1.
         -5    1    3    3    0  503 -0.68511269369E+00 -0.65045087163E+02 -0.35603927436E+02  0.74303851800E+02  0.47000000000E+01 0. -1.
<mgrwt>
<rscale>  0 0.12733957E+03</rscale>
<asrwt>0</asrwt>
<pdfrwt beam="1">  1        5 0.86284239E-02 0.12734008E+03</pdfrwt>
<pdfrwt beam="2">  1       -5 0.44829863E-01 0.12734008E+03</pdfrwt>
<totfact> 0.34985260E+02</totfact>
</mgrwt>
</event>
<event>
 8    1  0.1821556E-007  0.1298686E+03  0.7546771E-02  0.1227652E+00
         -5   -1    0    0    0  501 -0.00000000000E+00  0.00000000000E+00  0.29271165302E+03  0.29274938397E+03  0.47000000000E+01 0.  1.
          5   -1    0    0  501    0  0.00000000000E+00 -0.00000000000E+00 -0.68418048421E+02  0.68579292427E+02  0.47000000000E+01 0.  1.
         25    2    1    2    0    0 -0.33656443210E+02 -0.10352654936E+02  0.18427008023E+03  0.22543583844E+03  0.12500368456E+03 0.  0.
         25    2    1    2    0    0  0.33656443210E+02  0.10352654936E+02  0.40023524370E+02  0.13589283795E+03  0.12500018908E+03 0.  0.
          5    1    3    3  502    0 -0.21028707968E+02 -0.67501920917E+02  0.10828645200E+03  0.12940927931E+03  0.47000000000E+01 0.  1.
         -5    1    3    3    0  502 -0.12627735241E+02  0.57149265981E+02  0.75983628230E+02  0.96026559131E+02  0.47000000000E+01 0.  1.
          5    1    4    4  503    0  0.19673615532E+01 -0.38698832916E+01  0.81408321743E+02  0.81659361724E+02  0.47000000000E+01 0.  1.
         -5    1    4    4    0  503  0.31689081657E+02  0.14222538228E+02 -0.41384797373E+02  0.54233476225E+02  0.47000000000E+01 0.  1.
<mgrwt>
<rscale>  0 0.12986776E+03</rscale>
<asrwt>0</asrwt>
<pdfrwt beam="2">  1        5 0.10541160E-01 0.12986861E+03</pdfrwt>
<pdfrwt beam="1">  1       -5 0.45047867E-01 0.12986861E+03</pdfrwt>
<totfact> 0.24638811E+02</totfact>
</mgrwt>
</event>
<event>
 8    1  0.1821556E-007  0.1332127E+03  0.7546771E-02  0.1222766E+00
          5   -1    0    0  501    0  0.00000000000E+00  0.00000000000E+00  0.57854815246E+03  0.57856724304E+03  0.47000000000E+01 0. -1.
         -5   -1    0    0    0  501 -0.00000000000E+00 -0.00000000000E+00 -0.31337385118E+02  0.31687879482E+02  0.47000000000E+01 0. -1.
         25    2    1    2    0    0  0.31843699672E+02 -0.33260532733E+02  0.22321596902E+03  0.25994421661E+03  0.12500137071E+03 0.  0.
         25    2    1    2    0    0 -0.31843699672E+02  0.33260532733E+02  0.32399479832E+03  0.35031090590E+03  0.12499926883E+03 0.  0.
          5    1    3    3  502    0 -0.10336437847E+02  0.11752847692E+02 -0.96647038372E+01  0.18985991586E+02  0.47000000000E+01 0. -1.
         -5    1    3    3    0  502  0.42180137519E+02 -0.45013380425E+02  0.23288067286E+03  0.24095822503E+03  0.47000000000E+01 0. -1.
          5    1    4    4  503    0  0.42998127423E+02  0.23135123428E+02  0.19197489172E+03  0.19814268079E+03  0.47000000000E+01 0. -1.
         -5    1    4    4    0  503 -0.74841827095E+02  0.10125409305E+02  0.13201990660E+03  0.15216822512E+03  0.47000000000E+01 0. -1.
<mgrwt>
<rscale>  0 0.13321222E+03</rscale>
<asrwt>0</asrwt>
<pdfrwt beam="1">  1        5 0.89035839E-01 0.13321271E+03</pdfrwt>
<pdfrwt beam="2">  1       -5 0.48495657E-02 0.13321271E+03</pdfrwt>
<totfact> 0.20617421E+02</totfact>
</mgrwt>
</event>
<event>
 8    1  0.1821556E-007  0.1346376E+03  0.7546771E-02  0.1220734E+00
         -5   -1    0    0    0  501 -0.00000000000E+00  0.00000000000E+00  0.13760183672E+04  0.13760263940E+04  0.47000000000E+01 0. -1.
          5   -1    0    0  501    0  0.00000000000E+00 -0.00000000000E+00 -0.12793202539E+02  0.13629234432E+02  0.47000000000E+01 0. -1.
         25    2    1    2    0    0 -0.98945713278E+01 -0.49025035938E+02  0.72266795625E+03  0.73510288395E+03  0.12500367318E+03 0.  0.
         25    2    1    2    0    0  0.98945713278E+01  0.49025035938E+02  0.64055720845E+03  0.65455274448E+03  0.12499760526E+03 0.  0.
          5    1    4    4  502    0  0.16725930345E+02  0.70339834591E+02  0.61866399176E+03  0.62289218472E+03  0.47000000000E+01 0.  1.
         -5    1    4    4    0  502 -0.68313590170E+01 -0.21314798654E+02  0.21893216685E+02  0.31660559763E+02  0.47000000000E+01 0.  1.
          5    1    3    3  503    0  0.11942438768E+02  0.37944669423E+02  0.32288601959E+03  0.32536117074E+03  0.47000000000E+01 0.  1.
         -5    1    3    3    0  503 -0.21837010096E+02 -0.86969705360E+02  0.39978193666E+03  0.40974171321E+03  0.47000000000E+01 0.  1.
<mgrwt>
<rscale>  0 0.13463616E+03</rscale>
<asrwt>0</asrwt>
<pdfrwt beam="2">  1        5 0.20331114E-02 0.13463757E+03</pdfrwt>
<pdfrwt beam="1">  1       -5 0.21176018E+00 0.13463757E+03</pdfrwt>
<totfact> 0.81974906E+01</totfact>
</mgrwt>
</event>
<event>
 8    1  0.1821556E-007  0.1426089E+03  0.7546771E-02  0.1209862E+00
         -5   -1    0    0    0  501 -0.00000000000E+00  0.00000000000E+00  0.66606671262E+03  0.66608329483E+03  0.47000000000E+01 0.  1.
          5   -1    0    0  501    0  0.00000000000E+00 -0.00000000000E+00 -0.30797155426E+02  0.31153728225E+02  0.47000000000E+01 0.  1.
         25    2    1    2    0    0 -0.48168335260E+02  0.48903042554E+02  0.36007809251E+03  0.38728999866E+03  0.12500245702E+03 0.  0.
         25    2    1    2    0    0  0.48168335260E+02 -0.48903042554E+02  0.27519146468E+03  0.30994702440E+03  0.12500047844E+03 0.  0.
          5    1    4    4  502    0  0.13269309632E+02 -0.87580201602E+02  0.14996284805E+03  0.17423349874E+03  0.47000000000E+01 0.  1.
         -5    1    4    4    0  502  0.34899025628E+02  0.38677159048E+02  0.12522861663E+03  0.13571352565E+03  0.47000000000E+01 0.  1.
          5    1    3    3  503    0  0.26432480470E+02 -0.17455450893E+01  0.15438103081E+02  0.31018510251E+02  0.47000000000E+01 0.  1.
         -5    1    3    3    0  503 -0.74600815730E+02  0.50648587643E+02  0.34463998943E+03  0.35627148841E+03  0.47000000000E+01 0.  1.
<mgrwt>
<rscale>  0 0.14260851E+03</rscale>
<asrwt>0</asrwt>
<pdfrwt beam="2">  1        5 0.47667278E-02 0.14260894E+03</pdfrwt>
<pdfrwt beam="1">  1       -5 0.10250051E+00 0.14260894E+03</pdfrwt>
<totfact> 0.15457934E+02</totfact>
</mgrwt>
</event>
<event>
 8    1  0.1821556E-007  0.1550271E+03  0.7546771E-02  0.1194439E+00
          5   -1    0    0  501    0  0.00000000000E+00  0.00000000000E+00  0.10414712850E+03  0.10425312645E+03  0.47000000000E+01 0.  1.
         -5   -1    0    0    0  501 -0.00000000000E+00 -0.00000000000E+00 -0.26556489514E+03  0.26560648247E+03  0.47000000000E+01 0.  1.
         25    2    1    2    0    0 -0.64041211180E+02  0.65555678435E+02 -0.14793298259E+03  0.21428386310E+03  0.12503832589E+03 0.  0.
         25    2    1    2    0    0  0.64041211180E+02 -0.65555678435E+02 -0.13484784047E+02  0.15557574583E+03  0.12499259812E+03 0.  0.
          5    1    3    3  502    0 -0.45684757649E+02  0.46369486860E+02 -0.13876602517E+01  0.65278189268E+02  0.47000000000E+01 0. -1.
         -5    1    3    3    0  502 -0.18356453530E+02  0.19186191575E+02 -0.14654532234E+03  0.14900567383E+03  0.47000000000E+01 0. -1.
          5    1    4    4  503    0  0.20859165421E+02  0.36163789562E+01  0.48442098011E+02  0.53074568661E+02  0.47000000000E+01 0.  1.
         -5    1    4    4    0  503  0.43182045759E+02 -0.69172057391E+02 -0.61926882058E+02  0.10250117717E+03  0.47000000000E+01 0.  1.
<mgrwt>
<rscale>  0 0.15501790E+03</rscale>
<asrwt>0</asrwt>
<pdfrwt beam="1">  1        5 0.16033988E-01 0.15502712E+03</pdfrwt>
<pdfrwt beam="2">  1       -5 0.40867490E-01 0.15502712E+03</pdfrwt>
<totfact> 0.15110453E+02</totfact>
</mgrwt>
</event>
<event>
 8    1  0.1821556E-007  0.1754452E+03  0.7546771E-02  0.1172286E+00
          5   -1    0    0  501    0  0.00000000000E+00  0.00000000000E+00  0.11458093568E+03  0.11467728991E+03  0.47000000000E+01 0. -1.
         -5   -1    0    0    0  501 -0.00000000000E+00 -0.00000000000E+00 -0.27268487694E+03  0.27272537856E+03  0.47000000000E+01 0. -1.
         25    2    1    2    0    0  0.17781498075E+02  0.12182122305E+03 -0.10329973268E+03  0.20359701790E+03  0.12499727543E+03 0.  0.
         25    2    1    2    0    0 -0.17781498075E+02 -0.12182122305E+03 -0.54804208578E+02  0.18380565058E+03  0.12499769537E+03 0.  0.
          5    1    3    3  502    0 -0.26032283890E+02  0.10388156251E+03 -0.22047980810E+02  0.10944067933E+03  0.47000000000E+01 0. -1.
         -5    1    3    3    0  502  0.43813781964E+02  0.17939660546E+02 -0.81251751873E+02  0.94156338570E+02  0.47000000000E+01 0. -1.
          5    1    4    4  503    0  0.61458775355E+01 -0.11662813814E+03  0.70692392946E+01  0.11709807240E+03  0.47000000000E+01 0.  1.
         -5    1    4    4    0  503 -0.23927375610E+02 -0.51930849145E+01 -0.61873447872E+02  0.66707578176E+02  0.47000000000E+01 0.  1.
<mgrwt>
<rscale>  0 0.17544512E+03</rscale>
<asrwt>0</asrwt>
<pdfrwt beam="1">  1        5 0.17638364E-01 0.17544519E+03</pdfrwt>
<pdfrwt beam="2">  1       -5 0.41962047E-01 0.17544519E+03</pdfrwt>
<totfact> 0.12470666E+02</totfact>
</mgrwt>
</event>
<event>
 8    1  0.1821556E-007  0.1631182E+03  0.7546771E-02  0.1185234E+00
         -5   -1    0    0    0  501 -0.00000000000E+00  0.00000000000E+00  0.21850599819E+02  0.22350362692E+02  0.47000000000E+01 0. -1.
          5   -1    0    0  501    0  0.00000000000E+00 -0.00000000000E+00 -0.12116490923E+04  0.12116582080E+04  0.47000000000E+01 0. -1.
         25    2    1    2    0    0 -0.59838850819E+01  0.10455036176E+03 -0.54292759722E+03  0.56688826840E+03  0.12500139200E+03 0.  0.
         25    2    1    2    0    0  0.59838850819E+01 -0.10455036176E+03 -0.64687089528E+03  0.66712030225E+03  0.12506381367E+03 0.  0.
          5    1    4    4  502    0  0.45082710062E+02 -0.11347306841E+03 -0.46146456483E+03  0.47736801589E+03  0.47000000000E+01 0. -1.
         -5    1    4    4    0  502 -0.39098824980E+02  0.89227066440E+01 -0.18540633044E+03  0.18975228635E+03  0.47000000000E+01 0. -1.
          5    1    3    3  503    0 -0.10770969149E+02 -0.26802036239E+02 -0.66811690567E+02  0.72940077594E+02  0.47000000000E+01 0. -1.
         -5    1    3    3    0  503  0.47870840672E+01  0.13135239800E+03 -0.47611590665E+03  0.49394819081E+03  0.47000000000E+01 0. -1.
<mgrwt>
<rscale>  0 0.16310622E+03</rscale>
<asrwt>0</asrwt>
<pdfrwt beam="2">  1        5 0.18644665E+00 0.16311819E+03</pdfrwt>
<pdfrwt beam="1">  1       -5 0.34007762E-02 0.16311819E+03</pdfrwt>
<totfact> 0.56237821E+01</totfact>
</mgrwt>
</event>
<event>
 8    1  0.1821556E-007  0.1660908E+03  0.7546771E-02  0.1181990E+00
         -5   -1    0    0    0  501 -0.00000000000E+00  0.00000000000E+00  0.46210017208E+03  0.46212407321E+03  0.47000000000E+01 0.  1.
          5   -1    0    0  501    0  0.00000000000E+00 -0.00000000000E+00 -0.61762943092E+02  0.61941513861E+02  0.47000000000E+01 0.  1.
         25    2    1    2    0    0 -0.63032827053E+02  0.89358108405E+02  0.24940473934E+03  0.29964795002E+03  0.12501264384E+03 0.  0.
         25    2    1    2    0    0  0.63032827053E+02 -0.89358108405E+02  0.15093248965E+03  0.22441763705E+03  0.12499860225E+03 0.  0.
          5    1    3    3  502    0 -0.65124420993E+02  0.10537351765E+03  0.25363083801E+03  0.28230384415E+03  0.47000000000E+01 0.  1.
         -5    1    3    3    0  502  0.20915939399E+01 -0.16015409248E+02 -0.42260986654E+01  0.17344105872E+02  0.47000000000E+01 0.  1.
          5    1    4    4  503    0  0.70090874361E+02 -0.91982005494E+01  0.11738478449E+03  0.13710804204E+03  0.47000000000E+01 0.  1.
         -5    1    4    4    0  503 -0.70580473088E+01 -0.80159907856E+02  0.33547705158E+02  0.87309595009E+02  0.47000000000E+01 0.  1.
<mgrwt>
<rscale>  0 0.16608821E+03</rscale>
<asrwt>0</asrwt>
<pdfrwt beam="2">  1        5 0.95175656E-02 0.16609085E+03</pdfrwt>
<pdfrwt beam="1">  1       -5 0.71107912E-01 0.16609085E+03</pdfrwt>
<totfact> 0.11849932E+02</totfact>
</mgrwt>
</event>
<event>
 8    1  0.1821556E-007  0.1377011E+03  0.7546771E-02  0.1216459E+00
         -5   -1    0    0    0  501 -0.00000000000E+00  0.00000000000E+00  0.23102900350E+03  0.23107680641E+03  0.47000000000E+01 0.  1.
          5   -1    0    0  501    0  0.00000000000E+00 -0.00000000000E+00 -0.88341607540E+02  0.88466545217E+02  0.47000000000E+01 0.  1.
         25    2    1    2    0    0  0.35949271420E+02 -0.45181639904E+02  0.11429403850E+03  0.17895454813E+03  0.12501148891E+03 0.  0.
         25    2    1    2    0    0 -0.35949271420E+02  0.45181639904E+02  0.28393357461E+02  0.14058880350E+03  0.12500119288E+03 0.  0.
          5    1    3    3  502    0  0.53073218057E+02 -0.33774203058E+02  0.13523376151E+03  0.14922373645E+03  0.47000000000E+01 0. -1.
         -5    1    3    3    0  502 -0.17123946637E+02 -0.11407436846E+02 -0.20939723005E+02  0.29730811683E+02  0.47000000000E+01 0. -1.
          5    1    4    4  503    0 -0.37273382459E+02  0.85206207285E+02  0.34680125200E+01  0.93185406104E+02  0.47000000000E+01 0. -1.
         -5    1    4    4    0  503  0.13241110393E+01 -0.40024567381E+02  0.24925344941E+02  0.47403397394E+02  0.47000000000E+01 0. -1.
<mgrwt>
<rscale>  0 0.13769880E+03</rscale>
<asrwt>0</asrwt>
<pdfrwt beam="2">  1        5 0.13604304E-01 0.13770114E+03</pdfrwt>
<pdfrwt beam="1">  1       -5 0.35556211E-01 0.13770114E+03</pdfrwt>
<totfact> 0.25958463E+02</totfact>
</mgrwt>
</event>
<event>
 8    1  0.1821556E-007  0.1265526E+03  0.7546771E-02  0.1232664E+00
         -5   -1    0    0    0  501 -0.00000000000E+00  0.00000000000E+00  0.64494788854E+02  0.64665816235E+02  0.47000000000E+01 0. -1.
          5   -1    0    0  501    0  0.00000000000E+00 -0.00000000000E+00 -0.29622905933E+03  0.29626634232E+03  0.47000000000E+01 0. -1.
         25    2    1    2    0    0  0.19780290352E+02 -0.32816196653E-01 -0.42919105702E+02  0.13362900792E+03  0.12499360448E+03 0.  0.
         25    2    1    2    0    0 -0.19780290352E+02  0.32816196653E-01 -0.18881516477E+03  0.22730315063E+03  0.12499717946E+03 0.  0.
          5    1    4    4  502    0 -0.28277393248E+02 -0.38587616342E+02 -0.18027690632E+03  0.18657563629E+03  0.47000000000E+01 0.  1.
         -5    1    4    4    0  502  0.84971028958E+01  0.38620432538E+02 -0.85382584542E+01  0.40727514342E+02  0.47000000000E+01 0.  1.
          5    1    3    3  503    0 -0.45056975409E+02  0.26569982969E+02 -0.24739213621E+01  0.52576661314E+02  0.47000000000E+01 0. -1.
         -5    1    3    3    0  503  0.64837265761E+02 -0.26602799166E+02 -0.40445184339E+02  0.81052346611E+02  0.47000000000E+01 0. -1.
<mgrwt>
<rscale>  0 0.12655170E+03</rscale>
<asrwt>0</asrwt>
<pdfrwt beam="2">  1        5 0.45589724E-01 0.12655258E+03</pdfrwt>
<pdfrwt beam="1">  1       -5 0.99382993E-02 0.12655258E+03</pdfrwt>
<totfact> 0.26387989E+02</totfact>
</mgrwt>
</event>
<event>
 8    1  0.1821556E-007  0.1258840E+03  0.7546771E-02  0.1233695E+00
         -5   -1    0    0    0  501 -0.00000000000E+00  0.00000000000E+00  0.21352838568E+04  0.21352890294E+04  0.47000000000E+01 0.  1.
          5   -1    0    0  501    0  0.00000000000E+00 -0.00000000000E+00 -0.66785278410E+01  0.81665619524E+01  0.47000000000E+01 0.  1.
         25    2    1    2    0    0  0.32637764860E+01  0.14524010598E+02  0.10958406158E+04  0.11030471398E+04  0.12499895295E+03 0.  0.
         25    2    1    2    0    0 -0.32637764860E+01 -0.14524010598E+02  0.10327647132E+04  0.10404084516E+04  0.12500077694E+03 0.  0.
          5    1    4    4  502    0 -0.50215376831E+01 -0.69653235942E+02  0.62374135417E+03  0.62765608100E+03  0.47000000000E+01 0. -1.
         -5    1    4    4    0  502  0.17577611971E+01  0.55129225345E+02  0.40902335900E+03  0.41275237058E+03  0.47000000000E+01 0. -1.
          5    1    3    3  503    0  0.35118743915E+02 -0.11176981186E+01  0.92378875587E+02  0.98947067051E+02  0.47000000000E+01 0.  1.
         -5    1    3    3    0  503 -0.31854967429E+02  0.15641708716E+02  0.10034617402E+04  0.10041000728E+04  0.47000000000E+01 0.  1.
<mgrwt>
<rscale>  0 0.12588359E+03</rscale>
<asrwt>0</asrwt>
<pdfrwt beam="2">  1        5 0.11423277E-02 0.12588405E+03</pdfrwt>
<pdfrwt beam="1">  1       -5 0.32862011E+00 0.12588405E+03</pdfrwt>
<totfact> 0.35943418E+01</totfact>
</mgrwt>
</event>
<event>
 8    1  0.1821556E-007  0.1496240E+03  0.7546771E-02  0.1200939E+00
         -5   -1    0    0    0  501 -0.00000000000E+00  0.00000000000E+00  0.59414218673E+02  0.59599827017E+02  0.47000000000E+01 0. -1.
          5   -1    0    0  501    0  0.00000000000E+00 -0.00000000000E+00 -0.37598989533E+03  0.37601926997E+03  0.47000000000E+01 0. -1.
         25    2    1    2    0    0  0.24479032045E+02 -0.78500725661E+02 -0.15798223835E+03  0.21759072487E+03  0.12500299587E+03 0.  0.
         25    2    1    2    0    0 -0.24479032045E+02  0.78500725661E+02 -0.15859343831E+03  0.21802837212E+03  0.12499162146E+03 0.  0.
          5    1    4    4  502    0  0.13156502787E+02 -0.10300751880E+01 -0.12170157314E+03  0.12250517347E+03  0.47000000000E+01 0.  1.
         -5    1    4    4    0  502 -0.37635534832E+02  0.79530800849E+02 -0.36891865171E+02  0.95523198656E+02  0.47000000000E+01 0.  1.
          5    1    3    3  503    0 -0.25392408745E+02 -0.88739267672E+02 -0.70409480749E+02  0.11618527027E+03  0.47000000000E+01 0.  1.
         -5    1    3    3    0  503  0.49871440790E+02  0.10238542011E+02 -0.87572757597E+02  0.10140545460E+03  0.47000000000E+01 0.  1.
<mgrwt>
<rscale>  0 0.14962161E+03</rscale>
<asrwt>0</asrwt>
<pdfrwt beam="2">  1        5 0.57861135E-01 0.14962398E+03</pdfrwt>
<pdfrwt beam="1">  1       -5 0.91571864E-02 0.14962398E+03</pdfrwt>
<totfact> 0.19389934E+02</totfact>
</mgrwt>
</event>
<event>
 8    1  0.1821556E-007  0.1361871E+03  0.7546771E-02  0.1218557E+00
          5   -1    0    0  501    0  0.00000000000E+00  0.00000000000E+00  0.39401158172E+02  0.39680489731E+02  0.47000000000E+01 0. -1.
         -5   -1    0    0    0  501 -0.00000000000E+00 -0.00000000000E+00 -0.57713938036E+03  0.57715851754E+03  0.47000000000E+01 0. -1.
         25    2    1    2    0    0 -0.14674168148E+02 -0.51999285117E+02 -0.40249434149E+03  0.42490714648E+03  0.12500052536E+03 0.  0.
         25    2    1    2    0    0  0.14674168148E+02  0.51999285117E+02 -0.13524388070E+03  0.19193186078E+03  0.12501069975E+03 0.  0.
          5    1    3    3  502    0 -0.41907812526E+02 -0.68840416692E+02 -0.14997882137E+03  0.17032617115E+03  0.47000000000E+01 0. -1.
         -5    1    3    3    0  502  0.27233644378E+02  0.16841131575E+02 -0.25251552012E+03  0.25458097533E+03  0.47000000000E+01 0. -1.
          5    1    4    4  503    0 -0.37914240554E+02  0.66436733452E+02 -0.10306951954E+03  0.12843965527E+03  0.47000000000E+01 0. -1.
         -5    1    4    4    0  503  0.52588408702E+02 -0.14437448335E+02 -0.32174361164E+02  0.63492205510E+02  0.47000000000E+01 0. -1.
<mgrwt>
<rscale>  0 0.13618479E+03</rscale>
<asrwt>0</asrwt>
<pdfrwt beam="1">  1        5 0.60846762E-02 0.13618712E+03</pdfrwt>
<pdfrwt beam="2">  1       -5 0.88813627E-01 0.13618712E+03</pdfrwt>
<totfact> 0.14305439E+02</totfact>
</mgrwt>
</event>
<event>
 8    1  0.1821556E-007  0.1590856E+03  0.7546771E-02  0.1189734E+00
          5   -1    0    0  501    0  0.00000000000E+00  0.00000000000E+00  0.48875807792E+03  0.48878067549E+03  0.47000000000E+01 0.  1.
         -5   -1    0    0    0  501 -0.00000000000E+00 -0.00000000000E+00 -0.51857522730E+02  0.52070074551E+02  0.47000000000E+01 0.  1.
         25    2    1    2    0    0  0.63148598896E+02 -0.75465999797E+02  0.23557217077E+03  0.28425775865E+03  0.12500145216E+03 0.  0.
         25    2    1    2    0    0 -0.63148598896E+02  0.75465999797E+02  0.20132838442E+03  0.25659299139E+03  0.12499592869E+03 0.  0.
          5    1    4    4  502    0 -0.59114959669E+02  0.10296202814E+03  0.11336271536E+03  0.16422226685E+03  0.47000000000E+01 0. -1.
         -5    1    4    4    0  502 -0.40336392265E+01 -0.27496028339E+02  0.87965669057E+02  0.92370724542E+02  0.47000000000E+01 0. -1.
          5    1    3    3  503    0 -0.30046355135E+02 -0.30110784254E+02  0.12729423914E+03  0.13429577843E+03  0.47000000000E+01 0.  1.
         -5    1    3    3    0  503  0.93194954031E+02 -0.45355215544E+02  0.10827793163E+03  0.14996198022E+03  0.47000000000E+01 0.  1.
<mgrwt>
<rscale>  0 0.15908451E+03</rscale>
<asrwt>0</asrwt>
<pdfrwt beam="1">  1        5 0.75211639E-01 0.15908559E+03</pdfrwt>
<pdfrwt beam="2">  1       -5 0.79961688E-02 0.15908559E+03</pdfrwt>
<totfact> 0.13915317E+02</totfact>
</mgrwt>
</event>
<event>
 8    1  0.1821556E-007  0.1506926E+03  0.7546771E-02  0.1199626E+00
         -5   -1    0    0    0  501 -0.00000000000E+00  0.00000000000E+00  0.17233266591E+02  0.17862683936E+02  0.47000000000E+01 0. -1.
          5   -1    0    0  501    0  0.00000000000E+00 -0.00000000000E+00 -0.13010949028E+04  0.13011033917E+04  0.47000000000E+01 0. -1.
         25    2    1    2    0    0 -0.52237341410E+02 -0.65977196199E+02 -0.59122214317E+03  0.61012448353E+03  0.12500613014E+03 0.  0.
         25    2    1    2    0    0  0.52237341410E+02  0.65977196199E+02 -0.69263949300E+03  0.70884159215E+03  0.12500082093E+03 0.  0.
          5    1    4    4  502    0  0.80458233762E+02  0.94340272396E+01 -0.28579493090E+03  0.29709150237E+03  0.47000000000E+01 0.  1.
         -5    1    4    4    0  502 -0.28220892352E+02  0.56543168959E+02 -0.40684456210E+03  0.41175008978E+03  0.47000000000E+01 0.  1.
          5    1    3    3  503    0  0.76356834028E+01  0.20517315070E+02 -0.29306445694E+03  0.29391857682E+03  0.47000000000E+01 0. -1.
         -5    1    3    3    0  503 -0.59873024813E+02 -0.86494511269E+02 -0.29815768623E+03  0.31620590671E+03  0.47000000000E+01 0. -1.
<mgrwt>
<rscale>  0 0.15069151E+03</rscale>
<asrwt>0</asrwt>
<pdfrwt beam="2">  1        5 0.20021744E+00 0.15069261E+03</pdfrwt>
<pdfrwt beam="1">  1       -5 0.27003425E-02 0.15069261E+03</pdfrwt>
<totfact> 0.64245137E+01</totfact>
</mgrwt>
</event>
<event>
 8    1  0.1821556E-007  0.1266073E+03  0.7546771E-02  0.1232581E+00
         -5   -1    0    0    0  501 -0.00000000000E+00  0.00000000000E+00  0.11634566884E+03  0.11644056277E+03  0.47000000000E+01 0. -1.
          5   -1    0    0  501    0  0.00000000000E+00 -0.00000000000E+00 -0.15642011540E+03  0.15649071059E+03  0.47000000000E+01 0. -1.
         25    2    1    2    0    0 -0.17675392656E+02 -0.95502525431E+01  0.27304995830E+02  0.12951093862E+03  0.12499557430E+03 0.  0.
         25    2    1    2    0    0  0.17675392656E+02  0.95502525431E+01 -0.67379442386E+02  0.14342033474E+03  0.12500310529E+03 0.  0.
          5    1    4    4  502    0  0.26342733757E+02  0.46148629381E+02  0.12688898992E+02  0.54833691953E+02  0.47000000000E+01 0.  1.
         -5    1    4    4    0  502 -0.86673411015E+01 -0.36598376838E+02 -0.80068341378E+02  0.88586642785E+02  0.47000000000E+01 0.  1.
          5    1    3    3  503    0  0.29208158565E+02  0.10914398661E+02  0.60586577892E+02  0.68301274114E+02  0.47000000000E+01 0.  1.
         -5    1    3    3    0  503 -0.46883551221E+02 -0.20464651204E+02 -0.33281582063E+02  0.61209664503E+02  0.47000000000E+01 0.  1.
<mgrwt>
<rscale>  0 0.12660542E+03</rscale>
<asrwt>0</asrwt>
<pdfrwt beam="2">  1        5 0.24077363E-01 0.12660728E+03</pdfrwt>
<pdfrwt beam="1">  1       -5 0.17912064E-01 0.12660728E+03</pdfrwt>
<totfact> 0.32759356E+02</totfact>
</mgrwt>
</event>
<event>
 8    1  0.1821556E-007  0.2023128E+03  0.7546771E-02  0.1147808E+00
          5   -1    0    0  501    0  0.00000000000E+00  0.00000000000E+00  0.42329293802E+03  0.42331903026E+03  0.47000000000E+01 0.  1.
         -5   -1    0    0    0  501 -0.00000000000E+00 -0.00000000000E+00 -0.10912631576E+03  0.10922748185E+03  0.47000000000E+01 0.  1.
         25    2    1    2    0    0 -0.20745805690E+02 -0.15767985762E+03  0.24726923494E+03  0.31948794470E+03  0.12504857578E+03 0.  0.
         25    2    1    2    0    0  0.20745805690E+02  0.15767985762E+03  0.66897387316E+02  0.21305856741E+03  0.12500146705E+03 0.  0.
          5    1    4    4  502    0  0.21571882351E+02  0.17262533175E+03  0.81004416688E+02  0.19196003957E+03  0.47000000000E+01 0.  1.
         -5    1    4    4    0  502 -0.82607666111E+00 -0.14945474124E+02 -0.14107029372E+02  0.21098527843E+02  0.47000000000E+01 0.  1.
          5    1    3    3  503    0  0.43821307463E+02 -0.29193246923E+02  0.36291407016E+02  0.64122608157E+02  0.47000000000E+01 0. -1.
         -5    1    3    3    0  503 -0.64567113153E+02 -0.12848661070E+03  0.21097782793E+03  0.25536533654E+03  0.47000000000E+01 0. -1.
<mgrwt>
<rscale>  0 0.20230553E+03</rscale>
<asrwt>0</asrwt>
<pdfrwt beam="1">  1        5 0.65131781E-01 0.20231281E+03</pdfrwt>
<pdfrwt beam="2">  1       -5 0.16798453E-01 0.20231281E+03</pdfrwt>
<totfact> 0.55174647E+01</totfact>
</mgrwt>
</event>
<event>
 8    1  0.1821556E-007  0.1274539E+03  0.7546771E-02  0.1231284E+00
          5   -1    0    0  501    0  0.00000000000E+00  0.00000000000E+00  0.35980452883E+03  0.35983522474E+03  0.47000000000E+01 0.  1.
         -5   -1    0    0    0  501 -0.00000000000E+00 -0.00000000000E+00 -0.79512723927E+02  0.79651511387E+02  0.47000000000E+01 0.  1.
         25    2    1    2    0    0  0.24045510196E+02 -0.64265971019E+01 -0.44405425867E+01  0.12752999810E+03  0.12499877714E+03 0.  0.
         25    2    1    2    0    0 -0.24045510196E+02  0.64265971019E+01  0.28473234749E+03  0.31195673803E+03  0.12500003594E+03 0.  0.
          5    1    4    4  502    0 -0.48849672416E+02 -0.25033255139E+01  0.28058950064E+03  0.28485981641E+03  0.47000000000E+01 0.  1.
         -5    1    4    4    0  502  0.24804162220E+02  0.89299226158E+01  0.41428468467E+01  0.27096921622E+02  0.47000000000E+01 0.  1.
          5    1    3    3  503    0 -0.21027285487E+02 -0.44406311407E+02  0.31294572361E+02  0.58442343271E+02  0.47000000000E+01 0.  1.
         -5    1    3    3    0  503  0.45072795683E+02  0.37979714305E+02 -0.35735114948E+02  0.69087654829E+02  0.47000000000E+01 0.  1.
<mgrwt>
<rscale>  0 0.12745359E+03</rscale>
<asrwt>0</asrwt>
<pdfrwt beam="1">  1        5 0.55367579E-01 0.12745390E+03</pdfrwt>
<pdfrwt beam="2">  1       -5 0.12245764E-01 0.12745390E+03</pdfrwt>
<totfact> 0.12145914E+02</totfact>
</mgrwt>
</event>
<event>
 8    1  0.1821556E-007  0.1942163E+03  0.7546771E-02  0.1154713E+00
          5   -1    0    0  501    0  0.00000000000E+00  0.00000000000E+00  0.12030006555E+04  0.12030098367E+04  0.47000000000E+01 0. -1.
         -5   -1    0    0    0  501 -0.00000000000E+00 -0.00000000000E+00 -0.31735453458E+02  0.32081599183E+02  0.47000000000E+01 0. -1.
         25    2    1    2    0    0 -0.13340263576E+03 -0.65568460232E+02  0.50357507398E+03  0.53972817314E+03  0.12499263791E+03 0.  0.
         25    2    1    2    0    0  0.13340263576E+03  0.65568460232E+02  0.66769012808E+03  0.69536326275E+03  0.12499789531E+03 0.  0.
          5    1    3    3  502    0 -0.13695653889E+03 -0.73498748288E+02  0.31894543547E+03  0.35483438439E+03  0.47000000000E+01 0. -1.
         -5    1    3    3    0  502  0.35539031229E+01  0.79302880557E+01  0.18462963852E+03  0.18489378874E+03  0.47000000000E+01 0. -1.
          5    1    4    4  503    0  0.19026628220E+02 -0.32776701259E+02  0.20969654698E+03  0.21314562286E+03  0.47000000000E+01 0. -1.
         -5    1    4    4    0  503  0.11437600754E+03  0.98345161491E+02  0.45799358110E+03  0.48221763989E+03  0.47000000000E+01 0. -1.
<mgrwt>
<rscale>  0 0.19421543E+03</rscale>
<asrwt>0</asrwt>
<pdfrwt beam="1">  1        5 0.18510433E+00 0.19421627E+03</pdfrwt>
<pdfrwt beam="2">  1       -5 0.49097111E-02 0.19421627E+03</pdfrwt>
<totfact> 0.32788494E+01</totfact>
</mgrwt>
</event>
<event>
 8    1  0.1821556E-007  0.1291902E+03  0.7546771E-02  0.1228663E+00
         -5   -1    0    0    0  501 -0.00000000000E+00  0.00000000000E+00  0.11302718743E+03  0.11312486508E+03  0.47000000000E+01 0. -1.
          5   -1    0    0  501    0  0.00000000000E+00 -0.00000000000E+00 -0.14951196963E+03  0.14958582507E+03  0.47000000000E+01 0. -1.
         25    2    1    2    0    0 -0.58219490554E+01 -0.32117054797E+02 -0.28766739472E+01  0.12922220300E+03  0.12499880878E+03 0.  0.
         25    2    1    2    0    0  0.58219490554E+01  0.32117054797E+02 -0.33608108250E+02  0.13348848715E+03  0.12499708382E+03 0.  0.
          5    1    4    4  502    0  0.50316184349E+01 -0.94144789278E+01 -0.74264281826E+02  0.75174617742E+02  0.47000000000E+01 0.  1.
         -5    1    4    4    0  502  0.79033062052E+00  0.41531533725E+02  0.40656173576E+02  0.58313869412E+02  0.47000000000E+01 0.  1.
          5    1    3    3  503    0 -0.28445733900E+02  0.40418670506E+02 -0.15595518984E+02  0.52039782042E+02  0.47000000000E+01 0.  1.
         -5    1    3    3    0  503  0.22623784845E+02 -0.72535725303E+02  0.12718845037E+02  0.77182420959E+02  0.47000000000E+01 0.  1.
<mgrwt>
<rscale>  0 0.12918976E+03</rscale>
<asrwt>0</asrwt>
<pdfrwt beam="2">  1        5 0.23015036E-01 0.12919018E+03</pdfrwt>
<pdfrwt beam="1">  1       -5 0.17401993E-01 0.12919018E+03</pdfrwt>
<totfact> 0.37918565E+02</totfact>
</mgrwt>
</event>
<event>
 8    1  0.1821556E-007  0.1340691E+03  0.7546771E-02  0.1221542E+00
          5   -1    0    0  501    0  0.00000000000E+00  0.00000000000E+00  0.15749758696E+03  0.15756769942E+03  0.47000000000E+01 0. -1.
         -5   -1    0    0    0  501 -0.00000000000E+00 -0.00000000000E+00 -0.11710752222E+03  0.11720179931E+03  0.47000000000E+01 0. -1.
         25    2    1    2    0    0 -0.11978173010E+02 -0.46955954906E+02 -0.22539695921E+01  0.13408805385E+03  0.12500474981E+03 0.  0.
         25    2    1    2    0    0  0.11978173010E+02  0.46955954906E+02  0.42644034335E+02  0.14068144488E+03  0.12499766773E+03 0.  0.
          5    1    4    4  502    0 -0.33833974823E+02  0.17075217413E+02 -0.30748389051E+02  0.49029117178E+02  0.47000000000E+01 0. -1.
         -5    1    4    4    0  502  0.45812147833E+02  0.29880737492E+02  0.73392423386E+02  0.91652327699E+02  0.47000000000E+01 0. -1.
          5    1    3    3  503    0 -0.68396089429E+02 -0.29777954573E+02  0.20129195462E+01  0.74772277435E+02  0.47000000000E+01 0.  1.
         -5    1    3    3    0  503  0.56417916419E+02 -0.17178000333E+02 -0.42668891383E+01  0.59315776412E+02  0.47000000000E+01 0.  1.
<mgrwt>
<rscale>  0 0.13406746E+03</rscale>
<asrwt>0</asrwt>
<pdfrwt beam="1">  1        5 0.24243044E-01 0.13406911E+03</pdfrwt>
<pdfrwt beam="2">  1       -5 0.18029187E-01 0.13406911E+03</pdfrwt>
<totfact> 0.32617750E+02</totfact>
</mgrwt>
</event>
<event>
 8    1  0.1821556E-007  0.1353634E+03  0.7546771E-02  0.1219714E+00
         -5   -1    0    0    0  501 -0.00000000000E+00  0.00000000000E+00  0.17571664675E+04  0.17571727532E+04  0.47000000000E+01 0. -1.
          5   -1    0    0  501    0  0.00000000000E+00 -0.00000000000E+00 -0.10048630917E+02  0.11093465793E+02  0.47000000000E+01 0. -1.
         25    2    1    2    0    0  0.18519408387E+02  0.48481655711E+02  0.97912538716E+03  0.98843569234E+03  0.12500061872E+03 0.  0.
         25    2    1    2    0    0 -0.18519408387E+02 -0.48481655711E+02  0.76799244946E+03  0.77983052667E+03  0.12501923239E+03 0.  0.
          5    1    3    3  502    0 -0.50597469324E+02  0.33079631632E+01  0.29973122433E+03  0.30402622150E+03  0.47000000000E+01 0.  1.
         -5    1    3    3    0  502  0.69116877711E+02  0.45173692548E+02  0.67939416283E+03  0.68440947084E+03  0.47000000000E+01 0.  1.
          5    1    4    4  503    0  0.41811149483E+02 -0.23129391380E+02  0.55222965721E+03  0.55431293082E+03  0.47000000000E+01 0. -1.
         -5    1    4    4    0  503 -0.60330557871E+02 -0.25352264331E+02  0.21576279225E+03  0.22551759585E+03  0.47000000000E+01 0. -1.
<mgrwt>
<rscale>  0 0.13535909E+03</rscale>
<asrwt>0</asrwt>
<pdfrwt beam="2">  1        5 0.16268000E-02 0.13536339E+03</pdfrwt>
<pdfrwt beam="1">  1       -5 0.27041394E+00 0.13536339E+03</pdfrwt>
<totfact> 0.49257519E+01</totfact>
</mgrwt>
</event>
<event>
 8    1  0.1821556E-007  0.2705395E+03  0.7546771E-02  0.1100973E+00
         -5   -1    0    0    0  501 -0.00000000000E+00  0.00000000000E+00  0.98607762139E+02  0.98719708033E+02  0.47000000000E+01 0. -1.
          5   -1    0    0  501    0  0.00000000000E+00 -0.00000000000E+00 -0.74960171317E+03  0.74961644752E+03  0.47000000000E+01 0. -1.
         25    2    1    2    0    0  0.23986129601E+03 -0.55196395458E+01 -0.28190338203E+03  0.39071243337E+03  0.12499112388E+03 0.  0.
         25    2    1    2    0    0 -0.23986129601E+03  0.55196395458E+01 -0.36909056900E+03  0.45762372218E+03  0.12501086044E+03 0.  0.
          5    1    4    4  502    0 -0.19615265550E+03 -0.45639735102E+02 -0.25354000700E+03  0.32382630348E+03  0.47000000000E+01 0. -1.
         -5    1    4    4    0  502 -0.43708640514E+02  0.51159374648E+02 -0.11555056200E+03  0.13379741870E+03  0.47000000000E+01 0. -1.
          5    1    3    3  503    0  0.20805170631E+03 -0.25498819871E+02 -0.16194540375E+03  0.26492283048E+03  0.47000000000E+01 0.  1.
         -5    1    3    3    0  503  0.31809589703E+02  0.19979180325E+02 -0.11995797828E+03  0.12578960290E+03  0.47000000000E+01 0.  1.
<mgrwt>
<rscale>  0 0.27053722E+03</rscale>
<asrwt>0</asrwt>
<pdfrwt beam="2">  1        5 0.11533308E+00 0.27053950E+03</pdfrwt>
<pdfrwt beam="1">  1       -5 0.15180170E-01 0.27053950E+03</pdfrwt>
<totfact> 0.18195924E+01</totfact>
</mgrwt>
</event>
<event>
 8    1  0.1821556E-007  0.1564805E+03  0.7546771E-02  0.1192729E+00
          5   -1    0    0  501    0  0.00000000000E+00  0.00000000000E+00  0.57997314216E+02  0.58187442427E+02  0.47000000000E+01 0. -1.
         -5   -1    0    0    0  501 -0.00000000000E+00 -0.00000000000E+00 -0.42520176525E+03  0.42522774036E+03  0.47000000000E+01 0. -1.
         25    2    1    2    0    0  0.15823152940E+02  0.92800938642E+02 -0.20675223466E+03  0.25929233629E+03  0.12499457084E+03 0.  0.
         25    2    1    2    0    0 -0.15823152940E+02 -0.92800938642E+02 -0.16045221638E+03  0.22412284651E+03  0.12499500071E+03 0.  0.
          5    1    3    3  502    0 -0.20498741686E+02 -0.21407751543E+02 -0.76783884193E+02  0.82439948500E+02  0.47000000000E+01 0.  1.
         -5    1    3    3    0  502  0.36321894626E+02  0.11420869019E+03 -0.12996835046E+03  0.17685238779E+03  0.47000000000E+01 0.  1.
          5    1    4    4  503    0  0.13029017278E+02 -0.91124466559E+02 -0.16995438091E+03  0.19333909404E+03  0.47000000000E+01 0. -1.
         -5    1    4    4    0  503 -0.28852170218E+02 -0.16764720836E+01  0.95021645253E+01  0.30783752462E+02  0.47000000000E+01 0. -1.
<mgrwt>
<rscale>  0 0.15648038E+03</rscale>
<asrwt>0</asrwt>
<pdfrwt beam="1">  1        5 0.89392873E-02 0.15648047E+03</pdfrwt>
<pdfrwt beam="2">  1       -5 0.65432278E-01 0.15648047E+03</pdfrwt>
<totfact> 0.15644418E+02</totfact>
</mgrwt>
</event>
<event>
 8    1  0.1821556E-007  0.1363795E+03  0.7546771E-02  0.1218286E+00
          5   -1    0    0  501    0  0.00000000000E+00  0.00000000000E+00  0.11778208519E+03  0.11787582276E+03  0.47000000000E+01 0. -1.
         -5   -1    0    0    0  501 -0.00000000000E+00 -0.00000000000E+00 -0.15773682046E+03  0.15780682662E+03  0.47000000000E+01 0. -1.
         25    2    1    2    0    0 -0.79787567103E+00 -0.54532109760E+02 -0.18587696205E+02  0.13764038564E+03  0.12499994283E+03 0.  0.
         25    2    1    2    0    0  0.79787567103E+00  0.54532109760E+02 -0.21367039058E+02  0.13804226375E+03  0.12499891448E+03 0.  0.
          5    1    3    3  502    0 -0.41105958473E+02 -0.16224829963E+02 -0.55222556503E+02  0.70884170842E+02  0.47000000000E+01 0.  1.
         -5    1    3    3    0  502  0.40308082802E+02 -0.38307279797E+02  0.36634860298E+02  0.66756214794E+02  0.47000000000E+01 0.  1.
          5    1    4    4  503    0  0.18300719408E+02  0.27232138667E+02 -0.71122148563E+02  0.78466271247E+02  0.47000000000E+01 0.  1.
         -5    1    4    4    0  503 -0.17502843736E+02  0.27299971093E+02  0.49755109505E+02  0.59575992500E+02  0.47000000000E+01 0.  1.
<mgrwt>
<rscale>  0 0.13637928E+03</rscale>
<asrwt>0</asrwt>
<pdfrwt beam="1">  1        5 0.18132916E-01 0.13637952E+03</pdfrwt>
<pdfrwt beam="2">  1       -5 0.24279799E-01 0.13637952E+03</pdfrwt>
<totfact> 0.32371608E+02</totfact>
</mgrwt>
</event>
<event>
 8    1  0.1821556E-007  0.1275133E+03  0.7546771E-02  0.1231193E+00
          5   -1    0    0  501    0  0.00000000000E+00  0.00000000000E+00  0.97976187788E+02  0.98088854481E+02  0.47000000000E+01 0.  1.
         -5   -1    0    0    0  501 -0.00000000000E+00 -0.00000000000E+00 -0.16799544318E+03  0.16806117615E+03  0.47000000000E+01 0.  1.
         25    2    1    2    0    0  0.22667908551E+02  0.10994786977E+02 -0.50516354648E+02  0.13715389651E+03  0.12499827928E+03 0.  0.
         25    2    1    2    0    0 -0.22667908551E+02 -0.10994786977E+02 -0.19502900745E+02  0.12899613412E+03  0.12499968025E+03 0.  0.
          5    1    3    3  502    0 -0.39814502174E+02 -0.44256961091E+01 -0.59624438871E+02  0.71985728309E+02  0.47000000000E+01 0.  1.
         -5    1    3    3    0  502  0.62482410725E+02  0.15420483086E+02  0.91080842239E+01  0.65168168202E+02  0.47000000000E+01 0.  1.
          5    1    4    4  503    0  0.49073098906E+02 -0.23127327965E+02 -0.52578561098E+01  0.54706282874E+02  0.47000000000E+01 0.  1.
         -5    1    4    4    0  503 -0.71741007456E+02  0.12132540988E+02 -0.14245044635E+02  0.74289851247E+02  0.47000000000E+01 0.  1.
<mgrwt>
<rscale>  0 0.12751295E+03</rscale>
<asrwt>0</asrwt>
<pdfrwt beam="1">  1        5 0.15086983E-01 0.12751329E+03</pdfrwt>
<pdfrwt beam="2">  1       -5 0.25859176E-01 0.12751329E+03</pdfrwt>
<totfact> 0.39189467E+02</totfact>
</mgrwt>
</event>
<event>
 8    1  0.1821556E-007  0.1558046E+03  0.7546771E-02  0.1193517E+00
          5   -1    0    0  501    0  0.00000000000E+00  0.00000000000E+00  0.85137476273E+02  0.85267108935E+02  0.47000000000E+01 0. -1.
         -5   -1    0    0    0  501 -0.00000000000E+00 -0.00000000000E+00 -0.28776005679E+03  0.28779843690E+03  0.47000000000E+01 0. -1.
         25    2    1    2    0    0  0.34723226852E+02 -0.86277074976E+02 -0.12034749395E+03  0.19687173616E+03  0.12500210018E+03 0.  0.
         25    2    1    2    0    0 -0.34723226852E+02  0.86277074976E+02 -0.82275086572E+02  0.17619380968E+03  0.12500253017E+03 0.  0.
          5    1    3    3  502    0  0.21607501832E+02  0.20473906164E+02  0.61584184895E+01  0.30758431158E+02  0.47000000000E+01 0. -1.
         -5    1    3    3    0  502  0.13115725021E+02 -0.10675098114E+03 -0.12650591243E+03  0.16611330500E+03  0.47000000000E+01 0. -1.
          5    1    4    4  503    0  0.24247012054E+02  0.39415393855E+02  0.18699598412E+02  0.50132383218E+02  0.47000000000E+01 0. -1.
         -5    1    4    4    0  503 -0.58970238906E+02  0.46861681120E+02 -0.10097468498E+03  0.12606142646E+03  0.47000000000E+01 0. -1.
<mgrwt>
<rscale>  0 0.15580450E+03</rscale>
<asrwt>0</asrwt>
<pdfrwt beam="1">  1        5 0.13110997E-01 0.15580458E+03</pdfrwt>
<pdfrwt beam="2">  1       -5 0.44283702E-01 0.15580458E+03</pdfrwt>
<totfact> 0.18445352E+02</totfact>
</mgrwt>
</event>
<event>
 8    1  0.1821556E-007  0.1336922E+03  0.7546771E-02  0.1222079E+00
          5   -1    0    0  501    0  0.00000000000E+00  0.00000000000E+00  0.48883575691E+02  0.49109000930E+02  0.47000000000E+01 0. -1.
         -5   -1    0    0    0  501 -0.00000000000E+00 -0.00000000000E+00 -0.66386043662E+03  0.66387707394E+03  0.47000000000E+01 0. -1.
         25    2    1    2    0    0  0.45314714614E+02 -0.13963600717E+02 -0.54681882530E+03  0.56292488596E+03  0.12500077611E+03 0.  0.
         25    2    1    2    0    0 -0.45314714614E+02  0.13963600717E+02 -0.68158035629E+02  0.15006118891E+03  0.12499774835E+03 0.  0.
          5    1    4    4  502    0 -0.24370746293E+02 -0.51812118732E+02 -0.55194453970E+02  0.79667726662E+02  0.47000000000E+01 0. -1.
         -5    1    4    4    0  502 -0.20943968321E+02  0.65775719450E+02 -0.12963581659E+02  0.70393462250E+02  0.47000000000E+01 0. -1.
          5    1    3    3  503    0  0.75566576803E+02 -0.28756340201E+02 -0.49047473828E+03  0.49711647883E+03  0.47000000000E+01 0.  1.
         -5    1    3    3    0  503 -0.30251862189E+02  0.14792739484E+02 -0.56344087018E+02  0.65808407131E+02  0.47000000000E+01 0.  1.
<mgrwt>
<rscale>  0 0.13369147E+03</rscale>
<asrwt>0</asrwt>
<pdfrwt beam="1">  1        5 0.75391708E-02 0.13369218E+03</pdfrwt>
<pdfrwt beam="2">  1       -5 0.10215099E+00 0.13369218E+03</pdfrwt>
<totfact> 0.70669637E+01</totfact>
</mgrwt>
</event>
<event>
 8    1  0.1821556E-007  0.1684027E+03  0.7546771E-02  0.1179530E+00
          5   -1    0    0  501    0  0.00000000000E+00  0.00000000000E+00  0.58053810867E+02  0.58243754654E+02  0.47000000000E+01 0. -1.
         -5   -1    0    0    0  501 -0.00000000000E+00 -0.00000000000E+00 -0.75601896341E+03  0.75603357269E+03  0.47000000000E+01 0. -1.
         25    2    1    2    0    0 -0.11043618607E+03  0.23026662003E+02 -0.59160345046E+03  0.61509829313E+03  0.12499955703E+03 0.  0.
         25    2    1    2    0    0  0.11043618607E+03 -0.23026662003E+02 -0.10636170208E+03  0.19917903422E+03  0.12503238638E+03 0.  0.
          5    1    4    4  502    0 -0.25228062593E+02  0.99071194864E+01 -0.91191624477E+01  0.28980256770E+02  0.47000000000E+01 0. -1.
         -5    1    4    4    0  502  0.13566424867E+03 -0.32933781489E+02 -0.97242539636E+02  0.17019877745E+03  0.47000000000E+01 0. -1.
          5    1    3    3  503    0 -0.87248260058E+02 -0.16943828761E+02 -0.17917713568E+03  0.20006470994E+03  0.47000000000E+01 0. -1.
         -5    1    3    3    0  503 -0.23187926016E+02  0.39970490763E+02 -0.41242631479E+03  0.41503358319E+03  0.47000000000E+01 0. -1.
<mgrwt>
<rscale>  0 0.16839663E+03</rscale>
<asrwt>0</asrwt>
<pdfrwt beam="1">  1        5 0.89470909E-02 0.16840272E+03</pdfrwt>
<pdfrwt beam="2">  1       -5 0.11632634E+00 0.16840272E+03</pdfrwt>
<totfact> 0.40785574E+01</totfact>
</mgrwt>
</event>
<event>
 8    1  0.1821556E-007  0.1528942E+03  0.7546771E-02  0.1196962E+00
          5   -1    0    0  501    0  0.00000000000E+00  0.00000000000E+00  0.81998751298E+02  0.82133338020E+02  0.47000000000E+01 0. -1.
         -5   -1    0    0    0  501 -0.00000000000E+00 -0.00000000000E+00 -0.29853925502E+03  0.29857624954E+03  0.47000000000E+01 0. -1.
         25    2    1    2    0    0 -0.77999857745E+02  0.40811285526E+02 -0.14925333889E+03  0.21366409127E+03  0.12500498348E+03 0.  0.
         25    2    1    2    0    0  0.77999857745E+02 -0.40811285526E+02 -0.67287164835E+02  0.16704549629E+03  0.12500838550E+03 0.  0.
          5    1    4    4  502    0 -0.13332336932E+02 -0.58064749136E+02 -0.28731821434E+02  0.66308927477E+02  0.47000000000E+01 0. -1.
         -5    1    4    4    0  502  0.91332194677E+02  0.17253463610E+02 -0.38555343401E+02  0.10073656881E+03  0.47000000000E+01 0. -1.
          5    1    3    3  503    0 -0.55562273564E+02  0.69723612629E+02 -0.39045064986E+02  0.97443088526E+02  0.47000000000E+01 0. -1.
         -5    1    3    3    0  503 -0.22437584181E+02 -0.28912327103E+02 -0.11020827391E+03  0.11622100275E+03  0.47000000000E+01 0. -1.
<mgrwt>
<rscale>  0 0.15289350E+03</rscale>
<asrwt>0</asrwt>
<pdfrwt beam="1">  1        5 0.12628391E-01 0.15289420E+03</pdfrwt>
<pdfrwt beam="2">  1       -5 0.45942314E-01 0.15289420E+03</pdfrwt>
<totfact> 0.18154271E+02</totfact>
</mgrwt>
</event>
<event>
 8    1  0.1821556E-007  0.1344586E+03  0.7546771E-02  0.1220988E+00
         -5   -1    0    0    0  501 -0.00000000000E+00  0.00000000000E+00  0.16515386986E+04  0.16515453863E+04  0.47000000000E+01 0. -1.
          5   -1    0    0  501    0  0.00000000000E+00 -0.00000000000E+00 -0.12514957430E+02  0.13368401530E+02  0.47000000000E+01 0. -1.
         25    2    1    2    0    0  0.38613114811E+02 -0.31029406984E+02  0.11468266997E+04  0.11546814340E+04  0.12499575284E+03 0.  0.
         25    2    1    2    0    0 -0.38613114811E+02  0.31029406984E+02  0.49219704148E+03  0.51023235379E+03  0.12500132192E+03 0.  0.
          5    1    3    3  502    0 -0.22503444476E+02  0.32088731145E+02  0.20587173370E+03  0.20962192733E+03  0.47000000000E+01 0. -1.
         -5    1    3    3    0  502  0.61116559287E+02 -0.63118138129E+02  0.94095496597E+03  0.94505950668E+03  0.47000000000E+01 0. -1.
          5    1    4    4  503    0 -0.82081653810E+02  0.16849164041E+02  0.37647984521E+03  0.38572069697E+03  0.47000000000E+01 0.  1.
         -5    1    4    4    0  503  0.43468538999E+02  0.14180242943E+02  0.11571719627E+03  0.12451165683E+03  0.47000000000E+01 0.  1.
<mgrwt>
<rscale>  0 0.13445735E+03</rscale>
<asrwt>0</asrwt>
<pdfrwt beam="2">  1        5 0.19915429E-02 0.13445865E+03</pdfrwt>
<pdfrwt beam="1">  1       -5 0.25414893E+00 0.13445865E+03</pdfrwt>
<totfact> 0.45233667E+01</totfact>
</mgrwt>
</event>
<event>
 8    1  0.1821556E-007  0.1558471E+03  0.7546771E-02  0.1193467E+00
          5   -1    0    0  501    0  0.00000000000E+00  0.00000000000E+00  0.48402450602E+03  0.48404732457E+03  0.47000000000E+01 0. -1.
         -5   -1    0    0    0  501 -0.00000000000E+00 -0.00000000000E+00 -0.52665638285E+02  0.52874941664E+02  0.47000000000E+01 0. -1.
         25    2    1    2    0    0 -0.50726424927E+02  0.78038704042E+02  0.15593068887E+03  0.22045899735E+03  0.12499832106E+03 0.  0.
         25    2    1    2    0    0  0.50726424927E+02 -0.78038704042E+02  0.27542817887E+03  0.31646326889E+03  0.12500043731E+03 0.  0.
          5    1    4    4  502    0  0.47599680881E+01 -0.99497154035E+02  0.14096031214E+03  0.17266800675E+03  0.47000000000E+01 0. -1.
         -5    1    4    4    0  502  0.45966456838E+02  0.21458449993E+02  0.13446786673E+03  0.14379526214E+03  0.47000000000E+01 0. -1.
          5    1    3    3  503    0 -0.84602663907E+02  0.72058772523E+02  0.80137168593E+02  0.13709169642E+03  0.47000000000E+01 0. -1.
         -5    1    3    3    0  503  0.33876238980E+02  0.59799315188E+01  0.75793520272E+02  0.83367300926E+02  0.47000000000E+01 0. -1.
<mgrwt>
<rscale>  0 0.15584668E+03</rscale>
<asrwt>0</asrwt>
<pdfrwt beam="1">  1        5 0.74483163E-01 0.15584710E+03</pdfrwt>
<pdfrwt beam="2">  1       -5 0.81202616E-02 0.15584710E+03</pdfrwt>
<totfact> 0.13766782E+02</totfact>
</mgrwt>
</event>
<event>
 8    1  0.1821556E-007  0.1564554E+03  0.7546771E-02  0.1192760E+00
         -5   -1    0    0    0  501 -0.00000000000E+00  0.00000000000E+00  0.11984948022E+04  0.11985040179E+04  0.47000000000E+01 0. -1.
          5   -1    0    0  501    0  0.00000000000E+00 -0.00000000000E+00 -0.21445492067E+02  0.21954478586E+02  0.47000000000E+01 0. -1.
         25    2    1    2    0    0 -0.92433732243E+02  0.17563261313E+02  0.73703525206E+03  0.75345671427E+03  0.12499437783E+03 0.  0.
         25    2    1    2    0    0  0.92433732243E+02 -0.17563261313E+02  0.44001405803E+03  0.46700178217E+03  0.12500332108E+03 0.  0.
          5    1    4    4  502    0  0.87210967612E+02  0.30957390119E+02  0.37067323084E+03  0.38207963428E+03  0.47000000000E+01 0. -1.
         -5    1    4    4    0  502  0.52227646317E+01 -0.48520651432E+02  0.69340827197E+02  0.84922147889E+02  0.47000000000E+01 0. -1.
          5    1    3    3  503    0 -0.70024721445E+02 -0.47625713868E+02  0.33769707355E+03  0.34818540136E+03  0.47000000000E+01 0.  1.
         -5    1    3    3    0  503 -0.22409010798E+02  0.65188975181E+02  0.39933817851E+03  0.40527131291E+03  0.47000000000E+01 0.  1.
<mgrwt>
<rscale>  0 0.15645362E+03</rscale>
<asrwt>0</asrwt>
<pdfrwt beam="2">  1        5 0.33391687E-02 0.15645540E+03</pdfrwt>
<pdfrwt beam="1">  1       -5 0.18442365E+00 0.15645540E+03</pdfrwt>
<totfact> 0.59189265E+01</totfact>
</mgrwt>
</event>
<event>
 8    1  0.1821556E-007  0.2612314E+03  0.7546771E-02  0.1106406E+00
         -5   -1    0    0    0  501 -0.00000000000E+00  0.00000000000E+00  0.21522102362E+03  0.21527233684E+03  0.47000000000E+01 0. -1.
          5   -1    0    0  501    0  0.00000000000E+00 -0.00000000000E+00 -0.41937811850E+03  0.41940445428E+03  0.47000000000E+01 0. -1.
         25    2    1    2    0    0  0.22707887108E+03 -0.32436594599E+02  0.54720020829E+02  0.26690078661E+03  0.12499921141E+03 0.  0.
         25    2    1    2    0    0 -0.22707887108E+03  0.32436594599E+02 -0.25887711571E+03  0.36777600451E+03  0.12499952838E+03 0.  0.
          5    1    4    4  502    0 -0.18611550464E+03  0.18692609610E+02 -0.12006730340E+03  0.22232103379E+03  0.47000000000E+01 0. -1.
         -5    1    4    4    0  502 -0.40963366444E+02  0.13743984990E+02 -0.13880981230E+03  0.14545497071E+03  0.47000000000E+01 0. -1.
          5    1    3    3  503    0  0.10287159319E+03  0.46319786766E+02  0.36287678656E+02  0.11860427039E+03  0.47000000000E+01 0. -1.
         -5    1    3    3    0  503  0.12420727789E+03 -0.78756381366E+02  0.18432342174E+02  0.14829651623E+03  0.47000000000E+01 0. -1.
<mgrwt>
<rscale>  0 0.26123133E+03</rscale>
<asrwt>0</asrwt>
<pdfrwt beam="2">  1        5 0.64525683E-01 0.26123137E+03</pdfrwt>
<pdfrwt beam="1">  1       -5 0.33116900E-01 0.26123137E+03</pdfrwt>
<totfact> 0.16236634E+01</totfact>
</mgrwt>
</event>
<event>
 8    1  0.1821556E-007  0.1287893E+03  0.7546771E-02  0.1229265E+00
         -5   -1    0    0    0  501 -0.00000000000E+00  0.00000000000E+00  0.17106391338E+03  0.17112846771E+03  0.47000000000E+01 0.  1.
          5   -1    0    0  501    0  0.00000000000E+00 -0.00000000000E+00 -0.14420679390E+03  0.14428336497E+03  0.47000000000E+01 0.  1.
         25    2    1    2    0    0  0.19891291317E+02 -0.23746746862E+02  0.10378269440E+03  0.16539776217E+03  0.12500400241E+03 0.  0.
         25    2    1    2    0    0 -0.19891291317E+02  0.23746746862E+02 -0.76925574927E+02  0.15001407051E+03  0.12500842298E+03 0.  0.
          5    1    4    4  502    0  0.21039089790E+02  0.64043216575E+02 -0.58872637676E+02  0.89622845053E+02  0.47000000000E+01 0.  1.
         -5    1    4    4    0  502 -0.40930381107E+02 -0.40296469713E+02 -0.18052937251E+02  0.60391225458E+02  0.47000000000E+01 0.  1.
          5    1    3    3  503    0  0.12735713158E+02  0.38876833758E+02 -0.30245627416E+01  0.41289763531E+02  0.47000000000E+01 0.  1.
         -5    1    3    3    0  503  0.71555781591E+01 -0.62623580620E+02  0.10680725714E+03  0.12410799864E+03  0.47000000000E+01 0.  1.
<mgrwt>
<rscale>  0 0.12878820E+03</rscale>
<asrwt>0</asrwt>
<pdfrwt beam="2">  1        5 0.22196516E-01 0.12878927E+03</pdfrwt>
<pdfrwt beam="1">  1       -5 0.26328381E-01 0.12878927E+03</pdfrwt>
<totfact> 0.18627235E+02</totfact>
</mgrwt>
</event>
<event>
 8    1  0.1821556E-007  0.1399403E+03  0.7546771E-02  0.1213429E+00
         -5   -1    0    0    0  501 -0.00000000000E+00  0.00000000000E+00  0.43456143851E+02  0.43709569186E+02  0.47000000000E+01 0.  1.
          5   -1    0    0  501    0  0.00000000000E+00 -0.00000000000E+00 -0.46783788455E+03  0.46786149256E+03  0.47000000000E+01 0.  1.
         25    2    1    2    0    0  0.41142492498E+02  0.47601488598E+02 -0.16067369327E+03  0.21303260665E+03  0.12493297955E+03 0.  0.
         25    2    1    2    0    0 -0.41142492498E+02 -0.47601488598E+02 -0.26370804743E+03  0.29853845510E+03  0.12499867395E+03 0.  0.
          5    1    3    3  502    0 -0.29895891449E+02 -0.23032587646E+02 -0.59197441642E+02  0.70361150617E+02  0.47000000000E+01 0.  1.
         -5    1    3    3    0  502  0.71038383948E+02  0.70634076244E+02 -0.10147625163E+03  0.14267145603E+03  0.47000000000E+01 0.  1.
          5    1    4    4  503    0 -0.31386773818E+02 -0.64938369253E+01 -0.25250839462E+03  0.25457784437E+03  0.47000000000E+01 0.  1.
         -5    1    4    4    0  503 -0.97557186809E+01 -0.41107651673E+02 -0.11199652808E+02  0.43960610733E+02  0.47000000000E+01 0.  1.
<mgrwt>
<rscale>  0 0.13992558E+03</rscale>
<asrwt>0</asrwt>
<pdfrwt beam="2">  1        5 0.71996366E-01 0.13994025E+03</pdfrwt>
<pdfrwt beam="1">  1       -5 0.67068712E-02 0.13994025E+03</pdfrwt>
<totfact> 0.19905476E+02</totfact>
</mgrwt>
</event>
<event>
 8    1  0.1821556E-007  0.1829855E+03  0.7546771E-02  0.1164945E+00
         -5   -1    0    0    0  501 -0.00000000000E+00  0.00000000000E+00  0.15158313310E+04  0.15158386174E+04  0.47000000000E+01 0. -1.
          5   -1    0    0  501    0  0.00000000000E+00 -0.00000000000E+00 -0.22767046353E+02  0.23247115942E+02  0.47000000000E+01 0. -1.
         25    2    1    2    0    0  0.13346434487E+03  0.68159852588E+01  0.90083864119E+03  0.91923502816E+03  0.12499436199E+03 0.  0.
         25    2    1    2    0    0 -0.13346434487E+03 -0.68159852588E+01  0.59222564344E+03  0.61985070518E+03  0.12499797980E+03 0.  0.
          5    1    4    4  502    0 -0.36883844260E+02  0.22609604737E+02  0.40282515114E+03  0.40516885935E+03  0.47000000000E+01 0.  1.
         -5    1    4    4    0  502 -0.96580500614E+02 -0.29425589996E+02  0.18940049230E+03  0.21468184583E+03  0.47000000000E+01 0.  1.
          5    1    3    3  503    0  0.57830361286E+02 -0.57972167404E+02  0.46086337187E+03  0.46810496730E+03  0.47000000000E+01 0. -1.
         -5    1    3    3    0  503  0.75633983588E+02  0.64788152663E+02  0.43997526932E+03  0.45113006086E+03  0.47000000000E+01 0. -1.
<mgrwt>
<rscale>  0 0.18298486E+03</rscale>
<asrwt>0</asrwt>
<pdfrwt beam="2">  1        5 0.35401104E-02 0.18298547E+03</pdfrwt>
<pdfrwt beam="1">  1       -5 0.23324238E+00 0.18298547E+03</pdfrwt>
<totfact> 0.26313385E+01</totfact>
</mgrwt>
</event>
<event>
 8    1  0.1821556E-007  0.1250354E+03  0.7546771E-02  0.1235017E+00
         -5   -1    0    0    0  501 -0.00000000000E+00  0.00000000000E+00  0.30594475479E+02  0.30953383172E+02  0.47000000000E+01 0.  1.
          5   -1    0    0  501    0  0.00000000000E+00 -0.00000000000E+00 -0.50927576958E+03  0.50929745678E+03  0.47000000000E+01 0.  1.
         25    2    1    2    0    0  0.74865207483E+00  0.24854754835E+01 -0.22395173326E+03  0.25649215915E+03  0.12500844295E+03 0.  0.
         25    2    1    2    0    0 -0.74865207483E+00 -0.24854754835E+01 -0.25472956085E+03  0.28375868081E+03  0.12500040677E+03 0.  0.
          5    1    4    4  502    0  0.31111572697E+02  0.43430329406E+02 -0.57148464949E+02  0.78371937031E+02  0.47000000000E+01 0.  1.
         -5    1    4    4    0  502 -0.31860224772E+02 -0.45915804889E+02 -0.19758109590E+03  0.20538674378E+03  0.47000000000E+01 0.  1.
          5    1    3    3  503    0 -0.13703001334E+02  0.71207158509E+01  0.11932386514E+02  0.20073581836E+02  0.47000000000E+01 0.  1.
         -5    1    3    3    0  503  0.14451653409E+02 -0.46352403674E+01 -0.23588411977E+03  0.23641857731E+03  0.47000000000E+01 0.  1.
<mgrwt>
<rscale>  0 0.12503338E+03</rscale>
<asrwt>0</asrwt>
<pdfrwt beam="2">  1        5 0.78379388E-01 0.12503539E+03</pdfrwt>
<pdfrwt beam="1">  1       -5 0.47361193E-02 0.12503539E+03</pdfrwt>
<totfact> 0.28218722E+02</totfact>
</mgrwt>
</event>
<event>
 8    1  0.1821556E-007  0.1300368E+03  0.7546771E-02  0.1227405E+00
          5   -1    0    0  501    0  0.00000000000E+00  0.00000000000E+00  0.96099192780E+02  0.96214057460E+02  0.47000000000E+01 0. -1.
         -5   -1    0    0    0  501 -0.00000000000E+00 -0.00000000000E+00 -0.21551986882E+03  0.21557111090E+03  0.47000000000E+01 0. -1.
         25    2    1    2    0    0 -0.11508794875E+02 -0.33932583604E+02 -0.12669611010E+03  0.18154497765E+03  0.12499120771E+03 0.  0.
         25    2    1    2    0    0  0.11508794875E+02  0.33932583604E+02  0.72754340609E+01  0.13024019072E+03  0.12500281096E+03 0.  0.
          5    1    3    3  502    0  0.35573034237E+02 -0.60492572056E+02 -0.45090782133E+02  0.83546757400E+02  0.47000000000E+01 0. -1.
         -5    1    3    3    0  502 -0.47081829111E+02  0.26559988452E+02 -0.81605327968E+02  0.97998220248E+02  0.47000000000E+01 0. -1.
          5    1    4    4  503    0  0.41753156543E+02  0.69051775379E+02  0.17126487939E+02  0.82624937842E+02  0.47000000000E+01 0.  1.
         -5    1    4    4    0  503 -0.30244361669E+02 -0.35119191775E+02 -0.98510538779E+01  0.47615252873E+02  0.47000000000E+01 0.  1.
<mgrwt>
<rscale>  0 0.13003403E+03</rscale>
<asrwt>0</asrwt>
<pdfrwt beam="1">  1        5 0.14797269E-01 0.13003682E+03</pdfrwt>
<pdfrwt beam="2">  1       -5 0.33169680E-01 0.13003682E+03</pdfrwt>
<totfact> 0.25132842E+02</totfact>
</mgrwt>
</event>
<event>
 8    1  0.1821556E-007  0.1303140E+03  0.7546771E-02  0.1226992E+00
          5   -1    0    0  501    0  0.00000000000E+00  0.00000000000E+00  0.87229107276E+02  0.87355636087E+02  0.47000000000E+01 0. -1.
         -5   -1    0    0    0  501 -0.00000000000E+00 -0.00000000000E+00 -0.19438469789E+03  0.19444150990E+03  0.47000000000E+01 0. -1.
         25    2    1    2    0    0 -0.33831031550E+02 -0.14544686824E+02 -0.54527721404E+02  0.14125731448E+03  0.12499707950E+03 0.  0.
         25    2    1    2    0    0  0.33831031550E+02  0.14544686824E+02 -0.52627869207E+02  0.14053983150E+03  0.12500266002E+03 0.  0.
          5    1    4    4  502    0 -0.33237527168E+02 -0.33614292010E+02 -0.21956001309E+02  0.52333639593E+02  0.47000000000E+01 0. -1.
         -5    1    4    4    0  502  0.67068558718E+02  0.48158978833E+02 -0.30671867898E+02  0.88206191910E+02  0.47000000000E+01 0. -1.
          5    1    3    3  503    0 -0.59688529965E+02  0.19316481817E+02 -0.71427020537E+02  0.95182752335E+02  0.47000000000E+01 0.  1.
         -5    1    3    3    0  503  0.25857498416E+02 -0.33861168641E+02  0.16899299134E+02  0.46074562149E+02  0.47000000000E+01 0.  1.
<mgrwt>
<rscale>  0 0.13031271E+03</rscale>
<asrwt>0</asrwt>
<pdfrwt beam="1">  1        5 0.13433966E-01 0.13031405E+03</pdfrwt>
<pdfrwt beam="2">  1       -5 0.29919441E-01 0.13031405E+03</pdfrwt>
<totfact> 0.36679589E+02</totfact>
</mgrwt>
</event>
<event>
 8    1  0.1821556E-007  0.1264444E+03  0.7546771E-02  0.1232829E+00
          5   -1    0    0  501    0  0.00000000000E+00  0.00000000000E+00  0.12976600416E+03  0.12985109101E+03  0.47000000000E+01 0.  1.
         -5   -1    0    0    0  501 -0.00000000000E+00 -0.00000000000E+00 -0.12308427485E+03  0.12317397743E+03  0.47000000000E+01 0.  1.
         25    2    1    2    0    0  0.15810783344E+02 -0.10607188704E+02  0.58288446006E+01  0.12657866911E+03  0.12500276286E+03 0.  0.
         25    2    1    2    0    0 -0.15810783344E+02  0.10607188704E+02  0.85288470886E+00  0.12644639933E+03  0.12500188467E+03 0.  0.
          5    1    4    4  502    0  0.50620997081E+01 -0.49385205014E+01  0.60555693856E+02  0.61148147123E+02  0.47000000000E+01 0.  1.
         -5    1    4    4    0  502 -0.20872883052E+02  0.15545709206E+02 -0.59702809147E+02  0.65298252210E+02  0.47000000000E+01 0.  1.
          5    1    3    3  503    0  0.63955327804E+02 -0.27618299296E+02 -0.14685711531E+02  0.71349944174E+02  0.47000000000E+01 0. -1.
         -5    1    3    3    0  503 -0.48144544460E+02  0.17011110592E+02  0.20514556131E+02  0.55228724936E+02  0.47000000000E+01 0. -1.
<mgrwt>
<rscale>  0 0.12644417E+03</rscale>
<asrwt>0</asrwt>
<pdfrwt beam="1">  1        5 0.19977446E-01 0.12644439E+03</pdfrwt>
<pdfrwt beam="2">  1       -5 0.18949488E-01 0.12644439E+03</pdfrwt>
<totfact> 0.41944103E+02</totfact>
</mgrwt>
</event>
<event>
 8    1  0.1821556E-007  0.1426604E+03  0.7546771E-02  0.1209795E+00
         -5   -1    0    0    0  501 -0.00000000000E+00  0.00000000000E+00  0.34784520255E+03  0.34787695373E+03  0.47000000000E+01 0.  1.
          5   -1    0    0  501    0  0.00000000000E+00 -0.00000000000E+00 -0.61070062490E+02  0.61250653324E+02  0.47000000000E+01 0.  1.
         25    2    1    2    0    0  0.67310449809E+02 -0.13981452356E+02  0.18625799468E+03  0.23461204162E+03  0.12499836730E+03 0.  0.
         25    2    1    2    0    0 -0.67310449809E+02  0.13981452356E+02  0.10051714538E+03  0.17451556544E+03  0.12500323356E+03 0.  0.
          5    1    4    4  502    0 -0.83632230116E+02 -0.25500244443E+02  0.31195304050E+02  0.92950790075E+02  0.47000000000E+01 0. -1.
         -5    1    4    4    0  502  0.16321780307E+02  0.39481696799E+02  0.69321841329E+02  0.81564775361E+02  0.47000000000E+01 0. -1.
          5    1    3    3  503    0  0.57883865709E+02 -0.18149355272E+02  0.14587975450E+02  0.62568682533E+02  0.47000000000E+01 0. -1.
         -5    1    3    3    0  503  0.94265841000E+01  0.41679029157E+01  0.17167001923E+03  0.17204335909E+03  0.47000000000E+01 0. -1.
<mgrwt>
<rscale>  0 0.14265932E+03</rscale>
<asrwt>0</asrwt>
<pdfrwt beam="2">  1        5 0.94117280E-02 0.14266039E+03</pdfrwt>
<pdfrwt beam="1">  1       -5 0.53530982E-01 0.14266039E+03</pdfrwt>
<totfact> 0.21531533E+02</totfact>
</mgrwt>
</event>
<event>
 8    1  0.1821556E-007  0.1442840E+03  0.7546771E-02  0.1207679E+00
         -5   -1    0    0    0  501 -0.00000000000E+00  0.00000000000E+00  0.18160375304E+03  0.18166456208E+03  0.47000000000E+01 0. -1.
          5   -1    0    0  501    0  0.00000000000E+00 -0.00000000000E+00 -0.11956262022E+03  0.11965496293E+03  0.47000000000E+01 0. -1.
         25    2    1    2    0    0  0.51420027642E+02  0.50474608308E+02  0.61996044451E+02  0.15703551741E+03  0.12499975549E+03 0.  0.
         25    2    1    2    0    0 -0.51420027642E+02 -0.50474608308E+02  0.45088362138E-01  0.14428400761E+03  0.12500466988E+03 0.  0.
          5    1    3    3  502    0  0.70019560706E+02 -0.16078646185E+02  0.15591673838E+02  0.73664455728E+02  0.47000000000E+01 0. -1.
         -5    1    3    3    0  502 -0.18599533063E+02  0.66553254493E+02  0.46404370613E+02  0.83371061681E+02  0.47000000000E+01 0. -1.
          5    1    4    4  503    0 -0.68053644980E+02  0.17013484582E+02  0.17527946346E+02  0.72457409254E+02  0.47000000000E+01 0.  1.
         -5    1    4    4    0  503  0.16633617337E+02 -0.67488092890E+02 -0.17482857984E+02  0.71826598353E+02  0.47000000000E+01 0.  1.
<mgrwt>
<rscale>  0 0.14428294E+03</rscale>
<asrwt>0</asrwt>
<pdfrwt beam="2">  1        5 0.18406030E-01 0.14428400E+03</pdfrwt>
<pdfrwt beam="1">  1       -5 0.27950820E-01 0.14428400E+03</pdfrwt>
<totfact> 0.24471935E+02</totfact>
</mgrwt>
</event>
<event>
 8    1  0.1821556E-007  0.2118582E+03  0.7546771E-02  0.1140107E+00
         -5   -1    0    0    0  501 -0.00000000000E+00  0.00000000000E+00  0.16043100442E+03  0.16049983545E+03  0.47000000000E+01 0.  1.
          5   -1    0    0  501    0  0.00000000000E+00 -0.00000000000E+00 -0.31434813028E+03  0.31438326452E+03  0.47000000000E+01 0.  1.
         25    2    1    2    0    0 -0.91690987740E+02  0.14437378595E+03  0.19816233835E+01  0.21184640209E+03  0.12499577571E+03 0.  0.
         25    2    1    2    0    0  0.91690987740E+02 -0.14437378595E+03 -0.15589874924E+03  0.26303669788E+03  0.12503142451E+03 0.  0.
          5    1    4    4  502    0 -0.89928115324E+01 -0.24472978097E+02 -0.88736489636E+02  0.92606975489E+02  0.47000000000E+01 0. -1.
         -5    1    4    4    0  502  0.10068379927E+03 -0.11990080785E+03 -0.67162259600E+02  0.17042972239E+03  0.47000000000E+01 0. -1.
          5    1    3    3  503    0 -0.15430730160E+02 -0.27033837915E+01  0.38765524767E+02  0.42074595990E+02  0.47000000000E+01 0.  1.
         -5    1    3    3    0  503 -0.76260257580E+02  0.14707716974E+03 -0.36783901384E+02  0.16977180610E+03  0.47000000000E+01 0.  1.
<mgrwt>
<rscale>  0 0.21185291E+03</rscale>
<asrwt>0</asrwt>
<pdfrwt beam="2">  1        5 0.48369248E-01 0.21185817E+03</pdfrwt>
<pdfrwt beam="1">  1       -5 0.24689690E-01 0.21185817E+03</pdfrwt>
<totfact> 0.51697432E+01</totfact>
</mgrwt>
</event>
<event>
 8    1  0.1821556E-007  0.1254617E+03  0.7546771E-02  0.1234351E+00
         -5   -1    0    0    0  501 -0.00000000000E+00  0.00000000000E+00  0.13045337842E+04  0.13045422508E+04  0.47000000000E+01 0. -1.
          5   -1    0    0  501    0  0.00000000000E+00 -0.00000000000E+00 -0.12055937091E+02  0.12939691617E+02  0.47000000000E+01 0. -1.
         25    2    1    2    0    0 -0.38182685624E+01  0.10056300420E+02  0.76986863936E+03  0.78002400922E+03  0.12499609888E+03 0.  0.
         25    2    1    2    0    0  0.38182685624E+01 -0.10056300420E+02  0.52260920774E+03  0.53745793318E+03  0.12499975032E+03 0.  0.
          5    1    3    3  502    0 -0.35616090241E+01 -0.55380529143E+01  0.76180534708E+03  0.76184829981E+03  0.47000000000E+01 0.  1.
         -5    1    3    3    0  502 -0.25665953827E+00  0.15594353334E+02  0.80632922830E+01  0.18175709408E+02  0.47000000000E+01 0.  1.
          5    1    4    4  503    0  0.59641529482E+02  0.11615397417E+02  0.19211925607E+03  0.20155378451E+03  0.47000000000E+01 0.  1.
         -5    1    4    4    0  503 -0.55823260919E+02 -0.21671697837E+02  0.33048995166E+03  0.33590414868E+03  0.47000000000E+01 0.  1.
<mgrwt>
<rscale>  0 0.12546082E+03</rscale>
<asrwt>0</asrwt>
<pdfrwt beam="2">  1        5 0.19233915E-02 0.12546173E+03</pdfrwt>
<pdfrwt beam="1">  1       -5 0.20076619E+00 0.12546173E+03</pdfrwt>
<totfact> 0.10364225E+02</totfact>
</mgrwt>
</event>
<event>
 8    1  0.1821556E-007  0.1547892E+03  0.7546771E-02  0.1194711E+00
          5   -1    0    0  501    0  0.00000000000E+00  0.00000000000E+00  0.14198031350E+04  0.14198109142E+04  0.47000000000E+01 0. -1.
         -5   -1    0    0    0  501 -0.00000000000E+00 -0.00000000000E+00 -0.17770372675E+02  0.18381407591E+02  0.47000000000E+01 0. -1.
         25    2    1    2    0    0 -0.38472744242E+02 -0.82780754190E+02  0.51505403385E+03  0.53780853513E+03  0.12499822945E+03 0.  0.
         25    2    1    2    0    0  0.38472744242E+02  0.82780754190E+02  0.88697872847E+03  0.90038378668E+03  0.12500757273E+03 0.  0.
          5    1    3    3  502    0 -0.82843879967E+02 -0.60814835820E+02  0.30254917061E+03  0.31956164247E+03  0.47000000000E+01 0.  1.
         -5    1    3    3    0  502  0.44371135725E+02 -0.21965918370E+02  0.21250486324E+03  0.21824689266E+03  0.47000000000E+01 0.  1.
          5    1    4    4  503    0  0.24926255752E+02  0.35115583077E+02  0.79172291276E+03  0.79290710868E+03  0.47000000000E+01 0.  1.
         -5    1    4    4    0  503  0.13546488491E+02  0.47665171113E+02  0.95255815710E+02  0.10747667800E+03  0.47000000000E+01 0.  1.
<mgrwt>
<rscale>  0 0.15478732E+03</rscale>
<asrwt>0</asrwt>
<pdfrwt beam="1">  1        5 0.21847887E+00 0.15478921E+03</pdfrwt>
<pdfrwt beam="2">  1       -5 0.27815043E-02 0.15478921E+03</pdfrwt>
<totfact> 0.46634945E+01</totfact>
</mgrwt>
</event>
<event>
 8    1  0.1821556E-007  0.1303684E+03  0.7546771E-02  0.1226916E+00
         -5   -1    0    0    0  501 -0.00000000000E+00  0.00000000000E+00  0.80120462477E+02  0.80258199005E+02  0.47000000000E+01 0.  1.
          5   -1    0    0  501    0  0.00000000000E+00 -0.00000000000E+00 -0.27506202701E+03  0.27510217866E+03  0.47000000000E+01 0.  1.
         25    2    1    2    0    0 -0.30740999006E+02 -0.20528649913E+02 -0.12264162950E+02  0.13094399573E+03  0.12501794206E+03 0.  0.
         25    2    1    2    0    0  0.30740999006E+02  0.20528649913E+02 -0.18267740158E+03  0.22441638193E+03  0.12500097978E+03 0.  0.
          5    1    4    4  502    0 -0.87578365019E+01 -0.36928918617E+02 -0.13374493588E+03  0.13910514946E+03  0.47000000000E+01 0.  1.
         -5    1    4    4    0  502  0.39498835507E+02  0.57457568530E+02 -0.48932465697E+02  0.85311232479E+02  0.47000000000E+01 0.  1.
          5    1    3    3  503    0  0.36356120933E+02  0.19227550655E+02 -0.29627856164E+02  0.50905462323E+02  0.47000000000E+01 0. -1.
         -5    1    3    3    0  503 -0.67097119938E+02 -0.39756200567E+02  0.17363693214E+02  0.80038533405E+02  0.47000000000E+01 0. -1.
<mgrwt>
<rscale>  0 0.13036434E+03</rscale>
<asrwt>0</asrwt>
<pdfrwt beam="2">  1        5 0.42330918E-01 0.13036840E+03</pdfrwt>
<pdfrwt beam="1">  1       -5 0.12339909E-01 0.13036840E+03</pdfrwt>
<totfact> 0.21259692E+02</totfact>
</mgrwt>
</event>
<event>
 8    1  0.1821556E-007  0.1526326E+03  0.7546771E-02  0.1197275E+00
         -5   -1    0    0    0  501 -0.00000000000E+00  0.00000000000E+00  0.43517419971E+02  0.43770490526E+02  0.47000000000E+01 0.  1.
          5   -1    0    0  501    0  0.00000000000E+00 -0.00000000000E+00 -0.53864239564E+03  0.53866290051E+03  0.47000000000E+01 0.  1.
         25    2    1    2    0    0 -0.84927787080E+02  0.21432290904E+02 -0.21917910476E+03  0.26708782833E+03  0.12499742384E+03 0.  0.
         25    2    1    2    0    0  0.84927787080E+02 -0.21432290904E+02 -0.27594587091E+03  0.31534556271E+03  0.12499851252E+03 0.  0.
          5    1    4    4  502    0  0.46698538637E+02 -0.73771635020E+02 -0.15002480416E+03  0.17364486606E+03  0.47000000000E+01 0.  1.
         -5    1    4    4    0  502  0.38229248443E+02  0.52339344117E+02 -0.12592106676E+03  0.14170069665E+03  0.47000000000E+01 0.  1.
          5    1    3    3  503    0 -0.60637236142E+02 -0.17725190608E+02 -0.26074255773E+02  0.68505573519E+02  0.47000000000E+01 0. -1.
         -5    1    3    3    0  503 -0.24290550938E+02  0.39157481511E+02 -0.19310484898E+03  0.19858225481E+03  0.47000000000E+01 0. -1.
<mgrwt>
<rscale>  0 0.15263234E+03</rscale>
<asrwt>0</asrwt>
<pdfrwt beam="2">  1        5 0.82889101E-01 0.15263257E+03</pdfrwt>
<pdfrwt beam="1">  1       -5 0.67160323E-02 0.15263257E+03</pdfrwt>
<totfact> 0.14773782E+02</totfact>
</mgrwt>
</event>
<event>
 8    1  0.1821556E-007  0.1331294E+03  0.7546771E-02  0.1222885E+00
         -5   -1    0    0    0  501 -0.00000000000E+00  0.00000000000E+00  0.11773504503E+03  0.11782882003E+03  0.47000000000E+01 0.  1.
          5   -1    0    0  501    0  0.00000000000E+00 -0.00000000000E+00 -0.17115564757E+03  0.17122016732E+03  0.47000000000E+01 0.  1.
         25    2    1    2    0    0 -0.40042212826E+02  0.22245390952E+02  0.23660521641E+02  0.13521487796E+03  0.12500002684E+03 0.  0.
         25    2    1    2    0    0  0.40042212826E+02 -0.22245390952E+02 -0.77081124182E+02  0.15383410939E+03  0.12500078912E+03 0.  0.
          5    1    4    4  502    0  0.55155357086E+02 -0.65970092686E+02 -0.43539869797E+02  0.96498584478E+02  0.47000000000E+01 0.  1.
         -5    1    4    4    0  502 -0.15113144260E+02  0.43724701735E+02 -0.33541254385E+02  0.57335524912E+02  0.47000000000E+01 0.  1.
          5    1    3    3  503    0  0.26145629909E+02 -0.18247744164E+02 -0.27323940514E+02  0.42252359172E+02  0.47000000000E+01 0. -1.
         -5    1    3    3    0  503 -0.66187842735E+02  0.40493135115E+02  0.50984462155E+02  0.92962518783E+02  0.47000000000E+01 0. -1.
<mgrwt>
<rscale>  0 0.13312921E+03</rscale>
<asrwt>0</asrwt>
<pdfrwt beam="2">  1        5 0.26343815E-01 0.13312939E+03</pdfrwt>
<pdfrwt beam="1">  1       -5 0.18125260E-01 0.13312939E+03</pdfrwt>
<totfact> 0.27475110E+02</totfact>
</mgrwt>
</event>
<event>
 8    1  0.1821556E-007  0.1543175E+03  0.7546771E-02  0.1195266E+00
          5   -1    0    0  501    0  0.00000000000E+00  0.00000000000E+00  0.43498203060E+02  0.43751384772E+02  0.47000000000E+01 0. -1.
         -5   -1    0    0    0  501 -0.00000000000E+00 -0.00000000000E+00 -0.57908262141E+03  0.57910169437E+03  0.47000000000E+01 0. -1.
         25    2    1    2    0    0  0.40094038250E+01 -0.90400814227E+02 -0.34264163134E+03  0.37578869912E+03  0.12500190528E+03 0.  0.
         25    2    1    2    0    0 -0.40094038250E+01  0.90400814227E+02 -0.19294278701E+03  0.24706438002E+03  0.12500202513E+03 0.  0.
          5    1    4    4  502    0  0.33137899785E+02 -0.17467703384E+02 -0.30648274184E+02  0.48627644135E+02  0.47000000000E+01 0.  1.
         -5    1    4    4    0  502 -0.37147303610E+02  0.10786851761E+03 -0.16229451282E+03  0.19843673589E+03  0.47000000000E+01 0.  1.
          5    1    3    3  503    0  0.31897378458E+02  0.21516353329E+02 -0.92702915780E+02  0.10048042997E+03  0.47000000000E+01 0. -1.
         -5    1    3    3    0  503 -0.27887974633E+02 -0.11191716756E+03 -0.24993871556E+03  0.27530826914E+03  0.47000000000E+01 0. -1.
<mgrwt>
<rscale>  0 0.15431747E+03</rscale>
<asrwt>0</asrwt>
<pdfrwt beam="1">  1        5 0.67129743E-02 0.15431749E+03</pdfrwt>
<pdfrwt beam="2">  1       -5 0.89110571E-01 0.15431749E+03</pdfrwt>
<totfact> 0.12512814E+02</totfact>
</mgrwt>
</event>
<event>
 8    1  0.1821556E-007  0.1713815E+03  0.7546771E-02  0.1176415E+00
         -5   -1    0    0    0  501 -0.00000000000E+00  0.00000000000E+00  0.43808358215E+03  0.43810879351E+03  0.47000000000E+01 0. -1.
          5   -1    0    0  501    0  0.00000000000E+00 -0.00000000000E+00 -0.67642513525E+02  0.67805601804E+02  0.47000000000E+01 0. -1.
         25    2    1    2    0    0 -0.73827768645E+02  0.91081818996E+02  0.21105062220E+03  0.27187127587E+03  0.12500075333E+03 0.  0.
         25    2    1    2    0    0  0.73827768645E+02 -0.91081818996E+02  0.15939044642E+03  0.23404311945E+03  0.12499772068E+03 0.  0.
          5    1    3    3  502    0 -0.86183339344E+02  0.11508488658E+03  0.18097408761E+03  0.23118349743E+03  0.47000000000E+01 0. -1.
         -5    1    3    3    0  502  0.12355570698E+02 -0.24003067583E+02  0.30076534595E+02  0.40687778434E+02  0.47000000000E+01 0. -1.
          5    1    4    4  503    0  0.79927344382E+02 -0.10343679373E+03  0.79999189975E+02  0.15332811573E+03  0.47000000000E+01 0. -1.
         -5    1    4    4    0  503 -0.60995757366E+01  0.12354974732E+02  0.79391256447E+02  0.80715003717E+02  0.47000000000E+01 0. -1.
<mgrwt>
<rscale>  0 0.17138097E+03</rscale>
<asrwt>0</asrwt>
<pdfrwt beam="2">  1        5 0.10421025E-01 0.17138152E+03</pdfrwt>
<pdfrwt beam="1">  1       -5 0.67411959E-01 0.17138152E+03</pdfrwt>
<totfact> 0.11510616E+02</totfact>
</mgrwt>
</event>
<event>
 8    1  0.1821556E-007  0.1317207E+03  0.7546771E-02  0.1224925E+00
          5   -1    0    0  501    0  0.00000000000E+00  0.00000000000E+00  0.77033304836E+03  0.77034738618E+03  0.47000000000E+01 0.  1.
         -5   -1    0    0    0  501 -0.00000000000E+00 -0.00000000000E+00 -0.30323020887E+02  0.30685103808E+02  0.47000000000E+01 0.  1.
         25    2    1    2    0    0  0.29034178211E+02 -0.29688360147E+02  0.16500155690E+03  0.21112995532E+03  0.12500384803E+03 0.  0.
         25    2    1    2    0    0 -0.29034178211E+02  0.29688360147E+02  0.57500847057E+03  0.58990253467E+03  0.12500350773E+03 0.  0.
          5    1    4    4  502    0  0.14121696527E+02 -0.39345565224E+02  0.30381270156E+03  0.30671117268E+03  0.47000000000E+01 0.  1.
         -5    1    4    4    0  502 -0.43155874738E+02  0.69033925370E+02  0.27119576901E+03  0.28319136199E+03  0.47000000000E+01 0.  1.
          5    1    3    3  503    0  0.53416174328E+02 -0.47242755887E+02  0.16597311136E+03  0.18070508946E+03  0.47000000000E+01 0.  1.
         -5    1    3    3    0  503 -0.24381996117E+02  0.17554395740E+02 -0.97155445620E+00  0.30424865859E+02  0.47000000000E+01 0.  1.
<mgrwt>
<rscale>  0 0.13172062E+03</rscale>
<asrwt>0</asrwt>
<pdfrwt beam="1">  1        5 0.11854172E+00 0.13172071E+03</pdfrwt>
<pdfrwt beam="2">  1       -5 0.46940360E-02 0.13172071E+03</pdfrwt>
<totfact> 0.10764675E+02</totfact>
</mgrwt>
</event>
<event>
 8    1  0.1821556E-007  0.1296639E+03  0.7546771E-02  0.1227957E+00
         -5   -1    0    0    0  501 -0.00000000000E+00  0.00000000000E+00  0.81842038730E+02  0.81976882739E+02  0.47000000000E+01 0.  1.
          5   -1    0    0  501    0  0.00000000000E+00 -0.00000000000E+00 -0.20845532969E+03  0.20850830793E+03  0.47000000000E+01 0.  1.
         25    2    1    2    0    0 -0.23394792103E+01 -0.34373276419E+02 -0.44867697567E+02  0.13720729789E+03  0.12500294802E+03 0.  0.
         25    2    1    2    0    0  0.23394792103E+01  0.34373276419E+02 -0.81745593394E+02  0.15327789278E+03  0.12499910032E+03 0.  0.
          5    1    3    3  502    0 -0.28641297481E+02 -0.32726861230E+02  0.33046528637E+02  0.54822754604E+02  0.47000000000E+01 0. -1.
         -5    1    3    3    0  502  0.26301818271E+02 -0.16464151887E+01 -0.77914226204E+02  0.82384543285E+02  0.47000000000E+01 0. -1.
          5    1    4    4  503    0 -0.21684097653E+02 -0.28651851590E+02  0.11571775175E+02  0.38041091878E+02  0.47000000000E+01 0. -1.
         -5    1    4    4    0  503  0.24023576864E+02  0.63025128009E+02 -0.93317368569E+02  0.11523680090E+03  0.47000000000E+01 0. -1.
<mgrwt>
<rscale>  0 0.12966299E+03</rscale>
<asrwt>0</asrwt>
<pdfrwt beam="2">  1        5 0.32084498E-01 0.12966392E+03</pdfrwt>
<pdfrwt beam="1">  1       -5 0.12605531E-01 0.12966392E+03</pdfrwt>
<totfact> 0.35743849E+02</totfact>
</mgrwt>
</event>
<event>
 8    1  0.1821556E-007  0.1542587E+03  0.7546771E-02  0.1195338E+00
          5   -1    0    0  501    0  0.00000000000E+00  0.00000000000E+00  0.31757776745E+03  0.31761254443E+03  0.47000000000E+01 0.  1.
         -5   -1    0    0    0  501 -0.00000000000E+00 -0.00000000000E+00 -0.76158803862E+02  0.76303691954E+02  0.47000000000E+01 0.  1.
         25    2    1    2    0    0 -0.63923697326E+02  0.63917805717E+02  0.94558452568E+02  0.18093385821E+03  0.12499614046E+03 0.  0.
         25    2    1    2    0    0  0.63923697326E+02 -0.63917805717E+02  0.14686051102E+03  0.21298237817E+03  0.12498703431E+03 0.  0.
          5    1    3    3  502    0 -0.61877972394E+02  0.76872179290E+02  0.11785716687E+03  0.15378757167E+03  0.47000000000E+01 0. -1.
         -5    1    3    3    0  502 -0.20457249315E+01 -0.12954373573E+02 -0.23298714303E+02  0.27146286547E+02  0.47000000000E+01 0. -1.
          5    1    4    4  503    0  0.11159132478E+02  0.14532035613E+02 -0.15890785592E+02  0.24704521114E+02  0.47000000000E+01 0. -1.
         -5    1    4    4    0  503  0.52764564848E+02 -0.78449841330E+02  0.16275129661E+03  0.18827785706E+03  0.47000000000E+01 0. -1.
<mgrwt>
<rscale>  0 0.15425690E+03</rscale>
<asrwt>0</asrwt>
<pdfrwt beam="1">  1        5 0.48871939E-01 0.15425874E+03</pdfrwt>
<pdfrwt beam="2">  1       -5 0.11730559E-01 0.15425874E+03</pdfrwt>
<totfact> 0.18225049E+02</totfact>
</mgrwt>
</event>
<event>
 8    1  0.1821556E-007  0.1258888E+03  0.7546771E-02  0.1233688E+00
          5   -1    0    0  501    0  0.00000000000E+00  0.00000000000E+00  0.26007015343E+03  0.26011261928E+03  0.47000000000E+01 0.  1.
         -5   -1    0    0    0  501 -0.00000000000E+00 -0.00000000000E+00 -0.61793701875E+02  0.61972184013E+02  0.47000000000E+01 0.  1.
         25    2    1    2    0    0 -0.72572484253E+01  0.13027454875E+02  0.78734973602E+02  0.14848298892E+03  0.12500247876E+03 0.  0.
         25    2    1    2    0    0  0.72572484253E+01 -0.13027454875E+02  0.11954147796E+03  0.17360181437E+03  0.12500017106E+03 0.  0.
          5    1    4    4  502    0  0.36474970664E+02 -0.44668239895E+02  0.11661483506E+03  0.13017981754E+03  0.47000000000E+01 0. -1.
         -5    1    4    4    0  502 -0.29217722239E+02  0.31640785020E+02  0.29266429009E+01  0.43421996824E+02  0.47000000000E+01 0. -1.
          5    1    3    3  503    0 -0.62222280322E+02  0.16173988719E+02  0.19205830241E+02  0.67261905971E+02  0.47000000000E+01 0. -1.
         -5    1    3    3    0  503  0.54965031897E+02 -0.31465338436E+01  0.59529143360E+02  0.81221082952E+02  0.47000000000E+01 0. -1.
<mgrwt>
<rscale>  0 0.12588827E+03</rscale>
<asrwt>0</asrwt>
<pdfrwt beam="1">  1        5 0.40027789E-01 0.12588885E+03</pdfrwt>
<pdfrwt beam="2">  1       -5 0.95237194E-02 0.12588885E+03</pdfrwt>
<totfact> 0.37094168E+02</totfact>
</mgrwt>
</event>
<event>
 8    1  0.1821556E-007  0.1319347E+03  0.7546771E-02  0.1224618E+00
          5   -1    0    0  501    0  0.00000000000E+00  0.00000000000E+00  0.32156689850E+03  0.32160124411E+03  0.47000000000E+01 0.  1.
         -5   -1    0    0    0  501 -0.00000000000E+00 -0.00000000000E+00 -0.65742053663E+02  0.65909844635E+02  0.47000000000E+01 0.  1.
         25    2    1    2    0    0  0.38762346438E+02  0.16665905568E+02  0.46122450858E+02  0.13976427577E+03  0.12500600145E+03 0.  0.
         25    2    1    2    0    0 -0.38762346438E+02 -0.16665905568E+02  0.20970239398E+03  0.24774681297E+03  0.12499246931E+03 0.  0.
          5    1    4    4  502    0 -0.57960109099E+02  0.37756163949E+02  0.14622580850E+03  0.16183009372E+03  0.47000000000E+01 0. -1.
         -5    1    4    4    0  502  0.19197762661E+02 -0.54422069517E+02  0.63476585478E+02  0.85916719244E+02  0.47000000000E+01 0. -1.
          5    1    3    3  503    0  0.25163930645E+02  0.54852304258E+02  0.69954381063E+02  0.92507859762E+02  0.47000000000E+01 0.  1.
         -5    1    3    3    0  503  0.13598415794E+02 -0.38186398689E+02 -0.23831930205E+02  0.47256416011E+02  0.47000000000E+01 0.  1.
<mgrwt>
<rscale>  0 0.13193152E+03</rscale>
<asrwt>0</asrwt>
<pdfrwt beam="1">  1        5 0.49487380E-01 0.13193473E+03</pdfrwt>
<pdfrwt beam="2">  1       -5 0.10129711E-01 0.13193473E+03</pdfrwt>
<totfact> 0.21811334E+02</totfact>
</mgrwt>
</event>
<event>
 8    1  0.1821556E-007  0.1989044E+03  0.7546771E-02  0.1150667E+00
         -5   -1    0    0    0  501 -0.00000000000E+00  0.00000000000E+00  0.11365784520E+03  0.11375498132E+03  0.47000000000E+01 0.  1.
          5   -1    0    0  501    0  0.00000000000E+00 -0.00000000000E+00 -0.41466910948E+03  0.41469574432E+03  0.47000000000E+01 0.  1.
         25    2    1    2    0    0  0.73639176752E+02  0.13607226835E+03 -0.44436867766E+02  0.20380724255E+03  0.12499746530E+03 0.  0.
         25    2    1    2    0    0 -0.73639176752E+02 -0.13607226835E+03 -0.25657439651E+03  0.32464348309E+03  0.12499831838E+03 0.  0.
          5    1    3    3  502    0 -0.31383720066E+02  0.39485146202E+02 -0.33278433790E+02  0.60609890375E+02  0.47000000000E+01 0. -1.
         -5    1    3    3    0  502  0.10502289682E+03  0.96587122145E+02 -0.11158433976E+02  0.14319735217E+03  0.47000000000E+01 0. -1.
          5    1    4    4  503    0 -0.91858067030E+02 -0.53371668917E+02 -0.18623343245E+03  0.21445610479E+03  0.47000000000E+01 0. -1.
         -5    1    4    4    0  503  0.18218890279E+02 -0.82700599431E+02 -0.70340964065E+02  0.11018737829E+03  0.47000000000E+01 0. -1.
<mgrwt>
<rscale>  0 0.19890429E+03</rscale>
<asrwt>0</asrwt>
<pdfrwt beam="2">  1        5 0.63804768E-01 0.19890442E+03</pdfrwt>
<pdfrwt beam="1">  1       -5 0.17495343E-01 0.19890442E+03</pdfrwt>
<totfact> 0.53357708E+01</totfact>
</mgrwt>
</event>
<event>
 8    1  0.1821556E-007  0.1377664E+03  0.7546771E-02  0.1216367E+00
          5   -1    0    0  501    0  0.00000000000E+00  0.00000000000E+00  0.56475259001E+03  0.56477214690E+03  0.47000000000E+01 0. -1.
         -5   -1    0    0    0  501 -0.00000000000E+00 -0.00000000000E+00 -0.46644872077E+02  0.46881063246E+02  0.47000000000E+01 0. -1.
         25    2    1    2    0    0 -0.51716260918E+02  0.26047950443E+02  0.96749142254E+02  0.16834481968E+03  0.12500605753E+03 0.  0.
         25    2    1    2    0    0  0.51716260918E+02 -0.26047950443E+02  0.42135857567E+03  0.44330839047E+03  0.12500484951E+03 0.  0.
          5    1    3    3  502    0 -0.35058768544E+02  0.72421671724E+02  0.85665143530E+02  0.11762067252E+03  0.47000000000E+01 0. -1.
         -5    1    3    3    0  502 -0.16657492374E+02 -0.46373721281E+02  0.11083998724E+02  0.50724147162E+02  0.47000000000E+01 0. -1.
          5    1    4    4  503    0  0.59442438944E+02  0.38327896074E+02  0.25594034813E+03  0.26557481613E+03  0.47000000000E+01 0. -1.
         -5    1    4    4    0  503 -0.77261780262E+01 -0.64375846517E+02  0.16541822755E+03  0.17773357434E+03  0.47000000000E+01 0. -1.
<mgrwt>
<rscale>  0 0.13776613E+03</rscale>
<asrwt>0</asrwt>
<pdfrwt beam="1">  1        5 0.86904683E-01 0.13776640E+03</pdfrwt>
<pdfrwt beam="2">  1       -5 0.71958074E-02 0.13776640E+03</pdfrwt>
<totfact> 0.11380474E+02</totfact>
</mgrwt>
</event>
<event>
 8    1  0.1821556E-007  0.1634021E+03  0.7546771E-02  0.1184912E+00
          5   -1    0    0  501    0  0.00000000000E+00  0.00000000000E+00  0.33557400049E+04  0.33557432963E+04  0.47000000000E+01 0.  1.
         -5   -1    0    0    0  501 -0.00000000000E+00 -0.00000000000E+00 -0.89714098633E+01  0.10127990666E+02  0.47000000000E+01 0.  1.
         25    2    1    2    0    0  0.44546065901E+02 -0.95331620946E+02  0.98524506399E+03  0.99870132201E+03  0.12499609805E+03 0.  0.
         25    2    1    2    0    0 -0.44546065901E+02  0.95331620946E+02  0.23615235311E+04  0.23671699649E+04  0.12501114047E+03 0.  0.
          5    1    3    3  502    0  0.66059378075E+02 -0.11475096231E+03  0.74757890188E+03  0.75922850929E+03  0.47000000000E+01 0. -1.
         -5    1    3    3    0  502 -0.21513312174E+02  0.19419341364E+02  0.23766616211E+03  0.23947281272E+03  0.47000000000E+01 0. -1.
          5    1    4    4  503    0 -0.42085097307E+02 -0.20641494519E+02  0.63005767665E+03  0.63181642319E+03  0.47000000000E+01 0.  1.
         -5    1    4    4    0  503 -0.24609685943E+01  0.11597311547E+03  0.17314658544E+04  0.17353535418E+04  0.47000000000E+01 0.  1.
<mgrwt>
<rscale>  0 0.16339925E+03</rscale>
<asrwt>0</asrwt>
<pdfrwt beam="1">  1        5 0.51635704E+00 0.16340213E+03</pdfrwt>
<pdfrwt beam="2">  1       -5 0.14694375E-02 0.16340213E+03</pdfrwt>
<totfact> 0.11086391E+00</totfact>
</mgrwt>
</event>
<event>
 8    1  0.1821556E-007  0.1361475E+03  0.7546771E-02  0.1218610E+00
         -5   -1    0    0    0  501 -0.00000000000E+00  0.00000000000E+00  0.17551549400E+03  0.17557841164E+03  0.47000000000E+01 0.  1.
          5   -1    0    0  501    0  0.00000000000E+00 -0.00000000000E+00 -0.13929951915E+03  0.13937878617E+03  0.47000000000E+01 0.  1.
         25    2    1    2    0    0  0.44552026620E+02  0.30433966441E+02  0.95667698056E+02  0.16639850407E+03  0.12500017726E+03 0.  0.
         25    2    1    2    0    0 -0.44552026620E+02 -0.30433966441E+02 -0.59451723204E+02  0.14855869374E+03  0.12499627477E+03 0.  0.
          5    1    4    4  502    0 -0.46139630466E+02 -0.76687498407E+02 -0.38587973145E+02  0.97575404600E+02  0.47000000000E+01 0.  1.
         -5    1    4    4    0  502  0.15876038460E+01  0.46253531966E+02 -0.20863750059E+02  0.50983289142E+02  0.47000000000E+01 0.  1.
          5    1    3    3  503    0 -0.24452241604E+02  0.13385602627E+02  0.90686087981E+02  0.94990225973E+02  0.47000000000E+01 0. -1.
         -5    1    3    3    0  503  0.69004268224E+02  0.17048363814E+02  0.49816100748E+01  0.71408278097E+02  0.47000000000E+01 0. -1.
<mgrwt>
<rscale>  0 0.13614665E+03</rscale>
<asrwt>0</asrwt>
<pdfrwt beam="2">  1        5 0.21441633E-01 0.13614754E+03</pdfrwt>
<pdfrwt beam="1">  1       -5 0.27013321E-01 0.13614754E+03</pdfrwt>
<totfact> 0.19287386E+02</totfact>
</mgrwt>
</event>
<event>
 8    1  0.1821556E-007  0.1476996E+03  0.7546771E-02  0.1203330E+00
         -5   -1    0    0    0  501 -0.00000000000E+00  0.00000000000E+00  0.40485541804E+03  0.40488269846E+03  0.47000000000E+01 0.  1.
          5   -1    0    0  501    0  0.00000000000E+00 -0.00000000000E+00 -0.54037063659E+02  0.54241075293E+02  0.47000000000E+01 0.  1.
         25    2    1    2    0    0  0.39631556743E+02  0.67959310417E+02  0.19208051482E+03  0.24230166881E+03  0.12500418542E+03 0.  0.
         25    2    1    2    0    0 -0.39631556743E+02 -0.67959310417E+02  0.15873783956E+03  0.21682210494E+03  0.12499998129E+03 0.  0.
          5    1    3    3  502    0  0.32972067290E+02  0.25538106667E+01  0.16930112491E+03  0.17256488654E+03  0.47000000000E+01 0. -1.
         -5    1    3    3    0  502  0.66594894523E+01  0.65405499750E+02  0.22779389910E+02  0.69736782274E+02  0.47000000000E+01 0. -1.
          5    1    4    4  503    0 -0.49115883499E+02 -0.47991102146E+01  0.14232503673E+03  0.15071133850E+03  0.47000000000E+01 0. -1.
         -5    1    4    4    0  503  0.94843267567E+01 -0.63160200202E+02  0.16412802828E+02  0.66110766447E+02  0.47000000000E+01 0. -1.
<mgrwt>
<rscale>  0 0.14769872E+03</rscale>
<asrwt>0</asrwt>
<pdfrwt beam="2">  1        5 0.83311859E-02 0.14769961E+03</pdfrwt>
<pdfrwt beam="1">  1       -5 0.62303243E-01 0.14769961E+03</pdfrwt>
<totfact> 0.19332018E+02</totfact>
</mgrwt>
</event>
<event>
 8    1  0.1821556E-007  0.1251182E+03  0.7546771E-02  0.1234894E+00
          5   -1    0    0  501    0  0.00000000000E+00  0.00000000000E+00  0.43201167469E+02  0.43456079790E+02  0.47000000000E+01 0.  1.
         -5   -1    0    0    0  501 -0.00000000000E+00 -0.00000000000E+00 -0.36852155939E+03  0.36855152928E+03  0.47000000000E+01 0.  1.
         25    2    1    2    0    0 -0.36089951602E+01 -0.35314127064E+01 -0.19214094244E+03  0.22927466638E+03  0.12499294044E+03 0.  0.
         25    2    1    2    0    0  0.36089951602E+01  0.35314127064E+01 -0.13317944949E+03  0.18273294269E+03  0.12501626638E+03 0.  0.
          5    1    4    4  502    0  0.53418114591E+02 -0.32764050849E+02 -0.75025205630E+02  0.97866488004E+02  0.47000000000E+01 0. -1.
         -5    1    4    4    0  502 -0.49809119431E+02  0.36295463555E+02 -0.58154243855E+02  0.84866454689E+02  0.47000000000E+01 0. -1.
          5    1    3    3  503    0 -0.40446728348E+02 -0.15648977378E+02 -0.12418135746E+02  0.45355577634E+02  0.47000000000E+01 0.  1.
         -5    1    3    3    0  503  0.36837733188E+02  0.12117564671E+02 -0.17972280669E+03  0.18391908874E+03  0.47000000000E+01 0.  1.
<mgrwt>
<rscale>  0 0.12511237E+03</rscale>
<asrwt>0</asrwt>
<pdfrwt beam="1">  1        5 0.66682477E-02 0.12511819E+03</pdfrwt>
<pdfrwt beam="2">  1       -5 0.56717536E-01 0.12511819E+03</pdfrwt>
<totfact> 0.32768533E+02</totfact>
</mgrwt>
</event>
<event>
 8    1  0.1821556E-007  0.1892251E+03  0.7546771E-02  0.1159162E+00
          5   -1    0    0  501    0  0.00000000000E+00  0.00000000000E+00  0.10694779596E+03  0.10705102083E+03  0.47000000000E+01 0.  1.
         -5   -1    0    0    0  501 -0.00000000000E+00 -0.00000000000E+00 -0.33491061902E+03  0.33494359634E+03  0.47000000000E+01 0.  1.
         25    2    1    2    0    0 -0.11245322559E+02  0.14161544791E+03 -0.12155068508E+03  0.22490155215E+03  0.12499898699E+03 0.  0.
         25    2    1    2    0    0  0.11245322559E+02 -0.14161544791E+03 -0.10641213798E+03  0.21709306502E+03  0.12499785360E+03 0.  0.
          5    1    3    3  502    0 -0.47968811050E+02  0.14237742657E+03 -0.10946295546E+03  0.18594775354E+03  0.47000000000E+01 0. -1.
         -5    1    3    3    0  502  0.36723488491E+02 -0.76197865815E+00 -0.12087729618E+02  0.38953798605E+02  0.47000000000E+01 0. -1.
          5    1    4    4  503    0  0.64289938492E+02 -0.10582637778E+03 -0.58568944377E+02  0.13705776035E+03  0.47000000000E+01 0. -1.
         -5    1    4    4    0  503 -0.53044615933E+02 -0.35789070124E+02 -0.47843193605E+02  0.80035304673E+02  0.47000000000E+01 0. -1.
<mgrwt>
<rscale>  0 0.18922491E+03</rscale>
<asrwt>0</asrwt>
<pdfrwt beam="1">  1        5 0.16463984E-01 0.18922510E+03</pdfrwt>
<pdfrwt beam="2">  1       -5 0.51535187E-01 0.18922510E+03</pdfrwt>
<totfact> 0.93899820E+01</totfact>
</mgrwt>
</event>
<event>
 8    1  0.1821556E-007  0.1255728E+03  0.7546771E-02  0.1234180E+00
          5   -1    0    0  501    0  0.00000000000E+00  0.00000000000E+00  0.17687013921E+03  0.17693257514E+03  0.47000000000E+01 0. -1.
         -5   -1    0    0    0  501 -0.00000000000E+00 -0.00000000000E+00 -0.92348070816E+02  0.92467595316E+02  0.47000000000E+01 0. -1.
         25    2    1    2    0    0 -0.10475754370E+01  0.11939132839E+02  0.16665606713E+02  0.12667387435E+03  0.12499955075E+03 0.  0.
         25    2    1    2    0    0  0.10475754370E+01 -0.11939132839E+02  0.67856461681E+02  0.14272629611E+03  0.12499062325E+03 0.  0.
          5    1    3    3  502    0 -0.61317967207E+02 -0.54473534874E+01  0.56105396906E+00  0.61741165716E+02  0.47000000000E+01 0. -1.
         -5    1    3    3    0  502  0.60270391770E+02  0.17386486327E+02  0.16104552744E+02  0.64932708630E+02  0.47000000000E+01 0. -1.
          5    1    4    4  503    0 -0.35350795106E+02 -0.39282930030E+02  0.79428887555E+02  0.95518927363E+02  0.47000000000E+01 0. -1.
         -5    1    4    4    0  503  0.36398370543E+02  0.27343797190E+02 -0.11572425874E+02  0.47207368742E+02  0.47000000000E+01 0. -1.
<mgrwt>
<rscale>  0 0.12557058E+03</rscale>
<asrwt>0</asrwt>
<pdfrwt beam="1">  1        5 0.27224787E-01 0.12557280E+03</pdfrwt>
<pdfrwt beam="2">  1       -5 0.14221393E-01 0.12557280E+03</pdfrwt>
<totfact> 0.39255144E+02</totfact>
</mgrwt>
</event>
<event>
 8    1  0.1821556E-007  0.1380097E+03  0.7546771E-02  0.1216034E+00
         -5   -1    0    0    0  501 -0.00000000000E+00  0.00000000000E+00  0.95103469790E+01  0.10608331615E+02  0.47000000000E+01 0.  1.
          5   -1    0    0  501    0  0.00000000000E+00 -0.00000000000E+00 -0.20552534377E+04  0.20552588117E+04  0.47000000000E+01 0.  1.
         25    2    1    2    0    0  0.45346828223E+02  0.36939650654E+02 -0.73208591745E+03  0.74498084727E+03  0.12500319860E+03 0.  0.
         25    2    1    2    0    0 -0.45346828223E+02 -0.36939650654E+02 -0.13136571732E+04  0.13208862960E+04  0.12499826248E+03 0.  0.
          5    1    3    3  502    0 -0.17057172728E+02 -0.30170841250E+02 -0.93347938925E+02  0.99685277272E+02  0.47000000000E+01 0.  1.
         -5    1    3    3    0  502  0.62404000951E+02  0.67110491904E+02 -0.63873797852E+03  0.64529557000E+03  0.47000000000E+01 0.  1.
          5    1    4    4  503    0  0.39379967892E+02 -0.20741404933E+02 -0.27246804162E+03  0.27611937899E+03  0.47000000000E+01 0. -1.
         -5    1    4    4    0  503 -0.84726796115E+02 -0.16198245721E+02 -0.10411891316E+04  0.10447669170E+04  0.47000000000E+01 0. -1.
<mgrwt>
<rscale>  0 0.13800856E+03</rscale>
<asrwt>0</asrwt>
<pdfrwt beam="2">  1        5 0.31627737E+00 0.13800968E+03</pdfrwt>
<pdfrwt beam="1">  1       -5 0.15480057E-02 0.13800968E+03</pdfrwt>
<totfact> 0.27467725E+01</totfact>
</mgrwt>
</event>
<event>
 8    1  0.1821556E-007  0.1266966E+03  0.7546771E-02  0.1232446E+00
          5   -1    0    0  501    0  0.00000000000E+00  0.00000000000E+00  0.26767113469E+03  0.26771239484E+03  0.47000000000E+01 0. -1.
         -5   -1    0    0    0  501 -0.00000000000E+00 -0.00000000000E+00 -0.59825732404E+02  0.60010067969E+02  0.47000000000E+01 0. -1.
         25    2    1    2    0    0  0.16948988535E+02  0.11800232952E+02  0.10440543691E+03  0.16416251113E+03  0.12498928392E+03 0.  0.
         25    2    1    2    0    0 -0.16948988535E+02 -0.11800232952E+02  0.10343996538E+03  0.16355995168E+03  0.12500207056E+03 0.  0.
          5    1    4    4  502    0  0.21371836140E+02 -0.55659513014E+02  0.22865063781E+02  0.64028414869E+02  0.47000000000E+01 0.  1.
         -5    1    4    4    0  502 -0.38320824675E+02  0.43859280062E+02  0.80574901599E+02  0.99531536806E+02  0.47000000000E+01 0.  1.
          5    1    3    3  503    0 -0.51013218839E+02  0.10706947722E+02  0.71207018988E+02  0.88371470390E+02  0.47000000000E+01 0. -1.
         -5    1    3    3    0  503  0.67962207374E+02  0.10932852299E+01  0.33198417922E+02  0.75791040739E+02  0.47000000000E+01 0. -1.
<mgrwt>
<rscale>  0 0.12669346E+03</rscale>
<asrwt>0</asrwt>
<pdfrwt beam="1">  1        5 0.41197528E-01 0.12669661E+03</pdfrwt>
<pdfrwt beam="2">  1       -5 0.92213123E-02 0.12669661E+03</pdfrwt>
<totfact> 0.37069854E+02</totfact>
</mgrwt>
</event>
<event>
 8    1  0.1821556E-007  0.1360899E+03  0.7546771E-02  0.1218694E+00
         -5   -1    0    0    0  501 -0.00000000000E+00  0.00000000000E+00  0.33019038219E+03  0.33022383089E+03  0.47000000000E+01 0.  1.
          5   -1    0    0  501    0  0.00000000000E+00 -0.00000000000E+00 -0.60544153879E+02  0.60726308705E+02  0.47000000000E+01 0.  1.
         25    2    1    2    0    0  0.12514799129E+02 -0.52351192699E+02  0.18856304522E+03  0.23253634445E+03  0.12497944588E+03 0.  0.
         25    2    1    2    0    0 -0.12514799129E+02  0.52351192699E+02  0.81083183083E+02  0.15841379514E+03  0.12499272114E+03 0.  0.
          5    1    4    4  502    0 -0.45859126839E+02 -0.23978702024E+02  0.39018649016E+02  0.64981402234E+02  0.47000000000E+01 0.  1.
         -5    1    4    4    0  502  0.33344327710E+02  0.76329894723E+02  0.42064534067E+02  0.93432392911E+02  0.47000000000E+01 0.  1.
          5    1    3    3  503    0  0.57080815702E+02  0.11135459910E+02  0.78814753003E+02  0.98061579018E+02  0.47000000000E+01 0.  1.
         -5    1    3    3    0  503 -0.44566016573E+02 -0.63486652609E+02  0.10974829222E+03  0.13447476543E+03  0.47000000000E+01 0.  1.
<mgrwt>
<rscale>  0 0.13608680E+03</rscale>
<asrwt>0</asrwt>
<pdfrwt beam="2">  1        5 0.93310700E-02 0.13608985E+03</pdfrwt>
<pdfrwt beam="1">  1       -5 0.50815106E-01 0.13608985E+03</pdfrwt>
<totfact> 0.24042289E+02</totfact>
</mgrwt>
</event>
<event>
 8    1  0.1821556E-007  0.1773691E+03  0.7546771E-02  0.1170376E+00
          5   -1    0    0  501    0  0.00000000000E+00  0.00000000000E+00  0.40586089217E+03  0.40588810502E+03  0.47000000000E+01 0.  1.
         -5   -1    0    0    0  501 -0.00000000000E+00 -0.00000000000E+00 -0.98580528816E+02  0.98692505601E+02  0.47000000000E+01 0.  1.
         25    2    1    2    0    0  0.12527507728E+03  0.11849141264E+02  0.36811146672E+02  0.18114067630E+03  0.12499054747E+03 0.  0.
         25    2    1    2    0    0 -0.12527507728E+03 -0.11849141264E+02  0.27046921668E+03  0.32343993432E+03  0.12500218719E+03 0.  0.
          5    1    4    4  502    0 -0.14429447038E+03 -0.21106828953E+02  0.18690330865E+03  0.23711037345E+03  0.47000000000E+01 0. -1.
         -5    1    4    4    0  502  0.19019393100E+02  0.92576876888E+01  0.83565908031E+02  0.86329560871E+02  0.47000000000E+01 0. -1.
          5    1    3    3  503    0  0.12160721167E+03 -0.37715263085E+02  0.27969222843E+02  0.13044202707E+03  0.47000000000E+01 0.  1.
         -5    1    3    3    0  503  0.36678656053E+01  0.49564404349E+02  0.88419238286E+01  0.50698649228E+02  0.47000000000E+01 0.  1.
<mgrwt>
<rscale>  0 0.17736704E+03</rscale>
<asrwt>0</asrwt>
<pdfrwt beam="1">  1        5 0.62450844E-01 0.17736909E+03</pdfrwt>
<pdfrwt beam="2">  1       -5 0.15176942E-01 0.17736909E+03</pdfrwt>
<totfact> 0.70391809E+01</totfact>
</mgrwt>
</event>
<event>
 8    1  0.1821556E-007  0.1416790E+03  0.7546771E-02  0.1211090E+00
          5   -1    0    0  501    0  0.00000000000E+00  0.00000000000E+00  0.32925218523E+02  0.33258983971E+02  0.47000000000E+01 0. -1.
         -5   -1    0    0    0  501 -0.00000000000E+00 -0.00000000000E+00 -0.64102571091E+03  0.64104294088E+03  0.47000000000E+01 0. -1.
         25    2    1    2    0    0 -0.61485602612E+02  0.25813890772E+02 -0.38260251709E+03  0.40798955277E+03  0.12499581116E+03 0.  0.
         25    2    1    2    0    0  0.61485602612E+02 -0.25813890772E+02 -0.22549797530E+03  0.26631237207E+03  0.12500442540E+03 0.  0.
          5    1    4    4  502    0  0.50901840772E+02  0.46097908951E+02 -0.10825304810E+03  0.12828416514E+03  0.47000000000E+01 0.  1.
         -5    1    4    4    0  502  0.10583761840E+02 -0.71911799723E+02 -0.11724492721E+03  0.13802820693E+03  0.47000000000E+01 0.  1.
          5    1    3    3  503    0  0.29976434541E+02  0.22181655987E+02 -0.20193280259E+03  0.20540097189E+03  0.47000000000E+01 0.  1.
         -5    1    3    3    0  503 -0.91462037153E+02  0.36322347855E+01 -0.18066971450E+03  0.20258858089E+03  0.47000000000E+01 0.  1.
<mgrwt>
<rscale>  0 0.14167711E+03</rscale>
<asrwt>0</asrwt>
<pdfrwt beam="1">  1        5 0.50924184E-02 0.14167901E+03</pdfrwt>
<pdfrwt beam="2">  1       -5 0.98646331E-01 0.14167901E+03</pdfrwt>
<totfact> 0.15178148E+02</totfact>
</mgrwt>
</event>
<event>
 8    1  0.1821556E-007  0.1379843E+03  0.7546771E-02  0.1216073E+00
          5   -1    0    0  501    0  0.00000000000E+00  0.00000000000E+00  0.16885785996E+03  0.16892325734E+03  0.47000000000E+01 0. -1.
         -5   -1    0    0    0  501 -0.00000000000E+00 -0.00000000000E+00 -0.13271032530E+03  0.13279352560E+03  0.47000000000E+01 0. -1.
         25    2    1    2    0    0  0.38068268166E+02 -0.44340138714E+02 -0.40609545312E+02  0.14383598679E+03  0.12499765991E+03 0.  0.
         25    2    1    2    0    0 -0.38068268166E+02  0.44340138714E+02  0.76757079975E+02  0.15788079615E+03  0.12497782013E+03 0.  0.
          5    1    3    3  502    0  0.48196783137E+02 -0.76314852765E+02  0.74142354098E+00  0.90385432267E+02  0.47000000000E+01 0.  1.
         -5    1    3    3    0  502 -0.10128514971E+02  0.31974714050E+02 -0.41350968853E+02  0.53450554527E+02  0.47000000000E+01 0.  1.
          5    1    4    4  503    0  0.28221931849E+02  0.30023001088E+02 -0.14633842565E+02  0.43978374002E+02  0.47000000000E+01 0.  1.
         -5    1    4    4    0  503 -0.66290200015E+02  0.14317137626E+02  0.91390922540E+02  0.11390242215E+03  0.47000000000E+01 0.  1.
<mgrwt>
<rscale>  0 0.13797977E+03</rscale>
<asrwt>0</asrwt>
<pdfrwt beam="1">  1        5 0.25989563E-01 0.13798426E+03</pdfrwt>
<pdfrwt beam="2">  1       -5 0.20428404E-01 0.13798426E+03</pdfrwt>
<totfact> 0.22858507E+02</totfact>
</mgrwt>
</event>
<event>
 8    1  0.1821556E-007  0.1342781E+03  0.7546771E-02  0.1221243E+00
          5   -1    0    0  501    0  0.00000000000E+00  0.00000000000E+00  0.39842600791E+02  0.40118858879E+02  0.47000000000E+01 0.  1.
         -5   -1    0    0    0  501 -0.00000000000E+00 -0.00000000000E+00 -0.66862874958E+03  0.66864526826E+03  0.47000000000E+01 0.  1.
         25    2    1    2    0    0  0.10594981768E+02  0.47882508916E+02 -0.51667281589E+03  0.53383650033E+03  0.12500248841E+03 0.  0.
         25    2    1    2    0    0 -0.10594981768E+02 -0.47882508916E+02 -0.11211333290E+03  0.17492762681E+03  0.12500114762E+03 0.  0.
          5    1    3    3  502    0  0.38628606892E+02 -0.23146044082E+02 -0.94488211137E+02  0.10477605008E+03  0.47000000000E+01 0. -1.
         -5    1    3    3    0  502 -0.28033625124E+02  0.71028552998E+02 -0.42218460475E+03  0.42906045025E+03  0.47000000000E+01 0. -1.
          5    1    4    4  503    0 -0.34641149999E+02 -0.82317114103E+02 -0.91353563303E+02  0.12784240328E+03  0.47000000000E+01 0. -1.
         -5    1    4    4    0  503  0.24046168231E+02  0.34434605187E+02 -0.20759769596E+02  0.47085223528E+02  0.47000000000E+01 0. -1.
<mgrwt>
<rscale>  0 0.13427780E+03</rscale>
<asrwt>0</asrwt>
<pdfrwt beam="1">  1        5 0.61521527E-02 0.13427811E+03</pdfrwt>
<pdfrwt beam="2">  1       -5 0.10288847E+00 0.13427811E+03</pdfrwt>
<totfact> 0.98122587E+01</totfact>
</mgrwt>
</event>
<event>
 8    1  0.1821556E-007  0.1363662E+03  0.7546771E-02  0.1218305E+00
          5   -1    0    0  501    0  0.00000000000E+00  0.00000000000E+00  0.56867825720E+03  0.56869767910E+03  0.47000000000E+01 0.  1.
         -5   -1    0    0    0  501 -0.00000000000E+00 -0.00000000000E+00 -0.33384561359E+02  0.33713779632E+02  0.47000000000E+01 0.  1.
         25    2    1    2    0    0 -0.42267800396E+02  0.34406704854E+02  0.21914525628E+03  0.25810699635E+03  0.12499675966E+03 0.  0.
         25    2    1    2    0    0  0.42267800396E+02 -0.34406704854E+02  0.31614843956E+03  0.34430446238E+03  0.12500135476E+03 0.  0.
          5    1    3    3  502    0  0.36871546233E+02 -0.29310280366E+01  0.12061054957E+03  0.12624221367E+03  0.47000000000E+01 0. -1.
         -5    1    3    3    0  502 -0.79139346629E+02  0.37337732890E+02  0.98534706716E+02  0.13186478267E+03  0.47000000000E+01 0. -1.
          5    1    4    4  503    0  0.49304790921E+02  0.35431332376E+02  0.19414826596E+03  0.20347476723E+03  0.47000000000E+01 0.  1.
         -5    1    4    4    0  503 -0.70369905252E+01 -0.69838037230E+02  0.12200017360E+03  0.14082969516E+03  0.47000000000E+01 0.  1.
<mgrwt>
<rscale>  0 0.13636510E+03</rscale>
<asrwt>0</asrwt>
<pdfrwt beam="1">  1        5 0.87515779E-01 0.13636615E+03</pdfrwt>
<pdfrwt beam="2">  1       -5 0.51629050E-02 0.13636615E+03</pdfrwt>
<totfact> 0.19503372E+02</totfact>
</mgrwt>
</event>
<event>
 8    1  0.1821556E-007  0.1297380E+03  0.7546771E-02  0.1227851E+00
          5   -1    0    0  501    0  0.00000000000E+00  0.00000000000E+00  0.87874291107E+03  0.87875548007E+03  0.47000000000E+01 0.  1.
         -5   -1    0    0    0  501 -0.00000000000E+00 -0.00000000000E+00 -0.19077717990E+02  0.19648137919E+02  0.47000000000E+01 0.  1.
         25    2    1    2    0    0  0.30743900463E+02 -0.16170792308E+02  0.38159060059E+03  0.40303782829E+03  0.12498568971E+03 0.  0.
         25    2    1    2    0    0 -0.30743900463E+02  0.16170792308E+02  0.47807459249E+03  0.49536578971E+03  0.12500107073E+03 0.  0.
          5    1    3    3  502    0  0.73583714238E+02  0.51951836376E+01  0.15946201291E+03  0.17576056581E+03  0.47000000000E+01 0.  1.
         -5    1    3    3    0  502 -0.42839813774E+02 -0.21365975945E+02  0.22212858768E+03  0.22727726248E+03  0.47000000000E+01 0.  1.
          5    1    4    4  503    0 -0.16802896132E+02  0.52358219566E+02  0.91737275023E+02  0.10705857324E+03  0.47000000000E+01 0.  1.
         -5    1    4    4    0  503 -0.13941004331E+02 -0.36187427259E+02  0.38633731747E+03  0.38830721647E+03  0.47000000000E+01 0.  1.
<mgrwt>
<rscale>  0 0.12973430E+03</rscale>
<asrwt>0</asrwt>
<pdfrwt beam="1">  1        5 0.13523613E+00 0.12973800E+03</pdfrwt>
<pdfrwt beam="2">  1       -5 0.29798773E-02 0.12973800E+03</pdfrwt>
<totfact> 0.16001328E+02</totfact>
</mgrwt>
</event>
<event>
 8    1  0.1821556E-007  0.1363371E+03  0.7546771E-02  0.1218348E+00
          5   -1    0    0  501    0  0.00000000000E+00  0.00000000000E+00  0.23657258601E+03  0.23661926898E+03  0.47000000000E+01 0. -1.
         -5   -1    0    0    0  501 -0.00000000000E+00 -0.00000000000E+00 -0.86101843928E+02  0.86230026834E+02  0.47000000000E+01 0. -1.
         25    2    1    2    0    0 -0.42386505250E+02 -0.34162610501E+02  0.27131198929E+02  0.13900030102E+03  0.12498512689E+03 0.  0.
         25    2    1    2    0    0  0.42386505250E+02  0.34162610501E+02  0.12333954315E+03  0.18384899480E+03  0.12499644075E+03 0.  0.
          5    1    3    3  502    0 -0.38260813910E+02 -0.12245447476E+02  0.75432269503E+02  0.85591811216E+02  0.47000000000E+01 0. -1.
         -5    1    3    3    0  502 -0.41256913402E+01 -0.21917163025E+02 -0.48301070573E+02  0.53408489799E+02  0.47000000000E+01 0. -1.
          5    1    4    4  503    0  0.24642936670E+02  0.79058865768E+02  0.53082773253E+02  0.98475628459E+02  0.47000000000E+01 0. -1.
         -5    1    4    4    0  503  0.17743568580E+02 -0.44896255267E+02  0.70256769902E+02  0.85373366338E+02  0.47000000000E+01 0. -1.
<mgrwt>
<rscale>  0 0.13633453E+03</rscale>
<asrwt>0</asrwt>
<pdfrwt beam="1">  1        5 0.36409233E-01 0.13633712E+03</pdfrwt>
<pdfrwt beam="2">  1       -5 0.13259889E-01 0.13633712E+03</pdfrwt>
<totfact> 0.25824689E+02</totfact>
</mgrwt>
</event>
<event>
 8    1  0.1821556E-007  0.1353070E+03  0.7546771E-02  0.1219788E+00
         -5   -1    0    0    0  501 -0.00000000000E+00  0.00000000000E+00  0.94048031684E+02  0.94165398441E+02  0.47000000000E+01 0. -1.
          5   -1    0    0  501    0  0.00000000000E+00 -0.00000000000E+00 -0.22079175157E+03  0.22084177042E+03  0.47000000000E+01 0. -1.
         25    2    1    2    0    0 -0.19787031907E+02 -0.47869490845E+02 -0.89339494579E+01  0.13559945488E+03  0.12499752768E+03 0.  0.
         25    2    1    2    0    0  0.19787031907E+02  0.47869490845E+02 -0.11780977043E+03  0.17940771397E+03  0.12499988416E+03 0.  0.
          5    1    4    4  502    0  0.57915801276E+02  0.91026458414E+01 -0.11531631500E+02  0.59934687150E+02  0.47000000000E+01 0. -1.
         -5    1    4    4    0  502 -0.38128769369E+02  0.38766845004E+02 -0.10627813893E+03  0.11947302682E+03  0.47000000000E+01 0. -1.
          5    1    3    3  503    0  0.42354135780E+02 -0.55193803462E+02 -0.18461062883E+02  0.72132722124E+02  0.47000000000E+01 0.  1.
         -5    1    3    3    0  503 -0.62141167687E+02  0.73243126167E+01  0.95271134247E+01  0.63466732758E+02  0.47000000000E+01 0.  1.
<mgrwt>
<rscale>  0 0.13530646E+03</rscale>
<asrwt>0</asrwt>
<pdfrwt beam="2">  1        5 0.33980837E-01 0.13530701E+03</pdfrwt>
<pdfrwt beam="1">  1       -5 0.14481804E-01 0.13530701E+03</pdfrwt>
<totfact> 0.25251021E+02</totfact>
</mgrwt>
</event>
<event>
 8    1  0.1821556E-007  0.1265925E+03  0.7546771E-02  0.1232619E+00
          5   -1    0    0  501    0  0.00000000000E+00  0.00000000000E+00  0.49668038916E+03  0.49670262630E+03  0.47000000000E+01 0. -1.
         -5   -1    0    0    0  501 -0.00000000000E+00 -0.00000000000E+00 -0.32379340086E+02  0.32718674551E+02  0.47000000000E+01 0. -1.
         25    2    1    2    0    0 -0.13571373397E+01  0.19746096558E+02  0.20601915305E+03  0.24180477574E+03  0.12503562692E+03 0.  0.
         25    2    1    2    0    0  0.13571373397E+01 -0.19746096558E+02  0.25828189603E+03  0.28761652511E+03  0.12498790961E+03 0.  0.
          5    1    4    4  502    0 -0.58890920999E+02 -0.40613615371E+00  0.88904362290E+02  0.10674446663E+03  0.47000000000E+01 0.  1.
         -5    1    4    4    0  502  0.60248058339E+02 -0.19339960404E+02  0.16937753374E+03  0.18087205848E+03  0.47000000000E+01 0.  1.
          5    1    3    3  503    0  0.33958824321E+02 -0.41354865878E+02  0.67434088076E+02  0.86214110886E+02  0.47000000000E+01 0.  1.
         -5    1    3    3    0  503 -0.35315961661E+02  0.61100962436E+02  0.13858506497E+03  0.15559066486E+03  0.47000000000E+01 0.  1.
<mgrwt>
<rscale>  0 0.12658070E+03</rscale>
<asrwt>0</asrwt>
<pdfrwt beam="1">  1        5 0.76440172E-01 0.12659249E+03</pdfrwt>
<pdfrwt beam="2">  1       -5 0.50092507E-02 0.12659249E+03</pdfrwt>
<totfact> 0.27359899E+02</totfact>
</mgrwt>
</event>
<event>
 8    1  0.1821556E-007  0.1310845E+03  0.7546771E-02  0.1225856E+00
          5   -1    0    0  501    0  0.00000000000E+00  0.00000000000E+00  0.22389715654E+03  0.22394648179E+03  0.47000000000E+01 0.  1.
         -5   -1    0    0    0  501 -0.00000000000E+00 -0.00000000000E+00 -0.10640308348E+03  0.10650683628E+03  0.47000000000E+01 0.  1.
         25    2    1    2    0    0 -0.13181919318E+02  0.37205233928E+02 -0.28603612930E+02  0.13416901704E+03  0.12500066413E+03 0.  0.
         25    2    1    2    0    0  0.13181919318E+02 -0.37205233928E+02  0.14609768599E+03  0.19628430103E+03  0.12500000220E+03 0.  0.
          5    1    3    3  502    0  0.44271953249E+02  0.38230638084E+02  0.16510537523E+02  0.60961261323E+02  0.47000000000E+01 0. -1.
         -5    1    3    3    0  502 -0.57453872567E+02 -0.10254041558E+01 -0.45114150453E+02  0.73207755721E+02  0.47000000000E+01 0. -1.
          5    1    4    4  503    0 -0.39017606209E+02 -0.61271673539E+02  0.90903344844E+02  0.11645642823E+03  0.47000000000E+01 0.  1.
         -5    1    4    4    0  503  0.52199525527E+02  0.24066439611E+02  0.55194341143E+02  0.79827872795E+02  0.47000000000E+01 0.  1.
<mgrwt>
<rscale>  0 0.13108439E+03</rscale>
<asrwt>0</asrwt>
<pdfrwt beam="1">  1        5 0.34457491E-01 0.13108455E+03</pdfrwt>
<pdfrwt beam="2">  1       -5 0.16381480E-01 0.13108455E+03</pdfrwt>
<totfact> 0.19424085E+02</totfact>
</mgrwt>
</event>
<event>
 8    1  0.1821556E-007  0.1320329E+03  0.7546771E-02  0.1224471E+00
         -5   -1    0    0    0  501 -0.00000000000E+00  0.00000000000E+00  0.19914392197E+03  0.19919937664E+03  0.47000000000E+01 0.  1.
          5   -1    0    0  501    0  0.00000000000E+00 -0.00000000000E+00 -0.10061771004E+03  0.10072742216E+03  0.47000000000E+01 0.  1.
         25    2    1    2    0    0  0.13277858013E+02 -0.40383856312E+02  0.10355994377E+03  0.16780152735E+03  0.12500213303E+03 0.  0.
         25    2    1    2    0    0 -0.13277858013E+02  0.40383856312E+02 -0.50337318451E+01  0.13212527146E+03  0.12499836614E+03 0.  0.
          5    1    4    4  502    0 -0.50180248064E+02  0.52985525427E+02 -0.36563276854E+02  0.81758708495E+02  0.47000000000E+01 0. -1.
         -5    1    4    4    0  502  0.36902390051E+02 -0.12601669115E+02  0.31529545009E+02  0.50366562960E+02  0.47000000000E+01 0. -1.
          5    1    3    3  503    0 -0.35550947369E+02  0.24814223390E+02  0.63170186718E+02  0.76760523912E+02  0.47000000000E+01 0. -1.
         -5    1    3    3    0  503  0.48828805382E+02 -0.65198079702E+02  0.40389757049E+02  0.91041003434E+02  0.47000000000E+01 0. -1.
<mgrwt>
<rscale>  0 0.13203202E+03</rscale>
<asrwt>0</asrwt>
<pdfrwt beam="2">  1        5 0.15492353E-01 0.13203291E+03</pdfrwt>
<pdfrwt beam="1">  1       -5 0.30650231E-01 0.13203291E+03</pdfrwt>
<totfact> 0.27187004E+02</totfact>
</mgrwt>
</event>
<event>
 8    1  0.1821556E-007  0.1366522E+03  0.7546771E-02  0.1217907E+00
         -5   -1    0    0    0  501 -0.00000000000E+00  0.00000000000E+00  0.17924358854E+03  0.17930519801E+03  0.47000000000E+01 0.  1.
          5   -1    0    0  501    0  0.00000000000E+00 -0.00000000000E+00 -0.10620406592E+03  0.10630801295E+03  0.47000000000E+01 0.  1.
         25    2    1    2    0    0  0.27005575986E+02 -0.48165289682E+02  0.56852847181E+02  0.14800572016E+03  0.12499700277E+03 0.  0.
         25    2    1    2    0    0 -0.27005575986E+02  0.48165289682E+02  0.16186675449E+02  0.13760749080E+03  0.12499846718E+03 0.  0.
          5    1    3    3  502    0  0.42107804989E+02 -0.85280804236E+02  0.31249608987E+02  0.10022230727E+03  0.47000000000E+01 0. -1.
         -5    1    3    3    0  502 -0.15102229003E+02  0.37115514554E+02  0.25603238194E+02  0.47783412891E+02  0.47000000000E+01 0. -1.
          5    1    4    4  503    0  0.44696573314E+02  0.44337358021E+02 -0.27751362418E+01  0.63193167063E+02  0.47000000000E+01 0. -1.
         -5    1    4    4    0  503 -0.71702149300E+02  0.38279316609E+01  0.18961811690E+02  0.74414323740E+02  0.47000000000E+01 0. -1.
<mgrwt>
<rscale>  0 0.13665183E+03</rscale>
<asrwt>0</asrwt>
<pdfrwt beam="2">  1        5 0.16351822E-01 0.13665216E+03</pdfrwt>
<pdfrwt beam="1">  1       -5 0.27588672E-01 0.13665216E+03</pdfrwt>
<totfact> 0.30627715E+02</totfact>
</mgrwt>
</event>
<event>
 8    1  0.1821556E-007  0.1560219E+03  0.7546771E-02  0.1193263E+00
          5   -1    0    0  501    0  0.00000000000E+00  0.00000000000E+00  0.56302024698E+02  0.56497858234E+02  0.47000000000E+01 0. -1.
         -5   -1    0    0    0  501 -0.00000000000E+00 -0.00000000000E+00 -0.43255172925E+03  0.43257726302E+03  0.47000000000E+01 0. -1.
         25    2    1    2    0    0 -0.78767382999E+02 -0.50137126321E+02 -0.20072871155E+03  0.25423387005E+03  0.12499925191E+03 0.  0.
         25    2    1    2    0    0  0.78767382999E+02  0.50137126321E+02 -0.17552099300E+03  0.23484125120E+03  0.12499904888E+03 0.  0.
          5    1    4    4  502    0 -0.25223718516E+02 -0.16332954807E+02 -0.51498373655E+02  0.59809479830E+02  0.47000000000E+01 0.  1.
         -5    1    4    4    0  502  0.10399110151E+03  0.66470081128E+02 -0.12402261935E+03  0.17503177137E+03  0.47000000000E+01 0.  1.
          5    1    3    3  503    0  0.21664497660E+02 -0.50713477922E+02 -0.66322511085E+02  0.86382711109E+02  0.47000000000E+01 0.  1.
         -5    1    3    3    0  503 -0.10043188066E+03  0.57635160124E+00 -0.13440620047E+03  0.16785115894E+03  0.47000000000E+01 0.  1.
<mgrwt>
<rscale>  0 0.15602190E+03</rscale>
<asrwt>0</asrwt>
<pdfrwt beam="1">  1        5 0.86788785E-02 0.15602194E+03</pdfrwt>
<pdfrwt beam="2">  1       -5 0.66563446E-01 0.15602194E+03</pdfrwt>
<totfact> 0.15832618E+02</totfact>
</mgrwt>
</event>
<event>
 8    1  0.1821556E-007  0.1264167E+03  0.7546771E-02  0.1232874E+00
          5   -1    0    0  501    0  0.00000000000E+00  0.00000000000E+00  0.75133722815E+02  0.75280583845E+02  0.47000000000E+01 0. -1.
         -5   -1    0    0    0  501 -0.00000000000E+00 -0.00000000000E+00 -0.21245385364E+03  0.21250583505E+03  0.47000000000E+01 0. -1.
         25    2    1    2    0    0 -0.10173549429E+02  0.15797443590E+02 -0.64926828597E+02  0.14210879277E+03  0.12500542220E+03 0.  0.
         25    2    1    2    0    0  0.10173549429E+02 -0.15797443590E+02 -0.72393302233E+02  0.14567762612E+03  0.12501248023E+03 0.  0.
          5    1    3    3  502    0 -0.43053697850E+02  0.20924096186E+01  0.21582505463E+02  0.48434425966E+02  0.47000000000E+01 0.  1.
         -5    1    3    3    0  502  0.32880148421E+02  0.13705033971E+02 -0.86509334060E+02  0.93674366802E+02  0.47000000000E+01 0.  1.
          5    1    4    4  503    0 -0.17745876463E+02 -0.62746270005E+02 -0.61548393293E+02  0.89790340504E+02  0.47000000000E+01 0. -1.
         -5    1    4    4    0  503  0.27919425892E+02  0.46948826415E+02 -0.10844908940E+02  0.55887285619E+02  0.47000000000E+01 0. -1.
<mgrwt>
<rscale>  0 0.12641495E+03</rscale>
<asrwt>0</asrwt>
<pdfrwt beam="1">  1        5 0.11574330E-01 0.12641669E+03</pdfrwt>
<pdfrwt beam="2">  1       -5 0.32700504E-01 0.12641669E+03</pdfrwt>
<totfact> 0.39666447E+02</totfact>
</mgrwt>
</event>
<event>
 8    1  0.1821556E-007  0.1361031E+03  0.7546771E-02  0.1218692E+00
         -5   -1    0    0    0  501 -0.00000000000E+00  0.00000000000E+00  0.56052208534E+03  0.56054178983E+03  0.47000000000E+01 0.  1.
          5   -1    0    0  501    0  0.00000000000E+00 -0.00000000000E+00 -0.34549930872E+02  0.34868147689E+02  0.47000000000E+01 0.  1.
         25    2    1    2    0    0  0.16732090099E+02  0.51174779660E+02  0.32882782717E+03  0.35588171664E+03  0.12500094161E+03 0.  0.
         25    2    1    2    0    0 -0.16732090099E+02 -0.51174779660E+02  0.19714432729E+03  0.23952822088E+03  0.12493623134E+03 0.  0.
          5    1    3    3  502    0 -0.53719089821E+02  0.25492155818E+02  0.12129547775E+03  0.13516757578E+03  0.47000000000E+01 0.  1.
         -5    1    3    3    0  502  0.70451179920E+02  0.25682623842E+02  0.20753234942E+03  0.22071414086E+03  0.47000000000E+01 0.  1.
          5    1    4    4  503    0 -0.58773398256E+02 -0.78414836545E+01  0.15424027807E+03  0.16531168921E+03  0.47000000000E+01 0. -1.
         -5    1    4    4    0  503  0.42041308158E+02 -0.43333296006E+02  0.42904049220E+02  0.74216531674E+02  0.47000000000E+01 0. -1.
<mgrwt>
<rscale>  0 0.13608825E+03</rscale>
<asrwt>0</asrwt>
<pdfrwt beam="2">  1        5 0.53413678E-02 0.13610311E+03</pdfrwt>
<pdfrwt beam="1">  1       -5 0.86260163E-01 0.13610311E+03</pdfrwt>
<totfact> 0.19055322E+02</totfact>
</mgrwt>
</event>
<event>
 8    1  0.1821556E-007  0.1335209E+03  0.7546771E-02  0.1222327E+00
          5   -1    0    0  501    0  0.00000000000E+00  0.00000000000E+00  0.94312886954E+02  0.94429924524E+02  0.47000000000E+01 0. -1.
         -5   -1    0    0    0  501 -0.00000000000E+00 -0.00000000000E+00 -0.19047315677E+03  0.19053113512E+03  0.47000000000E+01 0. -1.
         25    2    1    2    0    0 -0.33457926301E+02 -0.32850964022E+02 -0.61638682558E+02  0.14706170533E+03  0.12501679614E+03 0.  0.
         25    2    1    2    0    0  0.33457926301E+02  0.32850964022E+02 -0.34521587258E+02  0.13789935431E+03  0.12500349301E+03 0.  0.
          5    1    3    3  502    0 -0.54168136552E+02 -0.21237525480E+02  0.20161179482E+02  0.61755831013E+02  0.47000000000E+01 0.  1.
         -5    1    3    3    0  502  0.20710210251E+02 -0.11613438542E+02 -0.81799862040E+02  0.85305874317E+02  0.47000000000E+01 0.  1.
          5    1    4    4  503    0 -0.29816299554E+02  0.39368192203E+02 -0.51896499264E+02  0.71792777577E+02  0.47000000000E+01 0.  1.
         -5    1    4    4    0  503  0.63274225854E+02 -0.65172281808E+01  0.17374912006E+02  0.66106576737E+02  0.47000000000E+01 0.  1.
<mgrwt>
<rscale>  0 0.13351774E+03</rscale>
<asrwt>0</asrwt>
<pdfrwt beam="1">  1        5 0.14523138E-01 0.13352085E+03</pdfrwt>
<pdfrwt beam="2">  1       -5 0.29317025E-01 0.13352085E+03</pdfrwt>
<totfact> 0.33473464E+02</totfact>
</mgrwt>
</event>
<event>
 8    1  0.1821556E-007  0.1518605E+03  0.7546771E-02  0.1198210E+00
          5   -1    0    0  501    0  0.00000000000E+00  0.00000000000E+00  0.20818226645E+02  0.21342177973E+02  0.47000000000E+01 0.  1.
         -5   -1    0    0    0  501 -0.00000000000E+00 -0.00000000000E+00 -0.11261843754E+04  0.11261941828E+04  0.47000000000E+01 0.  1.
         25    2    1    2    0    0  0.45108589931E+01 -0.86087439458E+02 -0.65066977434E+03  0.66815623937E+03  0.12502083782E+03 0.  0.
         25    2    1    2    0    0 -0.45108589931E+01  0.86087439458E+02 -0.45469637444E+03  0.47938012143E+03  0.12500045127E+03 0.  0.
          5    1    4    4  502    0 -0.56152295719E+02  0.36913302398E+02 -0.31879852616E+03  0.32583778555E+03  0.47000000000E+01 0. -1.
         -5    1    4    4    0  502  0.51641436726E+02  0.49174137061E+02 -0.13589784827E+03  0.15354233588E+03  0.47000000000E+01 0. -1.
          5    1    3    3  503    0  0.30570260263E+02 -0.43311671304E+01 -0.36650918537E+02  0.48152670236E+02  0.47000000000E+01 0. -1.
         -5    1    3    3    0  503 -0.26059401270E+02 -0.81756272328E+02 -0.61401885580E+03  0.62000356913E+03  0.47000000000E+01 0. -1.
<mgrwt>
<rscale>  0 0.15185628E+03</rscale>
<asrwt>0</asrwt>
<pdfrwt beam="1">  1        5 0.32438634E-02 0.15186048E+03</pdfrwt>
<pdfrwt beam="2">  1       -5 0.17330015E+00 0.15186048E+03</pdfrwt>
<totfact> 0.73903745E+01</totfact>
</mgrwt>
</event>
<event>
 8    1  0.1821556E-007  0.1287928E+03  0.7546771E-02  0.1229258E+00
          5   -1    0    0  501    0  0.00000000000E+00  0.00000000000E+00  0.83896074205E+02  0.84027622048E+02  0.47000000000E+01 0.  1.
         -5   -1    0    0    0  501 -0.00000000000E+00 -0.00000000000E+00 -0.22156352896E+03  0.22161337361E+03  0.47000000000E+01 0.  1.
         25    2    1    2    0    0 -0.65388560034E+01 -0.30327825824E+02 -0.11928009278E+03  0.17554224067E+03  0.12499921627E+03 0.  0.
         25    2    1    2    0    0  0.65388560034E+01  0.30327825824E+02 -0.18387361972E+02  0.13009875499E+03  0.12500022925E+03 0.  0.
          5    1    3    3  502    0 -0.15514367699E+00  0.42519235452E+02 -0.83887870364E+02  0.94165674463E+02  0.47000000000E+01 0.  1.
         -5    1    3    3    0  502 -0.63837123265E+01 -0.72847061276E+02 -0.35392222418E+02  0.81376566204E+02  0.47000000000E+01 0.  1.
          5    1    4    4  503    0  0.47660323035E+02  0.36434790660E+02  0.29073085647E+02  0.66830641710E+02  0.47000000000E+01 0. -1.
         -5    1    4    4    0  503 -0.41121467032E+02 -0.61069648364E+01 -0.47460447619E+02  0.63268113284E+02  0.47000000000E+01 0. -1.
<mgrwt>
<rscale>  0 0.12879258E+03</rscale>
<asrwt>0</asrwt>
<pdfrwt beam="1">  1        5 0.12921042E-01 0.12879282E+03</pdfrwt>
<pdfrwt beam="2">  1       -5 0.34100650E-01 0.12879282E+03</pdfrwt>
<totfact> 0.30230238E+02</totfact>
</mgrwt>
</event>
<event>
 8    1  0.1821556E-007  0.1542445E+03  0.7546771E-02  0.1195354E+00
         -5   -1    0    0    0  501 -0.00000000000E+00  0.00000000000E+00  0.27666399997E+03  0.27670391916E+03  0.47000000000E+01 0.  1.
          5   -1    0    0  501    0  0.00000000000E+00 -0.00000000000E+00 -0.87483283881E+02  0.87609445602E+02  0.47000000000E+01 0.  1.
         25    2    1    2    0    0 -0.10231228288E+02 -0.89786472415E+02  0.69957296666E+02  0.16936757481E+03  0.12500025352E+03 0.  0.
         25    2    1    2    0    0  0.10231228288E+02  0.89786472415E+02  0.11922341942E+03  0.19494578995E+03  0.12499339430E+03 0.  0.
          5    1    3    3  502    0  0.16940224082E+02 -0.11504778858E+03  0.58477831479E+02  0.13024865306E+03  0.47000000000E+01 0. -1.
         -5    1    3    3    0  502 -0.27171452369E+02  0.25261316166E+02  0.11479465187E+02  0.39118921755E+02  0.47000000000E+01 0. -1.
          5    1    4    4  503    0 -0.50084141568E+01  0.85797023668E+02  0.12512767502E+02  0.86976277416E+02  0.47000000000E+01 0.  1.
         -5    1    4    4    0  503  0.15239642445E+02  0.39894487479E+01  0.10671065192E+03  0.10796951253E+03  0.47000000000E+01 0.  1.
<mgrwt>
<rscale>  0 0.15424307E+03</rscale>
<asrwt>0</asrwt>
<pdfrwt beam="2">  1        5 0.13471742E-01 0.15424446E+03</pdfrwt>
<pdfrwt beam="1">  1       -5 0.42576467E-01 0.15424446E+03</pdfrwt>
<totfact> 0.19000812E+02</totfact>
</mgrwt>
</event>
<event>
 8    1  0.1821556E-007  0.1353058E+03  0.7546771E-02  0.1219799E+00
          5   -1    0    0  501    0  0.00000000000E+00  0.00000000000E+00  0.35068697933E+02  0.35382249430E+02  0.47000000000E+01 0.  1.
         -5   -1    0    0    0  501 -0.00000000000E+00 -0.00000000000E+00 -0.52718784936E+03  0.52720879973E+03  0.47000000000E+01 0.  1.
         25    2    1    2    0    0  0.78503855146E+01 -0.51192043044E+02 -0.28049768570E+03  0.31142671370E+03  0.12500156999E+03 0.  0.
         25    2    1    2    0    0 -0.78503855146E+01  0.51192043044E+02 -0.21162146574E+03  0.25116433547E+03  0.12497049583E+03 0.  0.
          5    1    3    3  502    0  0.20603715481E+02 -0.58928163766E+02 -0.49257365383E+02  0.79658142214E+02  0.47000000000E+01 0. -1.
         -5    1    3    3    0  502 -0.12753329966E+02  0.77361207217E+01 -0.23124032031E+03  0.23176857148E+03  0.47000000000E+01 0. -1.
          5    1    4    4  503    0 -0.42616383016E+02 -0.16669464122E+02 -0.13642061433E+03  0.14396770871E+03  0.47000000000E+01 0. -1.
         -5    1    4    4    0  503  0.34765997501E+02  0.67861507166E+02 -0.75200851404E+02  0.10719662676E+03  0.47000000000E+01 0. -1.
<mgrwt>
<rscale>  0 0.13529857E+03</rscale>
<asrwt>0</asrwt>
<pdfrwt beam="1">  1        5 0.54209156E-02 0.13530575E+03</pdfrwt>
<pdfrwt beam="2">  1       -5 0.81131548E-01 0.13530575E+03</pdfrwt>
<totfact> 0.21408933E+02</totfact>
</mgrwt>
</event>
<event>
 8    1  0.1821556E-007  0.1256788E+03  0.7546771E-02  0.1234017E+00
         -5   -1    0    0    0  501 -0.00000000000E+00  0.00000000000E+00  0.13043266752E+03  0.13051731976E+03  0.47000000000E+01 0.  1.
          5   -1    0    0  501    0  0.00000000000E+00 -0.00000000000E+00 -0.13123239998E+03  0.13131653668E+03  0.47000000000E+01 0.  1.
         25    2    1    2    0    0 -0.12690581424E+02  0.25567485896E+01  0.36279258675E+02  0.13079941992E+03  0.12499886328E+03 0.  0.
         25    2    1    2    0    0  0.12690581424E+02 -0.25567485896E+01 -0.37078991138E+02  0.13103443651E+03  0.12501033616E+03 0.  0.
          5    1    4    4  502    0  0.17184881640E+01  0.26579502880E+02  0.39707143492E+02  0.48043422226E+02  0.47000000000E+01 0. -1.
         -5    1    4    4    0  502  0.10972093260E+02 -0.29136251469E+02 -0.76786134630E+02  0.82991014282E+02  0.47000000000E+01 0. -1.
          5    1    3    3  503    0 -0.72699629151E+01  0.62717652557E+02  0.75984731529E+01  0.63766629967E+02  0.47000000000E+01 0. -1.
         -5    1    3    3    0  503 -0.54206185092E+01 -0.60160903967E+02  0.28680785523E+02  0.67032789957E+02  0.47000000000E+01 0. -1.
<mgrwt>
<rscale>  0 0.12567599E+03</rscale>
<asrwt>0</asrwt>
<pdfrwt beam="2">  1        5 0.20202584E-01 0.12567884E+03</pdfrwt>
<pdfrwt beam="1">  1       -5 0.20079548E-01 0.12567884E+03</pdfrwt>
<totfact> 0.36801998E+02</totfact>
</mgrwt>
</event>
<event>
 8    1  0.1821556E-007  0.1268332E+03  0.7546771E-02  0.1232234E+00
         -5   -1    0    0    0  501 -0.00000000000E+00  0.00000000000E+00  0.15699382411E+03  0.15706416144E+03  0.47000000000E+01 0.  1.
          5   -1    0    0  501    0  0.00000000000E+00 -0.00000000000E+00 -0.11875803708E+03  0.11885100492E+03  0.47000000000E+01 0.  1.
         25    2    1    2    0    0 -0.78072220913E+01  0.20035409176E+02  0.70414965466E+02  0.14506867629E+03  0.12499713253E+03 0.  0.
         25    2    1    2    0    0  0.78072220913E+01 -0.20035409176E+02 -0.32179178434E+02  0.13084649007E+03  0.12499173613E+03 0.  0.
          5    1    4    4  502    0  0.21584034145E+02  0.44759296162E+02 -0.40019108159E+02  0.63975652718E+02  0.47000000000E+01 0. -1.
         -5    1    4    4    0  502 -0.13776812053E+02 -0.64794705338E+02  0.78399297258E+01  0.66870837353E+02  0.47000000000E+01 0. -1.
          5    1    3    3  503    0  0.17552839431E+02  0.68082269283E+02  0.27367466612E+02  0.75593424261E+02  0.47000000000E+01 0. -1.
         -5    1    3    3    0  503 -0.25360061523E+02 -0.48046860107E+02  0.43047498854E+02  0.69475252027E+02  0.47000000000E+01 0. -1.
<mgrwt>
<rscale>  0 0.12683184E+03</rscale>
<asrwt>0</asrwt>
<pdfrwt beam="2">  1        5 0.18283029E-01 0.12683317E+03</pdfrwt>
<pdfrwt beam="1">  1       -5 0.24165458E-01 0.12683317E+03</pdfrwt>
<totfact> 0.31346973E+02</totfact>
</mgrwt>
</event>
<event>
 8    1  0.1821556E-007  0.1270414E+03  0.7546771E-02  0.1231914E+00
         -5   -1    0    0    0  501 -0.00000000000E+00  0.00000000000E+00  0.95391827043E+03  0.95392984892E+03  0.47000000000E+01 0. -1.
          5   -1    0    0  501    0  0.00000000000E+00 -0.00000000000E+00 -0.17268466581E+02  0.17896646000E+02  0.47000000000E+01 0. -1.
         25    2    1    2    0    0 -0.18435518818E+02 -0.13213464302E+02  0.56352795638E+03  0.57767054923E+03  0.12500016734E+03 0.  0.
         25    2    1    2    0    0  0.18435518818E+02  0.13213464302E+02  0.37312184747E+03  0.39415594569E+03  0.12499812987E+03 0.  0.
          5    1    3    3  502    0 -0.23748131478E+02  0.48969926726E+01  0.15207811969E+02  0.29005548276E+02  0.47000000000E+01 0. -1.
         -5    1    3    3    0  502  0.53126126601E+01 -0.18110456974E+02  0.54832014441E+03  0.54866500095E+03  0.47000000000E+01 0. -1.
          5    1    4    4  503    0  0.42633188657E+02  0.17609928050E+02  0.43476259452E+02  0.63560785685E+02  0.47000000000E+01 0. -1.
         -5    1    4    4    0  503 -0.24197669839E+02 -0.43964637480E+01  0.32964558802E+03  0.33059516001E+03  0.47000000000E+01 0. -1.
<mgrwt>
<rscale>  0 0.12704085E+03</rscale>
<asrwt>0</asrwt>
<pdfrwt beam="2">  1        5 0.27058982E-02 0.12704135E+03</pdfrwt>
<pdfrwt beam="1">  1       -5 0.14680593E+00 0.12704135E+03</pdfrwt>
<totfact> 0.14904214E+02</totfact>
</mgrwt>
</event>
<event>
 8    1  0.1821556E-007  0.1450557E+03  0.7546771E-02  0.1206684E+00
          5   -1    0    0  501    0  0.00000000000E+00  0.00000000000E+00  0.90755813600E+02  0.90877432304E+02  0.47000000000E+01 0.  1.
         -5   -1    0    0    0  501 -0.00000000000E+00 -0.00000000000E+00 -0.23155451797E+03  0.23160221241E+03  0.47000000000E+01 0.  1.
         25    2    1    2    0    0 -0.66960240365E+02  0.30538316751E+02 -0.71693262728E+02  0.16180566189E+03  0.12499954288E+03 0.  0.
         25    2    1    2    0    0  0.66960240365E+02 -0.30538316751E+02 -0.69105441642E+02  0.16067398282E+03  0.12499721641E+03 0.  0.
          5    1    3    3  502    0 -0.83305467569E+02  0.55052746720E+02 -0.82968863076E+02  0.12990969205E+03  0.47000000000E+01 0.  1.
         -5    1    3    3    0  502  0.16345227203E+02 -0.24514429969E+02  0.11275600348E+02  0.31895969843E+02  0.47000000000E+01 0.  1.
          5    1    4    4  503    0  0.75803013839E+02 -0.41430382146E+02  0.34917135156E+01  0.86584383898E+02  0.47000000000E+01 0. -1.
         -5    1    4    4    0  503 -0.88427734732E+01  0.10892065395E+02 -0.72597155158E+02  0.74089598921E+02  0.47000000000E+01 0. -1.
<mgrwt>
<rscale>  0 0.14505517E+03</rscale>
<asrwt>0</asrwt>
<pdfrwt beam="1">  1        5 0.13975457E-01 0.14505567E+03</pdfrwt>
<pdfrwt beam="2">  1       -5 0.35636796E-01 0.14505567E+03</pdfrwt>
<totfact> 0.25057017E+02</totfact>
</mgrwt>
</event>
<event>
 8    1  0.1821556E-007  0.1756993E+03  0.7546771E-02  0.1172031E+00
         -5   -1    0    0    0  501 -0.00000000000E+00  0.00000000000E+00  0.14280411708E+03  0.14288143985E+03  0.47000000000E+01 0. -1.
          5   -1    0    0  501    0  0.00000000000E+00 -0.00000000000E+00 -0.24273404598E+03  0.24277954420E+03  0.47000000000E+01 0. -1.
         25    2    1    2    0    0  0.10906539113E+03  0.57881762992E+02  0.14000550611E+02  0.17625625528E+03  0.12499877631E+03 0.  0.
         25    2    1    2    0    0 -0.10906539113E+03 -0.57881762992E+02 -0.11393047952E+03  0.20940472877E+03  0.12499851295E+03 0.  0.
          5    1    3    3  502    0  0.10157565148E+03  0.90987970162E+02 -0.59966615784E+01  0.13658138101E+03  0.47000000000E+01 0.  1.
         -5    1    3    3    0  502  0.74897396452E+01 -0.33106207169E+02  0.19997212189E+02  0.39674874271E+02  0.47000000000E+01 0.  1.
          5    1    4    4  503    0 -0.23689657186E+02 -0.76029251830E+02 -0.22437240515E+02  0.82868370042E+02  0.47000000000E+01 0. -1.
         -5    1    4    4    0  503 -0.85375733942E+02  0.18147488838E+02 -0.91493239001E+02  0.12653635873E+03  0.47000000000E+01 0. -1.
<mgrwt>
<rscale>  0 0.17569928E+03</rscale>
<asrwt>0</asrwt>
<pdfrwt beam="2">  1        5 0.37353147E-01 0.17569932E+03</pdfrwt>
<pdfrwt beam="1">  1       -5 0.21979312E-01 0.17569932E+03</pdfrwt>
<totfact> 0.10493079E+02</totfact>
</mgrwt>
</event>
<event>
 8    1  0.1821556E-007  0.1310462E+03  0.7546771E-02  0.1225912E+00
          5   -1    0    0  501    0  0.00000000000E+00  0.00000000000E+00  0.18045769053E+04  0.18045830258E+04  0.47000000000E+01 0. -1.
         -5   -1    0    0    0  501 -0.00000000000E+00 -0.00000000000E+00 -0.90042865278E+01  0.10157124390E+02  0.47000000000E+01 0. -1.
         25    2    1    2    0    0 -0.31052572332E+02  0.24187306643E+02  0.81994495727E+03  0.83035077827E+03  0.12499357574E+03 0.  0.
         25    2    1    2    0    0  0.31052572332E+02 -0.24187306643E+02  0.97562766149E+03  0.98438937194E+03  0.12499525462E+03 0.  0.
          5    1    3    3  502    0 -0.50158775199E+02  0.63914959003E+02  0.40875732031E+03  0.41678011183E+03  0.47000000000E+01 0. -1.
         -5    1    3    3    0  502  0.19106202867E+02 -0.39727652361E+02  0.41118763696E+03  0.41357066644E+03  0.47000000000E+01 0. -1.
          5    1    4    4  503    0  0.11343264709E+02  0.50980465881E+02  0.44559465154E+03  0.44866954548E+03  0.47000000000E+01 0.  1.
         -5    1    4    4    0  503  0.19709307623E+02 -0.75167772523E+02  0.53003300994E+03  0.53571982646E+03  0.47000000000E+01 0.  1.
<mgrwt>
<rscale>  0 0.13104578E+03</rscale>
<asrwt>0</asrwt>
<pdfrwt beam="1">  1        5 0.27771637E+00 0.13104618E+03</pdfrwt>
<pdfrwt beam="2">  1       -5 0.14744255E-02 0.13104618E+03</pdfrwt>
<totfact> 0.51267633E+01</totfact>
</mgrwt>
</event>
<event>
 8    1  0.1821556E-007  0.1279617E+03  0.7546771E-02  0.1230512E+00
          5   -1    0    0  501    0  0.00000000000E+00  0.00000000000E+00  0.80275034563E+02  0.80412506329E+02  0.47000000000E+01 0.  1.
         -5   -1    0    0    0  501 -0.00000000000E+00 -0.00000000000E+00 -0.22051401766E+03  0.22056409949E+03  0.47000000000E+01 0.  1.
         25    2    1    2    0    0 -0.15128951944E+02  0.22787188941E+02 -0.11173715994E+03  0.16988052122E+03  0.12500422957E+03 0.  0.
         25    2    1    2    0    0  0.15128951944E+02 -0.22787188941E+02 -0.28501823155E+02  0.13109608461E+03  0.12500275321E+03 0.  0.
          5    1    3    3  502    0  0.94389627975E+01  0.58895035967E+02 -0.12172825059E+02  0.61057243224E+02  0.47000000000E+01 0. -1.
         -5    1    3    3    0  502 -0.24567914741E+02 -0.36107847026E+02 -0.99564334886E+02  0.10882327799E+03  0.47000000000E+01 0. -1.
          5    1    4    4  503    0  0.43234907697E+00 -0.71187998982E+02 -0.35717126552E+02  0.79785470193E+02  0.47000000000E+01 0. -1.
         -5    1    4    4    0  503  0.14696602867E+02  0.48400810041E+02  0.72153033974E+01  0.51310614414E+02  0.47000000000E+01 0. -1.
<mgrwt>
<rscale>  0 0.12796135E+03</rscale>
<asrwt>0</asrwt>
<pdfrwt beam="1">  1        5 0.12364433E-01 0.12796171E+03</pdfrwt>
<pdfrwt beam="2">  1       -5 0.33939660E-01 0.12796171E+03</pdfrwt>
<totfact> 0.32924511E+02</totfact>
</mgrwt>
</event>
<event>
 8    1  0.1821556E-007  0.1306638E+03  0.7546771E-02  0.1226475E+00
         -5   -1    0    0    0  501 -0.00000000000E+00  0.00000000000E+00  0.97253609126E+02  0.97367111942E+02  0.47000000000E+01 0.  1.
          5   -1    0    0  501    0  0.00000000000E+00 -0.00000000000E+00 -0.20717093406E+03  0.20722424067E+03  0.47000000000E+01 0.  1.
         25    2    1    2    0    0  0.38004676973E+02  0.18012344652E+01  0.47501697198E+01  0.13075016130E+03  0.12500176259E+03 0.  0.
         25    2    1    2    0    0 -0.38004676973E+02 -0.18012344652E+01 -0.11466749466E+03  0.17384119131E+03  0.12499810217E+03 0.  0.
          5    1    3    3  502    0 -0.27283562700E+02  0.31899933332E+02  0.32757378069E+02  0.53452168881E+02  0.47000000000E+01 0. -1.
         -5    1    3    3    0  502  0.65288239672E+02 -0.30098698867E+02 -0.28007208349E+02  0.77297992422E+02  0.47000000000E+01 0. -1.
          5    1    4    4  503    0  0.90397785314E+01  0.46705627214E+02 -0.89712991562E+02  0.10165453293E+03  0.47000000000E+01 0.  1.
         -5    1    4    4    0  503 -0.47044455504E+02 -0.48506861679E+02 -0.24954503096E+02  0.72186658382E+02  0.47000000000E+01 0.  1.
<mgrwt>
<rscale>  0 0.13066297E+03</rscale>
<asrwt>0</asrwt>
<pdfrwt beam="2">  1        5 0.31885283E-01 0.13066385E+03</pdfrwt>
<pdfrwt beam="1">  1       -5 0.14974925E-01 0.13066385E+03</pdfrwt>
<totfact> 0.26645493E+02</totfact>
</mgrwt>
</event>
<event>
 8    1  0.1821556E-007  0.1296440E+03  0.7546771E-02  0.1227991E+00
         -5   -1    0    0    0  501 -0.00000000000E+00  0.00000000000E+00  0.65561303853E+03  0.65562988514E+03  0.47000000000E+01 0. -1.
          5   -1    0    0  501    0  0.00000000000E+00 -0.00000000000E+00 -0.27282363212E+02  0.27684243577E+02  0.47000000000E+01 0. -1.
         25    2    1    2    0    0 -0.20844835013E+02 -0.27292726480E+02  0.40321666766E+03  0.42354604466E+03  0.12501268256E+03 0.  0.
         25    2    1    2    0    0  0.20844835013E+02  0.27292726480E+02  0.22511400766E+03  0.25976808406E+03  0.12499496385E+03 0.  0.
          5    1    4    4  502    0  0.41325892530E+02  0.60934508872E+02  0.77845465531E+02  0.10725134157E+03  0.47000000000E+01 0.  1.
         -5    1    4    4    0  502 -0.20481057517E+02 -0.33641782392E+02  0.14726854213E+03  0.15251674249E+03  0.47000000000E+01 0.  1.
          5    1    3    3  503    0  0.33309191746E+02  0.33868740409E+02  0.14133698600E+03  0.14918051965E+03  0.47000000000E+01 0. -1.
         -5    1    3    3    0  503 -0.54154026759E+02 -0.61161466889E+02  0.26187968166E+03  0.27436552501E+03  0.47000000000E+01 0. -1.
<mgrwt>
<rscale>  0 0.12963974E+03</rscale>
<asrwt>0</asrwt>
<pdfrwt beam="2">  1        5 0.42294970E-02 0.12964402E+03</pdfrwt>
<pdfrwt beam="1">  1       -5 0.10089574E+00 0.12964402E+03</pdfrwt>
<totfact> 0.18964480E+02</totfact>
</mgrwt>
</event>
<event>
 8    1  0.1821556E-007  0.1304141E+03  0.7546771E-02  0.1226844E+00
          5   -1    0    0  501    0  0.00000000000E+00  0.00000000000E+00  0.67228425635E+01  0.82028417109E+01  0.47000000000E+01 0. -1.
         -5   -1    0    0    0  501 -0.00000000000E+00 -0.00000000000E+00 -0.26087141391E+04  0.26087183730E+04  0.47000000000E+01 0. -1.
         25    2    1    2    0    0  0.31799427627E+02  0.19242130492E+02 -0.17671458921E+04  0.17719515938E+04  0.12500553422E+03 0.  0.
         25    2    1    2    0    0 -0.31799427627E+02 -0.19242130492E+02 -0.83484540450E+03  0.84496962096E+03  0.12500139103E+03 0.  0.
          5    1    4    4  502    0  0.37395012975E+02  0.11489877499E+02 -0.12452181809E+03  0.13060695793E+03  0.47000000000E+01 0.  1.
         -5    1    4    4    0  502 -0.69194440603E+02 -0.30732007991E+02 -0.71032358641E+03  0.71436266303E+03  0.47000000000E+01 0.  1.
          5    1    3    3  503    0  0.13474286298E+02 -0.25763521135E+02 -0.15056174251E+04  0.15059054539E+04  0.47000000000E+01 0. -1.
         -5    1    3    3    0  503  0.18325141329E+02  0.45005651626E+02 -0.26152846701E+03  0.26604613987E+03  0.47000000000E+01 0. -1.
<mgrwt>
<rscale>  0 0.13041314E+03</rscale>
<asrwt>0</asrwt>
<pdfrwt beam="1">  1        5 0.11484573E-02 0.13041414E+03</pdfrwt>
<pdfrwt beam="2">  1       -5 0.40145408E+00 0.13041414E+03</pdfrwt>
<totfact> 0.11698167E+01</totfact>
</mgrwt>
</event>
<event>
 8    1  0.1821556E-007  0.1518000E+03  0.7546771E-02  0.1198284E+00
         -5   -1    0    0    0  501 -0.00000000000E+00  0.00000000000E+00  0.83362873081E+02  0.83495260993E+02  0.47000000000E+01 0. -1.
          5   -1    0    0  501    0  0.00000000000E+00 -0.00000000000E+00 -0.47128971485E+03  0.47131314995E+03  0.47000000000E+01 0. -1.
         25    2    1    2    0    0  0.54502324684E+02 -0.66706850195E+02 -0.15424207947E+02  0.15256288757E+03  0.12496888098E+03 0.  0.
         25    2    1    2    0    0 -0.54502324684E+02  0.66706850195E+02 -0.37250263382E+03  0.40224552338E+03  0.12499176619E+03 0.  0.
          5    1    3    3  502    0 -0.28211369913E+02 -0.44985557512E+02 -0.36193593186E+02  0.64433283051E+02  0.47000000000E+01 0.  1.
         -5    1    3    3    0  502  0.82713694597E+02 -0.21721292683E+02  0.20769385239E+02  0.88129604520E+02  0.47000000000E+01 0.  1.
          5    1    4    4  503    0  0.25679981849E+02 -0.95405303944E+01 -0.16220426765E+03  0.16456851956E+03  0.47000000000E+01 0. -1.
         -5    1    4    4    0  503 -0.80182306533E+02  0.76247380590E+02 -0.21029836617E+03  0.23767700381E+03  0.47000000000E+01 0. -1.
<mgrwt>
<rscale>  0 0.15179532E+03</rscale>
<asrwt>0</asrwt>
<pdfrwt beam="2">  1        5 0.72518095E-01 0.15180003E+03</pdfrwt>
<pdfrwt beam="1">  1       -5 0.12837044E-01 0.15180003E+03</pdfrwt>
<totfact> 0.65050064E+01</totfact>
</mgrwt>
</event>
<event>
 8    1  0.1821556E-007  0.1334339E+03  0.7546771E-02  0.1222451E+00
          5   -1    0    0  501    0  0.00000000000E+00  0.00000000000E+00  0.19020398856E+03  0.19026204894E+03  0.47000000000E+01 0. -1.
         -5   -1    0    0    0  501 -0.00000000000E+00 -0.00000000000E+00 -0.95648508132E+02  0.95763913391E+02  0.47000000000E+01 0. -1.
         25    2    1    2    0    0 -0.18655770804E+02  0.42791667289E+02  0.25715021598E+02  0.13588920545E+03  0.12500179698E+03 0.  0.
         25    2    1    2    0    0  0.18655770804E+02 -0.42791667289E+02  0.68840458832E+02  0.15013675688E+03  0.12499148939E+03 0.  0.
          5    1    4    4  502    0  0.37733511001E+02 -0.23612885865E+02  0.99424986977E+02  0.10903579351E+03  0.47000000000E+01 0.  1.
         -5    1    4    4    0  502 -0.19077740197E+02 -0.19178781424E+02 -0.30584528145E+02  0.41100963368E+02  0.47000000000E+01 0.  1.
          5    1    3    3  503    0 -0.23458184897E+02 -0.92300830650E+01 -0.42622288796E+02  0.49741636224E+02  0.47000000000E+01 0.  1.
         -5    1    3    3    0  503  0.48024140935E+01  0.52021750354E+02  0.68337310394E+02  0.86147569222E+02  0.47000000000E+01 0.  1.
<mgrwt>
<rscale>  0 0.13343152E+03</rscale>
<asrwt>0</asrwt>
<pdfrwt beam="1">  1        5 0.29275495E-01 0.13343393E+03</pdfrwt>
<pdfrwt beam="2">  1       -5 0.14728499E-01 0.13343393E+03</pdfrwt>
<totfact> 0.32719031E+02</totfact>
</mgrwt>
</event>
<event>
 8    1  0.1821556E-007  0.1309379E+03  0.7546771E-02  0.1226073E+00
          5   -1    0    0  501    0  0.00000000000E+00  0.00000000000E+00  0.10831170450E+04  0.10831272424E+04  0.47000000000E+01 0. -1.
         -5   -1    0    0    0  501 -0.00000000000E+00 -0.00000000000E+00 -0.17403668025E+02  0.18027136787E+02  0.47000000000E+01 0. -1.
         25    2    1    2    0    0  0.37482828718E+02 -0.10663650765E+02  0.35273189835E+03  0.37625059865E+03  0.12500417983E+03 0.  0.
         25    2    1    2    0    0 -0.37482828718E+02  0.10663650765E+02  0.71298147866E+03  0.72490378054E+03  0.12499690491E+03 0.  0.
          5    1    3    3  502    0 -0.36205072307E+01 -0.43981077565E+02  0.42308220331E+02  0.61314914694E+02  0.47000000000E+01 0. -1.
         -5    1    3    3    0  502  0.41103335949E+02  0.33317426800E+02  0.31042367802E+03  0.31493568395E+03  0.47000000000E+01 0. -1.
          5    1    4    4  503    0  0.46067502193E+02 -0.10148271030E+01  0.26746824147E+03  0.27144906488E+03  0.47000000000E+01 0.  1.
         -5    1    4    4    0  503 -0.83550330911E+02  0.11678477868E+02  0.44551323719E+03  0.45345471566E+03  0.47000000000E+01 0.  1.
<mgrwt>
<rscale>  0 0.13093611E+03</rscale>
<asrwt>0</asrwt>
<pdfrwt beam="1">  1        5 0.16668216E+00 0.13093785E+03</pdfrwt>
<pdfrwt beam="2">  1       -5 0.27262306E-02 0.13093785E+03</pdfrwt>
<totfact> 0.10465627E+02</totfact>
</mgrwt>
</event>
<event>
 8    1  0.1821556E-007  0.1374306E+03  0.7546771E-02  0.1216833E+00
          5   -1    0    0  501    0  0.00000000000E+00  0.00000000000E+00  0.24683495343E+02  0.25126976387E+02  0.47000000000E+01 0.  1.
         -5   -1    0    0    0  501 -0.00000000000E+00 -0.00000000000E+00 -0.77210354591E+03  0.77211785086E+03  0.47000000000E+01 0.  1.
         25    2    1    2    0    0  0.15087946349E+02 -0.55056717107E+02 -0.42784181543E+03  0.44936926501E+03  0.12500091631E+03 0.  0.
         25    2    1    2    0    0 -0.15087946349E+02  0.55056717107E+02 -0.31957823514E+03  0.34787556224E+03  0.12501308013E+03 0.  0.
          5    1    3    3  502    0 -0.46491220311E+02  0.70950175853E+01 -0.19334676791E+03  0.19903978372E+03  0.47000000000E+01 0.  1.
         -5    1    3    3    0  502  0.61579166659E+02 -0.62151734692E+02 -0.23449504752E+03  0.25032948129E+03  0.47000000000E+01 0.  1.
          5    1    4    4  503    0  0.47280179772E+02  0.11681801485E+02 -0.20177636852E+03  0.20762387334E+03  0.47000000000E+01 0.  1.
         -5    1    4    4    0  503 -0.62368126120E+02  0.43374915622E+02 -0.11780186662E+03  0.14025168890E+03  0.47000000000E+01 0.  1.
<mgrwt>
<rscale>  0 0.13742779E+03</rscale>
<asrwt>0</asrwt>
<pdfrwt beam="1">  1        5 0.38326757E-02 0.13743056E+03</pdfrwt>
<pdfrwt beam="2">  1       -5 0.11882036E+00 0.13743056E+03</pdfrwt>
<totfact> 0.15139982E+02</totfact>
</mgrwt>
</event>
<event>
 8    1  0.1821556E-007  0.1422774E+03  0.7546771E-02  0.1210298E+00
         -5   -1    0    0    0  501 -0.00000000000E+00  0.00000000000E+00  0.54424222970E+02  0.54626788721E+02  0.47000000000E+01 0.  1.
          5   -1    0    0  501    0  0.00000000000E+00 -0.00000000000E+00 -0.38243764731E+03  0.38246652674E+03  0.47000000000E+01 0.  1.
         25    2    1    2    0    0  0.66068779104E+02  0.15909891349E+02 -0.12627330154E+03  0.19022912402E+03  0.12499585884E+03 0.  0.
         25    2    1    2    0    0 -0.66068779104E+02 -0.15909891349E+02 -0.20174012279E+03  0.24686419144E+03  0.12499857462E+03 0.  0.
          5    1    3    3  502    0  0.93836168253E+02 -0.19616531618E+02 -0.95769498705E+02  0.13558732119E+03  0.47000000000E+01 0.  1.
         -5    1    3    3    0  502 -0.27767389149E+02  0.35526422967E+02 -0.30503802839E+02  0.54641802831E+02  0.47000000000E+01 0.  1.
          5    1    4    4  503    0 -0.82508934866E+02  0.21890437426E+02 -0.75766590337E+02  0.11423476614E+03  0.47000000000E+01 0. -1.
         -5    1    4    4    0  503  0.16440155762E+02 -0.37800328774E+02 -0.12597353246E+03  0.13262942531E+03  0.47000000000E+01 0. -1.
<mgrwt>
<rscale>  0 0.14227678E+03</rscale>
<asrwt>0</asrwt>
<pdfrwt beam="2">  1        5 0.58854363E-01 0.14227738E+03</pdfrwt>
<pdfrwt beam="1">  1       -5 0.83907611E-02 0.14227738E+03</pdfrwt>
<totfact> 0.21372433E+02</totfact>
</mgrwt>
</event>
<event>
 8    1  0.1821556E-007  0.1713484E+03  0.7546771E-02  0.1176450E+00
          5   -1    0    0  501    0  0.00000000000E+00  0.00000000000E+00  0.65737789048E+03  0.65739469187E+03  0.47000000000E+01 0.  1.
         -5   -1    0    0    0  501 -0.00000000000E+00 -0.00000000000E+00 -0.49133510998E+02  0.49357794754E+02  0.47000000000E+01 0.  1.
         25    2    1    2    0    0  0.92576013851E+02 -0.71859432750E+02  0.19611762684E+03  0.26042441859E+03  0.12499863130E+03 0.  0.
         25    2    1    2    0    0 -0.92576013851E+02  0.71859432750E+02  0.41212675265E+03  0.44632806803E+03  0.12500475050E+03 0.  0.
          5    1    3    3  502    0  0.71080207781E+02 -0.36027623433E+02  0.24164878406E+02  0.83405137353E+02  0.47000000000E+01 0.  1.
         -5    1    3    3    0  502  0.21495806070E+02 -0.35831809316E+02  0.17195274843E+03  0.17701928124E+03  0.47000000000E+01 0.  1.
          5    1    4    4  503    0 -0.39740080633E+02  0.94177677081E+02  0.33380485592E+03  0.34913676504E+03  0.47000000000E+01 0.  1.
         -5    1    4    4    0  503 -0.52835933218E+02 -0.22318244332E+02  0.78321896730E+02  0.97191302988E+02  0.47000000000E+01 0.  1.
<mgrwt>
<rscale>  0 0.17134731E+03</rscale>
<asrwt>0</asrwt>
<pdfrwt beam="1">  1        5 0.10115361E+00 0.17134843E+03</pdfrwt>
<pdfrwt beam="2">  1       -5 0.75775466E-02 0.17134843E+03</pdfrwt>
<totfact> 0.77335023E+01</totfact>
</mgrwt>
</event>
<event>
 8    1  0.1821556E-007  0.2168516E+03  0.7546771E-02  0.1136252E+00
          5   -1    0    0  501    0  0.00000000000E+00  0.00000000000E+00  0.45502019393E+02  0.45744111849E+02  0.47000000000E+01 0.  1.
         -5   -1    0    0    0  501 -0.00000000000E+00 -0.00000000000E+00 -0.10337341924E+04  0.10337448769E+04  0.47000000000E+01 0.  1.
         25    2    1    2    0    0 -0.15470946635E+03 -0.86396269856E+02 -0.46379826603E+03  0.51198968642E+03  0.12500109203E+03 0.  0.
         25    2    1    2    0    0  0.15470946635E+03  0.86396269856E+02 -0.52443390701E+03  0.56749930237E+03  0.12500080376E+03 0.  0.
          5    1    3    3  502    0 -0.13302404153E+03 -0.19029609929E+02 -0.21771995862E+03  0.25589371243E+03  0.47000000000E+01 0. -1.
         -5    1    3    3    0  502 -0.21685424825E+02 -0.67366659927E+02 -0.24607830741E+03  0.25609597399E+03  0.47000000000E+01 0. -1.
          5    1    4    4  503    0  0.47866376277E+01 -0.17291024067E+02 -0.14874085984E+03  0.14989271096E+03  0.47000000000E+01 0. -1.
         -5    1    4    4    0  503  0.14992282873E+03  0.10368729392E+03 -0.37569304717E+03  0.41760659141E+03  0.47000000000E+01 0. -1.
<mgrwt>
<rscale>  0 0.21685154E+03</rscale>
<asrwt>0</asrwt>
<pdfrwt beam="1">  1        5 0.70197558E-02 0.21685158E+03</pdfrwt>
<pdfrwt beam="2">  1       -5 0.15905546E+00 0.21685158E+03</pdfrwt>
<totfact> 0.28628395E+01</totfact>
</mgrwt>
</event>
<event>
 8    1  0.1821556E-007  0.1293946E+03  0.7546771E-02  0.1228358E+00
         -5   -1    0    0    0  501 -0.00000000000E+00  0.00000000000E+00  0.10640984783E+04  0.10641088579E+04  0.47000000000E+01 0.  1.
          5   -1    0    0  501    0  0.00000000000E+00 -0.00000000000E+00 -0.16167606182E+02  0.16836908554E+02  0.47000000000E+01 0.  1.
         25    2    1    2    0    0 -0.25731868463E+02 -0.21349148655E+02  0.64132986593E+03  0.65425226252E+03  0.12499644345E+03 0.  0.
         25    2    1    2    0    0  0.25731868463E+02  0.21349148655E+02  0.40660100617E+03  0.42669350395E+03  0.12500021155E+03 0.  0.
          5    1    3    3  502    0  0.33969160798E+02 -0.47836553726E+02  0.39527581021E+03  0.39963395238E+03  0.47000000000E+01 0.  1.
         -5    1    3    3    0  502 -0.59701029261E+02  0.26487405071E+02  0.24605405572E+03  0.25461831014E+03  0.47000000000E+01 0.  1.
          5    1    4    4  503    0  0.16079881568E+02 -0.38527138379E+02  0.51702459658E+02  0.66619346421E+02  0.47000000000E+01 0.  1.
         -5    1    4    4    0  503  0.96519868957E+01  0.59876287034E+02  0.35489854651E+03  0.36007415752E+03  0.47000000000E+01 0.  1.
<mgrwt>
<rscale>  0 0.12939371E+03</rscale>
<asrwt>0</asrwt>
<pdfrwt beam="2">  1        5 0.25396073E-02 0.12939462E+03</pdfrwt>
<pdfrwt beam="1">  1       -5 0.16375974E+00 0.12939462E+03</pdfrwt>
<totfact> 0.12279642E+02</totfact>
</mgrwt>
</event>
<event>
 8    1  0.1821556E-007  0.1296724E+03  0.7546771E-02  0.1227945E+00
         -5   -1    0    0    0  501 -0.00000000000E+00  0.00000000000E+00  0.54381766608E+02  0.54584489916E+02  0.47000000000E+01 0.  1.
          5   -1    0    0  501    0  0.00000000000E+00 -0.00000000000E+00 -0.31174750598E+03  0.31178293328E+03  0.47000000000E+01 0.  1.
         25    2    1    2    0    0 -0.31472412142E+02 -0.14115594118E+02 -0.10967771702E+03  0.16983067382E+03  0.12499397360E+03 0.  0.
         25    2    1    2    0    0  0.31472412142E+02  0.14115594118E+02 -0.14768802235E+03  0.19653674937E+03  0.12500071674E+03 0.  0.
          5    1    3    3  502    0  0.47431552423E+02 -0.16425819012E+01 -0.27156835428E+02  0.54882000246E+02  0.47000000000E+01 0.  1.
         -5    1    3    3    0  502 -0.78903964566E+02 -0.12473012217E+02 -0.82520881588E+02  0.11494867357E+03  0.47000000000E+01 0.  1.
          5    1    4    4  503    0  0.65581174885E+01  0.12605396593E+02  0.21088624117E+02  0.25859717621E+02  0.47000000000E+01 0.  1.
         -5    1    4    4    0  503  0.24914294654E+02  0.15101975246E+01 -0.16877664647E+03  0.17067703175E+03  0.47000000000E+01 0.  1.
<mgrwt>
<rscale>  0 0.12967082E+03</rscale>
<asrwt>0</asrwt>
<pdfrwt beam="2">  1        5 0.47979473E-01 0.12967244E+03</pdfrwt>
<pdfrwt beam="1">  1       -5 0.83847451E-02 0.12967244E+03</pdfrwt>
<totfact> 0.32101469E+02</totfact>
</mgrwt>
</event>
<event>
 8    1  0.1821556E-007  0.1334251E+03  0.7546771E-02  0.1222461E+00
          5   -1    0    0  501    0  0.00000000000E+00  0.00000000000E+00  0.95330160243E+02  0.95445950422E+02  0.47000000000E+01 0. -1.
         -5   -1    0    0    0  501 -0.00000000000E+00 -0.00000000000E+00 -0.24374152373E+03  0.24378683391E+03  0.47000000000E+01 0. -1.
         25    2    1    2    0    0  0.35844569063E+02 -0.29871288880E+02 -0.15638863494E+03  0.20556940652E+03  0.12499699487E+03 0.  0.
         25    2    1    2    0    0 -0.35844569063E+02  0.29871288880E+02  0.79772714531E+01  0.13366337782E+03  0.12500053871E+03 0.  0.
          5    1    4    4  502    0 -0.71195778587E+02  0.43435853153E+02 -0.20550421608E+02  0.86022799629E+02  0.47000000000E+01 0. -1.
         -5    1    4    4    0  502  0.35351209524E+02 -0.13564564273E+02  0.28527693061E+02  0.47640578188E+02  0.47000000000E+01 0. -1.
          5    1    3    3  503    0  0.56852767123E+02  0.33627143632E+02 -0.72784779598E+02  0.98400894608E+02  0.47000000000E+01 0. -1.
         -5    1    3    3    0  503 -0.21008198060E+02 -0.63498432512E+02 -0.83603855338E+02  0.10716851191E+03  0.47000000000E+01 0. -1.
<mgrwt>
<rscale>  0 0.13342429E+03</rscale>
<asrwt>0</asrwt>
<pdfrwt beam="1">  1        5 0.14678571E-01 0.13342512E+03</pdfrwt>
<pdfrwt beam="2">  1       -5 0.37511088E-01 0.13342512E+03</pdfrwt>
<totfact> 0.20108503E+02</totfact>
</mgrwt>
</event>
<event>
 8    1  0.1821556E-007  0.1426397E+03  0.7546771E-02  0.1209827E+00
         -5   -1    0    0    0  501 -0.00000000000E+00  0.00000000000E+00  0.86027666958E+02  0.86155960224E+02  0.47000000000E+01 0.  1.
          5   -1    0    0  501    0  0.00000000000E+00 -0.00000000000E+00 -0.32287470970E+03  0.32290891620E+03  0.47000000000E+01 0.  1.
         25    2    1    2    0    0  0.35269165859E+02 -0.58921075981E+02 -0.12438637832E+02  0.14316032875E+03  0.12499821103E+03 0.  0.
         25    2    1    2    0    0 -0.35269165859E+02  0.58921075981E+02 -0.22440840491E+03  0.26590454768E+03  0.12502195418E+03 0.  0.
          5    1    4    4  502    0 -0.71251539678E+01 -0.18542585610E+02 -0.15973987974E+03  0.16103886015E+03  0.47000000000E+01 0. -1.
         -5    1    4    4    0  502 -0.28144011891E+02  0.77463661591E+02 -0.64668525168E+02  0.10486568752E+03  0.47000000000E+01 0. -1.
          5    1    3    3  503    0  0.41627512379E+02 -0.91927717997E+02 -0.29404935123E+02  0.10521547098E+03  0.47000000000E+01 0. -1.
         -5    1    3    3    0  503 -0.63583465200E+01  0.33006642016E+02  0.16966297291E+02  0.37944857773E+02  0.47000000000E+01 0. -1.
<mgrwt>
<rscale>  0 0.14263454E+03</rscale>
<asrwt>0</asrwt>
<pdfrwt beam="2">  1        5 0.49685532E-01 0.14263974E+03</pdfrwt>
<pdfrwt beam="1">  1       -5 0.13247526E-01 0.14263974E+03</pdfrwt>
<totfact> 0.13815156E+02</totfact>
</mgrwt>
</event>
<event>
 8    1  0.1821556E-007  0.1475469E+03  0.7546771E-02  0.1203520E+00
          5   -1    0    0  501    0  0.00000000000E+00  0.00000000000E+00  0.62837075205E+03  0.62838832901E+03  0.47000000000E+01 0. -1.
         -5   -1    0    0    0  501 -0.00000000000E+00 -0.00000000000E+00 -0.51134779046E+02  0.51350322570E+02  0.47000000000E+01 0. -1.
         25    2    1    2    0    0 -0.13159554096E+02 -0.77274661734E+02  0.95118434705E+02  0.17554881136E+03  0.12500128536E+03 0.  0.
         25    2    1    2    0    0  0.13159554096E+02  0.77274661734E+02  0.48211753830E+03  0.50418984021E+03  0.12500210810E+03 0.  0.
          5    1    3    3  502    0 -0.10867859811E+02  0.22869431957E+02 -0.12349283872E+02  0.28560744162E+02  0.47000000000E+01 0. -1.
         -5    1    3    3    0  502 -0.22916942845E+01 -0.10014409369E+03  0.10746771858E+03  0.14698806720E+03  0.47000000000E+01 0. -1.
          5    1    4    4  503    0  0.59285381708E+02  0.70581946568E+02  0.39087817277E+03  0.40162719482E+03  0.47000000000E+01 0.  1.
         -5    1    4    4    0  503 -0.46125827612E+02  0.66927151659E+01  0.91239365524E+02  0.10256264539E+03  0.47000000000E+01 0.  1.
<mgrwt>
<rscale>  0 0.14754668E+03</rscale>
<asrwt>0</asrwt>
<pdfrwt beam="1">  1        5 0.96690357E-01 0.14754685E+03</pdfrwt>
<pdfrwt beam="2">  1       -5 0.78848214E-02 0.14754685E+03</pdfrwt>
<totfact> 0.77131821E+01</totfact>
</mgrwt>
</event>
<event>
 8    1  0.1821556E-007  0.1397765E+03  0.7546771E-02  0.1213632E+00
         -5   -1    0    0    0  501 -0.00000000000E+00  0.00000000000E+00  0.12668244660E+02  0.13512010316E+02  0.47000000000E+01 0.  1.
          5   -1    0    0  501    0  0.00000000000E+00 -0.00000000000E+00 -0.14926870466E+04  0.14926944460E+04  0.47000000000E+01 0.  1.
         25    2    1    2    0    0  0.44408293730E+02  0.44041888727E+02 -0.71996889256E+03  0.73341066159E+03  0.12499683102E+03 0.  0.
         25    2    1    2    0    0 -0.44408293730E+02 -0.44041888727E+02 -0.76004990941E+03  0.77279579474E+03  0.12500276424E+03 0.  0.
          5    1    4    4  502    0  0.15876393864E+02 -0.23869299337E+02 -0.37481016945E+02  0.47420670221E+02  0.47000000000E+01 0.  1.
         -5    1    4    4    0  502 -0.60284687594E+02 -0.20172589390E+02 -0.72256889246E+03  0.72537512452E+03  0.47000000000E+01 0.  1.
          5    1    3    3  503    0  0.30802567144E+02 -0.15922535146E+02 -0.52460099141E+02  0.63059315489E+02  0.47000000000E+01 0.  1.
         -5    1    3    3    0  503  0.13605726586E+02  0.59964423873E+02 -0.66750879342E+03  0.67035134610E+03  0.47000000000E+01 0.  1.
<mgrwt>
<rscale>  0 0.13977519E+03</rscale>
<asrwt>0</asrwt>
<pdfrwt beam="2">  1        5 0.22970950E+00 0.13977652E+03</pdfrwt>
<pdfrwt beam="1">  1       -5 0.20144361E-02 0.13977652E+03</pdfrwt>
<totfact> 0.64230530E+01</totfact>
</mgrwt>
</event>
<event>
 8    1  0.1821556E-007  0.1314331E+03  0.7546771E-02  0.1225350E+00
          5   -1    0    0  501    0  0.00000000000E+00  0.00000000000E+00  0.39397034665E+02  0.39676395255E+02  0.47000000000E+01 0.  1.
         -5   -1    0    0    0  501 -0.00000000000E+00 -0.00000000000E+00 -0.52785834210E+03  0.52787926586E+03  0.47000000000E+01 0.  1.
         25    2    1    2    0    0 -0.24603681703E+02 -0.32274501876E+02 -0.36220795098E+03  0.38531710382E+03  0.12501074401E+03 0.  0.
         25    2    1    2    0    0  0.24603681703E+02  0.32274501876E+02 -0.12625335645E+03  0.18223855729E+03  0.12499598843E+03 0.  0.
          5    1    4    4  502    0 -0.24354490697E+02  0.36608932621E+02  0.25523761047E+01  0.44294015268E+02  0.47000000000E+01 0.  1.
         -5    1    4    4    0  502  0.48958172400E+02 -0.43344307450E+01 -0.12880573256E+03  0.13794454202E+03  0.47000000000E+01 0.  1.
          5    1    3    3  503    0  0.30561302875E+01  0.45088976001E+02 -0.17533690933E+03  0.18112834528E+03  0.47000000000E+01 0. -1.
         -5    1    3    3    0  503 -0.27659811990E+02 -0.77363477877E+02 -0.18687104165E+03  0.20418875855E+03  0.47000000000E+01 0. -1.
<mgrwt>
<rscale>  0 0.13142963E+03</rscale>
<asrwt>0</asrwt>
<pdfrwt beam="1">  1        5 0.60841815E-02 0.13143314E+03</pdfrwt>
<pdfrwt beam="2">  1       -5 0.81232069E-01 0.13143314E+03</pdfrwt>
<totfact> 0.17423682E+02</totfact>
</mgrwt>
</event>
<event>
 8    1  0.1821556E-007  0.1254216E+03  0.7546771E-02  0.1234412E+00
         -5   -1    0    0    0  501 -0.00000000000E+00  0.00000000000E+00  0.37335725222E+03  0.37338683397E+03  0.47000000000E+01 0.  1.
          5   -1    0    0  501    0  0.00000000000E+00 -0.00000000000E+00 -0.42346962116E+02  0.42606985348E+02  0.47000000000E+01 0.  1.
         25    2    1    2    0    0 -0.90795939897E+01  0.48026684921E+01  0.18506228701E+03  0.22355901607E+03  0.12500031576E+03 0.  0.
         25    2    1    2    0    0  0.90795939897E+01 -0.48026684921E+01  0.14594800309E+03  0.19243480325E+03  0.12499931698E+03 0.  0.
          5    1    3    3  502    0 -0.53983636158E+02  0.21797903454E+02  0.40278297033E+02  0.70949367719E+02  0.47000000000E+01 0.  1.
         -5    1    3    3    0  502  0.44904042169E+02 -0.16995234962E+02  0.14478398998E+03  0.15260964835E+03  0.47000000000E+01 0.  1.
          5    1    4    4  503    0  0.66889493810E+02 -0.51804493842E+01  0.73436979637E+02  0.99579723921E+02  0.47000000000E+01 0.  1.
         -5    1    4    4    0  503 -0.57809899820E+02  0.37778089213E+00  0.72511023448E+02  0.92855079328E+02  0.47000000000E+01 0.  1.
<mgrwt>
<rscale>  0 0.12542137E+03</rscale>
<asrwt>0</asrwt>
<pdfrwt beam="2">  1        5 0.65371946E-02 0.12542162E+03</pdfrwt>
<pdfrwt beam="1">  1       -5 0.57461854E-01 0.12542162E+03</pdfrwt>
<totfact> 0.32971836E+02</totfact>
</mgrwt>
</event>
<event>
 8    1  0.1821556E-007  0.1281237E+03  0.7546771E-02  0.1230268E+00
         -5   -1    0    0    0  501 -0.00000000000E+00  0.00000000000E+00  0.11048331269E+03  0.11058323735E+03  0.47000000000E+01 0.  1.
          5   -1    0    0  501    0  0.00000000000E+00 -0.00000000000E+00 -0.15094530323E+03  0.15101845771E+03  0.47000000000E+01 0.  1.
         25    2    1    2    0    0 -0.26094847927E+02 -0.10452608955E+02 -0.31613903230E+01  0.12815872254E+03  0.12499786259E+03 0.  0.
         25    2    1    2    0    0  0.26094847927E+02  0.10452608955E+02 -0.37300600217E+02  0.13344297252E+03  0.12500197604E+03 0.  0.
          5    1    3    3  502    0  0.37420589397E+02  0.32605376594E+02 -0.10441117054E+02  0.50936411525E+02  0.47000000000E+01 0. -1.
         -5    1    3    3    0  502 -0.63515437324E+02 -0.43057985549E+02  0.72797267315E+01  0.77222311020E+02  0.47000000000E+01 0. -1.
          5    1    4    4  503    0  0.41607823347E+02  0.11426332511E+00 -0.77945400773E+02  0.88480503623E+02  0.47000000000E+01 0. -1.
         -5    1    4    4    0  503 -0.15512975420E+02  0.10338345630E+02  0.40644800556E+02  0.44962468893E+02  0.47000000000E+01 0. -1.
<mgrwt>
<rscale>  0 0.12812273E+03</rscale>
<asrwt>0</asrwt>
<pdfrwt beam="2">  1        5 0.23235668E-01 0.12812374E+03</pdfrwt>
<pdfrwt beam="1">  1       -5 0.17010747E-01 0.12812374E+03</pdfrwt>
<totfact> 0.38705402E+02</totfact>
</mgrwt>
</event>
<event>
 8    1  0.1821556E-007  0.1269077E+03  0.7546771E-02  0.1232119E+00
         -5   -1    0    0    0  501 -0.00000000000E+00  0.00000000000E+00  0.19492233178E+02  0.20050864178E+02  0.47000000000E+01 0. -1.
          5   -1    0    0  501    0  0.00000000000E+00 -0.00000000000E+00 -0.11669079180E+04  0.11669173831E+04  0.47000000000E+01 0. -1.
         25    2    1    2    0    0 -0.19379412236E+02  0.10314953268E+02 -0.24740388635E+03  0.27805307219E+03  0.12499147208E+03 0.  0.
         25    2    1    2    0    0  0.19379412236E+02 -0.10314953268E+02 -0.90001179844E+03  0.90891517510E+03  0.12499439319E+03 0.  0.
          5    1    4    4  502    0  0.21162097588E+02  0.11227204793E+02 -0.87572144255E+03  0.87606165277E+03  0.47000000000E+01 0. -1.
         -5    1    4    4    0  502 -0.17826853519E+01 -0.21542158061E+02 -0.24290355886E+02  0.32853522339E+02  0.47000000000E+01 0. -1.
          5    1    3    3  503    0 -0.37683351635E+02 -0.50250541335E+02 -0.11125782686E+03  0.12784970055E+03  0.47000000000E+01 0.  1.
         -5    1    3    3    0  503  0.18303939399E+02  0.60565494604E+02 -0.13614605950E+03  0.15020337163E+03  0.47000000000E+01 0.  1.
<mgrwt>
<rscale>  0 0.12690696E+03</rscale>
<asrwt>0</asrwt>
<pdfrwt beam="2">  1        5 0.17956794E+00 0.12690768E+03</pdfrwt>
<pdfrwt beam="1">  1       -5 0.30425057E-02 0.12690768E+03</pdfrwt>
<totfact> 0.70044388E+01</totfact>
</mgrwt>
</event>
<event>
 8    1  0.1821556E-007  0.1898161E+03  0.7546771E-02  0.1158632E+00
          5   -1    0    0  501    0  0.00000000000E+00  0.00000000000E+00  0.16624456436E+03  0.16631098935E+03  0.47000000000E+01 0.  1.
         -5   -1    0    0    0  501 -0.00000000000E+00 -0.00000000000E+00 -0.21678197090E+03  0.21683291473E+03  0.47000000000E+01 0.  1.
         25    2    1    2    0    0  0.14152955435E+03  0.19105117618E+02 -0.31230024483E+02  0.19236804925E+03  0.12503812086E+03 0.  0.
         25    2    1    2    0    0 -0.14152955435E+03 -0.19105117618E+02 -0.19307382059E+02  0.19077585483E+03  0.12500812579E+03 0.  0.
          5    1    3    3  502    0 -0.17881907192E+02  0.11047754421E+01  0.16628138092E+02  0.24891125126E+02  0.47000000000E+01 0.  1.
         -5    1    3    3    0  502  0.15941146154E+03  0.18000342176E+02 -0.47858162576E+02  0.16747692412E+03  0.47000000000E+01 0.  1.
          5    1    4    4  503    0 -0.67938782711E+02  0.42740405363E+02  0.25864581988E+02  0.84459973054E+02  0.47000000000E+01 0.  1.
         -5    1    4    4    0  503 -0.73590771634E+02 -0.61845522981E+02 -0.45171964047E+02  0.10631588178E+03  0.47000000000E+01 0.  1.
<mgrwt>
<rscale>  0 0.18981116E+03</rscale>
<asrwt>0</asrwt>
<pdfrwt beam="1">  1        5 0.25585115E-01 0.18981610E+03</pdfrwt>
<pdfrwt beam="2">  1       -5 0.33360101E-01 0.18981610E+03</pdfrwt>
<totfact> 0.10080673E+02</totfact>
</mgrwt>
</event>
<event>
 8    1  0.1821556E-007  0.1396973E+03  0.7546771E-02  0.1213738E+00
         -5   -1    0    0    0  501 -0.00000000000E+00  0.00000000000E+00  0.97831663795E+02  0.97944496736E+02  0.47000000000E+01 0.  1.
          5   -1    0    0  501    0  0.00000000000E+00 -0.00000000000E+00 -0.28167076332E+03  0.28170997304E+03  0.47000000000E+01 0.  1.
         25    2    1    2    0    0 -0.35309692614E+02  0.51420917479E+02  0.10755727405E+02  0.14010805987E+03  0.12499479038E+03 0.  0.
         25    2    1    2    0    0  0.35309692614E+02 -0.51420917479E+02 -0.19459482693E+03  0.23954640990E+03  0.12499780272E+03 0.  0.
          5    1    3    3  502    0 -0.68362402850E+02  0.44340541641E+02 -0.29993725644E+02  0.86955249033E+02  0.47000000000E+01 0. -1.
         -5    1    3    3    0  502  0.33052710236E+02  0.70803758384E+01  0.40749453049E+02  0.53152810836E+02  0.47000000000E+01 0. -1.
          5    1    4    4  503    0 -0.47069104796E+02 -0.20708155958E+02 -0.70162313771E+02  0.87115834515E+02  0.47000000000E+01 0.  1.
         -5    1    4    4    0  503  0.82378797410E+02 -0.30712761521E+02 -0.12443251316E+03  0.15243057539E+03  0.47000000000E+01 0.  1.
<mgrwt>
<rscale>  0 0.13969663E+03</rscale>
<asrwt>0</asrwt>
<pdfrwt beam="2">  1        5 0.43345659E-01 0.13969730E+03</pdfrwt>
<pdfrwt beam="1">  1       -5 0.15062721E-01 0.13969730E+03</pdfrwt>
<totfact> 0.14493302E+02</totfact>
</mgrwt>
</event>
<event>
 8    1  0.1821556E-007  0.1300846E+03  0.7546771E-02  0.1227365E+00
         -5   -1    0    0    0  501 -0.00000000000E+00  0.00000000000E+00  0.53937957126E+02  0.54142342201E+02  0.47000000000E+01 0.  1.
          5   -1    0    0  501    0  0.00000000000E+00 -0.00000000000E+00 -0.31779647655E+03  0.31783122959E+03  0.47000000000E+01 0.  1.
         25    2    1    2    0    0  0.35743971070E+02 -0.32728130816E+01 -0.10841025788E+03  0.16933628085E+03  0.12503459212E+03 0.  0.
         25    2    1    2    0    0 -0.35743971070E+02  0.32728130816E+01 -0.15544826154E+03  0.20263729094E+03  0.12493745192E+03 0.  0.
          5    1    4    4  502    0 -0.39711395568E+02  0.23941238056E+02 -0.17022875048E+03  0.17649389595E+03  0.47000000000E+01 0. -1.
         -5    1    4    4    0  502  0.39674244983E+01 -0.20668424974E+02  0.14780488946E+02  0.26143394989E+02  0.47000000000E+01 0. -1.
          5    1    3    3  503    0 -0.42201466514E+02 -0.23998478265E+02 -0.33593817073E+02  0.59224363910E+02  0.47000000000E+01 0.  1.
         -5    1    3    3    0  503  0.77945437584E+02  0.20725665183E+02 -0.74816440810E+02  0.11011191694E+03  0.47000000000E+01 0.  1.
<mgrwt>
<rscale>  0 0.13006121E+03</rscale>
<asrwt>0</asrwt>
<pdfrwt beam="2">  1        5 0.48910160E-01 0.13008456E+03</pdfrwt>
<pdfrwt beam="1">  1       -5 0.83165427E-02 0.13008456E+03</pdfrwt>
<totfact> 0.31300398E+02</totfact>
</mgrwt>
</event>
<event>
 8    1  0.1821556E-007  0.1326134E+03  0.7546771E-02  0.1223630E+00
         -5   -1    0    0    0  501 -0.00000000000E+00  0.00000000000E+00  0.13300876579E+02  0.14106853574E+02  0.47000000000E+01 0. -1.
          5   -1    0    0  501    0  0.00000000000E+00 -0.00000000000E+00 -0.13188575553E+04  0.13188659300E+04  0.47000000000E+01 0. -1.
         25    2    1    2    0    0  0.34664794715E+02  0.27556040273E+02 -0.54209913155E+03  0.55808402125E+03  0.12500129198E+03 0.  0.
         25    2    1    2    0    0 -0.34664794715E+02 -0.27556040273E+02 -0.76345754719E+03  0.77488876229E+03  0.12499673682E+03 0.  0.
          5    1    3    3  502    0  0.76290463823E+02  0.43317064501E+02 -0.35868226650E+03  0.36928533852E+03  0.47000000000E+01 0.  1.
         -5    1    3    3    0  502 -0.41625669109E+02 -0.15761024228E+02 -0.18341686506E+03  0.18879868273E+03  0.47000000000E+01 0.  1.
          5    1    4    4  503    0  0.38408060972E+02  0.64610201418E+01 -0.43041224536E+03  0.43219638463E+03  0.47000000000E+01 0.  1.
         -5    1    4    4    0  503 -0.73072855687E+02 -0.34017060415E+02 -0.33304530183E+03  0.34269237766E+03  0.47000000000E+01 0.  1.
<mgrwt>
<rscale>  0 0.13261230E+03</rscale>
<asrwt>0</asrwt>
<pdfrwt beam="2">  1        5 0.20296371E+00 0.13261337E+03</pdfrwt>
<pdfrwt beam="1">  1       -5 0.21089322E-02 0.13261337E+03</pdfrwt>
<totfact> 0.88102615E+01</totfact>
</mgrwt>
</event>
<event>
 8    1  0.1821556E-007  0.1257688E+03  0.7546771E-02  0.1233873E+00
         -5   -1    0    0    0  501 -0.00000000000E+00  0.00000000000E+00  0.48626164172E+03  0.48628435530E+03  0.47000000000E+01 0.  1.
          5   -1    0    0  501    0  0.00000000000E+00 -0.00000000000E+00 -0.32829256861E+02  0.33163988090E+02  0.47000000000E+01 0.  1.
         25    2    1    2    0    0  0.56693932115E+00  0.13850801985E+02  0.25839036141E+03  0.28737250826E+03  0.12500085400E+03 0.  0.
         25    2    1    2    0    0 -0.56693932115E+00 -0.13850801985E+02  0.19504202345E+03  0.23207583512E+03  0.12500254478E+03 0.  0.
          5    1    4    4  502    0  0.49259556506E+02 -0.34760177428E+02  0.54411435690E+02  0.81347822195E+02  0.47000000000E+01 0.  1.
         -5    1    4    4    0  502 -0.49826495827E+02  0.20909375443E+02  0.14063058776E+03  0.15072801293E+03  0.47000000000E+01 0.  1.
          5    1    3    3  503    0 -0.60309270460E+02 -0.50505717791E+01  0.10655678725E+03  0.12263423375E+03  0.47000000000E+01 0.  1.
         -5    1    3    3    0  503  0.60876209781E+02  0.18901373764E+02  0.15183357416E+03  0.16473827451E+03  0.47000000000E+01 0.  1.
<mgrwt>
<rscale>  0 0.12576842E+03</rscale>
<asrwt>0</asrwt>
<pdfrwt beam="2">  1        5 0.50781508E-02 0.12576884E+03</pdfrwt>
<pdfrwt beam="1">  1       -5 0.74836977E-01 0.12576884E+03</pdfrwt>
<totfact> 0.28006651E+02</totfact>
</mgrwt>
</event>
<event>
 8    1  0.1821556E-007  0.2419097E+03  0.7546771E-02  0.1118528E+00
          5   -1    0    0  501    0  0.00000000000E+00  0.00000000000E+00  0.23464027370E+04  0.23464074442E+04  0.47000000000E+01 0.  1.
         -5   -1    0    0    0  501 -0.00000000000E+00 -0.00000000000E+00 -0.25298637683E+02  0.25731518972E+02  0.47000000000E+01 0.  1.
         25    2    1    2    0    0  0.20630867032E+03  0.18206703076E+02  0.13393271712E+04  0.13609987384E+04  0.12500217233E+03 0.  0.
         25    2    1    2    0    0 -0.20630867032E+03 -0.18206703076E+02  0.98177692819E+03  0.10111402248E+04  0.12499546379E+03 0.  0.
          5    1    3    3  502    0  0.26566364765E+02  0.52334661207E+02  0.31925540946E+03  0.32463948461E+03  0.47000000000E+01 0.  1.
         -5    1    3    3    0  502  0.17974230556E+03 -0.34127958131E+02  0.10200717617E+04  0.10363592538E+04  0.47000000000E+01 0.  1.
          5    1    4    4  503    0 -0.17792681735E+03 -0.60278275745E+02  0.69967919851E+03  0.72447532304E+03  0.47000000000E+01 0.  1.
         -5    1    4    4    0  503 -0.28381852969E+02  0.42071572669E+02  0.28209772967E+03  0.28666490174E+03  0.47000000000E+01 0.  1.
<mgrwt>
<rscale>  0 0.24190882E+03</rscale>
<asrwt>0</asrwt>
<pdfrwt beam="1">  1        5 0.36101884E+00 0.24190968E+03</pdfrwt>
<pdfrwt beam="2">  1       -5 0.39257572E-02 0.24190968E+03</pdfrwt>
<totfact> 0.34594084E+00</totfact>
</mgrwt>
</event>
<event>
 8    1  0.1821556E-007  0.1276134E+03  0.7546771E-02  0.1231043E+00
          5   -1    0    0  501    0  0.00000000000E+00  0.00000000000E+00  0.25257978453E+03  0.25262350950E+03  0.47000000000E+01 0. -1.
         -5   -1    0    0    0  501 -0.00000000000E+00 -0.00000000000E+00 -0.83587468619E+02  0.83719501373E+02  0.47000000000E+01 0. -1.
         25    2    1    2    0    0 -0.24862944184E+02 -0.63362765072E+01  0.38874626836E+01  0.12767264221E+03  0.12500750702E+03 0.  0.
         25    2    1    2    0    0  0.24862944184E+02  0.63362765072E+01  0.16510485322E+03  0.20867036866E+03  0.12500158321E+03 0.  0.
          5    1    3    3  502    0  0.84345442987E+01 -0.55901081989E+01 -0.57016450480E+02  0.58097818139E+02  0.47000000000E+01 0.  1.
         -5    1    3    3    0  502 -0.33297488482E+02 -0.74616830834E+00  0.60903913164E+02  0.69574824075E+02  0.47000000000E+01 0.  1.
          5    1    4    4  503    0 -0.95878337695E+01  0.48912022752E+02  0.13914863997E+03  0.14788085249E+03  0.47000000000E+01 0. -1.
         -5    1    4    4    0  503  0.34450777953E+02 -0.42575746245E+02  0.25956213251E+02  0.60789516170E+02  0.47000000000E+01 0. -1.
<mgrwt>
<rscale>  0 0.12761199E+03</rscale>
<asrwt>0</asrwt>
<pdfrwt beam="1">  1        5 0.38871948E-01 0.12761344E+03</pdfrwt>
<pdfrwt beam="2">  1       -5 0.12873130E-01 0.12761344E+03</pdfrwt>
<totfact> 0.23299504E+02</totfact>
</mgrwt>
</event>
<event>
 8    1  0.1821556E-007  0.1353695E+03  0.7546771E-02  0.1219711E+00
         -5   -1    0    0    0  501 -0.00000000000E+00  0.00000000000E+00  0.39315693134E+03  0.39318502344E+03  0.47000000000E+01 0. -1.
          5   -1    0    0  501    0  0.00000000000E+00 -0.00000000000E+00 -0.46451533608E+02  0.46688702858E+02  0.47000000000E+01 0. -1.
         25    2    1    2    0    0 -0.41440202813E+02  0.31174830831E+02  0.17478367818E+03  0.22107517889E+03  0.12504295294E+03 0.  0.
         25    2    1    2    0    0  0.41440202813E+02 -0.31174830831E+02  0.17192171955E+03  0.21879854740E+03  0.12500626467E+03 0.  0.
          5    1    4    4  502    0  0.61766150291E+02  0.31009818202E+02  0.79169292716E+02  0.10519759054E+03  0.47000000000E+01 0. -1.
         -5    1    4    4    0  502 -0.20325947478E+02 -0.62184649034E+02  0.92752426835E+02  0.11360095686E+03  0.47000000000E+01 0. -1.
          5    1    3    3  503    0 -0.84610738548E+02  0.27762753924E+02  0.13670728343E+03  0.16321984844E+03  0.47000000000E+01 0.  1.
         -5    1    3    3    0  503  0.43170535736E+02  0.34120769075E+01  0.38076394747E+02  0.57855330450E+02  0.47000000000E+01 0.  1.
<mgrwt>
<rscale>  0 0.13536102E+03</rscale>
<asrwt>0</asrwt>
<pdfrwt beam="2">  1        5 0.71667941E-02 0.13536950E+03</pdfrwt>
<pdfrwt beam="1">  1       -5 0.60506090E-01 0.13536950E+03</pdfrwt>
<totfact> 0.25910270E+02</totfact>
</mgrwt>
</event>
<event>
 8    1  0.1821556E-007  0.1286139E+03  0.7546771E-02  0.1229530E+00
          5   -1    0    0  501    0  0.00000000000E+00  0.00000000000E+00  0.18927840260E+02  0.19502644357E+02  0.47000000000E+01 0. -1.
         -5   -1    0    0    0  501 -0.00000000000E+00 -0.00000000000E+00 -0.86194157832E+03  0.86195439232E+03  0.47000000000E+01 0. -1.
         25    2    1    2    0    0 -0.29278623494E+02  0.78715448455E+01 -0.44117993199E+03  0.45954241205E+03  0.12498118686E+03 0.  0.
         25    2    1    2    0    0  0.29278623494E+02 -0.78715448455E+01 -0.40183380608E+03  0.42191462463E+03  0.12498937459E+03 0.  0.
          5    1    4    4  502    0  0.28302009606E+02  0.13862189580E+02 -0.16394877723E+02  0.35833588478E+02  0.47000000000E+01 0. -1.
         -5    1    4    4    0  502  0.97661388837E+00 -0.21733734425E+02 -0.38543892835E+03  0.38608103615E+03  0.47000000000E+01 0. -1.
          5    1    3    3  503    0  0.36056201559E+02 -0.33905233738E+02 -0.14251394796E+03  0.15093684079E+03  0.47000000000E+01 0. -1.
         -5    1    3    3    0  503 -0.65334825053E+02  0.41776778584E+02 -0.29866598403E+03  0.30860557126E+03  0.47000000000E+01 0. -1.
<mgrwt>
<rscale>  0 0.12861194E+03</rscale>
<asrwt>0</asrwt>
<pdfrwt beam="1">  1        5 0.29571775E-02 0.12861393E+03</pdfrwt>
<pdfrwt beam="2">  1       -5 0.13265157E+00 0.12861393E+03</pdfrwt>
<totfact> 0.16987997E+02</totfact>
</mgrwt>
</event>
<event>
 8    1  0.1821556E-007  0.1351299E+03  0.7546771E-02  0.1220052E+00
         -5   -1    0    0    0  501 -0.00000000000E+00  0.00000000000E+00  0.18452103696E+02  0.19041274401E+02  0.47000000000E+01 0. -1.
          5   -1    0    0  501    0  0.00000000000E+00 -0.00000000000E+00 -0.12053020779E+04  0.12053112415E+04  0.47000000000E+01 0. -1.
         25    2    1    2    0    0  0.44096111928E+02  0.26277155314E+02 -0.32473536106E+03  0.35171186921E+03  0.12495290411E+03 0.  0.
         25    2    1    2    0    0 -0.44096111928E+02 -0.26277155314E+02 -0.86211461314E+03  0.87264064672E+03  0.12500054459E+03 0.  0.
          5    1    4    4  502    0  0.18989888303E+00  0.31933498430E+02 -0.69333826883E+02  0.76479107825E+02  0.47000000000E+01 0.  1.
         -5    1    4    4    0  502 -0.44286010811E+02 -0.58210653744E+02 -0.79278078626E+03  0.79616153890E+03  0.47000000000E+01 0.  1.
          5    1    3    3  503    0  0.43114098348E+02 -0.42167012466E+02 -0.10136971643E+03  0.11804571922E+03  0.47000000000E+01 0.  1.
         -5    1    3    3    0  503  0.98201357972E+00  0.68444167781E+02 -0.22336564463E+03  0.23366614999E+03  0.47000000000E+01 0.  1.
<mgrwt>
<rscale>  0 0.13511889E+03</rscale>
<asrwt>0</asrwt>
<pdfrwt beam="2">  1        5 0.18547705E+00 0.13512991E+03</pdfrwt>
<pdfrwt beam="1">  1       -5 0.28848118E-02 0.13512991E+03</pdfrwt>
<totfact> 0.70700328E+01</totfact>
</mgrwt>
</event>
<event>
 8    1  0.1821556E-007  0.1457522E+03  0.7546771E-02  0.1205795E+00
          5   -1    0    0  501    0  0.00000000000E+00  0.00000000000E+00  0.21635316762E+03  0.21640421239E+03  0.47000000000E+01 0.  1.
         -5   -1    0    0    0  501 -0.00000000000E+00 -0.00000000000E+00 -0.98629205750E+02  0.98741127333E+02  0.47000000000E+01 0.  1.
         25    2    1    2    0    0 -0.73016532483E+02 -0.16867107583E+02  0.46956169194E+02  0.15312127973E+03  0.12500132458E+03 0.  0.
         25    2    1    2    0    0  0.73016532483E+02  0.16867107583E+02  0.70767792678E+02  0.16202405999E+03  0.12501120830E+03 0.  0.
          5    1    4    4  502    0 -0.31405635239E+02  0.75473809482E+01 -0.44043404341E+01  0.32935772325E+02  0.47000000000E+01 0.  1.
         -5    1    4    4    0  502  0.10442216772E+03  0.93197266346E+01  0.75172133112E+02  0.12908828767E+03  0.47000000000E+01 0.  1.
          5    1    3    3  503    0 -0.42898483612E+02 -0.21995819792E+02 -0.38737877875E+02  0.62022650434E+02  0.47000000000E+01 0. -1.
         -5    1    3    3    0  503 -0.30118048871E+02  0.51287122094E+01  0.85694047069E+02  0.91098629297E+02  0.47000000000E+01 0. -1.
<mgrwt>
<rscale>  0 0.14575012E+03</rscale>
<asrwt>0</asrwt>
<pdfrwt beam="1">  1        5 0.33297638E-01 0.14575224E+03</pdfrwt>
<pdfrwt beam="2">  1       -5 0.15186260E-01 0.14575224E+03</pdfrwt>
<totfact> 0.24743408E+02</totfact>
</mgrwt>
</event>
<event>
 8    1  0.1821556E-007  0.1288462E+03  0.7546771E-02  0.1229183E+00
         -5   -1    0    0    0  501 -0.00000000000E+00  0.00000000000E+00  0.95484052591E+02  0.95599656376E+02  0.47000000000E+01 0.  1.
          5   -1    0    0  501    0  0.00000000000E+00 -0.00000000000E+00 -0.17854914754E+03  0.17861099654E+03  0.47000000000E+01 0.  1.
         25    2    1    2    0    0  0.27996357744E+02  0.13735150235E+02 -0.18702531716E+02  0.13018327524E+03  0.12500180023E+03 0.  0.
         25    2    1    2    0    0 -0.27996357744E+02 -0.13735150235E+02 -0.64362563231E+02  0.14402737768E+03  0.12501558133E+03 0.  0.
          5    1    4    4  502    0  0.34809400007E+02 -0.45859789214E+02 -0.34452765495E+02  0.67259926003E+02  0.47000000000E+01 0.  1.
         -5    1    4    4    0  502 -0.62805757751E+02  0.32124638980E+02 -0.29909797736E+02  0.76767451676E+02  0.47000000000E+01 0.  1.
          5    1    3    3  503    0  0.32236727707E+02 -0.81241771986E+01 -0.68027244803E+02  0.75861748622E+02  0.47000000000E+01 0. -1.
         -5    1    3    3    0  503 -0.42403699630E+01  0.21859327433E+02  0.49324713087E+02  0.54321526620E+02  0.47000000000E+01 0. -1.
<mgrwt>
<rscale>  0 0.12884287E+03</rscale>
<asrwt>0</asrwt>
<pdfrwt beam="2">  1        5 0.27482750E-01 0.12884621E+03</pdfrwt>
<pdfrwt beam="1">  1       -5 0.14703504E-01 0.12884621E+03</pdfrwt>
<totfact> 0.36645883E+02</totfact>
</mgrwt>
</event>
<event>
 8    1  0.1821556E-007  0.1591952E+03  0.7546771E-02  0.1189609E+00
         -5   -1    0    0    0  501 -0.00000000000E+00  0.00000000000E+00  0.25470055227E+02  0.25900071684E+02  0.47000000000E+01 0.  1.
          5   -1    0    0  501    0  0.00000000000E+00 -0.00000000000E+00 -0.10640509691E+04  0.10640613492E+04  0.47000000000E+01 0.  1.
         25    2    1    2    0    0 -0.97704249109E+02 -0.13092945571E+02 -0.66662975827E+03  0.68537426162E+03  0.12500039346E+03 0.  0.
         25    2    1    2    0    0  0.97704249109E+02  0.13092945571E+02 -0.37195115562E+03  0.40458715927E+03  0.12500224702E+03 0.  0.
          5    1    4    4  502    0  0.12177923706E+02  0.48056593195E+01 -0.27339318740E+03  0.27374681935E+03  0.47000000000E+01 0.  1.
         -5    1    4    4    0  502  0.85526325403E+02  0.82872862519E+01 -0.98557968213E+02  0.13084033991E+03  0.47000000000E+01 0.  1.
          5    1    3    3  503    0 -0.48448954263E+02  0.37633012308E+02 -0.12708058252E+03  0.14119174636E+03  0.47000000000E+01 0.  1.
         -5    1    3    3    0  503 -0.49255294846E+02 -0.50725957879E+02 -0.53954917575E+03  0.54418251527E+03  0.47000000000E+01 0.  1.
<mgrwt>
<rscale>  0 0.15919482E+03</rscale>
<asrwt>0</asrwt>
<pdfrwt beam="2">  1        5 0.16373399E+00 0.15919519E+03</pdfrwt>
<pdfrwt beam="1">  1       -5 0.39523475E-02 0.15919519E+03</pdfrwt>
<totfact> 0.63851034E+01</totfact>
</mgrwt>
</event>
<event>
 8    1  0.1821556E-007  0.1273598E+03  0.7546771E-02  0.1231429E+00
         -5   -1    0    0    0  501 -0.00000000000E+00  0.00000000000E+00  0.80512124142E+03  0.80513495973E+03  0.47000000000E+01 0.  1.
          5   -1    0    0  501    0  0.00000000000E+00 -0.00000000000E+00 -0.22113297852E+02  0.22607254188E+02  0.47000000000E+01 0.  1.
         25    2    1    2    0    0 -0.24255038745E+02  0.24456453193E+01  0.52212538413E+03  0.53743411607E+03  0.12500489700E+03 0.  0.
         25    2    1    2    0    0  0.24255038745E+02 -0.24456453193E+01  0.26088255943E+03  0.29030809785E+03  0.12499917510E+03 0.  0.
          5    1    4    4  502    0  0.17154718113E+02  0.33060029637E+02  0.24914198684E+03  0.25195449890E+03  0.47000000000E+01 0. -1.
         -5    1    4    4    0  502  0.71003206315E+01 -0.35505674956E+02  0.11740572596E+02  0.38353598945E+02  0.47000000000E+01 0. -1.
          5    1    3    3  503    0  0.37871467095E+02  0.36756371537E+02  0.16513496471E+03  0.17342700320E+03  0.47000000000E+01 0. -1.
         -5    1    3    3    0  503 -0.62126505840E+02 -0.34310726218E+02  0.35699041942E+03  0.36400711287E+03  0.47000000000E+01 0. -1.
<mgrwt>
<rscale>  0 0.12735837E+03</rscale>
<asrwt>0</asrwt>
<pdfrwt beam="2">  1        5 0.34410977E-02 0.12735978E+03</pdfrwt>
<pdfrwt beam="1">  1       -5 0.12390386E+00 0.12735978E+03</pdfrwt>
<totfact> 0.15807821E+02</totfact>
</mgrwt>
</event>
<event>
 8    1  0.1821556E-007  0.1308719E+03  0.7546771E-02  0.1226168E+00
         -5   -1    0    0    0  501 -0.00000000000E+00  0.00000000000E+00  0.13547100686E+04  0.13547182216E+04  0.47000000000E+01 0.  1.
          5   -1    0    0  501    0  0.00000000000E+00 -0.00000000000E+00 -0.12226499409E+02  0.13098751383E+02  0.47000000000E+01 0.  1.
         25    2    1    2    0    0 -0.38509101663E+02 -0.35710600819E+01  0.63905323502E+03  0.65231597594E+03  0.12502556496E+03 0.  0.
         25    2    1    2    0    0  0.38509101663E+02  0.35710600819E+01  0.70343033420E+03  0.71550099708E+03  0.12502695060E+03 0.  0.
          5    1    4    4  502    0  0.40260891415E+02  0.52361737412E+02  0.22439718259E+03  0.23396340842E+03  0.47000000000E+01 0. -1.
         -5    1    4    4    0  502 -0.17517897519E+01 -0.48790677330E+02  0.47903315160E+03  0.48153758867E+03  0.47000000000E+01 0. -1.
          5    1    3    3  503    0  0.25861750298E+02 -0.40487503878E+02  0.37150786427E+03  0.37463082003E+03  0.47000000000E+01 0.  1.
         -5    1    3    3    0  503 -0.64370851960E+02  0.36916443796E+02  0.26754537075E+03  0.27768515591E+03  0.47000000000E+01 0.  1.
<mgrwt>
<rscale>  0 0.13087152E+03</rscale>
<asrwt>0</asrwt>
<pdfrwt beam="2">  1        5 0.19487238E-02 0.13087185E+03</pdfrwt>
<pdfrwt beam="1">  1       -5 0.20848462E+00 0.13087185E+03</pdfrwt>
<totfact> 0.91373127E+01</totfact>
</mgrwt>
</event>
<event>
 8    1  0.1821556E-007  0.1291100E+03  0.7546771E-02  0.1228784E+00
          5   -1    0    0  501    0  0.00000000000E+00  0.00000000000E+00  0.56930953322E+03  0.56932893359E+03  0.47000000000E+01 0.  1.
         -5   -1    0    0    0  501 -0.00000000000E+00 -0.00000000000E+00 -0.29187919847E+02  0.29563908148E+02  0.47000000000E+01 0.  1.
         25    2    1    2    0    0  0.31919427622E+02 -0.48917176556E+01  0.25118130205E+03  0.28242067475E+03  0.12500644890E+03 0.  0.
         25    2    1    2    0    0 -0.31919427622E+02  0.48917176556E+01  0.28894031133E+03  0.31647216698E+03  0.12500140080E+03 0.  0.
          5    1    4    4  502    0  0.10105595816E+02  0.97628462223E+01  0.26910210495E+03  0.26950968280E+03  0.47000000000E+01 0. -1.
         -5    1    4    4    0  502 -0.42025023438E+02 -0.48711285666E+01  0.19838206378E+02  0.46962484184E+02  0.47000000000E+01 0. -1.
          5    1    3    3  503    0  0.28573375464E+02 -0.36694672630E+02  0.24511744590E+03  0.24953474522E+03  0.47000000000E+01 0. -1.
         -5    1    3    3    0  503  0.33460521586E+01  0.31802954974E+02  0.60638561470E+01  0.32885929537E+02  0.47000000000E+01 0. -1.
<mgrwt>
<rscale>  0 0.12910877E+03</rscale>
<asrwt>0</asrwt>
<pdfrwt beam="1">  1        5 0.87616495E-01 0.12911000E+03</pdfrwt>
<pdfrwt beam="2">  1       -5 0.45208638E-02 0.12911000E+03</pdfrwt>
<totfact> 0.23786601E+02</totfact>
</mgrwt>
</event>
<event>
 8    1  0.1821556E-007  0.1317090E+03  0.7546771E-02  0.1224947E+00
          5   -1    0    0  501    0  0.00000000000E+00  0.00000000000E+00  0.13083709306E+04  0.13083793724E+04  0.47000000000E+01 0.  1.
         -5   -1    0    0    0  501 -0.00000000000E+00 -0.00000000000E+00 -0.21580279708E+02  0.22086160197E+02  0.47000000000E+01 0.  1.
         25    2    1    2    0    0  0.40879609123E+02 -0.68444693866E+01  0.22632797355E+03  0.26185505634E+03  0.12500291882E+03 0.  0.
         25    2    1    2    0    0 -0.40879609123E+02  0.68444693866E+01  0.10604626774E+04  0.10686104762E+04  0.12501708153E+03 0.  0.
          5    1    3    3  502    0  0.44864487590E+02  0.40239360621E+02  0.19694695824E+03  0.20601510321E+03  0.47000000000E+01 0.  1.
         -5    1    3    3    0  502 -0.39848784668E+01 -0.47083830007E+02  0.29381015314E+02  0.55839953129E+02  0.47000000000E+01 0.  1.
          5    1    4    4  503    0 -0.38707322916E+02 -0.52621062517E+02  0.71836759388E+03  0.72134688119E+03  0.47000000000E+01 0. -1.
         -5    1    4    4    0  503 -0.21722862072E+01  0.59465531904E+02  0.34209508347E+03  0.34726359505E+03  0.47000000000E+01 0. -1.
<mgrwt>
<rscale>  0 0.13170564E+03</rscale>
<asrwt>0</asrwt>
<pdfrwt beam="1">  1        5 0.20132741E+00 0.13170900E+03</pdfrwt>
<pdfrwt beam="2">  1       -5 0.33596061E-02 0.13170900E+03</pdfrwt>
<totfact> 0.42712780E+01</totfact>
</mgrwt>
</event>
<event>
 8    1  0.1821556E-007  0.1342306E+03  0.7546771E-02  0.1221313E+00
         -5   -1    0    0    0  501 -0.00000000000E+00  0.00000000000E+00  0.33662905279E+02  0.33989427648E+02  0.47000000000E+01 0.  1.
          5   -1    0    0  501    0  0.00000000000E+00 -0.00000000000E+00 -0.54695595921E+03  0.54697615241E+03  0.47000000000E+01 0.  1.
         25    2    1    2    0    0 -0.36616947277E+02 -0.32392527899E+02 -0.20907831537E+03  0.24845324221E+03  0.12500077966E+03 0.  0.
         25    2    1    2    0    0  0.36616947277E+02  0.32392527899E+02 -0.30421473856E+03  0.33251233785E+03  0.12501108342E+03 0.  0.
          5    1    3    3  502    0  0.43369328943E+02 -0.11953068287E+02 -0.11285012265E+03  0.12157719654E+03  0.47000000000E+01 0. -1.
         -5    1    3    3    0  502 -0.79986276221E+02 -0.20439459612E+02 -0.96228192713E+02  0.12687604567E+03  0.47000000000E+01 0. -1.
          5    1    4    4  503    0 -0.43136046345E+02  0.14744498784E+02 -0.63774048725E+02  0.78532401144E+02  0.47000000000E+01 0.  1.
         -5    1    4    4    0  503  0.79752993622E+02  0.17648029114E+02 -0.24044068983E+03  0.25397993671E+03  0.47000000000E+01 0.  1.
<mgrwt>
<rscale>  0 0.13422818E+03</rscale>
<asrwt>0</asrwt>
<pdfrwt beam="2">  1        5 0.84173735E-01 0.13423058E+03</pdfrwt>
<pdfrwt beam="1">  1       -5 0.52055793E-02 0.13423058E+03</pdfrwt>
<totfact> 0.20968208E+02</totfact>
</mgrwt>
</event>
<event>
 8    1  0.1821556E-007  0.1486531E+03  0.7546771E-02  0.1202139E+00
          5   -1    0    0  501    0  0.00000000000E+00  0.00000000000E+00  0.29677180741E+02  0.30047047388E+02  0.47000000000E+01 0.  1.
         -5   -1    0    0    0  501 -0.00000000000E+00 -0.00000000000E+00 -0.74058601015E+03  0.74060092387E+03  0.47000000000E+01 0.  1.
         25    2    1    2    0    0 -0.68425737606E+02  0.42303459674E+02 -0.36953619270E+03  0.39831489314E+03  0.12500436840E+03 0.  0.
         25    2    1    2    0    0  0.68425737606E+02 -0.42303459674E+02 -0.34137263671E+03  0.37233307811E+03  0.12499991877E+03 0.  0.
          5    1    4    4  502    0 -0.40303865833E+01  0.33171067346E+02 -0.35279829028E+02  0.48819259121E+02  0.47000000000E+01 0.  1.
         -5    1    4    4    0  502  0.72456124189E+02 -0.75474527020E+02 -0.30609280769E+03  0.32351381899E+03  0.47000000000E+01 0.  1.
          5    1    3    3  503    0  0.78977061647E+01  0.37360250771E+02 -0.26239265265E+02  0.46569852287E+02  0.47000000000E+01 0. -1.
         -5    1    3    3    0  503 -0.76323443771E+02  0.49432089028E+01 -0.34329692743E+03  0.35174504086E+03  0.47000000000E+01 0. -1.
<mgrwt>
<rscale>  0 0.14865221E+03</rscale>
<asrwt>0</asrwt>
<pdfrwt beam="1">  1        5 0.45953192E-02 0.14865314E+03</pdfrwt>
<pdfrwt beam="2">  1       -5 0.11396589E+00 0.14865314E+03</pdfrwt>
<totfact> 0.12790921E+02</totfact>
</mgrwt>
</event>
<event>
 8    1  0.1821556E-007  0.1986341E+03  0.7546771E-02  0.1150897E+00
         -5   -1    0    0    0  501 -0.00000000000E+00  0.00000000000E+00  0.10588109002E+03  0.10598535382E+03  0.47000000000E+01 0.  1.
          5   -1    0    0  501    0  0.00000000000E+00 -0.00000000000E+00 -0.38085743711E+03  0.38088643636E+03  0.47000000000E+01 0.  1.
         25    2    1    2    0    0  0.14302044599E+02  0.15370707545E+03 -0.10108174896E+03  0.22287450422E+03  0.12500044453E+03 0.  0.
         25    2    1    2    0    0 -0.14302044599E+02 -0.15370707545E+03 -0.17389459813E+03  0.26399728596E+03  0.12499928884E+03 0.  0.
          5    1    4    4  502    0 -0.51929366638E+02 -0.15995275379E+02 -0.61819637258E+02  0.82439465698E+02  0.47000000000E+01 0. -1.
         -5    1    4    4    0  502  0.37627322039E+02 -0.13771180008E+03 -0.11207496087E+03  0.18155782026E+03  0.47000000000E+01 0. -1.
          5    1    3    3  503    0 -0.36041380301E+02  0.10006535598E+03 -0.10436677214E+03  0.14908577963E+03  0.47000000000E+01 0. -1.
         -5    1    3    3    0  503  0.50343424900E+02  0.53641719477E+02  0.32850231781E+01  0.73788724588E+02  0.47000000000E+01 0. -1.
<mgrwt>
<rscale>  0 0.19863397E+03</rscale>
<asrwt>0</asrwt>
<pdfrwt beam="2">  1        5 0.58603702E-01 0.19863415E+03</pdfrwt>
<pdfrwt beam="1">  1       -5 0.16299650E-01 0.19863415E+03</pdfrwt>
<totfact> 0.73351864E+01</totfact>
</mgrwt>
</event>
<event>
 8    1  0.1821556E-007  0.1373525E+03  0.7546771E-02  0.1216937E+00
         -5   -1    0    0    0  501 -0.00000000000E+00  0.00000000000E+00  0.10924828195E+03  0.10934933520E+03  0.47000000000E+01 0.  1.
          5   -1    0    0  501    0  0.00000000000E+00 -0.00000000000E+00 -0.17305217707E+03  0.17311598999E+03  0.47000000000E+01 0.  1.
         25    2    1    2    0    0 -0.51321341092E+02  0.24619153403E+02 -0.23733000324E+02  0.13938784779E+03  0.12500293613E+03 0.  0.
         25    2    1    2    0    0  0.51321341092E+02 -0.24619153403E+02 -0.40070894798E+02  0.14307747740E+03  0.12500202063E+03 0.  0.
          5    1    3    3  502    0 -0.74868382318E+02  0.49307186989E+02 -0.43419932554E+02  0.99718874355E+02  0.47000000000E+01 0.  1.
         -5    1    3    3    0  502  0.23547041226E+02 -0.24688033585E+02  0.19686932230E+02  0.39668973436E+02  0.47000000000E+01 0.  1.
          5    1    4    4  503    0  0.73274119867E+02  0.12693542339E+02  0.11701095267E+02  0.75426973225E+02  0.47000000000E+01 0.  1.
         -5    1    4    4    0  503 -0.21952778775E+02 -0.37312695742E+02 -0.51771990066E+02  0.67650504173E+02  0.47000000000E+01 0.  1.
<mgrwt>
<rscale>  0 0.13735232E+03</rscale>
<asrwt>0</asrwt>
<pdfrwt beam="2">  1        5 0.26636094E-01 0.13735253E+03</pdfrwt>
<pdfrwt beam="1">  1       -5 0.16820110E-01 0.13735253E+03</pdfrwt>
<totfact> 0.31188583E+02</totfact>
</mgrwt>
</event>
<event>
 8    1  0.1821556E-007  0.1363421E+03  0.7546771E-02  0.1218342E+00
          5   -1    0    0  501    0  0.00000000000E+00  0.00000000000E+00  0.55585362335E+02  0.55783711833E+02  0.47000000000E+01 0.  1.
         -5   -1    0    0    0  501 -0.00000000000E+00 -0.00000000000E+00 -0.33405703977E+03  0.33409010135E+03  0.47000000000E+01 0.  1.
         25    2    1    2    0    0 -0.15556871679E+02  0.52141539284E+02 -0.14659331908E+03  0.20019682880E+03  0.12501365001E+03 0.  0.
         25    2    1    2    0    0  0.15556871679E+02 -0.52141539284E+02 -0.13187835835E+03  0.18967698438E+03  0.12499880250E+03 0.  0.
          5    1    3    3  502    0 -0.65326429093E+02  0.71330578273E+01 -0.94102985796E+02  0.11487334237E+03  0.47000000000E+01 0.  1.
         -5    1    3    3    0  502  0.49769557414E+02  0.45008481457E+02 -0.52490333283E+02  0.85323486429E+02  0.47000000000E+01 0.  1.
          5    1    4    4  503    0  0.39163042944E+02 -0.46546805794E+02 -0.14806068231E+03  0.16013870459E+03  0.47000000000E+01 0.  1.
         -5    1    4    4    0  503 -0.23606171265E+02 -0.55947334898E+01  0.16182323952E+02  0.29538279792E+02  0.47000000000E+01 0.  1.
<mgrwt>
<rscale>  0 0.13633870E+03</rscale>
<asrwt>0</asrwt>
<pdfrwt beam="1">  1        5 0.85693953E-02 0.13634210E+03</pdfrwt>
<pdfrwt beam="2">  1       -5 0.51411190E-01 0.13634210E+03</pdfrwt>
<totfact> 0.27190703E+02</totfact>
</mgrwt>
</event>
<event>
 8    1  0.1821556E-007  0.1376042E+03  0.7546771E-02  0.1216599E+00
         -5   -1    0    0    0  501 -0.00000000000E+00  0.00000000000E+00  0.17819014509E+03  0.17825211867E+03  0.47000000000E+01 0.  1.
          5   -1    0    0  501    0  0.00000000000E+00 -0.00000000000E+00 -0.11346107814E+03  0.11355838257E+03  0.47000000000E+01 0.  1.
         25    2    1    2    0    0  0.40509094134E+02  0.40763276049E+02  0.69477643213E+02  0.15412439817E+03  0.12499822328E+03 0.  0.
         25    2    1    2    0    0 -0.40509094134E+02 -0.40763276049E+02 -0.47485762549E+01  0.13768610306E+03  0.12502912708E+03 0.  0.
          5    1    3    3  502    0 -0.28437674552E+02  0.58095915963E+02  0.21896654208E+02  0.68449910526E+02  0.47000000000E+01 0. -1.
         -5    1    3    3    0  502  0.68946768686E+02 -0.17332639915E+02  0.47580989005E+02  0.85674487646E+02  0.47000000000E+01 0. -1.
          5    1    4    4  503    0 -0.69237725423E+02 -0.68311138383E+02 -0.45993670159E+00  0.97378518117E+02  0.47000000000E+01 0.  1.
         -5    1    4    4    0  503  0.28728631290E+02  0.27547862334E+02 -0.42886395533E+01  0.40307584946E+02  0.47000000000E+01 0.  1.
<mgrwt>
<rscale>  0 0.13759717E+03</rscale>
<asrwt>0</asrwt>
<pdfrwt beam="2">  1        5 0.17467803E-01 0.13760419E+03</pdfrwt>
<pdfrwt beam="1">  1       -5 0.27426120E-01 0.13760419E+03</pdfrwt>
<totfact> 0.27516722E+02</totfact>
</mgrwt>
</event>
<event>
 8    1  0.1821556E-007  0.1422192E+03  0.7546771E-02  0.1210376E+00
          5   -1    0    0  501    0  0.00000000000E+00  0.00000000000E+00  0.12476307363E+02  0.13332225824E+02  0.47000000000E+01 0.  1.
         -5   -1    0    0    0  501 -0.00000000000E+00 -0.00000000000E+00 -0.19476076864E+04  0.19476133575E+04  0.47000000000E+01 0.  1.
         25    2    1    2    0    0  0.53652800512E+02 -0.41495313973E+02 -0.14011853373E+04  0.14083836652E+04  0.12499485951E+03 0.  0.
         25    2    1    2    0    0 -0.53652800512E+02  0.41495313973E+02 -0.53394604175E+03  0.55256191807E+03  0.12500325483E+03 0.  0.
          5    1    3    3  502    0 -0.28784308315E+02  0.22946508507E+02 -0.41233371397E+03  0.41400031441E+03  0.47000000000E+01 0. -1.
         -5    1    3    3    0  502  0.82437108827E+02 -0.64441822480E+02 -0.98885162335E+03  0.99438335083E+03  0.47000000000E+01 0. -1.
          5    1    4    4  503    0 -0.28043846494E+02  0.61090098334E+02 -0.12235409643E+03  0.13968204020E+03  0.47000000000E+01 0.  1.
         -5    1    4    4    0  503 -0.25608954018E+02 -0.19594784361E+02 -0.41159194532E+03  0.41287987787E+03  0.47000000000E+01 0.  1.
<mgrwt>
<rscale>  0 0.14221734E+03</rscale>
<asrwt>0</asrwt>
<pdfrwt beam="1">  1        5 0.19857096E-02 0.14221919E+03</pdfrwt>
<pdfrwt beam="2">  1       -5 0.29969799E+00 0.14221919E+03</pdfrwt>
<totfact> 0.23808886E+01</totfact>
</mgrwt>
</event>
<event>
 8    1  0.1821556E-007  0.1296088E+03  0.7546771E-02  0.1228038E+00
         -5   -1    0    0    0  501 -0.00000000000E+00  0.00000000000E+00  0.12252870810E+03  0.12261881711E+03  0.47000000000E+01 0.  1.
          5   -1    0    0  501    0  0.00000000000E+00 -0.00000000000E+00 -0.14430211577E+03  0.14437863628E+03  0.47000000000E+01 0.  1.
         25    2    1    2    0    0 -0.16427886677E+02 -0.30043427927E+02  0.19297954656E+02  0.13103680799E+03  0.12500300386E+03 0.  0.
         25    2    1    2    0    0  0.16427886677E+02  0.30043427927E+02 -0.41071362323E+02  0.13596064540E+03  0.12500382903E+03 0.  0.
          5    1    3    3  502    0  0.15805818347E+02  0.39759535708E+02 -0.16497187777E+02  0.46096548438E+02  0.47000000000E+01 0.  1.
         -5    1    3    3    0  502 -0.32233705024E+02 -0.69802963635E+02  0.35795142432E+02  0.84940259556E+02  0.47000000000E+01 0.  1.
          5    1    4    4  503    0  0.54569827996E+02 -0.25210440094E+02 -0.75367138466E+01  0.60764500103E+02  0.47000000000E+01 0.  1.
         -5    1    4    4    0  503 -0.38141941319E+02  0.55253868020E+02 -0.33534648477E+02  0.75196145295E+02  0.47000000000E+01 0.  1.
<mgrwt>
<rscale>  0 0.12960860E+03</rscale>
<asrwt>0</asrwt>
<pdfrwt beam="2">  1        5 0.22213143E-01 0.12960880E+03</pdfrwt>
<pdfrwt beam="1">  1       -5 0.18863388E-01 0.12960880E+03</pdfrwt>
<totfact> 0.34988657E+02</totfact>
</mgrwt>
</event>
<event>
 8    1  0.1821556E-007  0.1260544E+03  0.7546771E-02  0.1233436E+00
         -5   -1    0    0    0  501 -0.00000000000E+00  0.00000000000E+00  0.70480763873E+03  0.70482330950E+03  0.47000000000E+01 0.  1.
          5   -1    0    0  501    0  0.00000000000E+00 -0.00000000000E+00 -0.22784156761E+02  0.23263873265E+02  0.47000000000E+01 0.  1.
         25    2    1    2    0    0  0.47011388852E+01 -0.15437341558E+02  0.39450386828E+03  0.41414891897E+03  0.12500245109E+03 0.  0.
         25    2    1    2    0    0 -0.47011388852E+01  0.15437341558E+02  0.28751961369E+03  0.31393826379E+03  0.12501717079E+03 0.  0.
          5    1    4    4  502    0 -0.57462369277E+02 -0.41500312709E+01  0.21137326078E+03  0.21913441540E+03  0.47000000000E+01 0. -1.
         -5    1    4    4    0  502  0.52761230392E+02  0.19587372829E+02  0.76146352910E+02  0.94803848384E+02  0.47000000000E+01 0. -1.
          5    1    3    3  503    0  0.16403873975E+02 -0.18107192544E+02  0.39953659347E+03  0.40031055073E+03  0.47000000000E+01 0. -1.
         -5    1    3    3    0  503 -0.11702735089E+02  0.26698509860E+01 -0.50327251907E+01  0.13838368246E+02  0.47000000000E+01 0. -1.
<mgrwt>
<rscale>  0 0.12605072E+03</rscale>
<asrwt>0</asrwt>
<pdfrwt beam="2">  1        5 0.35433614E-02 0.12605437E+03</pdfrwt>
<pdfrwt beam="1">  1       -5 0.10847006E+00 0.12605437E+03</pdfrwt>
<totfact> 0.20988406E+02</totfact>
</mgrwt>
</event>
<event>
 8    1  0.1821556E-007  0.1320733E+03  0.7546771E-02  0.1224415E+00
          5   -1    0    0  501    0  0.00000000000E+00  0.00000000000E+00  0.14599313813E+02  0.15337208475E+02  0.47000000000E+01 0. -1.
         -5   -1    0    0    0  501 -0.00000000000E+00 -0.00000000000E+00 -0.12854383567E+04  0.12854469491E+04  0.47000000000E+01 0. -1.
         25    2    1    2    0    0 -0.16484896876E+01 -0.42620011409E+02 -0.83487009089E+03  0.84525228654E+03  0.12499670537E+03 0.  0.
         25    2    1    2    0    0  0.16484896876E+01  0.42620011409E+02 -0.43596895205E+03  0.45553187105E+03  0.12498470108E+03 0.  0.
          5    1    4    4  502    0  0.31268992619E+02  0.71182924649E+02 -0.36623570820E+03  0.37442681878E+03  0.47000000000E+01 0.  1.
         -5    1    4    4    0  502 -0.29620502931E+02 -0.28562913240E+02 -0.69733243852E+02  0.81105052276E+02  0.47000000000E+01 0.  1.
          5    1    3    3  503    0  0.12789485420E+01 -0.82824017947E+02 -0.40129078763E+03  0.40977779331E+03  0.47000000000E+01 0.  1.
         -5    1    3    3    0  503 -0.29274382296E+01  0.40204006538E+02 -0.43357930326E+03  0.43547449323E+03  0.47000000000E+01 0.  1.
<mgrwt>
<rscale>  0 0.13207047E+03</rscale>
<asrwt>0</asrwt>
<pdfrwt beam="1">  1        5 0.23034714E-02 0.13207331E+03</pdfrwt>
<pdfrwt beam="2">  1       -5 0.19781708E+00 0.13207331E+03</pdfrwt>
<totfact> 0.82827797E+01</totfact>
</mgrwt>
</event>
<event>
 8    1  0.1821556E-007  0.1281391E+03  0.7546771E-02  0.1230251E+00
          5   -1    0    0  501    0  0.00000000000E+00  0.00000000000E+00  0.18089477948E+03  0.18095582678E+03  0.47000000000E+01 0. -1.
         -5   -1    0    0    0  501 -0.00000000000E+00 -0.00000000000E+00 -0.15798981896E+03  0.15805971306E+03  0.47000000000E+01 0. -1.
         25    2    1    2    0    0  0.18759789395E+02 -0.21021969566E+02 -0.99183618957E+02  0.16204017771E+03  0.12500310404E+03 0.  0.
         25    2    1    2    0    0 -0.18759789395E+02  0.21021969566E+02  0.12208857949E+03  0.17697536213E+03  0.12498321751E+03 0.  0.
          5    1    4    4  502    0 -0.42070222529E+02  0.34312211634E+02  0.27432642420E+01  0.54560489272E+02  0.47000000000E+01 0. -1.
         -5    1    4    4    0  502  0.23310433134E+02 -0.13290242068E+02  0.11934531524E+03  0.12241487286E+03  0.47000000000E+01 0. -1.
          5    1    3    3  503    0  0.17979150748E+02  0.46801376040E+02 -0.74057115249E+02  0.89555373820E+02  0.47000000000E+01 0. -1.
         -5    1    3    3    0  503  0.78063864681E+00 -0.67823345606E+02 -0.25126503707E+02  0.72484803887E+02  0.47000000000E+01 0. -1.
<mgrwt>
<rscale>  0 0.12813425E+03</rscale>
<asrwt>0</asrwt>
<pdfrwt beam="1">  1        5 0.27840038E-01 0.12813910E+03</pdfrwt>
<pdfrwt beam="2">  1       -5 0.24316198E-01 0.12813910E+03</pdfrwt>
<totfact> 0.14040214E+02</totfact>
</mgrwt>
</event>
<event>
 8    1  0.1821556E-007  0.1305306E+03  0.7546771E-02  0.1226671E+00
          5   -1    0    0  501    0  0.00000000000E+00  0.00000000000E+00  0.65725398137E+02  0.65893231521E+02  0.47000000000E+01 0.  1.
         -5   -1    0    0    0  501 -0.00000000000E+00 -0.00000000000E+00 -0.26601642561E+03  0.26605794236E+03  0.47000000000E+01 0.  1.
         25    2    1    2    0    0 -0.24017569220E+02 -0.28911144915E+02 -0.12763711779E+03  0.18256360791E+03  0.12500215663E+03 0.  0.
         25    2    1    2    0    0  0.24017569220E+02  0.28911144915E+02 -0.72653909686E+02  0.14938756598E+03  0.12500142537E+03 0.  0.
          5    1    4    4  502    0 -0.59134332149E+01  0.54108522440E+02  0.12067390871E+02  0.55950092185E+02  0.47000000000E+01 0. -1.
         -5    1    4    4    0  502  0.29931002435E+02 -0.25197377525E+02 -0.84721300556E+02  0.93437473793E+02  0.47000000000E+01 0. -1.
          5    1    3    3  503    0 -0.66736843278E+02 -0.12437739639E+02 -0.29496497094E+02  0.74166279123E+02  0.47000000000E+01 0. -1.
         -5    1    3    3    0  503  0.42719274058E+02 -0.16473405276E+02 -0.98140620695E+02  0.10839732879E+03  0.47000000000E+01 0. -1.
<mgrwt>
<rscale>  0 0.13053042E+03</rscale>
<asrwt>0</asrwt>
<pdfrwt beam="1">  1        5 0.10127704E-01 0.13053060E+03</pdfrwt>
<pdfrwt beam="2">  1       -5 0.40941707E-01 0.13053060E+03</pdfrwt>
<totfact> 0.32251034E+02</totfact>
</mgrwt>
</event>
<event>
 8    1  0.1821556E-007  0.1652333E+03  0.7546771E-02  0.1182912E+00
         -5   -1    0    0    0  501 -0.00000000000E+00  0.00000000000E+00  0.12427866034E+03  0.12436750145E+03  0.47000000000E+01 0. -1.
          5   -1    0    0  501    0  0.00000000000E+00 -0.00000000000E+00 -0.39492384312E+03  0.39495180955E+03  0.47000000000E+01 0. -1.
         25    2    1    2    0    0 -0.12449389163E+02  0.10734119584E+03  0.37712292242E+02  0.16948166393E+03  0.12499879122E+03 0.  0.
         25    2    1    2    0    0  0.12449389163E+02 -0.10734119584E+03 -0.30835747502E+03  0.34983764707E+03  0.12499970916E+03 0.  0.
          5    1    3    3  502    0 -0.60277239542E+02  0.78415298437E+02  0.51657742247E+02  0.11168221421E+03  0.47000000000E+01 0. -1.
         -5    1    3    3    0  502  0.47827850379E+02  0.28925897401E+02 -0.13945450005E+02  0.57799449722E+02  0.47000000000E+01 0. -1.
          5    1    4    4  503    0 -0.37036534997E+02 -0.10427208650E+03 -0.24784689780E+03  0.27146739712E+03  0.47000000000E+01 0.  1.
         -5    1    4    4    0  503  0.49485924160E+02 -0.30691093428E+01 -0.60510577220E+02  0.78370249953E+02  0.47000000000E+01 0.  1.
<mgrwt>
<rscale>  0 0.16523314E+03</rscale>
<asrwt>0</asrwt>
<pdfrwt beam="2">  1        5 0.60766499E-01 0.16523331E+03</pdfrwt>
<pdfrwt beam="1">  1       -5 0.19128779E-01 0.16523331E+03</pdfrwt>
<totfact> 0.47863889E+01</totfact>
</mgrwt>
</event>
<event>
 8    1  0.1821556E-007  0.1502756E+03  0.7546771E-02  0.1200137E+00
          5   -1    0    0  501    0  0.00000000000E+00  0.00000000000E+00  0.26334782916E+03  0.26338976655E+03  0.47000000000E+01 0.  1.
         -5   -1    0    0    0  501 -0.00000000000E+00 -0.00000000000E+00 -0.85818223490E+02  0.85946829395E+02  0.47000000000E+01 0.  1.
         25    2    1    2    0    0  0.26843982354E+02 -0.78957043697E+02  0.80710840536E+02  0.17057843369E+03  0.12501179194E+03 0.  0.
         25    2    1    2    0    0 -0.26843982354E+02  0.78957043697E+02  0.96818765135E+02  0.17875816225E+03  0.12500317257E+03 0.  0.
          5    1    3    3  502    0 -0.36274560954E+02 -0.78486702060E+02  0.40536400730E+02  0.95610124761E+02  0.47000000000E+01 0.  1.
         -5    1    3    3    0  502  0.63118543308E+02 -0.47034163635E+00  0.40174439806E+02  0.74968308934E+02  0.47000000000E+01 0.  1.
          5    1    4    4  503    0 -0.33941002603E+02  0.10579629109E+03  0.45364271702E+02  0.12010351374E+03  0.47000000000E+01 0. -1.
         -5    1    4    4    0  503  0.70970202489E+01 -0.26839247395E+02  0.51454493433E+02  0.58654648508E+02  0.47000000000E+01 0. -1.
<mgrwt>
<rscale>  0 0.15027383E+03</rscale>
<asrwt>0</asrwt>
<pdfrwt beam="1">  1        5 0.40528169E-01 0.15027562E+03</pdfrwt>
<pdfrwt beam="2">  1       -5 0.13215923E-01 0.15027562E+03</pdfrwt>
<totfact> 0.21583406E+02</totfact>
</mgrwt>
</event>
<event>
 8    1  0.1821556E-007  0.2147284E+03  0.7546771E-02  0.1137876E+00
         -5   -1    0    0    0  501 -0.00000000000E+00  0.00000000000E+00  0.95443427719E+02  0.95559080651E+02  0.47000000000E+01 0. -1.
          5   -1    0    0  501    0  0.00000000000E+00 -0.00000000000E+00 -0.48522096302E+03  0.48524372531E+03  0.47000000000E+01 0. -1.
         25    2    1    2    0    0  0.17157581314E+03 -0.32327884308E+02 -0.17383317271E+03  0.27627205445E+03  0.12499969750E+03 0.  0.
         25    2    1    2    0    0 -0.17157581314E+03  0.32327884308E+02 -0.21594436258E+03  0.30453075151E+03  0.12499463638E+03 0.  0.
          5    1    4    4  502    0 -0.57117530480E+02  0.33866236848E+02 -0.79107943447E+01  0.67037339994E+02  0.47000000000E+01 0. -1.
         -5    1    4    4    0  502 -0.11445828266E+03 -0.15383525399E+01 -0.20803356824E+03  0.23749341151E+03  0.47000000000E+01 0. -1.
          5    1    3    3  503    0  0.27290788162E+02 -0.23866233289E+02 -0.11409639863E+03  0.11981010972E+03  0.47000000000E+01 0.  1.
         -5    1    3    3    0  503  0.14428502498E+03 -0.84616510191E+01 -0.59736774082E+02  0.15646194473E+03  0.47000000000E+01 0.  1.
<mgrwt>
<rscale>  0 0.21472764E+03</rscale>
<asrwt>0</asrwt>
<pdfrwt beam="2">  1        5 0.74660025E-01 0.21472838E+03</pdfrwt>
<pdfrwt beam="1">  1       -5 0.14694252E-01 0.21472838E+03</pdfrwt>
<totfact> 0.52512066E+01</totfact>
</mgrwt>
</event>
<event>
 8    1  0.1821556E-007  0.1343812E+03  0.7546771E-02  0.1221096E+00
         -5   -1    0    0    0  501 -0.00000000000E+00  0.00000000000E+00  0.50199331641E+03  0.50201531821E+03  0.47000000000E+01 0.  1.
          5   -1    0    0  501    0  0.00000000000E+00 -0.00000000000E+00 -0.39144457244E+02  0.39425607579E+02  0.47000000000E+01 0.  1.
         25    2    1    2    0    0  0.40995236646E+02 -0.27438590907E+02  0.31027940038E+03  0.33812895283E+03  0.12499758695E+03 0.  0.
         25    2    1    2    0    0 -0.40995236646E+02  0.27438590907E+02  0.15256945879E+03  0.20331197296E+03  0.12499933158E+03 0.  0.
          5    1    4    4  502    0 -0.78568720094E+01  0.45117830289E+02  0.15845274671E+03  0.16500518776E+03  0.47000000000E+01 0. -1.
         -5    1    4    4    0  502 -0.33138364637E+02 -0.17679239382E+02 -0.58832879193E+01  0.38306785204E+02  0.47000000000E+01 0. -1.
          5    1    3    3  503    0 -0.21237691527E+02 -0.28628432352E+01  0.13268795332E+01  0.21979217959E+02  0.47000000000E+01 0.  1.
         -5    1    3    3    0  503  0.62232928174E+02 -0.24575747672E+02  0.30895252084E+03  0.31614973487E+03  0.47000000000E+01 0.  1.
<mgrwt>
<rscale>  0 0.13438084E+03</rscale>
<asrwt>0</asrwt>
<pdfrwt beam="2">  1        5 0.60455440E-02 0.13438124E+03</pdfrwt>
<pdfrwt beam="1">  1       -5 0.77253055E-01 0.13438124E+03</pdfrwt>
<totfact> 0.19924330E+02</totfact>
</mgrwt>
</event>
<event>
 8    1  0.1821556E-007  0.1470982E+03  0.7546771E-02  0.1204085E+00
          5   -1    0    0  501    0  0.00000000000E+00  0.00000000000E+00  0.38545034023E+03  0.38547899396E+03  0.47000000000E+01 0. -1.
         -5   -1    0    0    0  501 -0.00000000000E+00 -0.00000000000E+00 -0.57137739855E+02  0.57330718779E+02  0.47000000000E+01 0. -1.
         25    2    1    2    0    0 -0.46552325578E+02  0.62009917871E+02  0.13307377538E+03  0.19835955319E+03  0.12500213485E+03 0.  0.
         25    2    1    2    0    0  0.46552325578E+02 -0.62009917871E+02  0.19523882500E+03  0.24445015955E+03  0.12500133113E+03 0.  0.
          5    1    3    3  502    0 -0.55187530525E+02  0.14860265506E+02  0.13848876894E+03  0.14989236184E+03  0.47000000000E+01 0. -1.
         -5    1    3    3    0  502  0.86352049468E+01  0.47149652364E+02 -0.54149935549E+01  0.48467191354E+02  0.47000000000E+01 0. -1.
          5    1    4    4  503    0 -0.32251087309E+02 -0.58250744076E+02  0.73283923126E+02  0.99125704067E+02  0.47000000000E+01 0.  1.
         -5    1    4    4    0  503  0.78803412887E+02 -0.37591737943E+01  0.12195490187E+03  0.14532445548E+03  0.47000000000E+01 0.  1.
<mgrwt>
<rscale>  0 0.14709804E+03</rscale>
<asrwt>0</asrwt>
<pdfrwt beam="1">  1        5 0.59317101E-01 0.14709821E+03</pdfrwt>
<pdfrwt beam="2">  1       -5 0.88074701E-02 0.14709821E+03</pdfrwt>
<totfact> 0.19538510E+02</totfact>
</mgrwt>
</event>
<event>
 8    1  0.1821556E-007  0.1435681E+03  0.7546771E-02  0.1208607E+00
          5   -1    0    0  501    0  0.00000000000E+00  0.00000000000E+00  0.47198772227E+03  0.47201112273E+03  0.47000000000E+01 0.  1.
         -5   -1    0    0    0  501 -0.00000000000E+00 -0.00000000000E+00 -0.45005003965E+02  0.45249755601E+02  0.47000000000E+01 0.  1.
         25    2    1    2    0    0  0.10721977096E+02  0.69795746653E+02  0.16663037893E+03  0.21994768210E+03  0.12499957053E+03 0.  0.
         25    2    1    2    0    0 -0.10721977096E+02 -0.69795746653E+02  0.26035233938E+03  0.29731319623E+03  0.12500155595E+03 0.  0.
          5    1    4    4  502    0 -0.17791170666E+01 -0.10263845802E+03  0.15068992344E+03  0.18239342463E+03  0.47000000000E+01 0.  1.
         -5    1    4    4    0  502 -0.89428600290E+01  0.32842711366E+02  0.10966241594E+03  0.11491977160E+03  0.47000000000E+01 0.  1.
          5    1    3    3  503    0  0.64586586364E+02  0.15285946197E+02  0.70890182210E+02  0.97224457947E+02  0.47000000000E+01 0. -1.
         -5    1    3    3    0  503 -0.53864609269E+02  0.54509800456E+02  0.95740196722E+02  0.12272322415E+03  0.47000000000E+01 0. -1.
<mgrwt>
<rscale>  0 0.14356766E+03</rscale>
<asrwt>0</asrwt>
<pdfrwt beam="1">  1        5 0.72634129E-01 0.14356809E+03</pdfrwt>
<pdfrwt beam="2">  1       -5 0.69444732E-02 0.14356809E+03</pdfrwt>
<totfact> 0.18548347E+02</totfact>
</mgrwt>
</event>
<event>
 8    1  0.1821556E-007  0.2182647E+03  0.7546771E-02  0.1135184E+00
          5   -1    0    0  501    0  0.00000000000E+00  0.00000000000E+00  0.10760341868E+03  0.10770601521E+03  0.47000000000E+01 0.  1.
         -5   -1    0    0    0  501 -0.00000000000E+00 -0.00000000000E+00 -0.48730891495E+03  0.48733157972E+03  0.47000000000E+01 0.  1.
         25    2    1    2    0    0  0.14691335826E+03  0.10213380966E+03 -0.28016281718E+03  0.35514878997E+03  0.12499843589E+03 0.  0.
         25    2    1    2    0    0 -0.14691335826E+03 -0.10213380966E+03 -0.99542679083E+02  0.23988880496E+03  0.12499217526E+03 0.  0.
          5    1    3    3  502    0  0.12529947431E+03  0.12685568717E+03 -0.26305542706E+03  0.31782474941E+03  0.47000000000E+01 0.  1.
         -5    1    3    3    0  502  0.21613883944E+02 -0.24721877513E+02 -0.17107390127E+02  0.37324040562E+02  0.47000000000E+01 0.  1.
          5    1    4    4  503    0 -0.12484940789E+03 -0.99226379000E+02 -0.24428851674E+02  0.16140665331E+03  0.47000000000E+01 0. -1.
         -5    1    4    4    0  503 -0.22063950368E+02 -0.29074306613E+01 -0.75113827409E+02  0.78482151646E+02  0.47000000000E+01 0. -1.
<mgrwt>
<rscale>  0 0.21826376E+03</rscale>
<asrwt>0</asrwt>
<pdfrwt beam="1">  1        5 0.16564008E-01 0.21826465E+03</pdfrwt>
<pdfrwt beam="2">  1       -5 0.74980237E-01 0.21826465E+03</pdfrwt>
<totfact> 0.41925857E+01</totfact>
</mgrwt>
</event>
<event>
 8    1  0.1821556E-007  0.1879316E+03  0.7546771E-02  0.1160342E+00
         -5   -1    0    0    0  501 -0.00000000000E+00  0.00000000000E+00  0.15969061130E+04  0.15969130295E+04  0.47000000000E+01 0. -1.
          5   -1    0    0  501    0  0.00000000000E+00 -0.00000000000E+00 -0.22395622155E+02  0.22883485130E+02  0.47000000000E+01 0. -1.
         25    2    1    2    0    0 -0.42845606159E+02 -0.13363602597E+03  0.91125264037E+03  0.93042981731E+03  0.12499574777E+03 0.  0.
         25    2    1    2    0    0  0.42845606159E+02  0.13363602597E+03  0.66325785048E+03  0.68936669731E+03  0.12498453396E+03 0.  0.
          5    1    4    4  502    0  0.15091930183E+01  0.17141010882E+02  0.35829325600E+01  0.18193936445E+02  0.47000000000E+01 0.  1.
         -5    1    4    4    0  502  0.41336413140E+02  0.11649501508E+03  0.65967491792E+03  0.67117276087E+03  0.47000000000E+01 0.  1.
          5    1    3    3  503    0 -0.11366065593E+02 -0.86099608544E+02  0.21636705658E+03  0.23319331725E+03  0.47000000000E+01 0. -1.
         -5    1    3    3    0  503 -0.31479540566E+02 -0.47536417422E+02  0.69488558379E+03  0.69723650006E+03  0.47000000000E+01 0. -1.
<mgrwt>
<rscale>  0 0.18792969E+03</rscale>
<asrwt>0</asrwt>
<pdfrwt beam="2">  1        5 0.34835406E-02 0.18793156E+03</pdfrwt>
<pdfrwt beam="1">  1       -5 0.24571590E+00 0.18793156E+03</pdfrwt>
<totfact> 0.22585207E+01</totfact>
</mgrwt>
</event>
<event>
 8    1  0.1821556E-007  0.1679358E+03  0.7546771E-02  0.1180029E+00
          5   -1    0    0  501    0  0.00000000000E+00  0.00000000000E+00  0.60837576006E+03  0.60839391469E+03  0.47000000000E+01 0.  1.
         -5   -1    0    0    0  501 -0.00000000000E+00 -0.00000000000E+00 -0.54318295648E+02  0.54521254957E+02  0.47000000000E+01 0.  1.
         25    2    1    2    0    0  0.10900509853E+03  0.26379769939E+02  0.40480389605E+03  0.43823972169E+03  0.12493940789E+03 0.  0.
         25    2    1    2    0    0 -0.10900509853E+03 -0.26379769939E+02  0.14925356836E+03  0.22467544796E+03  0.12499770189E+03 0.  0.
          5    1    4    4  502    0 -0.98143665823E+02 -0.69962699655E+02  0.12375497305E+03  0.17281302566E+03  0.47000000000E+01 0. -1.
         -5    1    4    4    0  502 -0.10861432706E+02  0.43582929715E+02  0.25498595312E+02  0.51862422291E+02  0.47000000000E+01 0. -1.
          5    1    3    3  503    0  0.15014349618E+02 -0.45759392237E+02  0.13914680385E+03  0.14732031664E+03  0.47000000000E+01 0.  1.
         -5    1    3    3    0  503  0.93990748911E+02  0.72139162177E+02  0.26565709220E+03  0.29091940505E+03  0.47000000000E+01 0.  1.
<mgrwt>
<rscale>  0 0.16792494E+03</rscale>
<asrwt>0</asrwt>
<pdfrwt beam="1">  1        5 0.93613282E-01 0.16793579E+03</pdfrwt>
<pdfrwt beam="2">  1       -5 0.83736694E-02 0.16793579E+03</pdfrwt>
<totfact> 0.78150177E+01</totfact>
</mgrwt>
</event>
<event>
 8    1  0.1821556E-007  0.1264058E+03  0.7546771E-02  0.1232891E+00
         -5   -1    0    0    0  501 -0.00000000000E+00  0.00000000000E+00  0.13891231523E+03  0.13899180308E+03  0.47000000000E+01 0. -1.
          5   -1    0    0  501    0  0.00000000000E+00 -0.00000000000E+00 -0.11599128817E+03  0.11608647178E+03  0.47000000000E+01 0. -1.
         25    2    1    2    0    0  0.18443492354E+02 -0.35762237362E+01 -0.11342230234E+01  0.12640391248E+03  0.12499484326E+03 0.  0.
         25    2    1    2    0    0 -0.18443492354E+02  0.35762237362E+01  0.24055250088E+02  0.12867436238E+03  0.12500193875E+03 0.  0.
          5    1    4    4  502    0 -0.55900953048E+02 -0.31696424021E+02 -0.12172505670E+02  0.65573163273E+02  0.47000000000E+01 0. -1.
         -5    1    4    4    0  502  0.37457460694E+02  0.35272647757E+02  0.36227755759E+02  0.63101199107E+02  0.47000000000E+01 0. -1.
          5    1    3    3  503    0 -0.25219028327E+02  0.49615930878E+02 -0.10372582706E+02  0.56810390411E+02  0.47000000000E+01 0. -1.
         -5    1    3    3    0  503  0.43662520681E+02 -0.53192154614E+02  0.92383596826E+01  0.69593522071E+02  0.47000000000E+01 0. -1.
<mgrwt>
<rscale>  0 0.12640409E+03</rscale>
<asrwt>0</asrwt>
<pdfrwt beam="2">  1        5 0.17858250E-01 0.12640584E+03</pdfrwt>
<pdfrwt beam="1">  1       -5 0.21384562E-01 0.12640584E+03</pdfrwt>
<totfact> 0.41198113E+02</totfact>
</mgrwt>
</event>
<event>
 8    1  0.1821556E-007  0.1396481E+03  0.7546771E-02  0.1213804E+00
          5   -1    0    0  501    0  0.00000000000E+00  0.00000000000E+00  0.73949802766E+03  0.73951296332E+03  0.47000000000E+01 0.  1.
         -5   -1    0    0    0  501 -0.00000000000E+00 -0.00000000000E+00 -0.30932771006E+02  0.31287798294E+02  0.47000000000E+01 0.  1.
         25    2    1    2    0    0  0.40659140341E+02 -0.47148037398E+02  0.20365714427E+03  0.24693687798E+03  0.12500194467E+03 0.  0.
         25    2    1    2    0    0 -0.40659140341E+02  0.47148037398E+02  0.50490811238E+03  0.52386388363E+03  0.12500025398E+03 0.  0.
          5    1    3    3  502    0 -0.23880698830E+02 -0.28886082869E+02  0.61142191265E+01  0.38264438264E+02  0.47000000000E+01 0.  1.
         -5    1    3    3    0  502  0.64539839171E+02 -0.18261954529E+02  0.19754292514E+03  0.20867243972E+03  0.47000000000E+01 0.  1.
          5    1    4    4  503    0 -0.78792265254E+02  0.39175865477E+02  0.23240625802E+03  0.24855125883E+03  0.47000000000E+01 0. -1.
         -5    1    4    4    0  503  0.38133124913E+02  0.79721719204E+01  0.27250185437E+03  0.27531262480E+03  0.47000000000E+01 0. -1.
<mgrwt>
<rscale>  0 0.13964771E+03</rscale>
<asrwt>0</asrwt>
<pdfrwt beam="1">  1        5 0.11379737E+00 0.13964809E+03</pdfrwt>
<pdfrwt beam="2">  1       -5 0.47873471E-02 0.13964809E+03</pdfrwt>
<totfact> 0.11762785E+02</totfact>
</mgrwt>
</event>
<event>
 8    1  0.1821556E-007  0.2082153E+03  0.7546771E-02  0.1142991E+00
         -5   -1    0    0    0  501 -0.00000000000E+00  0.00000000000E+00  0.80777176144E+03  0.80778543474E+03  0.47000000000E+01 0. -1.
          5   -1    0    0  501    0  0.00000000000E+00 -0.00000000000E+00 -0.53555732409E+02  0.53761570604E+02  0.47000000000E+01 0. -1.
         25    2    1    2    0    0 -0.16609977589E+03 -0.11409328037E+02  0.38196272317E+03  0.43502772236E+03  0.12503715054E+03 0.  0.
         25    2    1    2    0    0  0.16609977589E+03  0.11409328037E+02  0.37225330587E+03  0.42651928299E+03  0.12500746665E+03 0.  0.
          5    1    4    4  502    0  0.17929182627E+03  0.31031353997E+02  0.30633151834E+03  0.35632792906E+03  0.47000000000E+01 0. -1.
         -5    1    4    4    0  502 -0.13192050383E+02 -0.19622025960E+02  0.65921787527E+02  0.70191353932E+02  0.47000000000E+01 0. -1.
          5    1    3    3  503    0 -0.68889162042E+02 -0.57306587162E+02  0.24458013630E+03  0.26052119808E+03  0.47000000000E+01 0.  1.
         -5    1    3    3    0  503 -0.97210613845E+02  0.45897259125E+02  0.13738258687E+03  0.17450652427E+03  0.47000000000E+01 0.  1.
<mgrwt>
<rscale>  0 0.20821081E+03</rscale>
<asrwt>0</asrwt>
<pdfrwt beam="2">  1        5 0.82562297E-02 0.20821527E+03</pdfrwt>
<pdfrwt beam="1">  1       -5 0.12428945E+00 0.20821527E+03</pdfrwt>
<totfact> 0.41792916E+01</totfact>
</mgrwt>
</event>
<event>
 8    1  0.1821556E-007  0.1436573E+03  0.7546771E-02  0.1208492E+00
         -5   -1    0    0    0  501 -0.00000000000E+00  0.00000000000E+00  0.29387454444E+03  0.29391212610E+03  0.47000000000E+01 0.  1.
          5   -1    0    0  501    0  0.00000000000E+00 -0.00000000000E+00 -0.73137722130E+02  0.73288583001E+02  0.47000000000E+01 0.  1.
         25    2    1    2    0    0  0.61958082488E+02 -0.34259394319E+02  0.14771554694E+03  0.20605005927E+03  0.12499693609E+03 0.  0.
         25    2    1    2    0    0 -0.61958082488E+02  0.34259394319E+02  0.73021275368E+02  0.16115064984E+03  0.12499966080E+03 0.  0.
          5    1    3    3  502    0  0.35905840465E+02  0.13303289269E+02 -0.94550626564E+01  0.39720210155E+02  0.47000000000E+01 0. -1.
         -5    1    3    3    0  502  0.26052242023E+02 -0.47562683588E+02  0.15717060960E+03  0.16632984911E+03  0.47000000000E+01 0. -1.
          5    1    4    4  503    0  0.15025540246E+02 -0.34638534497E+02  0.32629985647E+02  0.50123855549E+02  0.47000000000E+01 0. -1.
         -5    1    4    4    0  503 -0.76983622734E+02  0.68897928815E+02  0.40391289721E+02  0.11102679429E+03  0.47000000000E+01 0. -1.
<mgrwt>
<rscale>  0 0.14365673E+03</rscale>
<asrwt>0</asrwt>
<pdfrwt beam="2">  1        5 0.11266453E-01 0.14365732E+03</pdfrwt>
<pdfrwt beam="1">  1       -5 0.45225964E-01 0.14365732E+03</pdfrwt>
<totfact> 0.22502385E+02</totfact>
</mgrwt>
</event>
<event>
 8    1  0.1821556E-007  0.1768527E+03  0.7546771E-02  0.1170887E+00
         -5   -1    0    0    0  501 -0.00000000000E+00  0.00000000000E+00  0.94858195336E+02  0.94974560922E+02  0.47000000000E+01 0. -1.
          5   -1    0    0  501    0  0.00000000000E+00 -0.00000000000E+00 -0.40891917278E+03  0.40894618212E+03  0.47000000000E+01 0. -1.
         25    2    1    2    0    0  0.62651460887E+02 -0.10826092723E+03 -0.45911839679E+02  0.18270299908E+03  0.12500741951E+03 0.  0.
         25    2    1    2    0    0 -0.62651460887E+02  0.10826092723E+03 -0.26814913777E+03  0.32121774396E+03  0.12502497764E+03 0.  0.
          5    1    3    3  502    0 -0.37530555004E+02 -0.18126434246E+02 -0.12821389558E+02  0.43858730119E+02  0.47000000000E+01 0. -1.
         -5    1    3    3    0  502  0.10018201589E+03 -0.90134492985E+02 -0.33090450121E+02  0.13884426896E+03  0.47000000000E+01 0. -1.
          5    1    4    4  503    0 -0.63584524643E+02  0.90730964956E+02 -0.27887600081E+03  0.30011500063E+03  0.47000000000E+01 0.  1.
         -5    1    4    4    0  503  0.93306375614E+00  0.17529962275E+02  0.10726863043E+02  0.21102743330E+02  0.47000000000E+01 0.  1.
<mgrwt>
<rscale>  0 0.17684960E+03</rscale>
<asrwt>0</asrwt>
<pdfrwt beam="2">  1        5 0.62921670E-01 0.17685270E+03</pdfrwt>
<pdfrwt beam="1">  1       -5 0.14604598E-01 0.17685270E+03</pdfrwt>
<totfact> 0.74176369E+01</totfact>
</mgrwt>
</event>
<event>
 8    1  0.1821556E-007  0.1403286E+03  0.7546771E-02  0.1212892E+00
          5   -1    0    0  501    0  0.00000000000E+00  0.00000000000E+00  0.44386549192E+03  0.44389037489E+03  0.47000000000E+01 0. -1.
         -5   -1    0    0    0  501 -0.00000000000E+00 -0.00000000000E+00 -0.51815293333E+02  0.52028017675E+02  0.47000000000E+01 0. -1.
         25    2    1    2    0    0 -0.52034139315E+02  0.36825944894E+02  0.10127016010E+03  0.17305420450E+03  0.12501364124E+03 0.  0.
         25    2    1    2    0    0  0.52034139315E+02 -0.36825944894E+02  0.29078003849E+03  0.32286418806E+03  0.12499820511E+03 0.  0.
          5    1    4    4  502    0  0.61429907744E+02 -0.62316669314E+02  0.11319149034E+03  0.14314819009E+03  0.47000000000E+01 0. -1.
         -5    1    4    4    0  502 -0.93957684292E+01  0.25490724420E+02  0.17758854814E+03  0.17971599797E+03  0.47000000000E+01 0. -1.
          5    1    3    3  503    0 -0.84146457038E+02  0.25053439034E+02  0.10653574562E+03  0.13813130034E+03  0.47000000000E+01 0. -1.
         -5    1    3    3    0  503  0.32112317723E+02  0.11772505860E+02 -0.52655855202E+01  0.34922904156E+02  0.47000000000E+01 0. -1.
<mgrwt>
<rscale>  0 0.14032515E+03</rscale>
<asrwt>0</asrwt>
<pdfrwt beam="1">  1        5 0.68305275E-01 0.14032859E+03</pdfrwt>
<pdfrwt beam="2">  1       -5 0.79898612E-02 0.14032859E+03</pdfrwt>
<totfact> 0.16647118E+02</totfact>
</mgrwt>
</event>
<event>
 8    1  0.1821556E-007  0.1267468E+03  0.7546771E-02  0.1232365E+00
          5   -1    0    0  501    0  0.00000000000E+00  0.00000000000E+00  0.62172678675E+01  0.77938706518E+01  0.47000000000E+01 0.  1.
         -5   -1    0    0    0  501 -0.00000000000E+00 -0.00000000000E+00 -0.24269671968E+04  0.24269717477E+04  0.47000000000E+01 0.  1.
         25    2    1    2    0    0 -0.16435855074E+02 -0.13016925352E+02 -0.14978715269E+04  0.15032244857E+04  0.12500066264E+03 0.  0.
         25    2    1    2    0    0  0.16435855074E+02  0.13016925352E+02 -0.92287840202E+03  0.93154113268E+03  0.12499903708E+03 0.  0.
          5    1    3    3  502    0 -0.25601658096E+02 -0.35653056472E+02 -0.18785658361E+03  0.19297349906E+03  0.47000000000E+01 0.  1.
         -5    1    3    3    0  502  0.91658030224E+01  0.22636131120E+02 -0.13100149433E+04  0.13102509867E+04  0.47000000000E+01 0.  1.
          5    1    4    4  503    0 -0.10351807981E+02 -0.49709818417E+02 -0.55703101042E+03  0.55936022611E+03  0.47000000000E+01 0. -1.
         -5    1    4    4    0  503  0.26787663054E+02  0.62726743768E+02 -0.36584739160E+03  0.37218090657E+03  0.47000000000E+01 0. -1.
<mgrwt>
<rscale>  0 0.12674637E+03</rscale>
<asrwt>0</asrwt>
<pdfrwt beam="1">  1        5 0.10781319E-02 0.12674677E+03</pdfrwt>
<pdfrwt beam="2">  1       -5 0.37350053E+00 0.12674677E+03</pdfrwt>
<totfact> 0.19953548E+01</totfact>
</mgrwt>
</event>
<event>
 8    1  0.1821556E-007  0.2038518E+03  0.7546771E-02  0.1146535E+00
          5   -1    0    0  501    0  0.00000000000E+00  0.00000000000E+00  0.31485034946E+02  0.31833903712E+02  0.47000000000E+01 0. -1.
         -5   -1    0    0    0  501 -0.00000000000E+00 -0.00000000000E+00 -0.16918147555E+04  0.16918212839E+04  0.47000000000E+01 0. -1.
         25    2    1    2    0    0 -0.30255320817E+02 -0.15816623459E+03 -0.12384914956E+04  0.12551560649E+04  0.12499448113E+03 0.  0.
         25    2    1    2    0    0  0.30255320817E+02  0.15816623459E+03 -0.42183822489E+03  0.46849912275E+03  0.12494798055E+03 0.  0.
          5    1    4    4  502    0  0.27469308721E+02  0.17942265705E+03 -0.36793384943E+03  0.41029801406E+03  0.47000000000E+01 0.  1.
         -5    1    4    4    0  502  0.27860120956E+01 -0.21256422467E+02 -0.53904375456E+02  0.58201108690E+02  0.47000000000E+01 0.  1.
          5    1    3    3  503    0 -0.49520353914E+02 -0.16345664756E+03 -0.90201275629E+03  0.91805198306E+03  0.47000000000E+01 0.  1.
         -5    1    3    3    0  503  0.19265033097E+02  0.52904129734E+01 -0.33647873933E+03  0.33710408184E+03  0.47000000000E+01 0.  1.
<mgrwt>
<rscale>  0 0.20384469E+03</rscale>
<asrwt>0</asrwt>
<pdfrwt beam="1">  1        5 0.48711911E-02 0.20385182E+03</pdfrwt>
<pdfrwt beam="2">  1       -5 0.26030646E+00 0.20385182E+03</pdfrwt>
<totfact> 0.10640702E+01</totfact>
</mgrwt>
</event>
<event>
 8    1  0.1821556E-007  0.1559981E+03  0.7546771E-02  0.1193290E+00
          5   -1    0    0  501    0  0.00000000000E+00  0.00000000000E+00  0.24931924385E+03  0.24936354055E+03  0.47000000000E+01 0.  1.
         -5   -1    0    0    0  501 -0.00000000000E+00 -0.00000000000E+00 -0.12325723924E+03  0.12334681603E+03  0.47000000000E+01 0.  1.
         25    2    1    2    0    0  0.91775339959E+02  0.16933252106E+02 -0.22111683326E+02  0.15755729422E+03  0.12500370543E+03 0.  0.
         25    2    1    2    0    0 -0.91775339959E+02 -0.16933252106E+02  0.14817368794E+03  0.21515306236E+03  0.12500380152E+03 0.  0.
          5    1    4    4  502    0  0.27126248374E+02  0.12775747848E+02  0.14167648034E+02  0.33494258235E+02  0.47000000000E+01 0.  1.
         -5    1    4    4    0  502 -0.11890158833E+03 -0.29708999954E+02  0.13400603990E+03  0.18165880413E+03  0.47000000000E+01 0.  1.
          5    1    3    3  503    0  0.11710615302E+03  0.11735769673E+02 -0.41515006604E+02  0.12488861093E+03  0.47000000000E+01 0.  1.
         -5    1    3    3    0  503 -0.25330813064E+02  0.51974824332E+01  0.19403323278E+02  0.32668683297E+02  0.47000000000E+01 0.  1.
<mgrwt>
<rscale>  0 0.15599805E+03</rscale>
<asrwt>0</asrwt>
<pdfrwt beam="1">  1        5 0.38367105E-01 0.15599807E+03</pdfrwt>
<pdfrwt beam="2">  1       -5 0.18972950E-01 0.15599807E+03</pdfrwt>
<totfact> 0.12635615E+02</totfact>
</mgrwt>
</event>
<event>
 8    1  0.1821556E-007  0.1334621E+03  0.7546771E-02  0.1222410E+00
         -5   -1    0    0    0  501 -0.00000000000E+00  0.00000000000E+00  0.17466815583E+03  0.17473137858E+03  0.47000000000E+01 0. -1.
          5   -1    0    0  501    0  0.00000000000E+00 -0.00000000000E+00 -0.10207119533E+03  0.10217934682E+03  0.47000000000E+01 0. -1.
         25    2    1    2    0    0 -0.19998896723E+02  0.42249765367E+02  0.42958973231E+02  0.14019732026E+03  0.12499926674E+03 0.  0.
         25    2    1    2    0    0  0.19998896723E+02 -0.42249765367E+02  0.29637987266E+02  0.13671340514E+03  0.12500858495E+03 0.  0.
          5    1    3    3  502    0 -0.52562715101E+02 -0.14637920594E+02  0.49933081484E+02  0.74111472557E+02  0.47000000000E+01 0. -1.
         -5    1    3    3    0  502  0.32563818377E+02  0.56887685961E+02 -0.69741082522E+01  0.66085847708E+02  0.47000000000E+01 0. -1.
          5    1    4    4  503    0 -0.30073236891E+02  0.17695854781E+02  0.44830885252E+02  0.57003869395E+02  0.47000000000E+01 0.  1.
         -5    1    4    4    0  503  0.50072133614E+02 -0.59945620149E+02 -0.15192897986E+02  0.79709535746E+02  0.47000000000E+01 0.  1.
<mgrwt>
<rscale>  0 0.13345997E+03</rscale>
<asrwt>0</asrwt>
<pdfrwt beam="2">  1        5 0.15716444E-01 0.13346215E+03</pdfrwt>
<pdfrwt beam="1">  1       -5 0.26885206E-01 0.13346215E+03</pdfrwt>
<totfact> 0.34328124E+02</totfact>
</mgrwt>
</event>
<event>
 8    1  0.1821556E-007  0.1751180E+03  0.7546771E-02  0.1172614E+00
         -5   -1    0    0    0  501 -0.00000000000E+00  0.00000000000E+00  0.20829295281E+02  0.21352975012E+02  0.47000000000E+01 0. -1.
          5   -1    0    0  501    0  0.00000000000E+00 -0.00000000000E+00 -0.15352090365E+04  0.15352162309E+04  0.47000000000E+01 0. -1.
         25    2    1    2    0    0 -0.10776951660E+03 -0.58532576928E+02 -0.57758237475E+03  0.60354475348E+03  0.12499815425E+03 0.  0.
         25    2    1    2    0    0  0.10776951660E+03  0.58532576928E+02 -0.93679736646E+03  0.95302445247E+03  0.12500387961E+03 0.  0.
          5    1    3    3  502    0 -0.13391558030E+03 -0.62567370539E+02 -0.47400783527E+03  0.49654161598E+03  0.47000000000E+01 0. -1.
         -5    1    3    3    0  502  0.26146063704E+02  0.40347936118E+01 -0.10357453948E+03  0.10700313750E+03  0.47000000000E+01 0. -1.
          5    1    4    4  503    0  0.29393911095E+02  0.44746949084E+02 -0.72054944208E+03  0.72255095318E+03  0.47000000000E+01 0.  1.
         -5    1    4    4    0  503  0.78375605502E+02  0.13785627843E+02 -0.21624792439E+03  0.23047349929E+03  0.47000000000E+01 0.  1.
<mgrwt>
<rscale>  0 0.17511694E+03</rscale>
<asrwt>0</asrwt>
<pdfrwt beam="2">  1        5 0.23622675E+00 0.17511796E+03</pdfrwt>
<pdfrwt beam="1">  1       -5 0.32453446E-02 0.17511796E+03</pdfrwt>
<totfact> 0.28712640E+01</totfact>
</mgrwt>
</event>
<event>
 8    1  0.1821556E-007  0.1386048E+03  0.7546771E-02  0.1215220E+00
          5   -1    0    0  501    0  0.00000000000E+00  0.00000000000E+00  0.87334333936E+03  0.87335598607E+03  0.47000000000E+01 0.  1.
         -5   -1    0    0    0  501 -0.00000000000E+00 -0.00000000000E+00 -0.26721319144E+02  0.27131511141E+02  0.47000000000E+01 0.  1.
         25    2    1    2    0    0 -0.42995591233E+02  0.41677291841E+02  0.23045058889E+03  0.26891919552E+03  0.12499776909E+03 0.  0.
         25    2    1    2    0    0  0.42995591233E+02 -0.41677291841E+02  0.61617143132E+03  0.63156830169E+03  0.12500267758E+03 0.  0.
          5    1    4    4  502    0  0.52997540473E+01 -0.53634337291E+02  0.98598777755E+02  0.11246572146E+03  0.47000000000E+01 0.  1.
         -5    1    4    4    0  502  0.37695837185E+02  0.11957045450E+02  0.51757265357E+03  0.51910258023E+03  0.47000000000E+01 0.  1.
          5    1    3    3  503    0 -0.84549679767E+02  0.84159549389E+01  0.14567697590E+03  0.16871084124E+03  0.47000000000E+01 0.  1.
         -5    1    3    3    0  503  0.41554088534E+02  0.33261336902E+02  0.84773612992E+02  0.10020835427E+03  0.47000000000E+01 0.  1.
<mgrwt>
<rscale>  0 0.13860368E+03</rscale>
<asrwt>0</asrwt>
<pdfrwt beam="1">  1        5 0.13439304E+00 0.13860479E+03</pdfrwt>
<pdfrwt beam="2">  1       -5 0.41434984E-02 0.13860479E+03</pdfrwt>
<totfact> 0.97166075E+01</totfact>
</mgrwt>
</event>
<event>
 8    1  0.1821556E-007  0.1285883E+03  0.7546771E-02  0.1229574E+00
          5   -1    0    0  501    0  0.00000000000E+00  0.00000000000E+00  0.70101274794E+02  0.70258655892E+02  0.47000000000E+01 0. -1.
         -5   -1    0    0    0  501 -0.00000000000E+00 -0.00000000000E+00 -0.28349504162E+03  0.28353399906E+03  0.47000000000E+01 0. -1.
         25    2    1    2    0    0 -0.30080051474E+02  0.17442371891E+00 -0.17953395756E+03  0.22082110467E+03  0.12499871371E+03 0.  0.
         25    2    1    2    0    0  0.30080051474E+02 -0.17442371891E+00 -0.33859809263E+02  0.13297155028E+03  0.12502042466E+03 0.  0.
          5    1    3    3  502    0  0.38983865409E+02 -0.32428506042E+02 -0.86332975824E+02  0.10023383900E+03  0.47000000000E+01 0. -1.
         -5    1    3    3    0  502 -0.69063916882E+02  0.32602929761E+02 -0.93200981740E+02  0.12058726567E+03  0.47000000000E+01 0. -1.
          5    1    4    4  503    0 -0.34180110875E+02 -0.23965648242E+02 -0.47004829096E+02  0.63041067833E+02  0.47000000000E+01 0.  1.
         -5    1    4    4    0  503  0.64260162349E+02  0.23791224524E+02  0.13145019833E+02  0.69930482451E+02  0.47000000000E+01 0.  1.
<mgrwt>
<rscale>  0 0.12858301E+03</rscale>
<asrwt>0</asrwt>
<pdfrwt beam="1">  1        5 0.10799915E-01 0.12858828E+03</pdfrwt>
<pdfrwt beam="2">  1       -5 0.43629724E-01 0.12858828E+03</pdfrwt>
<totfact> 0.25144762E+02</totfact>
</mgrwt>
</event>
<event>
 8    1  0.1821556E-007  0.1677606E+03  0.7546771E-02  0.1180208E+00
          5   -1    0    0  501    0  0.00000000000E+00  0.00000000000E+00  0.78359277492E+03  0.78360687012E+03  0.47000000000E+01 0. -1.
         -5   -1    0    0    0  501 -0.00000000000E+00 -0.00000000000E+00 -0.40948687799E+02  0.41217533071E+02  0.47000000000E+01 0. -1.
         25    2    1    2    0    0  0.46118047112E+02  0.10191332518E+03  0.22482288901E+03  0.28050611788E+03  0.12500060250E+03 0.  0.
         25    2    1    2    0    0 -0.46118047112E+02 -0.10191332518E+03  0.51782119811E+03  0.54431828532E+03  0.12502160774E+03 0.  0.
          5    1    4    4  502    0 -0.37344391755E+01 -0.12075539036E+03  0.38631744866E+03  0.40479509813E+03  0.47000000000E+01 0. -1.
         -5    1    4    4    0  502 -0.42383607936E+02  0.18842065180E+02  0.13150374946E+03  0.13952318719E+03  0.47000000000E+01 0. -1.
          5    1    3    3  503    0 -0.14384694410E+02  0.62321556474E+02  0.18918181646E+03  0.19975671582E+03  0.47000000000E+01 0. -1.
         -5    1    3    3    0  503  0.60502741521E+02  0.39591768702E+02  0.35641072549E+02  0.80749402060E+02  0.47000000000E+01 0. -1.
<mgrwt>
<rscale>  0 0.16775664E+03</rscale>
<asrwt>0</asrwt>
<pdfrwt beam="1">  1        5 0.12057450E+00 0.16776055E+03</pdfrwt>
<pdfrwt beam="2">  1       -5 0.63215626E-02 0.16776055E+03</pdfrwt>
<totfact> 0.67423826E+01</totfact>
</mgrwt>
</event>
<event>
 8    1  0.1821556E-007  0.1315935E+03  0.7546771E-02  0.1225116E+00
         -5   -1    0    0    0  501 -0.00000000000E+00  0.00000000000E+00  0.14750198490E+03  0.14757684625E+03  0.47000000000E+01 0.  1.
          5   -1    0    0  501    0  0.00000000000E+00 -0.00000000000E+00 -0.11793419891E+03  0.11802781568E+03  0.47000000000E+01 0.  1.
         25    2    1    2    0    0  0.20598615418E+02  0.35586190067E+02  0.25009110995E+02  0.13393222820E+03  0.12498682426E+03 0.  0.
         25    2    1    2    0    0 -0.20598615418E+02 -0.35586190067E+02  0.45586749890E+01  0.13167243372E+03  0.12500467353E+03 0.  0.
          5    1    3    3  502    0  0.31250471665E+02  0.73098527513E+02  0.43252295367E+02  0.90624708321E+02  0.47000000000E+01 0. -1.
         -5    1    3    3    0  502 -0.10651856247E+02 -0.37512337446E+02 -0.18243184372E+02  0.43307519881E+02  0.47000000000E+01 0. -1.
          5    1    4    4  503    0  0.51707657036E+02 -0.20717208740E+02 -0.85487164412E+01  0.56551349117E+02  0.47000000000E+01 0. -1.
         -5    1    4    4    0  503 -0.72306272454E+02 -0.14868981326E+02  0.13107391430E+02  0.75121084603E+02  0.47000000000E+01 0. -1.
<mgrwt>
<rscale>  0 0.13158926E+03</rscale>
<asrwt>0</asrwt>
<pdfrwt beam="2">  1        5 0.18156683E-01 0.13159350E+03</pdfrwt>
<pdfrwt beam="1">  1       -5 0.22705573E-01 0.13159350E+03</pdfrwt>
<totfact> 0.36224700E+02</totfact>
</mgrwt>
</event>
<event>
 8    1  0.1821556E-007  0.1285580E+03  0.7546771E-02  0.1229613E+00
         -5   -1    0    0    0  501 -0.00000000000E+00  0.00000000000E+00  0.71706359911E+02  0.71860225798E+02  0.47000000000E+01 0. -1.
          5   -1    0    0  501    0  0.00000000000E+00 -0.00000000000E+00 -0.27838962834E+03  0.27842930013E+03  0.47000000000E+01 0. -1.
         25    2    1    2    0    0  0.12747517889E+02 -0.27168305416E+02 -0.30386750179E+02  0.13210041407E+03  0.12500619496E+03 0.  0.
         25    2    1    2    0    0 -0.12747517889E+02  0.27168305416E+02 -0.17629651825E+03  0.21818911186E+03  0.12500164060E+03 0.  0.
          5    1    4    4  502    0 -0.10538115323E+02 -0.45161418302E+02 -0.31526419658E+02  0.56272646233E+02  0.47000000000E+01 0.  1.
         -5    1    4    4    0  502 -0.22094025656E+01  0.72329723718E+02 -0.14477009859E+03  0.16191646562E+03  0.47000000000E+01 0.  1.
          5    1    3    3  503    0  0.83185188756E+01  0.47003175083E+02  0.75256700499E+01  0.48551229994E+02  0.47000000000E+01 0.  1.
         -5    1    3    3    0  503  0.44289990134E+01 -0.74171480499E+02 -0.37912420229E+02  0.83549184073E+02  0.47000000000E+01 0.  1.
<mgrwt>
<rscale>  0 0.12855691E+03</rscale>
<asrwt>0</asrwt>
<pdfrwt beam="2">  1        5 0.42844060E-01 0.12855802E+03</pdfrwt>
<pdfrwt beam="1">  1       -5 0.11046635E-01 0.12855802E+03</pdfrwt>
<totfact> 0.25090076E+02</totfact>
</mgrwt>
</event>
<event>
 8    1  0.1821556E-007  0.1452065E+03  0.7546771E-02  0.1206506E+00
         -5   -1    0    0    0  501 -0.00000000000E+00  0.00000000000E+00  0.95223127209E+02  0.95339047380E+02  0.47000000000E+01 0.  1.
          5   -1    0    0  501    0  0.00000000000E+00 -0.00000000000E+00 -0.22308099180E+03  0.22313049748E+03  0.47000000000E+01 0.  1.
         25    2    1    2    0    0  0.48253417679E+02  0.55968190080E+02 -0.48852879637E+02  0.15320423532E+03  0.12499641296E+03 0.  0.
         25    2    1    2    0    0 -0.48253417679E+02 -0.55968190080E+02 -0.79004984958E+02  0.16526530954E+03  0.12494000268E+03 0.  0.
          5    1    3    3  502    0  0.83901117772E+02  0.13531747698E+02 -0.47702874723E+02  0.97571307339E+02  0.47000000000E+01 0. -1.
         -5    1    3    3    0  502 -0.35647700093E+02  0.42436442382E+02 -0.11500049136E+01  0.55632927977E+02  0.47000000000E+01 0. -1.
          5    1    4    4  503    0 -0.81960534632E+02 -0.62966830981E+02 -0.79560385989E+02  0.13051550122E+03  0.47000000000E+01 0. -1.
         -5    1    4    4    0  503  0.33707116953E+02  0.69986409016E+01  0.55540103064E+00  0.34749808317E+02  0.47000000000E+01 0. -1.
<mgrwt>
<rscale>  0 0.14519438E+03</rscale>
<asrwt>0</asrwt>
<pdfrwt beam="2">  1        5 0.34332878E-01 0.14520652E+03</pdfrwt>
<pdfrwt beam="1">  1       -5 0.14662437E-01 0.14520652E+03</pdfrwt>
<totfact> 0.24772573E+02</totfact>
</mgrwt>
</event>
<event>
 8    1  0.1821556E-007  0.1269044E+03  0.7546771E-02  0.1232127E+00
          5   -1    0    0  501    0  0.00000000000E+00  0.00000000000E+00  0.10807917960E+03  0.10818132492E+03  0.47000000000E+01 0.  1.
         -5   -1    0    0    0  501 -0.00000000000E+00 -0.00000000000E+00 -0.17562266103E+03  0.17568554029E+03  0.47000000000E+01 0.  1.
         25    2    1    2    0    0  0.92186079492E+00  0.21845909083E+02 -0.89227889611E+02  0.15512312902E+03  0.12499390106E+03 0.  0.
         25    2    1    2    0    0 -0.92186079492E+00 -0.21845909083E+02  0.21684408176E+02  0.12874373620E+03  0.12500656975E+03 0.  0.
          5    1    3    3  502    0 -0.51882328357E+02 -0.12047773391E+02 -0.10757709791E+02  0.54541206068E+02  0.47000000000E+01 0.  1.
         -5    1    3    3    0  502  0.52804189152E+02  0.33893682473E+02 -0.78470179819E+02  0.10058192295E+03  0.47000000000E+01 0.  1.
          5    1    4    4  503    0  0.22005435493E+01 -0.28185661126E+02 -0.49423117988E+02  0.57131501614E+02  0.47000000000E+01 0. -1.
         -5    1    4    4    0  503 -0.31224043443E+01  0.63397520436E+01  0.71107526164E+02  0.71612234583E+02  0.47000000000E+01 0. -1.
<mgrwt>
<rscale>  0 0.12690132E+03</rscale>
<asrwt>0</asrwt>
<pdfrwt beam="1">  1        5 0.16640260E-01 0.12690444E+03</pdfrwt>
<pdfrwt beam="2">  1       -5 0.27031565E-01 0.12690444E+03</pdfrwt>
<totfact> 0.30057477E+02</totfact>
</mgrwt>
</event>
<event>
 8    1  0.1821556E-007  0.2069192E+03  0.7546771E-02  0.1144036E+00
         -5   -1    0    0    0  501 -0.00000000000E+00  0.00000000000E+00  0.30853558815E+03  0.30857138421E+03  0.47000000000E+01 0. -1.
          5   -1    0    0  501    0  0.00000000000E+00 -0.00000000000E+00 -0.13874942088E+03  0.13882900200E+03  0.47000000000E+01 0. -1.
         25    2    1    2    0    0 -0.61308121972E+02  0.15302646472E+03  0.90453141235E+02  0.22582587363E+03  0.12505906492E+03 0.  0.
         25    2    1    2    0    0  0.61308121972E+02 -0.15302646472E+03  0.79333026030E+02  0.22157451258E+03  0.12500300348E+03 0.  0.
          5    1    4    4  502    0  0.28031241086E+01 -0.12789481592E+03  0.11669050908E+02  0.12854259292E+03  0.47000000000E+01 0. -1.
         -5    1    4    4    0  502  0.58504997863E+02 -0.25131648800E+02  0.67663975122E+02  0.93031919660E+02  0.47000000000E+01 0. -1.
          5    1    3    3  503    0 -0.23249644542E+02  0.13693289401E+03  0.11245942829E+03  0.17877465269E+03  0.47000000000E+01 0. -1.
         -5    1    3    3    0  503 -0.38058477430E+02  0.16093570711E+02 -0.22006287052E+02  0.47051220944E+02  0.47000000000E+01 0. -1.
<mgrwt>
<rscale>  0 0.20691073E+03</rscale>
<asrwt>0</asrwt>
<pdfrwt beam="2">  1        5 0.21354940E-01 0.20691920E+03</pdfrwt>
<pdfrwt beam="1">  1       -5 0.47475888E-01 0.20691920E+03</pdfrwt>
<totfact> 0.70531849E+01</totfact>
</mgrwt>
</event>
<event>
 8    1  0.1821556E-007  0.1382275E+03  0.7546771E-02  0.1215736E+00
         -5   -1    0    0    0  501 -0.00000000000E+00  0.00000000000E+00  0.10415685963E+03  0.10426284769E+03  0.47000000000E+01 0.  1.
          5   -1    0    0  501    0  0.00000000000E+00 -0.00000000000E+00 -0.28960390826E+03  0.28964204405E+03  0.47000000000E+01 0.  1.
         25    2    1    2    0    0  0.24683825751E+02 -0.53571424859E+02  0.26622794245E+02  0.14076370577E+03  0.12500583535E+03 0.  0.
         25    2    1    2    0    0 -0.24683825751E+02  0.53571424859E+02 -0.21206984287E+03  0.25314118598E+03  0.12501061141E+03 0.  0.
          5    1    3    3  502    0  0.69743171320E+02 -0.87939680348E+01 -0.29961282704E+01  0.70516030831E+02  0.47000000000E+01 0.  1.
         -5    1    3    3    0  502 -0.45059345569E+02 -0.44777456824E+02  0.29618922515E+02  0.70247674934E+02  0.47000000000E+01 0.  1.
          5    1    4    4  503    0  0.45410747877E+01  0.81326361667E+02 -0.19039006889E+03  0.20713538277E+03  0.47000000000E+01 0. -1.
         -5    1    4    4    0  503 -0.29224900538E+02 -0.27754936808E+02 -0.21679773980E+02  0.46005803205E+02  0.47000000000E+01 0. -1.
<mgrwt>
<rscale>  0 0.13822642E+03</rscale>
<asrwt>0</asrwt>
<pdfrwt beam="2">  1        5 0.44565534E-01 0.13822750E+03</pdfrwt>
<pdfrwt beam="1">  1       -5 0.16035219E-01 0.13822750E+03</pdfrwt>
<totfact> 0.12169609E+02</totfact>
</mgrwt>
</event>
<event>
 8    1  0.1821556E-007  0.1416864E+03  0.7546771E-02  0.1211080E+00
         -5   -1    0    0    0  501 -0.00000000000E+00  0.00000000000E+00  0.37119812782E+02  0.37416179668E+02  0.47000000000E+01 0.  1.
          5   -1    0    0  501    0  0.00000000000E+00 -0.00000000000E+00 -0.64635223284E+03  0.64636932082E+03  0.47000000000E+01 0.  1.
         25    2    1    2    0    0  0.66414494786E+02 -0.60782066552E+01 -0.16487513832E+03  0.21738605813E+03  0.12500022927E+03 0.  0.
         25    2    1    2    0    0 -0.66414494786E+02  0.60782066552E+01 -0.44435728174E+03  0.46639944236E+03  0.12500886483E+03 0.  0.
          5    1    4    4  502    0 -0.33696290278E+02 -0.24393538622E+02 -0.40345261765E+03  0.40561877347E+03  0.47000000000E+01 0. -1.
         -5    1    4    4    0  502 -0.32718204508E+02  0.30471745277E+02 -0.40904664094E+02  0.60780668893E+02  0.47000000000E+01 0. -1.
          5    1    3    3  503    0  0.98859915905E+02 -0.21777075096E+02 -0.96425842221E+02  0.13988408423E+03  0.47000000000E+01 0.  1.
         -5    1    3    3    0  503 -0.32445421119E+02  0.15698868440E+02 -0.68449296098E+02  0.77501973899E+02  0.47000000000E+01 0.  1.
<mgrwt>
<rscale>  0 0.14168453E+03</rscale>
<asrwt>0</asrwt>
<pdfrwt beam="2">  1        5 0.99462909E-01 0.14168644E+03</pdfrwt>
<pdfrwt beam="1">  1       -5 0.57348528E-02 0.14168644E+03</pdfrwt>
<totfact> 0.12200441E+02</totfact>
</mgrwt>
</event>
<event>
 8    1  0.1821556E-007  0.1451591E+03  0.7546771E-02  0.1206551E+00
         -5   -1    0    0    0  501 -0.00000000000E+00  0.00000000000E+00  0.22378690895E+04  0.22378740250E+04  0.47000000000E+01 0. -1.
          5   -1    0    0  501    0  0.00000000000E+00 -0.00000000000E+00 -0.89035332872E+01  0.10067914630E+02  0.47000000000E+01 0. -1.
         25    2    1    2    0    0  0.68939645803E+01 -0.73478294857E+02  0.12143645648E+04  0.12230095836E+04  0.12499823503E+03 0.  0.
         25    2    1    2    0    0 -0.68939645803E+01  0.73478294857E+02  0.10146009914E+04  0.10249323560E+04  0.12499830437E+03 0.  0.
          5    1    4    4  502    0  0.58327237481E+02  0.39579826872E+02  0.44117321375E+03  0.44679360320E+03  0.47000000000E+01 0. -1.
         -5    1    4    4    0  502 -0.65221202061E+02  0.33898467985E+02  0.57342777768E+03  0.57813875285E+03  0.47000000000E+01 0. -1.
          5    1    3    3  503    0  0.59223139404E+02 -0.45463391460E+02  0.89654212178E+03  0.89965780513E+03  0.47000000000E+01 0.  1.
         -5    1    3    3    0  503 -0.52329174823E+02 -0.28014903397E+02  0.31782244304E+03  0.32335177848E+03  0.47000000000E+01 0.  1.
<mgrwt>
<rscale>  0 0.14515908E+03</rscale>
<asrwt>0</asrwt>
<pdfrwt beam="2">  1        5 0.14597217E-02 0.14515909E+03</pdfrwt>
<pdfrwt beam="1">  1       -5 0.34437752E+00 0.14515909E+03</pdfrwt>
<totfact> 0.20049080E+01</totfact>
</mgrwt>
</event>
<event>
 8    1  0.1821556E-007  0.1355379E+03  0.7546771E-02  0.1219464E+00
         -5   -1    0    0    0  501 -0.00000000000E+00  0.00000000000E+00  0.11484337870E+02  0.12408868454E+02  0.47000000000E+01 0.  1.
          5   -1    0    0  501    0  0.00000000000E+00 -0.00000000000E+00 -0.15429201472E+04  0.15429273057E+04  0.47000000000E+01 0.  1.
         25    2    1    2    0    0  0.13014937845E+02  0.50749038302E+02 -0.71653284840E+03  0.72923851057E+03  0.12499851590E+03 0.  0.
         25    2    1    2    0    0 -0.13014937845E+02 -0.50749038302E+02 -0.81490296096E+03  0.82609766359E+03  0.12500264204E+03 0.  0.
          5    1    4    4  502    0  0.55155065115E+02 -0.24020200741E+02 -0.30160756267E+03  0.30758456254E+03  0.47000000000E+01 0.  1.
         -5    1    4    4    0  502 -0.68170002960E+02 -0.26728837561E+02 -0.51329539829E+03  0.51851310105E+03  0.47000000000E+01 0.  1.
          5    1    3    3  503    0 -0.38470079890E+02  0.68647551753E+02 -0.48238445036E+03  0.48878347083E+03  0.47000000000E+01 0.  1.
         -5    1    3    3    0  503  0.51485017735E+02 -0.17898513450E+02 -0.23414839804E+03  0.24045503974E+03  0.47000000000E+01 0.  1.
<mgrwt>
<rscale>  0 0.13553692E+03</rscale>
<asrwt>0</asrwt>
<pdfrwt beam="2">  1        5 0.23744384E+00 0.13553787E+03</pdfrwt>
<pdfrwt beam="1">  1       -5 0.18384908E-02 0.13553787E+03</pdfrwt>
<totfact> 0.65652423E+01</totfact>
</mgrwt>
</event>
<event>
 8    1  0.1821556E-007  0.1254178E+03  0.7546771E-02  0.1234418E+00
          5   -1    0    0  501    0  0.00000000000E+00  0.00000000000E+00  0.39155989327E+02  0.39437057448E+02  0.47000000000E+01 0. -1.
         -5   -1    0    0    0  501 -0.00000000000E+00 -0.00000000000E+00 -0.40766100435E+03  0.40768809703E+03  0.47000000000E+01 0. -1.
         25    2    1    2    0    0 -0.12621166457E+01 -0.10150692925E+02 -0.21491934797E+03  0.24883718391E+03  0.12499995384E+03 0.  0.
         25    2    1    2    0    0  0.12621166457E+01  0.10150692925E+02 -0.15358566705E+03  0.19828797057E+03  0.12499973058E+03 0.  0.
          5    1    3    3  502    0  0.14038568725E+02 -0.17165703671E+02  0.88883504414E+01  0.24348214882E+02  0.47000000000E+01 0. -1.
         -5    1    3    3    0  502 -0.15300685371E+02  0.70150107457E+01 -0.22380769841E+03  0.22448896903E+03  0.47000000000E+01 0. -1.
          5    1    4    4  503    0  0.40777871146E+02 -0.23330625872E+02 -0.13507029535E+03  0.14308468669E+03  0.47000000000E+01 0.  1.
         -5    1    4    4    0  503 -0.39515754501E+02  0.33481318797E+02 -0.18515371699E+02  0.55203283881E+02  0.47000000000E+01 0.  1.
<mgrwt>
<rscale>  0 0.12541772E+03</rscale>
<asrwt>0</asrwt>
<pdfrwt beam="1">  1        5 0.60477033E-02 0.12541777E+03</pdfrwt>
<pdfrwt beam="2">  1       -5 0.62740779E-01 0.12541777E+03</pdfrwt>
<totfact> 0.31019525E+02</totfact>
</mgrwt>
</event>
<event>
 8    1  0.1821556E-007  0.1274738E+03  0.7546771E-02  0.1231256E+00
         -5   -1    0    0    0  501 -0.00000000000E+00  0.00000000000E+00  0.81277062617E+02  0.81412842400E+02  0.47000000000E+01 0.  1.
          5   -1    0    0  501    0  0.00000000000E+00 -0.00000000000E+00 -0.20039381904E+03  0.20044892793E+03  0.47000000000E+01 0.  1.
         25    2    1    2    0    0 -0.10935005286E+01  0.24945405499E+02 -0.50623926829E+02  0.13715816565E+03  0.12500444567E+03 0.  0.
         25    2    1    2    0    0  0.10935005286E+01 -0.24945405499E+02 -0.68492829590E+02  0.14470360468E+03  0.12499758599E+03 0.  0.
          5    1    4    4  502    0  0.43221723606E+02  0.22592740525E+02  0.28336528271E+01  0.49078191737E+02  0.47000000000E+01 0. -1.
         -5    1    4    4    0  502 -0.42128223077E+02 -0.47538146024E+02 -0.71326482417E+02  0.95625412945E+02  0.47000000000E+01 0. -1.
          5    1    3    3  503    0  0.24828863219E+02 -0.72294118461E+00  0.35457999708E+02  0.43547156463E+02  0.47000000000E+01 0. -1.
         -5    1    3    3    0  503 -0.25922363748E+02  0.25668346684E+02 -0.86081926537E+02  0.93611009182E+02  0.47000000000E+01 0. -1.
<mgrwt>
<rscale>  0 0.12747216E+03</rscale>
<asrwt>0</asrwt>
<pdfrwt beam="2">  1        5 0.30844502E-01 0.12747384E+03</pdfrwt>
<pdfrwt beam="1">  1       -5 0.12518847E-01 0.12747384E+03</pdfrwt>
<totfact> 0.38865381E+02</totfact>
</mgrwt>
</event>
<event>
 8    1  0.1821556E-007  0.1512615E+03  0.7546771E-02  0.1198932E+00
          5   -1    0    0  501    0  0.00000000000E+00  0.00000000000E+00  0.33713666610E+02  0.34039702059E+02  0.47000000000E+01 0.  1.
         -5   -1    0    0    0  501 -0.00000000000E+00 -0.00000000000E+00 -0.67650829596E+03  0.67652462224E+03  0.47000000000E+01 0.  1.
         25    2    1    2    0    0  0.76533625634E+02 -0.37376180092E+02 -0.33787972205E+03  0.37019284148E+03  0.12500263444E+03 0.  0.
         25    2    1    2    0    0 -0.76533625634E+02  0.37376180092E+02 -0.30491490730E+03  0.34037148283E+03  0.12500108374E+03 0.  0.
          5    1    4    4  502    0 -0.44632434222E+02 -0.26726847271E+02 -0.39667544729E+02  0.65589501099E+02  0.47000000000E+01 0. -1.
         -5    1    4    4    0  502 -0.31901191412E+02  0.64103027363E+02 -0.26524736257E+03  0.27478198173E+03  0.47000000000E+01 0. -1.
          5    1    3    3  503    0  0.36035933139E+02 -0.61561894340E+02 -0.77111345960E+02  0.10515086775E+03  0.47000000000E+01 0.  1.
         -5    1    3    3    0  503  0.40497692495E+02  0.24185714248E+02 -0.26076837609E+03  0.26504197373E+03  0.47000000000E+01 0.  1.
<mgrwt>
<rscale>  0 0.15126115E+03</rscale>
<asrwt>0</asrwt>
<pdfrwt beam="1">  1        5 0.52130540E-02 0.15126147E+03</pdfrwt>
<pdfrwt beam="2">  1       -5 0.10410452E+00 0.15126147E+03</pdfrwt>
<totfact> 0.13063489E+02</totfact>
</mgrwt>
</event>
<event>
 8    1  0.1821556E-007  0.1358129E+03  0.7546771E-02  0.1219077E+00
          5   -1    0    0  501    0  0.00000000000E+00  0.00000000000E+00  0.24504990332E+03  0.24509497163E+03  0.47000000000E+01 0. -1.
         -5   -1    0    0    0  501 -0.00000000000E+00 -0.00000000000E+00 -0.89774046072E+02  0.89896992988E+02  0.47000000000E+01 0. -1.
         25    2    1    2    0    0 -0.45941880586E+02 -0.26631003593E+02  0.10089395523E+02  0.13618488411E+03  0.12499864005E+03 0.  0.
         25    2    1    2    0    0  0.45941880586E+02  0.26631003593E+02  0.14518646173E+03  0.19880708051E+03  0.12500111938E+03 0.  0.
          5    1    4    4  502    0  0.57719667682E+02  0.69871832567E+02  0.97137647789E+02  0.13293398979E+03  0.47000000000E+01 0.  1.
         -5    1    4    4    0  502 -0.11777787097E+02 -0.43240828974E+02  0.48048813940E+02  0.65873090715E+02  0.47000000000E+01 0.  1.
          5    1    3    3  503    0  0.20904775544E+02 -0.28539253652E+02  0.47501251145E+02  0.59413445447E+02  0.47000000000E+01 0. -1.
         -5    1    3    3    0  503 -0.66846656130E+02  0.19082500586E+01 -0.37411855621E+02  0.76771438668E+02  0.47000000000E+01 0. -1.
<mgrwt>
<rscale>  0 0.13581234E+03</rscale>
<asrwt>0</asrwt>
<pdfrwt beam="1">  1        5 0.37712909E-01 0.13581291E+03</pdfrwt>
<pdfrwt beam="2">  1       -5 0.13824316E-01 0.13581291E+03</pdfrwt>
<totfact> 0.22291785E+02</totfact>
</mgrwt>
</event>
<event>
 8    1  0.1821556E-007  0.1294895E+03  0.7546771E-02  0.1228217E+00
          5   -1    0    0  501    0  0.00000000000E+00  0.00000000000E+00  0.72621793722E+02  0.72773724127E+02  0.47000000000E+01 0. -1.
         -5   -1    0    0    0  501 -0.00000000000E+00 -0.00000000000E+00 -0.25261823993E+03  0.25266195825E+03  0.47000000000E+01 0. -1.
         25    2    1    2    0    0  0.19848838997E+01  0.33720997273E+02 -0.13816771225E+03  0.18935784609E+03  0.12500012698E+03 0.  0.
         25    2    1    2    0    0 -0.19848838997E+01 -0.33720997273E+02 -0.41828733962E+02  0.13607783629E+03  0.12500595635E+03 0.  0.
          5    1    4    4  502    0 -0.11512546161E+02 -0.80378531153E+02 -0.30803462764E+02  0.86972353697E+02  0.47000000000E+01 0.  1.
         -5    1    4    4    0  502  0.95276622618E+01  0.46657533880E+02 -0.11025271199E+02  0.49105482595E+02  0.47000000000E+01 0.  1.
          5    1    3    3  503    0  0.46106662160E+02  0.33410448805E+02 -0.15924883409E+02  0.59310827819E+02  0.47000000000E+01 0.  1.
         -5    1    3    3    0  503 -0.44121778261E+02  0.31054846737E+00 -0.12224282884E+03  0.13004701827E+03  0.47000000000E+01 0.  1.
<mgrwt>
<rscale>  0 0.12948811E+03</rscale>
<asrwt>0</asrwt>
<pdfrwt beam="1">  1        5 0.11187634E-01 0.12948952E+03</pdfrwt>
<pdfrwt beam="2">  1       -5 0.38879394E-01 0.12948952E+03</pdfrwt>
<totfact> 0.30016700E+02</totfact>
</mgrwt>
</event>
<event>
 8    1  0.1821556E-007  0.1304781E+03  0.7546771E-02  0.1226750E+00
          5   -1    0    0  501    0  0.00000000000E+00  0.00000000000E+00  0.41485567957E+03  0.41488230243E+03  0.47000000000E+01 0.  1.
         -5   -1    0    0    0  501 -0.00000000000E+00 -0.00000000000E+00 -0.41203543242E+02  0.41470736378E+02  0.47000000000E+01 0.  1.
         25    2    1    2    0    0  0.13771493816E+01  0.37368861394E+02  0.16645603362E+03  0.21149645184E+03  0.12499923868E+03 0.  0.
         25    2    1    2    0    0 -0.13771493816E+01 -0.37368861394E+02  0.20719610271E+03  0.24485658697E+03  0.12500477936E+03 0.  0.
          5    1    3    3  502    0  0.25126237695E+02  0.44463815907E+02  0.17690544803E+03  0.18419008195E+03  0.47000000000E+01 0.  1.
         -5    1    3    3    0  502 -0.23749088314E+02 -0.70949545134E+01 -0.10449414410E+02  0.27306369894E+02  0.47000000000E+01 0.  1.
          5    1    4    4  503    0  0.10613884326E+02 -0.34263692452E+02  0.22203573552E+03  0.22496358152E+03  0.47000000000E+01 0.  1.
         -5    1    4    4    0  503 -0.11991033708E+02 -0.31051689413E+01 -0.14839632817E+02  0.19893005446E+02  0.47000000000E+01 0.  1.
<mgrwt>
<rscale>  0 0.13047673E+03</rscale>
<asrwt>0</asrwt>
<pdfrwt beam="1">  1        5 0.63846554E-01 0.13047806E+03</pdfrwt>
<pdfrwt beam="2">  1       -5 0.63616076E-02 0.13047806E+03</pdfrwt>
<totfact> 0.27807294E+02</totfact>
</mgrwt>
</event>
<event>
 8    1  0.1821556E-007  0.1424460E+03  0.7546771E-02  0.1210081E+00
         -5   -1    0    0    0  501 -0.00000000000E+00  0.00000000000E+00  0.27874014148E+02  0.28267484230E+02  0.47000000000E+01 0. -1.
          5   -1    0    0  501    0  0.00000000000E+00 -0.00000000000E+00 -0.74656735548E+03  0.74658214971E+03  0.47000000000E+01 0. -1.
         25    2    1    2    0    0 -0.64927719276E+02  0.21187300286E+02 -0.28961620324E+03  0.32275132021E+03  0.12500543625E+03 0.  0.
         25    2    1    2    0    0  0.64927719276E+02 -0.21187300286E+02 -0.42907713809E+03  0.45209831373E+03  0.12498473676E+03 0.  0.
          5    1    3    3  502    0 -0.10153135089E+03  0.19946971426E+02 -0.23511394221E+03  0.25691857213E+03  0.47000000000E+01 0.  1.
         -5    1    3    3    0  502  0.36603631609E+02  0.12403288598E+01 -0.54502261029E+02  0.65832748081E+02  0.47000000000E+01 0.  1.
          5    1    4    4  503    0 -0.32532119244E+02  0.16167547550E+02 -0.14025930995E+03  0.14496376238E+03  0.47000000000E+01 0.  1.
         -5    1    4    4    0  503  0.97459838521E+02 -0.37354847836E+02 -0.28881782814E+03  0.30713455135E+03  0.47000000000E+01 0.  1.
<mgrwt>
<rscale>  0 0.14244148E+03</rscale>
<asrwt>0</asrwt>
<pdfrwt beam="2">  1        5 0.11488791E+00 0.14244602E+03</pdfrwt>
<pdfrwt beam="1">  1       -5 0.43197154E-02 0.14244602E+03</pdfrwt>
<totfact> 0.13697197E+02</totfact>
</mgrwt>
</event>
<event>
 8    1  0.1821556E-007  0.1276522E+03  0.7546771E-02  0.1230984E+00
         -5   -1    0    0    0  501 -0.00000000000E+00  0.00000000000E+00  0.27723386153E+03  0.27727369868E+03  0.47000000000E+01 0.  1.
          5   -1    0    0  501    0  0.00000000000E+00 -0.00000000000E+00 -0.64258979203E+02  0.64430632530E+02  0.47000000000E+01 0.  1.
         25    2    1    2    0    0  0.20117099494E+02  0.16310432036E+02  0.15693535146E+03  0.20229305732E+03  0.12499219422E+03 0.  0.
         25    2    1    2    0    0 -0.20117099494E+02 -0.16310432036E+02  0.56039530862E+02  0.13941127388E+03  0.12499738550E+03 0.  0.
          5    1    3    3  502    0  0.43570242391E+02 -0.41359290799E+02  0.10508741979E+03  0.12113799055E+03  0.47000000000E+01 0. -1.
         -5    1    3    3    0  502 -0.23453142898E+02  0.57669722834E+02  0.51847931675E+02  0.81155066770E+02  0.47000000000E+01 0. -1.
          5    1    4    4  503    0  0.10860358900E+02 -0.51332249704E+02 -0.14513426861E+02  0.54641347113E+02  0.47000000000E+01 0. -1.
         -5    1    4    4    0  503 -0.30977458393E+02  0.35021817668E+02  0.70552957723E+02  0.84769926771E+02  0.47000000000E+01 0. -1.
<mgrwt>
<rscale>  0 0.12765089E+03</rscale>
<asrwt>0</asrwt>
<pdfrwt beam="2">  1        5 0.99022651E-02 0.12765216E+03</pdfrwt>
<pdfrwt beam="1">  1       -5 0.42667632E-01 0.12765216E+03</pdfrwt>
<totfact> 0.30561319E+02</totfact>
</mgrwt>
</event>
<event>
 8    1  0.1821556E-007  0.1652843E+03  0.7546771E-02  0.1182860E+00
         -5   -1    0    0    0  501 -0.00000000000E+00  0.00000000000E+00  0.42141593054E+02  0.42402875671E+02  0.47000000000E+01 0.  1.
          5   -1    0    0  501    0  0.00000000000E+00 -0.00000000000E+00 -0.69067599016E+03  0.69069198156E+03  0.47000000000E+01 0.  1.
         25    2    1    2    0    0  0.17406734150E+02 -0.10670787705E+03 -0.23101081574E+03  0.28405088028E+03  0.12501735953E+03 0.  0.
         25    2    1    2    0    0 -0.17406734150E+02  0.10670787705E+03 -0.41752358137E+03  0.44904397694E+03  0.12499994725E+03 0.  0.
          5    1    3    3  502    0 -0.48631488742E+02 -0.73025724863E+02 -0.15227925679E+03  0.17580910169E+03  0.47000000000E+01 0. -1.
         -5    1    3    3    0  502  0.66038222892E+02 -0.33682152184E+02 -0.78731558949E+02  0.10824177859E+03  0.47000000000E+01 0. -1.
          5    1    4    4  503    0  0.50998620503E+02  0.71679181701E+02 -0.23320148108E+03  0.24928655231E+03  0.47000000000E+01 0. -1.
         -5    1    4    4    0  503 -0.68405354653E+02  0.35028695346E+02 -0.18432210029E+03  0.19975742463E+03  0.47000000000E+01 0. -1.
<mgrwt>
<rscale>  0 0.16528102E+03</rscale>
<asrwt>0</asrwt>
<pdfrwt beam="2">  1        5 0.10627916E+00 0.16528432E+03</pdfrwt>
<pdfrwt beam="1">  1       -5 0.65046513E-02 0.16528432E+03</pdfrwt>
<totfact> 0.87877529E+01</totfact>
</mgrwt>
</event>
<event>
 8    1  0.1821556E-007  0.1278251E+03  0.7546771E-02  0.1230722E+00
          5   -1    0    0  501    0  0.00000000000E+00  0.00000000000E+00  0.39643625553E+02  0.39921260589E+02  0.47000000000E+01 0.  1.
         -5   -1    0    0    0  501 -0.00000000000E+00 -0.00000000000E+00 -0.56496482154E+03  0.56498437109E+03  0.47000000000E+01 0.  1.
         25    2    1    2    0    0  0.45587850072E+01  0.26321749671E+02 -0.42081055157E+03  0.43979434262E+03  0.12499570578E+03 0.  0.
         25    2    1    2    0    0 -0.45587850072E+01 -0.26321749671E+02 -0.10451064441E+03  0.16511128905E+03  0.12500258378E+03 0.  0.
          5    1    4    4  502    0 -0.27572970909E+02  0.31640010901E+02  0.12427879325E+01  0.42249183855E+02  0.47000000000E+01 0. -1.
         -5    1    4    4    0  502  0.23014185902E+02 -0.57961760572E+02 -0.10575343234E+03  0.12286210520E+03  0.47000000000E+01 0. -1.
          5    1    3    3  503    0  0.33187068495E+02  0.18776885794E+02 -0.40320274855E+03  0.40502901056E+03  0.47000000000E+01 0. -1.
         -5    1    3    3    0  503 -0.28628283488E+02  0.75448638771E+01 -0.17607803024E+02  0.34765332067E+02  0.47000000000E+01 0. -1.
<mgrwt>
<rscale>  0 0.12782344E+03</rscale>
<asrwt>0</asrwt>
<pdfrwt beam="1">  1        5 0.61218801E-02 0.12782513E+03</pdfrwt>
<pdfrwt beam="2">  1       -5 0.86940519E-01 0.12782513E+03</pdfrwt>
<totfact> 0.14573864E+02</totfact>
</mgrwt>
</event>
<event>
 8    1  0.1821556E-007  0.1318415E+03  0.7546771E-02  0.1224750E+00
          5   -1    0    0  501    0  0.00000000000E+00  0.00000000000E+00  0.65372323461E+03  0.65374012992E+03  0.47000000000E+01 0.  1.
         -5   -1    0    0    0  501 -0.00000000000E+00 -0.00000000000E+00 -0.37639237922E+02  0.37931546651E+02  0.47000000000E+01 0.  1.
         25    2    1    2    0    0 -0.40802522667E+02  0.95568216306E+01  0.11967928931E+03  0.17805721297E+03  0.12500024042E+03 0.  0.
         25    2    1    2    0    0  0.40802522667E+02 -0.95568216306E+01  0.49640470738E+03  0.51361446360E+03  0.12500402001E+03 0.  0.
          5    1    4    4  502    0 -0.43194833849E+02 -0.41557504922E+01  0.11501152255E+03  0.12301546347E+03  0.47000000000E+01 0. -1.
         -5    1    4    4    0  502  0.83997356516E+02 -0.54010711384E+01  0.38139318483E+03  0.39059900013E+03  0.47000000000E+01 0. -1.
          5    1    3    3  503    0 -0.71954676455E+02 -0.32018535645E+02  0.62450627746E+02  0.10062222913E+03  0.47000000000E+01 0.  1.
         -5    1    3    3    0  503  0.31152153788E+02  0.41575357276E+02  0.57228661561E+02  0.77434983840E+02  0.47000000000E+01 0.  1.
<mgrwt>
<rscale>  0 0.13184061E+03</rscale>
<asrwt>0</asrwt>
<pdfrwt beam="1">  1        5 0.10059659E+00 0.13184151E+03</pdfrwt>
<pdfrwt beam="2">  1       -5 0.58144370E-02 0.13184151E+03</pdfrwt>
<totfact> 0.11331950E+02</totfact>
</mgrwt>
</event>
<event>
 8    1  0.1821556E-007  0.1253622E+03  0.7546771E-02  0.1234506E+00
         -5   -1    0    0    0  501 -0.00000000000E+00  0.00000000000E+00  0.89886521328E+03  0.89887750091E+03  0.47000000000E+01 0.  1.
          5   -1    0    0  501    0  0.00000000000E+00 -0.00000000000E+00 -0.17222172108E+02  0.17851980622E+02  0.47000000000E+01 0.  1.
         25    2    1    2    0    0  0.94637381130E+01 -0.96002735552E+00  0.46894998147E+03  0.48541607959E+03  0.12499680483E+03 0.  0.
         25    2    1    2    0    0 -0.94637381130E+01  0.96002735552E+00  0.41269305970E+03  0.43131340194E+03  0.12500082069E+03 0.  0.
          5    1    4    4  502    0 -0.21922662235E+02  0.94616592164E+01  0.41467732642E+03  0.41539078127E+03  0.47000000000E+01 0. -1.
         -5    1    4    4    0  502  0.12458924122E+02 -0.85016318608E+01 -0.19842667187E+01  0.15922620669E+02  0.47000000000E+01 0. -1.
          5    1    3    3  503    0 -0.43603647919E+01 -0.32581879609E+02  0.43666067075E+03  0.43792148045E+03  0.47000000000E+01 0. -1.
         -5    1    3    3    0  503  0.13824102905E+02  0.31621852253E+02  0.32289310712E+02  0.47494599138E+02  0.47000000000E+01 0. -1.
<mgrwt>
<rscale>  0 0.12536123E+03</rscale>
<asrwt>0</asrwt>
<pdfrwt beam="2">  1        5 0.26989571E-02 0.12536223E+03</pdfrwt>
<pdfrwt beam="1">  1       -5 0.13833634E+00 0.12536223E+03</pdfrwt>
<totfact> 0.17468368E+02</totfact>
</mgrwt>
</event>
<event>
 8    1  0.1821556E-007  0.1439059E+03  0.7546771E-02  0.1208170E+00
         -5   -1    0    0    0  501 -0.00000000000E+00  0.00000000000E+00  0.13543863430E+03  0.13552015961E+03  0.47000000000E+01 0. -1.
          5   -1    0    0  501    0  0.00000000000E+00 -0.00000000000E+00 -0.16827540634E+03  0.16834103000E+03  0.47000000000E+01 0. -1.
         25    2    1    2    0    0  0.65954597995E+02  0.27104052235E+02  0.29736250215E+02  0.14693988981E+03  0.12498979157E+03 0.  0.
         25    2    1    2    0    0 -0.65954597995E+02 -0.27104052235E+02 -0.62573022262E+02  0.15692129979E+03  0.12499709025E+03 0.  0.
          5    1    4    4  502    0  0.31469173352E+02 -0.29310291749E+02 -0.34693838171E+02  0.55454075421E+02  0.47000000000E+01 0. -1.
         -5    1    4    4    0  502 -0.97423771347E+02  0.22062395143E+01 -0.27879184091E+02  0.10146722437E+03  0.47000000000E+01 0. -1.
          5    1    3    3  503    0 -0.20257357359E+02 -0.28210228121E+02 -0.10809194335E+02  0.36675689223E+02  0.47000000000E+01 0. -1.
         -5    1    3    3    0  503  0.86211955354E+02  0.55314280356E+02  0.40545444550E+02  0.11026420059E+03  0.47000000000E+01 0. -1.
<mgrwt>
<rscale>  0 0.14390433E+03</rscale>
<asrwt>0</asrwt>
<pdfrwt beam="2">  1        5 0.25899843E-01 0.14390591E+03</pdfrwt>
<pdfrwt beam="1">  1       -5 0.20848032E-01 0.14390591E+03</pdfrwt>
<totfact> 0.22465809E+02</totfact>
</mgrwt>
</event>
<event>
 8    1  0.1821556E-007  0.1258082E+03  0.7546771E-02  0.1233812E+00
          5   -1    0    0  501    0  0.00000000000E+00  0.00000000000E+00  0.10928695061E+03  0.10938796814E+03  0.47000000000E+01 0. -1.
         -5   -1    0    0    0  501 -0.00000000000E+00 -0.00000000000E+00 -0.16857274689E+03  0.16863825484E+03  0.47000000000E+01 0. -1.
         25    2    1    2    0    0 -0.83350870752E+01 -0.11550128564E+02 -0.82018402033E+02  0.15018069231E+03  0.12499737167E+03 0.  0.
         25    2    1    2    0    0  0.83350870752E+01  0.11550128564E+02  0.22732605747E+02  0.12784553067E+03  0.12499931680E+03 0.  0.
          5    1    3    3  502    0  0.30546570530E+02  0.46467105816E+02 -0.36150173753E+02  0.66492179664E+02  0.47000000000E+01 0. -1.
         -5    1    3    3    0  502 -0.38881657605E+02 -0.58017234380E+02 -0.45868228280E+02  0.83688512645E+02  0.47000000000E+01 0. -1.
          5    1    4    4  503    0  0.48891421676E+02  0.49729483785E+02  0.13583417637E+02  0.71203875637E+02  0.47000000000E+01 0. -1.
         -5    1    4    4    0  503 -0.40556334601E+02 -0.38179355221E+02  0.91491881097E+01  0.56641655029E+02  0.47000000000E+01 0. -1.
<mgrwt>
<rscale>  0 0.12580774E+03</rscale>
<asrwt>0</asrwt>
<pdfrwt beam="1">  1        5 0.16826187E-01 0.12580822E+03</pdfrwt>
<pdfrwt beam="2">  1       -5 0.25947079E-01 0.12580822E+03</pdfrwt>
<totfact> 0.31769860E+02</totfact>
</mgrwt>
</event>
<event>
 8    1  0.1821556E-007  0.1621126E+03  0.7546771E-02  0.1186333E+00
          5   -1    0    0  501    0  0.00000000000E+00  0.00000000000E+00  0.48344637372E+03  0.48346921956E+03  0.47000000000E+01 0.  1.
         -5   -1    0    0    0  501 -0.00000000000E+00 -0.00000000000E+00 -0.67943388935E+02  0.68105756732E+02  0.47000000000E+01 0.  1.
         25    2    1    2    0    0 -0.10151349231E+03 -0.18624927390E+02  0.33144618271E+03  0.36896599334E+03  0.12500982029E+03 0.  0.
         25    2    1    2    0    0  0.10151349231E+03  0.18624927390E+02  0.84056802077E+02  0.18260898295E+03  0.12501446971E+03 0.  0.
          5    1    3    3  502    0 -0.25689310472E+02 -0.49523421834E+02  0.47529865720E+02  0.73441732810E+02  0.47000000000E+01 0. -1.
         -5    1    3    3    0  502 -0.75824181840E+02  0.30898494444E+02  0.28391631699E+03  0.29552426053E+03  0.47000000000E+01 0. -1.
          5    1    4    4  503    0  0.12431621960E+03  0.24064544277E+01  0.90067447688E+02  0.15360517117E+03  0.47000000000E+01 0. -1.
         -5    1    4    4    0  503 -0.22802727288E+02  0.16218472962E+02 -0.60106456103E+01  0.29003811778E+02  0.47000000000E+01 0. -1.
<mgrwt>
<rscale>  0 0.16211170E+03</rscale>
<asrwt>0</asrwt>
<pdfrwt beam="1">  1        5 0.74390613E-01 0.16211260E+03</pdfrwt>
<pdfrwt beam="2">  1       -5 0.10467076E-01 0.16211260E+03</pdfrwt>
<totfact> 0.89885315E+01</totfact>
</mgrwt>
</event>
<event>
 8    1  0.1821556E-007  0.1313339E+03  0.7546771E-02  0.1225493E+00
          5   -1    0    0  501    0  0.00000000000E+00  0.00000000000E+00  0.52550593111E+02  0.52760352883E+02  0.47000000000E+01 0.  1.
         -5   -1    0    0    0  501 -0.00000000000E+00 -0.00000000000E+00 -0.32822342193E+03  0.32825707107E+03  0.47000000000E+01 0.  1.
         25    2    1    2    0    0 -0.23593058938E+02 -0.32664927835E+02 -0.14781343095E+03  0.19773064517E+03  0.12499987092E+03 0.  0.
         25    2    1    2    0    0  0.23593058938E+02  0.32664927835E+02 -0.12785939787E+03  0.18328677878E+03  0.12498955041E+03 0.  0.
          5    1    4    4  502    0  0.67475129357E+02  0.11877929040E+02 -0.11310512950E+03  0.13232096810E+03  0.47000000000E+01 0.  1.
         -5    1    4    4    0  502 -0.43882070419E+02  0.20786998795E+02 -0.14754268375E+02  0.50965810682E+02  0.47000000000E+01 0.  1.
          5    1    3    3  503    0  0.34152426325E+02 -0.58480571571E+02 -0.78163583589E+02  0.10352778021E+03  0.47000000000E+01 0. -1.
         -5    1    3    3    0  503 -0.57745485262E+02  0.25815643735E+02 -0.69649847358E+02  0.94202864960E+02  0.47000000000E+01 0. -1.
<mgrwt>
<rscale>  0 0.13133146E+03</rscale>
<asrwt>0</asrwt>
<pdfrwt beam="1">  1        5 0.81034306E-02 0.13133392E+03</pdfrwt>
<pdfrwt beam="2">  1       -5 0.50514634E-01 0.13133392E+03</pdfrwt>
<totfact> 0.30672873E+02</totfact>
</mgrwt>
</event>
<event>
 8    1  0.1821556E-007  0.1455439E+03  0.7546771E-02  0.1206066E+00
         -5   -1    0    0    0  501 -0.00000000000E+00  0.00000000000E+00  0.34374952986E+03  0.34378165931E+03  0.47000000000E+01 0.  1.
          5   -1    0    0  501    0  0.00000000000E+00 -0.00000000000E+00 -0.63548367092E+02  0.63721934685E+02  0.47000000000E+01 0.  1.
         25    2    1    2    0    0 -0.72046378063E+02  0.18909000838E+02  0.17673214171E+03  0.22894820868E+03  0.12503919961E+03 0.  0.
         25    2    1    2    0    0  0.72046378063E+02 -0.18909000838E+02  0.10346902106E+03  0.17855538532E+03  0.12501182505E+03 0.  0.
          5    1    3    3  502    0 -0.32941134572E+02  0.61390581969E+02  0.14935824326E+03  0.16487539759E+03  0.47000000000E+01 0.  1.
         -5    1    3    3    0  502 -0.39105243492E+02 -0.42481581132E+02  0.27373898451E+02  0.64072811085E+02  0.47000000000E+01 0.  1.
          5    1    4    4  503    0  0.92047621893E+02 -0.36430756671E+02  0.11264461844E+03  0.15003621160E+03  0.47000000000E+01 0. -1.
         -5    1    4    4    0  503 -0.20001243830E+02  0.17521755833E+02 -0.91755973843E+01  0.28519173718E+02  0.47000000000E+01 0. -1.
<mgrwt>
<rscale>  0 0.14553804E+03</rscale>
<asrwt>0</asrwt>
<pdfrwt beam="2">  1        5 0.97924946E-02 0.14554392E+03</pdfrwt>
<pdfrwt beam="1">  1       -5 0.52900366E-01 0.14554392E+03</pdfrwt>
<totfact> 0.20749611E+02</totfact>
</mgrwt>
</event>
<event>
 8    1  0.1821556E-007  0.1676463E+03  0.7546771E-02  0.1180335E+00
         -5   -1    0    0    0  501 -0.00000000000E+00  0.00000000000E+00  0.71354516947E+03  0.71356064835E+03  0.47000000000E+01 0. -1.
          5   -1    0    0  501    0  0.00000000000E+00 -0.00000000000E+00 -0.39231958874E+02  0.39512486598E+02  0.47000000000E+01 0. -1.
         25    2    1    2    0    0 -0.10959335844E+03 -0.21581741446E+02  0.34287264269E+03  0.38164596737E+03  0.12496207236E+03 0.  0.
         25    2    1    2    0    0  0.10959335844E+03  0.21581741446E+02  0.33144056790E+03  0.37142716757E+03  0.12501525899E+03 0.  0.
          5    1    4    4  502    0  0.54492902011E+02  0.16879921489E+01  0.26363311072E+02  0.60740759444E+02  0.47000000000E+01 0. -1.
         -5    1    4    4    0  502  0.55100456433E+02  0.19893749297E+02  0.30507725683E+03  0.31068640813E+03  0.47000000000E+01 0. -1.
          5    1    3    3  503    0 -0.26057184703E+02  0.31803904873E+02  0.24342372826E+02  0.48011523144E+02  0.47000000000E+01 0.  1.
         -5    1    3    3    0  503 -0.83536173742E+02 -0.53385646319E+02  0.31853026987E+03  0.33363444423E+03  0.47000000000E+01 0.  1.
<mgrwt>
<rscale>  0 0.16763641E+03</rscale>
<asrwt>0</asrwt>
<pdfrwt beam="2">  1        5 0.60584566E-02 0.16764633E+03</pdfrwt>
<pdfrwt beam="1">  1       -5 0.10979893E+00 0.16764633E+03</pdfrwt>
<totfact> 0.91747358E+01</totfact>
</mgrwt>
</event>
<event>
 8    1  0.1821556E-007  0.1253168E+03  0.7546771E-02  0.1234578E+00
         -5   -1    0    0    0  501 -0.00000000000E+00  0.00000000000E+00  0.19904445765E+02  0.20451820487E+02  0.47000000000E+01 0.  1.
          5   -1    0    0  501    0  0.00000000000E+00 -0.00000000000E+00 -0.82369091463E+03  0.82370432368E+03  0.47000000000E+01 0.  1.
         25    2    1    2    0    0 -0.56746689384E+01 -0.67572600278E+01 -0.30216947319E+03  0.32712237337E+03  0.12499917678E+03 0.  0.
         25    2    1    2    0    0  0.56746689384E+01  0.67572600278E+01 -0.50161699567E+03  0.51703377080E+03  0.12500578934E+03 0.  0.
          5    1    3    3  502    0  0.47155266868E+02 -0.26316975084E+02 -0.22515141282E+03  0.23158465205E+03  0.47000000000E+01 0. -1.
         -5    1    3    3    0  502 -0.52829935807E+02  0.19559715056E+02 -0.77018060377E+02  0.95537721318E+02  0.47000000000E+01 0. -1.
          5    1    4    4  503    0  0.19879922310E+01 -0.24826377292E+01 -0.50537516622E+03  0.50540702828E+03  0.47000000000E+01 0.  1.
         -5    1    4    4    0  503  0.36866767074E+01  0.92398977570E+01  0.37581705482E+01  0.11626742518E+02  0.47000000000E+01 0.  1.
<mgrwt>
<rscale>  0 0.12531519E+03</rscale>
<asrwt>0</asrwt>
<pdfrwt beam="2">  1        5 0.12676479E+00 0.12531684E+03</pdfrwt>
<pdfrwt beam="1">  1       -5 0.31053603E-02 0.12531684E+03</pdfrwt>
<totfact> 0.17504271E+02</totfact>
</mgrwt>
</event>
<event>
 8    1  0.1821556E-007  0.1365773E+03  0.7546771E-02  0.1218019E+00
         -5   -1    0    0    0  501 -0.00000000000E+00  0.00000000000E+00  0.63862170244E+02  0.64034887275E+02  0.47000000000E+01 0. -1.
          5   -1    0    0  501    0  0.00000000000E+00 -0.00000000000E+00 -0.30862007756E+03  0.30865586383E+03  0.47000000000E+01 0. -1.
         25    2    1    2    0    0  0.48849423971E+02 -0.25191405384E+02 -0.78446870840E+02  0.15750324924E+03  0.12502995181E+03 0.  0.
         25    2    1    2    0    0 -0.48849423971E+02  0.25191405384E+02 -0.16631103648E+03  0.21518750186E+03  0.12500170788E+03 0.  0.
          5    1    3    3  502    0  0.60260350541E+02  0.30460827722E+02 -0.99871410843E+01  0.68417869449E+02  0.47000000000E+01 0. -1.
         -5    1    3    3    0  502 -0.11410926570E+02 -0.55652233106E+02 -0.68459729756E+02  0.89085379795E+02  0.47000000000E+01 0. -1.
          5    1    4    4  503    0  0.17401810384E+02  0.52674132479E+02 -0.35794932649E+02  0.66187267963E+02  0.47000000000E+01 0. -1.
         -5    1    4    4    0  503 -0.66251234355E+02 -0.27482727095E+02 -0.13051610383E+03  0.14900023390E+03  0.47000000000E+01 0. -1.
<mgrwt>
<rscale>  0 0.13657085E+03</rscale>
<asrwt>0</asrwt>
<pdfrwt beam="2">  1        5 0.47496050E-01 0.13657731E+03</pdfrwt>
<pdfrwt beam="1">  1       -5 0.98409882E-02 0.13657731E+03</pdfrwt>
<totfact> 0.25310763E+02</totfact>
</mgrwt>
</event>
<event>
 8    1  0.1821556E-007  0.1440301E+03  0.7546771E-02  0.1208007E+00
         -5   -1    0    0    0  501 -0.00000000000E+00  0.00000000000E+00  0.19291105851E+04  0.19291163106E+04  0.47000000000E+01 0. -1.
          5   -1    0    0  501    0  0.00000000000E+00 -0.00000000000E+00 -0.10797410497E+02  0.11775995646E+02  0.47000000000E+01 0. -1.
         25    2    1    2    0    0 -0.71348225362E+02  0.53583012108E+01  0.11711813378E+04  0.11800042433E+04  0.12500003047E+03 0.  0.
         25    2    1    2    0    0  0.71348225362E+02 -0.53583012108E+01  0.74713183684E+03  0.76088806288E+03  0.12500152782E+03 0.  0.
          5    1    4    4  502    0  0.42773153790E+02  0.23915039288E+02  0.68237312386E+03  0.68414665238E+03  0.47000000000E+01 0. -1.
         -5    1    4    4    0  502  0.28575071571E+02 -0.29273340498E+02  0.64758712979E+02  0.76741410503E+02  0.47000000000E+01 0. -1.
          5    1    3    3  503    0 -0.81678562969E+02  0.61426355359E+01  0.11632414151E+04  0.11661311244E+04  0.47000000000E+01 0. -1.
         -5    1    3    3    0  503  0.10330337608E+02 -0.78433432511E+00  0.79399227456E+01  0.13873118922E+02  0.47000000000E+01 0. -1.
<mgrwt>
<rscale>  0 0.14402975E+03</rscale>
<asrwt>0</asrwt>
<pdfrwt beam="2">  1        5 0.17368569E-02 0.14403008E+03</pdfrwt>
<pdfrwt beam="1">  1       -5 0.29686186E+00 0.14403008E+03</pdfrwt>
<totfact> 0.30755862E+01</totfact>
</mgrwt>
</event>
<event>
 8    1  0.1821556E-007  0.1268569E+03  0.7546771E-02  0.1232197E+00
         -5   -1    0    0    0  501 -0.00000000000E+00  0.00000000000E+00  0.15389824774E+04  0.15389896542E+04  0.47000000000E+01 0. -1.
          5   -1    0    0  501    0  0.00000000000E+00 -0.00000000000E+00 -0.10663721415E+02  0.11653538279E+02  0.47000000000E+01 0. -1.
         25    2    1    2    0    0  0.18395541104E+02 -0.11308949817E+02  0.95957369305E+03  0.96792231609E+03  0.12500259721E+03 0.  0.
         25    2    1    2    0    0 -0.18395541104E+02  0.11308949817E+02  0.56874506289E+03  0.58272087634E+03  0.12500553945E+03 0.  0.
          5    1    4    4  502    0 -0.89720469841E+01  0.23869633867E+02  0.56539727195E+03  0.56599153896E+03  0.47000000000E+01 0.  1.
         -5    1    4    4    0  502 -0.94234941195E+01 -0.12560684050E+02  0.33477909398E+01  0.16729337387E+02  0.47000000000E+01 0.  1.
          5    1    3    3  503    0 -0.34378347539E+02  0.81156401900E+01  0.94266249388E+02  0.10077673426E+03  0.47000000000E+01 0.  1.
         -5    1    3    3    0  503  0.52773888643E+02 -0.19424590007E+02  0.86530744367E+03  0.86714558183E+03  0.47000000000E+01 0.  1.
<mgrwt>
<rscale>  0 0.12685618E+03</rscale>
<asrwt>0</asrwt>
<pdfrwt beam="2">  1        5 0.17172650E-02 0.12685690E+03</pdfrwt>
<pdfrwt beam="1">  1       -5 0.23684314E+00 0.12685690E+03</pdfrwt>
<totfact> 0.72349599E+01</totfact>
</mgrwt>
</event>
<event>
 8    1  0.1821556E-007  0.1354147E+03  0.7546771E-02  0.1219644E+00
          5   -1    0    0  501    0  0.00000000000E+00  0.00000000000E+00  0.15857012181E+02  0.16538888575E+02  0.47000000000E+01 0. -1.
         -5   -1    0    0    0  501 -0.00000000000E+00 -0.00000000000E+00 -0.11369535068E+04  0.11369632214E+04  0.47000000000E+01 0. -1.
         25    2    1    2    0    0 -0.25994055736E+02  0.45094822530E+02 -0.60159155141E+03  0.61663850709E+03  0.12498567815E+03 0.  0.
         25    2    1    2    0    0  0.25994055736E+02 -0.45094822530E+02 -0.51950494325E+03  0.53686360284E+03  0.12501163164E+03 0.  0.
          5    1    3    3  502    0  0.22479253781E+02  0.25009516522E+02 -0.39516859469E+02  0.52100527344E+02  0.47000000000E+01 0.  1.
         -5    1    3    3    0  502 -0.48473309516E+02  0.20085306007E+02 -0.56207469194E+03  0.56453797974E+03  0.47000000000E+01 0.  1.
          5    1    4    4  503    0 -0.17625148374E+02  0.36985265182E+02 -0.19278433791E+03  0.19714574973E+03  0.47000000000E+01 0. -1.
         -5    1    4    4    0  503  0.43619204110E+02 -0.82080087711E+02 -0.32672060534E+03  0.33971785311E+03  0.47000000000E+01 0. -1.
<mgrwt>
<rscale>  0 0.13540871E+03</rscale>
<asrwt>0</asrwt>
<pdfrwt beam="1">  1        5 0.24927405E-02 0.13541470E+03</pdfrwt>
<pdfrwt beam="2">  1       -5 0.17496906E+00 0.13541470E+03</pdfrwt>
<totfact> 0.10621245E+02</totfact>
</mgrwt>
</event>
<event>
 8    1  0.1821556E-007  0.1327683E+03  0.7546771E-02  0.1223408E+00
         -5   -1    0    0    0  501 -0.00000000000E+00  0.00000000000E+00  0.12547922663E+03  0.12556721832E+03  0.47000000000E+01 0. -1.
          5   -1    0    0  501    0  0.00000000000E+00 -0.00000000000E+00 -0.14053701804E+03  0.14061558747E+03  0.47000000000E+01 0. -1.
         25    2    1    2    0    0 -0.38944005837E+02  0.22003846478E+02 -0.20190301049E+01  0.13278368990E+03  0.12500650771E+03 0.  0.
         25    2    1    2    0    0  0.38944005837E+02 -0.22003846478E+02 -0.13038761303E+02  0.13339911590E+03  0.12499803989E+03 0.  0.
          5    1    3    3  502    0 -0.49066817984E+02 -0.43123494818E+02  0.78974070625E+01  0.65967018053E+02  0.47000000000E+01 0. -1.
         -5    1    3    3    0  502  0.10122812147E+02  0.65127341296E+02 -0.99164371675E+01  0.66816671843E+02  0.47000000000E+01 0. -1.
          5    1    4    4  503    0 -0.27543632420E+02 -0.18550120286E+02  0.37032088473E+02  0.49962227995E+02  0.47000000000E+01 0.  1.
         -5    1    4    4    0  503  0.66487638257E+02 -0.34537261913E+01 -0.50070849776E+02  0.83436887903E+02  0.47000000000E+01 0.  1.
<mgrwt>
<rscale>  0 0.13276635E+03</rscale>
<asrwt>0</asrwt>
<pdfrwt beam="2">  1        5 0.21633892E-01 0.13276834E+03</pdfrwt>
<pdfrwt beam="1">  1       -5 0.19317309E-01 0.13276834E+03</pdfrwt>
<totfact> 0.35499084E+02</totfact>
</mgrwt>
</event>
<event>
 8    1  0.1821556E-007  0.1580324E+03  0.7546771E-02  0.1190936E+00
          5   -1    0    0  501    0  0.00000000000E+00  0.00000000000E+00  0.34603967844E+02  0.34921692263E+02  0.47000000000E+01 0. -1.
         -5   -1    0    0    0  501 -0.00000000000E+00 -0.00000000000E+00 -0.74328767838E+03  0.74330253789E+03  0.47000000000E+01 0. -1.
         25    2    1    2    0    0 -0.81433708338E+02 -0.52211566335E+02 -0.42596998859E+03  0.45433953858E+03  0.12496594985E+03 0.  0.
         25    2    1    2    0    0  0.81433708338E+02  0.52211566335E+02 -0.28271372195E+03  0.32388469158E+03  0.12496698903E+03 0.  0.
          5    1    4    4  502    0 -0.84406860303E+01 -0.31410802526E+02 -0.84769093284E+02  0.90916295966E+02  0.47000000000E+01 0.  1.
         -5    1    4    4    0  502  0.89874394368E+02  0.83622368861E+02 -0.19794462866E+03  0.23296839561E+03  0.47000000000E+01 0.  1.
          5    1    3    3  503    0 -0.10887463593E+03 -0.49509060855E+02 -0.26260400421E+03  0.28859623436E+03  0.47000000000E+01 0.  1.
         -5    1    3    3    0  503  0.27440927588E+02 -0.27025054800E+01 -0.16336598438E+03  0.16574330422E+03  0.47000000000E+01 0.  1.
<mgrwt>
<rscale>  0 0.15803221E+03</rscale>
<asrwt>0</asrwt>
<pdfrwt beam="1">  1        5 0.53492713E-02 0.15803242E+03</pdfrwt>
<pdfrwt beam="2">  1       -5 0.11437752E+00 0.15803242E+03</pdfrwt>
<totfact> 0.10033692E+02</totfact>
</mgrwt>
</event>
<event>
 8    1  0.1821556E-007  0.1250143E+03  0.7546771E-02  0.1235050E+00
          5   -1    0    0  501    0  0.00000000000E+00  0.00000000000E+00  0.84741327266E+02  0.84871565008E+02  0.47000000000E+01 0.  1.
         -5   -1    0    0    0  501 -0.00000000000E+00 -0.00000000000E+00 -0.18412111331E+03  0.18418109123E+03  0.47000000000E+01 0.  1.
         25    2    1    2    0    0 -0.81720439819E+00  0.15818218861E+01 -0.48727242184E+02  0.13417500321E+03  0.12500166948E+03 0.  0.
         25    2    1    2    0    0  0.81720439819E+00 -0.15818218861E+01 -0.50652543858E+02  0.13487765302E+03  0.12499252419E+03 0.  0.
          5    1    3    3  502    0 -0.34096907751E+02  0.50040391554E+02 -0.44028087791E+02  0.75014681360E+02  0.47000000000E+01 0.  1.
         -5    1    3    3    0  502  0.33279703353E+02 -0.48458569668E+02 -0.46991543927E+01  0.59160321851E+02  0.47000000000E+01 0.  1.
          5    1    4    4  503    0 -0.90490337108E+01  0.25705539021E+02  0.34835248075E+02  0.44477457840E+02  0.47000000000E+01 0.  1.
         -5    1    4    4    0  503  0.98662381090E+01 -0.27287360907E+02 -0.85487791933E+02  0.90400195184E+02  0.47000000000E+01 0.  1.
<mgrwt>
<rscale>  0 0.12501206E+03</rscale>
<asrwt>0</asrwt>
<pdfrwt beam="1">  1        5 0.13051759E-01 0.12501435E+03</pdfrwt>
<pdfrwt beam="2">  1       -5 0.28340957E-01 0.12501435E+03</pdfrwt>
<totfact> 0.42274663E+02</totfact>
</mgrwt>
</event>
<event>
 8    1  0.1821556E-007  0.1288136E+03  0.7546771E-02  0.1229231E+00
         -5   -1    0    0    0  501 -0.00000000000E+00  0.00000000000E+00  0.87374853500E+02  0.87501171558E+02  0.47000000000E+01 0.  1.
          5   -1    0    0  501    0  0.00000000000E+00 -0.00000000000E+00 -0.19127497878E+03  0.19133271416E+03  0.47000000000E+01 0.  1.
         25    2    1    2    0    0  0.20128183301E+02 -0.23701404222E+02 -0.38896004285E+02  0.13454777258E+03  0.12499321435E+03 0.  0.
         25    2    1    2    0    0 -0.20128183301E+02  0.23701404222E+02 -0.65004120997E+02  0.14428611314E+03  0.12500418542E+03 0.  0.
          5    1    4    4  502    0  0.18896622362E+02  0.33894200551E+02  0.24408704752E+02  0.46084422914E+02  0.47000000000E+01 0.  1.
         -5    1    4    4    0  502 -0.39024805663E+02 -0.10192796329E+02 -0.89412825749E+02  0.98201690222E+02  0.47000000000E+01 0.  1.
          5    1    3    3  503    0  0.72526635843E+02 -0.22839051408E+02 -0.23542845168E+02  0.79737636876E+02  0.47000000000E+01 0.  1.
         -5    1    3    3    0  503 -0.52398452543E+02 -0.86235281315E+00 -0.15353159117E+02  0.54810135706E+02  0.47000000000E+01 0.  1.
<mgrwt>
<rscale>  0 0.12881095E+03</rscale>
<asrwt>0</asrwt>
<pdfrwt beam="2">  1        5 0.29441078E-01 0.12881361E+03</pdfrwt>
<pdfrwt beam="1">  1       -5 0.13456443E-01 0.12881361E+03</pdfrwt>
<totfact> 0.37581448E+02</totfact>
</mgrwt>
</event>
<event>
 8    1  0.1821556E-007  0.1456241E+03  0.7546771E-02  0.1205956E+00
         -5   -1    0    0    0  501 -0.00000000000E+00  0.00000000000E+00  0.16177757996E+03  0.16184583831E+03  0.47000000000E+01 0.  1.
          5   -1    0    0  501    0  0.00000000000E+00 -0.00000000000E+00 -0.13396742105E+03  0.13404984112E+03  0.47000000000E+01 0.  1.
         25    2    1    2    0    0 -0.42996411683E+01  0.74580316546E+02 -0.83035626115E+01  0.14586039736E+03  0.12500238332E+03 0.  0.
         25    2    1    2    0    0  0.42996411683E+01 -0.74580316546E+02  0.36113721524E+02  0.15003528207E+03  0.12500269778E+03 0.  0.
          5    1    3    3  502    0  0.42359629571E+02  0.69667225809E+02 -0.38061391279E+02  0.90103385482E+02  0.47000000000E+01 0.  1.
         -5    1    3    3    0  502 -0.46659270739E+02  0.49130907374E+01  0.29757828667E+02  0.55757011878E+02  0.47000000000E+01 0.  1.
          5    1    4    4  503    0 -0.54295174409E+02 -0.66670869886E+02  0.25244402012E+02  0.89734835423E+02  0.47000000000E+01 0.  1.
         -5    1    4    4    0  503  0.58594815578E+02 -0.79094466605E+01  0.10869319512E+02  0.60300446646E+02  0.47000000000E+01 0.  1.
<mgrwt>
<rscale>  0 0.14562405E+03</rscale>
<asrwt>0</asrwt>
<pdfrwt beam="2">  1        5 0.20621963E-01 0.14562412E+03</pdfrwt>
<pdfrwt beam="1">  1       -5 0.24900449E-01 0.14562412E+03</pdfrwt>
<totfact> 0.24829554E+02</totfact>
</mgrwt>
</event>
<event>
 8    1  0.1821556E-007  0.1489637E+03  0.7546771E-02  0.1201763E+00
          5   -1    0    0  501    0  0.00000000000E+00  0.00000000000E+00  0.16190286160E+03  0.16197106715E+03  0.47000000000E+01 0.  1.
         -5   -1    0    0    0  501 -0.00000000000E+00 -0.00000000000E+00 -0.13695742533E+03  0.13703804710E+03  0.47000000000E+01 0.  1.
         25    2    1    2    0    0  0.70456882962E+02  0.39883540018E+02  0.15830562039E+02  0.14976683226E+03  0.12499851291E+03 0.  0.
         25    2    1    2    0    0 -0.70456882962E+02 -0.39883540018E+02  0.91148742273E+01  0.14924228199E+03  0.12504122793E+03 0.  0.
          5    1    3    3  502    0 -0.90775693153E+01 -0.27987685775E+02 -0.23510265849E+02  0.37954386044E+02  0.47000000000E+01 0.  1.
         -5    1    3    3    0  502  0.79534452277E+02  0.67871225794E+02  0.39340827888E+02  0.11181244622E+03  0.47000000000E+01 0.  1.
          5    1    4    4  503    0  0.33420428277E+01 -0.69177023089E+02  0.49953370255E+01  0.69596502539E+02  0.47000000000E+01 0.  1.
         -5    1    4    4    0  503 -0.73798925790E+02  0.29293483070E+02  0.41195372017E+01  0.79645779454E+02  0.47000000000E+01 0.  1.
<mgrwt>
<rscale>  0 0.14895472E+03</rscale>
<asrwt>0</asrwt>
<pdfrwt beam="1">  1        5 0.24919581E-01 0.14896368E+03</pdfrwt>
<pdfrwt beam="2">  1       -5 0.21081821E-01 0.14896368E+03</pdfrwt>
<totfact> 0.23968421E+02</totfact>
</mgrwt>
</event>
<event>
 8    1  0.1821556E-007  0.1302580E+03  0.7546771E-02  0.1227076E+00
          5   -1    0    0  501    0  0.00000000000E+00  0.00000000000E+00  0.53716554824E+03  0.53718610947E+03  0.47000000000E+01 0.  1.
         -5   -1    0    0    0  501 -0.00000000000E+00 -0.00000000000E+00 -0.31655127767E+02  0.32002142334E+02  0.47000000000E+01 0.  1.
         25    2    1    2    0    0 -0.35768460577E+02 -0.78180585705E+01  0.22680226962E+03  0.26154335442E+03  0.12500060771E+03 0.  0.
         25    2    1    2    0    0  0.35768460577E+02  0.78180585705E+01  0.27870815085E+03  0.30764489738E+03  0.12500657872E+03 0.  0.
          5    1    4    4  502    0  0.61729694659E+02 -0.26101202916E+02  0.80600587455E+02  0.10493032305E+03  0.47000000000E+01 0.  1.
         -5    1    4    4    0  502 -0.25961234082E+02  0.33919261486E+02  0.19810756340E+03  0.20271457434E+03  0.47000000000E+01 0.  1.
          5    1    3    3  503    0 -0.40899937114E+02  0.53642601031E+02  0.13266060585E+03  0.14890016738E+03  0.47000000000E+01 0. -1.
         -5    1    3    3    0  503  0.51314765372E+01 -0.61460659602E+02  0.94141663769E+02  0.11264318704E+03  0.47000000000E+01 0. -1.
<mgrwt>
<rscale>  0 0.13025658E+03</rscale>
<asrwt>0</asrwt>
<pdfrwt beam="1">  1        5 0.82669133E-01 0.13025801E+03</pdfrwt>
<pdfrwt beam="2">  1       -5 0.48982944E-02 0.13025801E+03</pdfrwt>
<totfact> 0.23943867E+02</totfact>
</mgrwt>
</event>
<event>
 8    1  0.1821556E-007  0.1335733E+03  0.7546771E-02  0.1222250E+00
         -5   -1    0    0    0  501 -0.00000000000E+00  0.00000000000E+00  0.13273718803E+03  0.13282037151E+03  0.47000000000E+01 0. -1.
          5   -1    0    0  501    0  0.00000000000E+00 -0.00000000000E+00 -0.16699823183E+03  0.16706435716E+03  0.47000000000E+01 0. -1.
         25    2    1    2    0    0  0.15377622292E+02 -0.44477270346E+02  0.49244288566E+02  0.14235708177E+03  0.12500335967E+03 0.  0.
         25    2    1    2    0    0 -0.15377622292E+02  0.44477270346E+02 -0.83505332363E+02  0.15752764690E+03  0.12500848035E+03 0.  0.
          5    1    4    4  502    0  0.21955376258E+02 -0.86428984888E+01  0.22623456955E+02  0.33024976086E+02  0.47000000000E+01 0.  1.
         -5    1    4    4    0  502 -0.37332998550E+02  0.53120168834E+02 -0.10612878932E+03  0.12450267081E+03  0.47000000000E+01 0.  1.
          5    1    3    3  503    0  0.65182062058E+02 -0.72493624842E+01  0.45356233627E+02  0.79878234829E+02  0.47000000000E+01 0. -1.
         -5    1    3    3    0  503 -0.49804439766E+02 -0.37227907861E+02  0.38880549389E+01  0.62478846943E+02  0.47000000000E+01 0. -1.
<mgrwt>
<rscale>  0 0.13357207E+03</rscale>
<asrwt>0</asrwt>
<pdfrwt beam="2">  1        5 0.25703521E-01 0.13357327E+03</pdfrwt>
<pdfrwt beam="1">  1       -5 0.20432591E-01 0.13357327E+03</pdfrwt>
<totfact> 0.23086081E+02</totfact>
</mgrwt>
</event>
<event>
 8    1  0.1821556E-007  0.1269588E+03  0.7546771E-02  0.1232040E+00
         -5   -1    0    0    0  501 -0.00000000000E+00  0.00000000000E+00  0.92648923558E+02  0.92768060433E+02  0.47000000000E+01 0.  1.
          5   -1    0    0  501    0  0.00000000000E+00 -0.00000000000E+00 -0.17483266284E+03  0.17489582612E+03  0.47000000000E+01 0.  1.
         25    2    1    2    0    0  0.12158475977E+02 -0.18605566994E+02 -0.30376699951E+02  0.13054221929E+03  0.12499812581E+03 0.  0.
         25    2    1    2    0    0 -0.12158475977E+02  0.18605566994E+02 -0.51807039329E+02  0.13712166727E+03  0.12499754657E+03 0.  0.
          5    1    3    3  502    0  0.27485170275E+02 -0.62870664803E+02  0.87446699138E+01  0.69330471870E+02  0.47000000000E+01 0. -1.
         -5    1    3    3    0  502 -0.15326694298E+02  0.44265097809E+02 -0.39121369865E+02  0.61211747420E+02  0.47000000000E+01 0. -1.
          5    1    4    4  503    0  0.28886937336E+02  0.45987993816E+02 -0.65966425204E+02  0.85574587221E+02  0.47000000000E+01 0.  1.
         -5    1    4    4    0  503 -0.41045413313E+02 -0.27382426822E+02  0.14159385875E+02  0.51547080044E+02  0.47000000000E+01 0.  1.
<mgrwt>
<rscale>  0 0.12695862E+03</rscale>
<asrwt>0</asrwt>
<pdfrwt beam="2">  1        5 0.26911356E-01 0.12695876E+03</pdfrwt>
<pdfrwt beam="1">  1       -5 0.14267704E-01 0.12695876E+03</pdfrwt>
<totfact> 0.40072402E+02</totfact>
</mgrwt>
</event>
<event>
 8    1  0.1821556E-007  0.1452587E+03  0.7546771E-02  0.1206423E+00
          5   -1    0    0  501    0  0.00000000000E+00  0.00000000000E+00  0.54579084924E+03  0.54581108556E+03  0.47000000000E+01 0.  1.
         -5   -1    0    0    0  501 -0.00000000000E+00 -0.00000000000E+00 -0.38720226644E+02  0.39004435022E+02  0.47000000000E+01 0.  1.
         25    2    1    2    0    0 -0.73728114691E+02 -0.62246409554E+01  0.23135456469E+03  0.27317559881E+03  0.12500156852E+03 0.  0.
         25    2    1    2    0    0  0.73728114691E+02  0.62246409554E+01  0.27571605791E+03  0.31163992177E+03  0.12500206078E+03 0.  0.
          5    1    4    4  502    0  0.56034416268E+01  0.42321534272E+02  0.19596458892E+03  0.20061585414E+03  0.47000000000E+01 0.  1.
         -5    1    4    4    0  502  0.68124673064E+02 -0.36096893316E+02  0.79751468994E+02  0.11102406763E+03  0.47000000000E+01 0.  1.
          5    1    3    3  503    0 -0.34753306591E+00 -0.34550853963E+02  0.72434650998E+01  0.35615166369E+02  0.47000000000E+01 0. -1.
         -5    1    3    3    0  503 -0.73380581625E+02  0.28326213008E+02  0.22411109959E+03  0.23756043244E+03  0.47000000000E+01 0. -1.
<mgrwt>
<rscale>  0 0.14525862E+03</rscale>
<asrwt>0</asrwt>
<pdfrwt beam="1">  1        5 0.83991244E-01 0.14525872E+03</pdfrwt>
<pdfrwt beam="2">  1       -5 0.59803766E-02 0.14525872E+03</pdfrwt>
<totfact> 0.17149581E+02</totfact>
</mgrwt>
</event>
<event>
 8    1  0.1821556E-007  0.1254886E+03  0.7546771E-02  0.1234309E+00
         -5   -1    0    0    0  501 -0.00000000000E+00  0.00000000000E+00  0.21820860751E+03  0.21825921835E+03  0.47000000000E+01 0. -1.
          5   -1    0    0  501    0  0.00000000000E+00 -0.00000000000E+00 -0.84008838650E+02  0.84140210193E+02  0.47000000000E+01 0. -1.
         25    2    1    2    0    0  0.70168512206E+01 -0.85606084955E+01  0.12413108637E+03  0.17651040728E+03  0.12499950823E+03 0.  0.
         25    2    1    2    0    0 -0.70168512206E+01  0.85606084955E+01  0.10068682498E+02  0.12588902126E+03  0.12499658830E+03 0.  0.
          5    1    3    3  502    0 -0.55756163923E+02  0.48868341595E+01  0.33671792267E+02  0.65486720471E+02  0.47000000000E+01 0. -1.
         -5    1    3    3    0  502  0.62773015144E+02 -0.13447442655E+02  0.90459294099E+02  0.11102368681E+03  0.47000000000E+01 0. -1.
          5    1    4    4  503    0 -0.31732448828E+02 -0.83543781828E+01  0.59378841350E+02  0.68005005282E+02  0.47000000000E+01 0. -1.
         -5    1    4    4    0  503  0.24715597607E+02  0.16914986678E+02 -0.49310158852E+02  0.57884015975E+02  0.47000000000E+01 0. -1.
<mgrwt>
<rscale>  0 0.12548791E+03</rscale>
<asrwt>0</asrwt>
<pdfrwt beam="2">  1        5 0.12938435E-01 0.12548863E+03</pdfrwt>
<pdfrwt beam="1">  1       -5 0.33584553E-01 0.12548863E+03</pdfrwt>
<totfact> 0.30793818E+02</totfact>
</mgrwt>
</event>
<event>
 8    1  0.1821556E-007  0.1447458E+03  0.7546771E-02  0.1207085E+00
          5   -1    0    0  501    0  0.00000000000E+00  0.00000000000E+00  0.12521897345E+03  0.12530714789E+03  0.47000000000E+01 0. -1.
         -5   -1    0    0    0  501 -0.00000000000E+00 -0.00000000000E+00 -0.16965173328E+03  0.16971682475E+03  0.47000000000E+01 0. -1.
         25    2    1    2    0    0  0.64586153656E+02 -0.33954465312E+02 -0.40204071056E+02  0.15021643604E+03  0.12499733344E+03 0.  0.
         25    2    1    2    0    0 -0.64586153656E+02  0.33954465312E+02 -0.42286887760E+01  0.14480753660E+03  0.12500825529E+03 0.  0.
          5    1    3    3  502    0  0.96927631504E+01  0.39905995196E+02  0.13598514151E+02  0.43513764456E+02  0.47000000000E+01 0.  1.
         -5    1    3    3    0  502  0.54893390505E+02 -0.73860460507E+02 -0.53802585207E+02  0.10670267158E+03  0.47000000000E+01 0.  1.
          5    1    4    4  503    0  0.60030149882E+01 -0.32247013599E+02  0.27282879961E+02  0.42922623568E+02  0.47000000000E+01 0.  1.
         -5    1    4    4    0  503 -0.70589168644E+02  0.66201478911E+02 -0.31511568737E+02  0.10188491303E+03  0.47000000000E+01 0.  1.
<mgrwt>
<rscale>  0 0.14474342E+03</rscale>
<asrwt>0</asrwt>
<pdfrwt beam="1">  1        5 0.19276247E-01 0.14474578E+03</pdfrwt>
<pdfrwt beam="2">  1       -5 0.26112056E-01 0.14474578E+03</pdfrwt>
<totfact> 0.25653740E+02</totfact>
</mgrwt>
</event>
<event>
 8    1  0.1821556E-007  0.1272035E+03  0.7546771E-02  0.1231667E+00
          5   -1    0    0  501    0  0.00000000000E+00  0.00000000000E+00  0.99966119277E+02  0.10007654572E+03  0.47000000000E+01 0. -1.
         -5   -1    0    0    0  501 -0.00000000000E+00 -0.00000000000E+00 -0.33433442737E+03  0.33436746152E+03  0.47000000000E+01 0. -1.
         25    2    1    2    0    0 -0.29179218143E+01 -0.23360836848E+02 -0.27327093862E+03  0.30142466175E+03  0.12500231139E+03 0.  0.
         25    2    1    2    0    0  0.29179218143E+01  0.23360836848E+02  0.38902630527E+02  0.13301934549E+03  0.12500595444E+03 0.  0.
          5    1    3    3  502    0  0.57138139233E+02 -0.23008664797E+01 -0.17575884095E+03  0.18488732005E+03  0.47000000000E+01 0. -1.
         -5    1    3    3    0  502 -0.60056061048E+02 -0.21059970368E+02 -0.97512097663E+02  0.11653734170E+03  0.47000000000E+01 0. -1.
          5    1    4    4  503    0 -0.45279355252E+02  0.40127038272E+02  0.52233473932E+02  0.80067627737E+02  0.47000000000E+01 0. -1.
         -5    1    4    4    0  503  0.48197277066E+02 -0.16766201424E+02 -0.13330843405E+02  0.52951717750E+02  0.47000000000E+01 0. -1.
<mgrwt>
<rscale>  0 0.12720261E+03</rscale>
<asrwt>0</asrwt>
<pdfrwt beam="1">  1        5 0.15390439E-01 0.12720350E+03</pdfrwt>
<pdfrwt beam="2">  1       -5 0.51447101E-01 0.12720350E+03</pdfrwt>
<totfact> 0.94288232E+01</totfact>
</mgrwt>
</event>
<event>
 8    1  0.1821556E-007  0.1271751E+03  0.7546771E-02  0.1231711E+00
         -5   -1    0    0    0  501 -0.00000000000E+00  0.00000000000E+00  0.12311078066E+03  0.12320046394E+03  0.47000000000E+01 0.  1.
          5   -1    0    0  501    0  0.00000000000E+00 -0.00000000000E+00 -0.13540454589E+03  0.13548609171E+03  0.47000000000E+01 0.  1.
         25    2    1    2    0    0  0.23231831532E+02  0.27166614186E+01  0.16661276502E+02  0.12826183362E+03  0.12500560621E+03 0.  0.
         25    2    1    2    0    0 -0.23231831532E+02 -0.27166614186E+01 -0.28955041731E+02  0.13042472202E+03  0.12500046171E+03 0.  0.
          5    1    3    3  502    0  0.50701301418E+02 -0.37284009582E+02  0.39472796265E+02  0.74437295632E+02  0.47000000000E+01 0. -1.
         -5    1    3    3    0  502 -0.27469469886E+02  0.40000671001E+02 -0.22811519763E+02  0.53824537993E+02  0.47000000000E+01 0. -1.
          5    1    4    4  503    0  0.36909542014E+02  0.35208539513E+02 -0.29606716191E+02  0.59165895497E+02  0.47000000000E+01 0. -1.
         -5    1    4    4    0  503 -0.60141373547E+02 -0.37925200931E+02  0.65167445993E+00  0.71258826522E+02  0.47000000000E+01 0. -1.
<mgrwt>
<rscale>  0 0.12717381E+03</rscale>
<asrwt>0</asrwt>
<pdfrwt beam="2">  1        5 0.20844640E-01 0.12717508E+03</pdfrwt>
<pdfrwt beam="1">  1       -5 0.18953292E-01 0.12717508E+03</pdfrwt>
<totfact> 0.38812363E+02</totfact>
</mgrwt>
</event>
<event>
 8    1  0.1821556E-007  0.1539342E+03  0.7546771E-02  0.1195722E+00
          5   -1    0    0  501    0  0.00000000000E+00  0.00000000000E+00  0.17966688403E+03  0.17972834840E+03  0.47000000000E+01 0.  1.
         -5   -1    0    0    0  501 -0.00000000000E+00 -0.00000000000E+00 -0.15601073862E+03  0.15608151897E+03  0.47000000000E+01 0.  1.
         25    2    1    2    0    0  0.75164266936E+02  0.49188320480E+02 -0.54344538054E+02  0.16324537226E+03  0.12500625925E+03 0.  0.
         25    2    1    2    0    0 -0.75164266936E+02 -0.49188320480E+02  0.78000683469E+02  0.17256449511E+03  0.12500096182E+03 0.  0.
          5    1    4    4  502    0 -0.79167078318E+02 -0.38241907084E+02  0.10841086200E+03  0.13965985374E+03  0.47000000000E+01 0. -1.
         -5    1    4    4    0  502  0.40028113813E+01 -0.10946413396E+02 -0.30410178534E+02  0.32904641370E+02  0.47000000000E+01 0. -1.
          5    1    3    3  503    0  0.88215015041E+02  0.70854145971E+02 -0.69997866021E+02  0.13313147685E+03  0.47000000000E+01 0.  1.
         -5    1    3    3    0  503 -0.13050748105E+02 -0.21665825491E+02  0.15653327968E+02  0.30113895410E+02  0.47000000000E+01 0.  1.
<mgrwt>
<rscale>  0 0.15393308E+03</rscale>
<asrwt>0</asrwt>
<pdfrwt beam="1">  1        5 0.27651232E-01 0.15393415E+03</pdfrwt>
<pdfrwt beam="2">  1       -5 0.24011825E-01 0.15393415E+03</pdfrwt>
<totfact> 0.15487049E+02</totfact>
</mgrwt>
</event>
<event>
 8    1  0.1821556E-007  0.1901348E+03  0.7546771E-02  0.1158349E+00
          5   -1    0    0  501    0  0.00000000000E+00  0.00000000000E+00  0.74621463653E+02  0.74769330863E+02  0.47000000000E+01 0. -1.
         -5   -1    0    0    0  501 -0.00000000000E+00 -0.00000000000E+00 -0.86271576176E+03  0.86272856426E+03  0.47000000000E+01 0. -1.
         25    2    1    2    0    0  0.10410481649E+03  0.98354049575E+02 -0.70472650178E+03  0.72992512874E+03  0.12505966323E+03 0.  0.
         25    2    1    2    0    0 -0.10410481649E+03 -0.98354049575E+02 -0.83367796332E+02  0.20757276639E+03  0.12499972798E+03 0.  0.
          5    1    3    3  502    0  0.58982455128E+02  0.12410764883E+03 -0.48699637048E+03  0.50603279871E+03  0.47000000000E+01 0. -1.
         -5    1    3    3    0  502  0.45122361365E+02 -0.25753599250E+02 -0.21773013130E+03  0.22389233003E+03  0.47000000000E+01 0. -1.
          5    1    4    4  503    0 -0.42849339461E+02 -0.86300437997E+02  0.80163269888E+01  0.96799705522E+02  0.47000000000E+01 0.  1.
         -5    1    4    4    0  503 -0.61255477033E+02 -0.12053611578E+02 -0.91384123320E+02  0.11077306087E+03  0.47000000000E+01 0.  1.
<mgrwt>
<rscale>  0 0.19012497E+03</rscale>
<asrwt>0</asrwt>
<pdfrwt beam="1">  1        5 0.11492585E-01 0.19013482E+03</pdfrwt>
<pdfrwt beam="2">  1       -5 0.13273785E+00 0.19013482E+03</pdfrwt>
<totfact> 0.19272703E+01</totfact>
</mgrwt>
</event>
<event>
 8    1  0.1821556E-007  0.1461832E+03  0.7546771E-02  0.1205246E+00
          5   -1    0    0  501    0  0.00000000000E+00  0.00000000000E+00  0.48932333626E+03  0.48934590772E+03  0.47000000000E+01 0. -1.
         -5   -1    0    0    0  501 -0.00000000000E+00 -0.00000000000E+00 -0.43689546123E+02  0.43941625373E+02  0.47000000000E+01 0. -1.
         25    2    1    2    0    0  0.75752304820E+02 -0.20554917404E+01  0.20619894997E+03  0.25275486595E+03  0.12499751422E+03 0.  0.
         25    2    1    2    0    0 -0.75752304820E+02  0.20554917404E+01  0.23943484016E+03  0.28053266715E+03  0.12500759145E+03 0.  0.
          5    1    3    3  502    0  0.49557083860E+02 -0.41918184615E+02  0.32844626201E+02  0.72896489849E+02  0.47000000000E+01 0. -1.
         -5    1    3    3    0  502  0.26195220960E+02  0.39862692874E+02  0.17335432377E+03  0.17985837610E+03  0.47000000000E+01 0. -1.
          5    1    4    4  503    0 -0.10980606604E+03  0.94120487262E+01  0.19288364827E+03  0.22219844862E+03  0.47000000000E+01 0.  1.
         -5    1    4    4    0  503  0.34053761220E+02 -0.73565569858E+01  0.46551191893E+02  0.58334218522E+02  0.47000000000E+01 0.  1.
<mgrwt>
<rscale>  0 0.14618107E+03</rscale>
<asrwt>0</asrwt>
<pdfrwt beam="1">  1        5 0.75301635E-01 0.14618322E+03</pdfrwt>
<pdfrwt beam="2">  1       -5 0.67425960E-02 0.14618322E+03</pdfrwt>
<totfact> 0.18068024E+02</totfact>
</mgrwt>
</event>
<event>
 8    1  0.1821556E-007  0.1426840E+03  0.7546771E-02  0.1209764E+00
         -5   -1    0    0    0  501 -0.00000000000E+00  0.00000000000E+00  0.51286654416E+02  0.51501562318E+02  0.47000000000E+01 0. -1.
          5   -1    0    0  501    0  0.00000000000E+00 -0.00000000000E+00 -0.41008371296E+03  0.41011064560E+03  0.47000000000E+01 0. -1.
         25    2    1    2    0    0 -0.68659071866E+02  0.48075622398E+01 -0.13646753470E+03  0.19743588729E+03  0.12498144166E+03 0.  0.
         25    2    1    2    0    0  0.68659071866E+02 -0.48075622398E+01 -0.22232952384E+03  0.26417632062E+03  0.12498612084E+03 0.  0.
          5    1    3    3  502    0  0.18950652738E+02 -0.28935134977E+02 -0.81216508948E+02  0.88400116522E+02  0.47000000000E+01 0.  1.
         -5    1    3    3    0  502 -0.87609724604E+02  0.33742697217E+02 -0.55251025755E+02  0.10903577077E+03  0.47000000000E+01 0.  1.
          5    1    4    4  503    0  0.92560296512E+01 -0.59273863232E+02 -0.74782321335E+02  0.95987241505E+02  0.47000000000E+01 0. -1.
         -5    1    4    4    0  503  0.59403042215E+02  0.54466300992E+02 -0.14754720250E+03  0.16818907912E+03  0.47000000000E+01 0. -1.
<mgrwt>
<rscale>  0 0.14268293E+03</rscale>
<asrwt>0</asrwt>
<pdfrwt beam="2">  1        5 0.63108403E-01 0.14268396E+03</pdfrwt>
<pdfrwt beam="1">  1       -5 0.79088579E-02 0.14268396E+03</pdfrwt>
<totfact> 0.20315628E+02</totfact>
</mgrwt>
</event>
<event>
 8    1  0.1821556E-007  0.1304073E+03  0.7546771E-02  0.1226853E+00
          5   -1    0    0  501    0  0.00000000000E+00  0.00000000000E+00  0.58108434908E+02  0.58298200722E+02  0.47000000000E+01 0.  1.
         -5   -1    0    0    0  501 -0.00000000000E+00 -0.00000000000E+00 -0.32800885411E+03  0.32804252525E+03  0.47000000000E+01 0.  1.
         25    2    1    2    0    0 -0.12344729338E+02  0.35034884311E+02 -0.19895754437E+03  0.23788687259E+03  0.12500489680E+03 0.  0.
         25    2    1    2    0    0  0.12344729338E+02 -0.35034884311E+02 -0.70942874827E+02  0.14845385339E+03  0.12500327850E+03 0.  0.
          5    1    4    4  502    0 -0.41963520980E+00  0.13533944123E+02  0.31311851673E+02  0.34436402141E+02  0.47000000000E+01 0. -1.
         -5    1    4    4    0  502  0.12764364547E+02 -0.48568828434E+02 -0.10225472650E+03  0.11401745125E+03  0.47000000000E+01 0. -1.
          5    1    3    3  503    0  0.48089303046E+02  0.86029303604E+01 -0.32736440341E+02  0.58994542158E+02  0.47000000000E+01 0.  1.
         -5    1    3    3    0  503 -0.60434032383E+02  0.26431953950E+02 -0.16622110403E+03  0.17889233043E+03  0.47000000000E+01 0.  1.
<mgrwt>
<rscale>  0 0.13040690E+03</rscale>
<asrwt>0</asrwt>
<pdfrwt beam="1">  1        5 0.89569468E-02 0.13040728E+03</pdfrwt>
<pdfrwt beam="2">  1       -5 0.50480087E-01 0.13040728E+03</pdfrwt>
<totfact> 0.25788032E+02</totfact>
</mgrwt>
</event>
<event>
 8    1  0.1821556E-007  0.1430065E+03  0.7546771E-02  0.1209340E+00
         -5   -1    0    0    0  501 -0.00000000000E+00  0.00000000000E+00  0.98233596915E+03  0.98234721270E+03  0.47000000000E+01 0. -1.
          5   -1    0    0  501    0  0.00000000000E+00 -0.00000000000E+00 -0.23131823383E+02  0.23604475275E+02  0.47000000000E+01 0. -1.
         25    2    1    2    0    0 -0.65410805948E+02  0.23407983432E+02  0.64608096156E+03  0.66171856344E+03  0.12499736437E+03 0.  0.
         25    2    1    2    0    0  0.65410805948E+02 -0.23407983432E+02  0.31312318422E+03  0.34423312453E+03  0.12499523313E+03 0.  0.
          5    1    4    4  502    0  0.46755518524E+02  0.49098108916E+02  0.15223955203E+03  0.16672034673E+03  0.47000000000E+01 0.  1.
         -5    1    4    4    0  502  0.18655287424E+02 -0.72506092348E+02  0.16088363219E+03  0.17751277780E+03  0.47000000000E+01 0.  1.
          5    1    3    3  503    0 -0.84038534698E+00 -0.43975148874E+02  0.30002544433E+03  0.30326865517E+03  0.47000000000E+01 0.  1.
         -5    1    3    3    0  503 -0.64570420601E+02  0.67383132305E+02  0.34605551723E+03  0.35844990827E+03  0.47000000000E+01 0.  1.
<mgrwt>
<rscale>  0 0.14300600E+03</rscale>
<asrwt>0</asrwt>
<pdfrwt beam="2">  1        5 0.35959640E-02 0.14300646E+03</pdfrwt>
<pdfrwt beam="1">  1       -5 0.15116587E+00 0.14300646E+03</pdfrwt>
<totfact> 0.90219864E+01</totfact>
</mgrwt>
</event>
<event>
 8    1  0.1821556E-007  0.1586179E+03  0.7546771E-02  0.1190266E+00
          5   -1    0    0  501    0  0.00000000000E+00  0.00000000000E+00  0.81464812878E+02  0.81600280252E+02  0.47000000000E+01 0. -1.
         -5   -1    0    0    0  501 -0.00000000000E+00 -0.00000000000E+00 -0.31850210605E+03  0.31853678211E+03  0.47000000000E+01 0. -1.
         25    2    1    2    0    0 -0.22747835080E+02  0.94957280752E+02 -0.15409176133E+03  0.22114227462E+03  0.12500114218E+03 0.  0.
         25    2    1    2    0    0  0.22747835080E+02 -0.94957280752E+02 -0.82945531840E+02  0.17899478774E+03  0.12499929447E+03 0.  0.
          5    1    3    3  502    0  0.12243196490E+02 -0.15672793928E+02 -0.81885864103E+02  0.84397375964E+02  0.47000000000E+01 0. -1.
         -5    1    3    3    0  502 -0.34991031570E+02  0.11063007468E+03 -0.72205897226E+02  0.13674489866E+03  0.47000000000E+01 0. -1.
          5    1    4    4  503    0  0.60161620674E+02 -0.82384328920E+02 -0.92860515438E+02  0.13802812605E+03  0.47000000000E+01 0.  1.
         -5    1    4    4    0  503 -0.37413785594E+02 -0.12572951832E+02  0.99149835982E+01  0.40966661690E+02  0.47000000000E+01 0.  1.
<mgrwt>
<rscale>  0 0.15861752E+03</rscale>
<asrwt>0</asrwt>
<pdfrwt beam="1">  1        5 0.12546136E-01 0.15861789E+03</pdfrwt>
<pdfrwt beam="2">  1       -5 0.49013411E-01 0.15861789E+03</pdfrwt>
<totfact> 0.16218939E+02</totfact>
</mgrwt>
</event>
<event>
 8    1  0.1821556E-007  0.1277702E+03  0.7546771E-02  0.1230803E+00
         -5   -1    0    0    0  501 -0.00000000000E+00  0.00000000000E+00  0.22918096244E+02  0.23395066477E+02  0.47000000000E+01 0.  1.
          5   -1    0    0  501    0  0.00000000000E+00 -0.00000000000E+00 -0.72514671740E+03  0.72516194864E+03  0.47000000000E+01 0.  1.
         25    2    1    2    0    0 -0.74928428446E+01 -0.25376172463E+02 -0.28798364764E+03  0.31505523685E+03  0.12500051255E+03 0.  0.
         25    2    1    2    0    0  0.74928428446E+01  0.25376172463E+02 -0.41424497352E+03  0.43350177827E+03  0.12499920341E+03 0.  0.
          5    1    4    4  502    0  0.45434923079E+02  0.36567631600E+02 -0.36730544991E+03  0.37193669817E+03  0.47000000000E+01 0. -1.
         -5    1    4    4    0  502 -0.37942080235E+02 -0.11191459137E+02 -0.46939523613E+02  0.61565080095E+02  0.47000000000E+01 0. -1.
          5    1    3    3  503    0  0.12182114483E+02  0.34102021300E+02 -0.23995692625E+02  0.43694794136E+02  0.47000000000E+01 0. -1.
         -5    1    3    3    0  503 -0.19674957327E+02 -0.59478193763E+02 -0.26398795501E+03  0.27136044271E+03  0.47000000000E+01 0. -1.
<mgrwt>
<rscale>  0 0.12776987E+03</rscale>
<asrwt>0</asrwt>
<pdfrwt beam="2">  1        5 0.11159888E+00 0.12777019E+03</pdfrwt>
<pdfrwt beam="1">  1       -5 0.35637232E-02 0.12777019E+03</pdfrwt>
<totfact> 0.19468524E+02</totfact>
</mgrwt>
</event>
<event>
 8    1  0.1821556E-007  0.1428223E+03  0.7546771E-02  0.1209586E+00
         -5   -1    0    0    0  501 -0.00000000000E+00  0.00000000000E+00  0.71185559687E+03  0.71187111249E+03  0.47000000000E+01 0.  1.
          5   -1    0    0  501    0  0.00000000000E+00 -0.00000000000E+00 -0.29041684575E+02  0.29419541854E+02  0.47000000000E+01 0.  1.
         25    2    1    2    0    0  0.15371578126E+02 -0.67340551362E+02  0.39422419189E+03  0.41929339808E+03  0.12499281951E+03 0.  0.
         25    2    1    2    0    0 -0.15371578126E+02  0.67340551362E+02  0.28858972041E+03  0.32199725627E+03  0.12500868388E+03 0.  0.
          5    1    3    3  502    0  0.21800256636E+02 -0.86041676888E+02  0.38797768041E+03  0.39802913442E+03  0.47000000000E+01 0. -1.
         -5    1    3    3    0  502 -0.64286785103E+01  0.18701125526E+02  0.62465114828E+01  0.21264263661E+02  0.47000000000E+01 0. -1.
          5    1    4    4  503    0  0.45699591080E+01 -0.30596869296E+01 -0.11221129352E+02  0.13351028211E+02  0.47000000000E+01 0.  1.
         -5    1    4    4    0  503 -0.19941537234E+02  0.70400238291E+02  0.29981084976E+03  0.30864622805E+03  0.47000000000E+01 0.  1.
<mgrwt>
<rscale>  0 0.14281882E+03</rscale>
<asrwt>0</asrwt>
<pdfrwt beam="2">  1        5 0.44982106E-02 0.14282229E+03</pdfrwt>
<pdfrwt beam="1">  1       -5 0.10954651E+00 0.14282229E+03</pdfrwt>
<totfact> 0.14442268E+02</totfact>
</mgrwt>
</event>
<event>
 8    1  0.1821556E-007  0.1256774E+03  0.7546771E-02  0.1234018E+00
          5   -1    0    0  501    0  0.00000000000E+00  0.00000000000E+00  0.24061473652E+03  0.24066063540E+03  0.47000000000E+01 0.  1.
         -5   -1    0    0    0  501 -0.00000000000E+00 -0.00000000000E+00 -0.67364701203E+02  0.67528460431E+02  0.47000000000E+01 0.  1.
         25    2    1    2    0    0 -0.37719028141E+01 -0.12462593750E+02  0.61047468714E+02  0.13971976215E+03  0.12500110002E+03 0.  0.
         25    2    1    2    0    0  0.37719028141E+01  0.12462593750E+02  0.11220256661E+03  0.16846933368E+03  0.12499182751E+03 0.  0.
          5    1    4    4  502    0  0.17287148459E+02  0.59125073869E+02  0.21400281472E+02  0.65381051604E+02  0.47000000000E+01 0.  1.
         -5    1    4    4    0  502 -0.13515245645E+02 -0.46662480119E+02  0.90802285134E+02  0.10308828208E+03  0.47000000000E+01 0.  1.
          5    1    3    3  503    0  0.24961375798E+02 -0.56662430963E+02  0.60636906979E+02  0.86790701416E+02  0.47000000000E+01 0. -1.
         -5    1    3    3    0  503 -0.28733278612E+02  0.44199837213E+02  0.41056173577E+00  0.52929060737E+02  0.47000000000E+01 0. -1.
<mgrwt>
<rscale>  0 0.12567513E+03</rscale>
<asrwt>0</asrwt>
<pdfrwt beam="1">  1        5 0.37033780E-01 0.12567744E+03</pdfrwt>
<pdfrwt beam="2">  1       -5 0.10379927E-01 0.12567744E+03</pdfrwt>
<totfact> 0.37363656E+02</totfact>
</mgrwt>
</event>
<event>
 8    1  0.1821556E-007  0.1259788E+03  0.7546771E-02  0.1233551E+00
         -5   -1    0    0    0  501 -0.00000000000E+00  0.00000000000E+00  0.14664250476E+02  0.15399033801E+02  0.47000000000E+01 0. -1.
          5   -1    0    0  501    0  0.00000000000E+00 -0.00000000000E+00 -0.10651433375E+04  0.10651537069E+04  0.47000000000E+01 0. -1.
         25    2    1    2    0    0  0.13903323409E+02  0.70599669911E+01 -0.57792896221E+03  0.59149827557E+03  0.12500071642E+03 0.  0.
         25    2    1    2    0    0 -0.13903323409E+02 -0.70599669911E+01 -0.47255012480E+03  0.48905446516E+03  0.12501001525E+03 0.  0.
          5    1    3    3  502    0  0.11438898449E+02  0.64116623929E+02 -0.37461146790E+03  0.38025995285E+03  0.47000000000E+01 0. -1.
         -5    1    3    3    0  502  0.24644249602E+01 -0.57056656938E+02 -0.20331749431E+03  0.21123832272E+03  0.47000000000E+01 0. -1.
          5    1    4    4  503    0 -0.21767107777E+02  0.25862974604E+02 -0.44169696006E+03  0.44301353813E+03  0.47000000000E+01 0. -1.
         -5    1    4    4    0  503  0.78637843681E+01 -0.32922941595E+02 -0.30853164732E+02  0.46040927030E+02  0.47000000000E+01 0. -1.
<mgrwt>
<rscale>  0 0.12597646E+03</rscale>
<asrwt>0</asrwt>
<pdfrwt beam="2">  1        5 0.16392547E+00 0.12597877E+03</pdfrwt>
<pdfrwt beam="1">  1       -5 0.23133588E-02 0.12597877E+03</pdfrwt>
<totfact> 0.14086420E+02</totfact>
</mgrwt>
</event>
<event>
 8    1  0.1821556E-007  0.1710932E+03  0.7546771E-02  0.1176717E+00
          5   -1    0    0  501    0  0.00000000000E+00  0.00000000000E+00  0.22246047744E+02  0.22737120316E+02  0.47000000000E+01 0. -1.
         -5   -1    0    0    0  501 -0.00000000000E+00 -0.00000000000E+00 -0.13008966052E+04  0.13009050955E+04  0.47000000000E+01 0. -1.
         25    2    1    2    0    0  0.57105343642E+02 -0.10188712414E+03 -0.63821658804E+03  0.66075206753E+03  0.12502349843E+03 0.  0.
         25    2    1    2    0    0 -0.57105343642E+02  0.10188712414E+03 -0.64043396942E+03  0.66289014826E+03  0.12500269250E+03 0.  0.
          5    1    3    3  502    0  0.15928655105E+02 -0.82373695491E+02 -0.16349617106E+03  0.18382664582E+03  0.47000000000E+01 0. -1.
         -5    1    3    3    0  502  0.41176688536E+02 -0.19513428653E+02 -0.47472041698E+03  0.47692542172E+03  0.47000000000E+01 0. -1.
          5    1    4    4  503    0 -0.57246418060E+02  0.86227063548E+01 -0.41249330749E+03  0.41656250692E+03  0.47000000000E+01 0.  1.
         -5    1    4    4    0  503  0.14107441879E+00  0.93264417789E+02 -0.22794066192E+03  0.24632764133E+03  0.47000000000E+01 0.  1.
<mgrwt>
<rscale>  0 0.17108939E+03</rscale>
<asrwt>0</asrwt>
<pdfrwt beam="1">  1        5 0.34608978E-02 0.17109320E+03</pdfrwt>
<pdfrwt beam="2">  1       -5 0.20017631E+00 0.17109320E+03</pdfrwt>
<totfact> 0.44474842E+01</totfact>
</mgrwt>
</event>
<event>
 8    1  0.1821556E-007  0.1334450E+03  0.7546771E-02  0.1222434E+00
         -5   -1    0    0    0  501 -0.00000000000E+00  0.00000000000E+00  0.54507564951E+03  0.54509591238E+03  0.47000000000E+01 0.  1.
          5   -1    0    0  501    0  0.00000000000E+00 -0.00000000000E+00 -0.32479758610E+02  0.32818054777E+02  0.47000000000E+01 0.  1.
         25    2    1    2    0    0  0.46572671312E+02  0.37512890496E+01  0.25803257639E+03  0.29049678814E+03  0.12499795022E+03 0.  0.
         25    2    1    2    0    0 -0.46572671312E+02 -0.37512890496E+01  0.25456331452E+03  0.28741717902E+03  0.12499227102E+03 0.  0.
          5    1    3    3  502    0  0.15581566813E+02  0.63179863671E+02  0.10927809347E+03  0.12727243264E+03  0.47000000000E+01 0. -1.
         -5    1    3    3    0  502  0.30991104499E+02 -0.59428574622E+02  0.14875448291E+03  0.16322435549E+03  0.47000000000E+01 0. -1.
          5    1    4    4  503    0 -0.27243835754E+00  0.18269449874E+01 -0.13954025883E+02  0.14839703130E+02  0.47000000000E+01 0.  1.
         -5    1    4    4    0  503 -0.46300232954E+02 -0.55782340370E+01  0.26851734040E+03  0.27257747589E+03  0.47000000000E+01 0.  1.
<mgrwt>
<rscale>  0 0.13344369E+03</rscale>
<asrwt>0</asrwt>
<pdfrwt beam="2">  1        5 0.50244677E-02 0.13344502E+03</pdfrwt>
<pdfrwt beam="1">  1       -5 0.83885369E-01 0.13344502E+03</pdfrwt>
<totfact> 0.22374719E+02</totfact>
</mgrwt>
</event>
<event>
 8    1  0.1821556E-007  0.1492749E+03  0.7546771E-02  0.1201367E+00
          5   -1    0    0  501    0  0.00000000000E+00  0.00000000000E+00  0.90890451202E+01  0.10232338012E+02  0.47000000000E+01 0.  1.
         -5   -1    0    0    0  501 -0.00000000000E+00 -0.00000000000E+00 -0.23146275476E+04  0.23146323194E+04  0.47000000000E+01 0.  1.
         25    2    1    2    0    0 -0.72094099145E+02  0.38215681504E+02 -0.12261165428E+04  0.12351698531E+04  0.12499916838E+03 0.  0.
         25    2    1    2    0    0  0.72094099145E+02 -0.38215681504E+02 -0.10794219597E+04  0.10896948043E+04  0.12500000822E+03 0.  0.
          5    1    3    3  502    0 -0.10399176173E+03  0.23383047661E+02 -0.10569074832E+04  0.10622789518E+04  0.47000000000E+01 0.  1.
         -5    1    3    3    0  502  0.31897662581E+02  0.14832633843E+02 -0.16920905959E+03  0.17289090130E+03  0.47000000000E+01 0.  1.
          5    1    4    4  503    0  0.76823630730E+01 -0.56218118482E+02 -0.81210510191E+03  0.81409844742E+03  0.47000000000E+01 0. -1.
         -5    1    4    4    0  503  0.64411736072E+02  0.18002436978E+02 -0.26731685777E+03  0.27559635689E+03  0.47000000000E+01 0. -1.
<mgrwt>
<rscale>  0 0.14927474E+03</rscale>
<asrwt>0</asrwt>
<pdfrwt beam="1">  1        5 0.14866291E-02 0.14927491E+03</pdfrwt>
<pdfrwt beam="2">  1       -5 0.35618442E+00 0.14927491E+03</pdfrwt>
<totfact> 0.16380388E+01</totfact>
</mgrwt>
</event>
<event>
 8    1  0.1821556E-007  0.1795870E+03  0.7546771E-02  0.1168205E+00
          5   -1    0    0  501    0  0.00000000000E+00  0.00000000000E+00  0.15086093896E+03  0.15093413432E+03  0.47000000000E+01 0. -1.
         -5   -1    0    0    0  501 -0.00000000000E+00 -0.00000000000E+00 -0.24729908191E+03  0.24734374040E+03  0.47000000000E+01 0. -1.
         25    2    1    2    0    0  0.12680102345E+03 -0.23352797118E+02 -0.12168749039E+03  0.21693165716E+03  0.12501058307E+03 0.  0.
         25    2    1    2    0    0 -0.12680102345E+03  0.23352797118E+02  0.25249347434E+02  0.18134621756E+03  0.12500027359E+03 0.  0.
          5    1    3    3  502    0  0.14657818990E+03 -0.39015188761E+02 -0.11501882796E+03  0.19041736133E+03  0.47000000000E+01 0.  1.
         -5    1    3    3    0  502 -0.19777166453E+02  0.15662391644E+02 -0.66686624329E+01  0.26514295833E+02  0.47000000000E+01 0.  1.
          5    1    4    4  503    0 -0.11852989623E+03  0.58567901987E+02  0.45159060574E+02  0.13978900599E+03  0.47000000000E+01 0. -1.
         -5    1    4    4    0  503 -0.82711272207E+01 -0.35215104869E+02 -0.19909713140E+02  0.41557211573E+02  0.47000000000E+01 0. -1.
<mgrwt>
<rscale>  0 0.17958523E+03</rscale>
<asrwt>0</asrwt>
<pdfrwt beam="1">  1        5 0.23218441E-01 0.17958702E+03</pdfrwt>
<pdfrwt beam="2">  1       -5 0.38055078E-01 0.17958702E+03</pdfrwt>
<totfact> 0.91604620E+01</totfact>
</mgrwt>
</event>
<event>
 8    1  0.1821556E-007  0.1575850E+03  0.7546771E-02  0.1191452E+00
         -5   -1    0    0    0  501 -0.00000000000E+00  0.00000000000E+00  0.62667673564E+03  0.62669436011E+03  0.47000000000E+01 0. -1.
          5   -1    0    0  501    0  0.00000000000E+00 -0.00000000000E+00 -0.61853372659E+02  0.62031683109E+02  0.47000000000E+01 0. -1.
         25    2    1    2    0    0  0.13565510491E+01 -0.95937136283E+02  0.48916996044E+03  0.51392633961E+03  0.12500903166E+03 0.  0.
         25    2    1    2    0    0 -0.13565510491E+01  0.95937136283E+02  0.75653402543E+02  0.17479970361E+03  0.12500289884E+03 0.  0.
          5    1    3    3  502    0 -0.51063843758E+02 -0.37118135478E+02  0.33278420996E+03  0.33875166792E+03  0.47000000000E+01 0.  1.
         -5    1    3    3    0  502  0.52420394807E+02 -0.58819000805E+02  0.15638575048E+03  0.17517467169E+03  0.47000000000E+01 0.  1.
          5    1    4    4  503    0 -0.46406164564E+02  0.67445570207E+02  0.87578264215E+02  0.11997699535E+03  0.47000000000E+01 0. -1.
         -5    1    4    4    0  503  0.45049613515E+02  0.28491566076E+02 -0.11924861672E+02  0.54822708263E+02  0.47000000000E+01 0. -1.
<mgrwt>
<rscale>  0 0.15758378E+03</rscale>
<asrwt>0</asrwt>
<pdfrwt beam="2">  1        5 0.95309755E-02 0.15758500E+03</pdfrwt>
<pdfrwt beam="1">  1       -5 0.96426876E-01 0.15758500E+03</pdfrwt>
<totfact> 0.57076838E+01</totfact>
</mgrwt>
</event>
<event>
 8    1  0.1821556E-007  0.1449907E+03  0.7546771E-02  0.1206769E+00
          5   -1    0    0  501    0  0.00000000000E+00  0.00000000000E+00  0.18215884010E+03  0.18221946391E+03  0.47000000000E+01 0. -1.
         -5   -1    0    0    0  501 -0.00000000000E+00 -0.00000000000E+00 -0.13909118371E+03  0.13917056939E+03  0.47000000000E+01 0. -1.
         25    2    1    2    0    0 -0.18374089598E+02  0.71133036526E+02 -0.44928660633E+02  0.15178562307E+03  0.12499109876E+03 0.  0.
         25    2    1    2    0    0  0.18374089598E+02 -0.71133036526E+02  0.87996317026E+02  0.16960441023E+03  0.12499915242E+03 0.  0.
          5    1    3    3  502    0 -0.45768998085E+02  0.53184495470E+02 -0.77988669551E+02  0.10501292455E+03  0.47000000000E+01 0. -1.
         -5    1    3    3    0  502  0.27394908487E+02  0.17948541056E+02  0.33060008918E+02  0.46772698519E+02  0.47000000000E+01 0. -1.
          5    1    4    4  503    0 -0.10003653139E+02 -0.50558080282E+02 -0.20367401689E+02  0.55615767634E+02  0.47000000000E+01 0.  1.
         -5    1    4    4    0  503  0.28377742737E+02 -0.20574956244E+02  0.10836371871E+03  0.11398864260E+03  0.47000000000E+01 0.  1.
<mgrwt>
<rscale>  0 0.14498897E+03</rscale>
<asrwt>0</asrwt>
<pdfrwt beam="1">  1        5 0.28035207E-01 0.14499070E+03</pdfrwt>
<pdfrwt beam="2">  1       -5 0.21409414E-01 0.14499070E+03</pdfrwt>
<totfact> 0.18377948E+02</totfact>
</mgrwt>
</event>
<event>
 8    1  0.1821556E-007  0.1499109E+03  0.7546771E-02  0.1200584E+00
         -5   -1    0    0    0  501 -0.00000000000E+00  0.00000000000E+00  0.79208488446E+03  0.79209882855E+03  0.47000000000E+01 0.  1.
          5   -1    0    0  501    0  0.00000000000E+00 -0.00000000000E+00 -0.30184304476E+02  0.30548031633E+02  0.47000000000E+01 0.  1.
         25    2    1    2    0    0 -0.62042743625E+02  0.54745963194E+02  0.48672159325E+03  0.50928322740E+03  0.12500029543E+03 0.  0.
         25    2    1    2    0    0  0.62042743625E+02 -0.54745963194E+02  0.27517898673E+03  0.31336363277E+03  0.12500747612E+03 0.  0.
          5    1    4    4  502    0  0.26227744785E+02 -0.18905605259E+02  0.25739465081E+03  0.25945984809E+03  0.47000000000E+01 0. -1.
         -5    1    4    4    0  502  0.35814998840E+02 -0.35840357935E+02  0.17784335920E+02  0.53903784681E+02  0.47000000000E+01 0. -1.
          5    1    3    3  503    0  0.24322328348E+02  0.54971970658E+01  0.20687668882E+02  0.32739341405E+02  0.47000000000E+01 0. -1.
         -5    1    3    3    0  503 -0.86365071973E+02  0.49248766128E+02  0.46603392437E+03  0.47654388600E+03  0.47000000000E+01 0. -1.
<mgrwt>
<rscale>  0 0.14990945E+03</rscale>
<asrwt>0</asrwt>
<pdfrwt beam="2">  1        5 0.46727910E-02 0.14991095E+03</pdfrwt>
<pdfrwt beam="1">  1       -5 0.12188826E+00 0.14991095E+03</pdfrwt>
<totfact> 0.10519784E+02</totfact>
</mgrwt>
</event>
<event>
 8    1  0.1821556E-007  0.1522345E+03  0.7546771E-02  0.1197759E+00
          5   -1    0    0  501    0  0.00000000000E+00  0.00000000000E+00  0.74261279143E+02  0.74409862114E+02  0.47000000000E+01 0.  1.
         -5   -1    0    0    0  501 -0.00000000000E+00 -0.00000000000E+00 -0.31251781187E+03  0.31255315186E+03  0.47000000000E+01 0.  1.
         25    2    1    2    0    0 -0.79061818230E+02  0.35987096842E+02 -0.10843993198E+03  0.18690790792E+03  0.12501801852E+03 0.  0.
         25    2    1    2    0    0  0.79061818230E+02 -0.35987096842E+02 -0.12981660074E+03  0.20005510605E+03  0.12499541346E+03 0.  0.
          5    1    4    4  502    0  0.74666124983E+02 -0.67951006466E+02 -0.47810272635E+02  0.11180465853E+03  0.47000000000E+01 0.  1.
         -5    1    4    4    0  502  0.43956932469E+01  0.31963909623E+02 -0.82006328108E+02  0.88250447519E+02  0.47000000000E+01 0.  1.
          5    1    3    3  503    0 -0.27171693095E+02 -0.34386790841E+02  0.41546587206E+01  0.44273055904E+02  0.47000000000E+01 0.  1.
         -5    1    3    3    0  503 -0.51890125135E+02  0.70373887684E+02 -0.11259459071E+03  0.14263485202E+03  0.47000000000E+01 0.  1.
<mgrwt>
<rscale>  0 0.15222987E+03</rscale>
<asrwt>0</asrwt>
<pdfrwt beam="1">  1        5 0.11438960E-01 0.15223451E+03</pdfrwt>
<pdfrwt beam="2">  1       -5 0.48093811E-01 0.15223451E+03</pdfrwt>
<totfact> 0.19628029E+02</totfact>
</mgrwt>
</event>
<event>
 8    1  0.1821556E-007  0.1263006E+03  0.7546771E-02  0.1233051E+00
          5   -1    0    0  501    0  0.00000000000E+00  0.00000000000E+00  0.60022797076E+02  0.60206529287E+02  0.47000000000E+01 0. -1.
         -5   -1    0    0    0  501 -0.00000000000E+00 -0.00000000000E+00 -0.27149200276E+03  0.27153268231E+03  0.47000000000E+01 0. -1.
         25    2    1    2    0    0  0.17915094622E+02  0.22769509558E+01 -0.13108005289E+03  0.18202526475E+03  0.12500032649E+03 0.  0.
         25    2    1    2    0    0 -0.17915094622E+02 -0.22769509558E+01 -0.80389152799E+02  0.14971394685E+03  0.12500285946E+03 0.  0.
          5    1    4    4  502    0 -0.38665357078E+02 -0.49080035445E+02 -0.11417658188E+02  0.63689187746E+02  0.47000000000E+01 0.  1.
         -5    1    4    4    0  502  0.20750262457E+02  0.46803084489E+02 -0.68971494610E+02  0.86024759102E+02  0.47000000000E+01 0.  1.
          5    1    3    3  503    0 -0.43084535772E+02 -0.87806786099E+01 -0.10623873755E+03  0.11507448412E+03  0.47000000000E+01 0. -1.
         -5    1    3    3    0  503  0.60999630393E+02  0.11057629566E+02 -0.24841315341E+02  0.66950780635E+02  0.47000000000E+01 0. -1.
<mgrwt>
<rscale>  0 0.12630001E+03</rscale>
<asrwt>0</asrwt>
<pdfrwt beam="1">  1        5 0.92515390E-02 0.12630063E+03</pdfrwt>
<pdfrwt beam="2">  1       -5 0.41785262E-01 0.12630063E+03</pdfrwt>
<totfact> 0.35762279E+02</totfact>
</mgrwt>
</event>
<event>
 8    1  0.1821556E-007  0.1258171E+03  0.7546771E-02  0.1233799E+00
         -5   -1    0    0    0  501 -0.00000000000E+00  0.00000000000E+00  0.46962179493E+03  0.46964531327E+03  0.47000000000E+01 0. -1.
          5   -1    0    0  501    0  0.00000000000E+00 -0.00000000000E+00 -0.40851764595E+02  0.41121243543E+02  0.47000000000E+01 0. -1.
         25    2    1    2    0    0  0.56998697988E+01  0.13097773270E+02  0.32216019215E+03  0.34585564237E+03  0.12499958310E+03 0.  0.
         25    2    1    2    0    0 -0.56998697988E+01 -0.13097773270E+02  0.10660983819E+03  0.16491091444E+03  0.12500364764E+03 0.  0.
          5    1    3    3  502    0 -0.55168513233E+02 -0.42611152102E+01  0.20748396395E+03  0.21478688799E+03  0.47000000000E+01 0.  1.
         -5    1    3    3    0  502  0.60868383032E+02  0.17358888480E+02  0.11467622820E+03  0.13106875439E+03  0.47000000000E+01 0.  1.
          5    1    4    4  503    0 -0.15698254359E+02 -0.42119630227E+02  0.12210889013E+03  0.13020433745E+03  0.47000000000E+01 0. -1.
         -5    1    4    4    0  503  0.99983845603E+01  0.29021856957E+02 -0.15499051948E+02  0.34706576990E+02  0.47000000000E+01 0. -1.
<mgrwt>
<rscale>  0 0.12581613E+03</rscale>
<asrwt>0</asrwt>
<pdfrwt beam="2">  1        5 0.63074250E-02 0.12581714E+03</pdfrwt>
<pdfrwt beam="1">  1       -5 0.72272047E-01 0.12581714E+03</pdfrwt>
<totfact> 0.21103350E+02</totfact>
</mgrwt>
</event>
<event>
 8    1  0.1821556E-007  0.1404603E+03  0.7546771E-02  0.1212718E+00
         -5   -1    0    0    0  501 -0.00000000000E+00  0.00000000000E+00  0.49868079451E+03  0.49870294246E+03  0.47000000000E+01 0. -1.
          5   -1    0    0  501    0  0.00000000000E+00 -0.00000000000E+00 -0.56263542306E+02  0.56459509322E+02  0.47000000000E+01 0. -1.
         25    2    1    2    0    0  0.52138348949E+02 -0.37222142220E+02  0.37286468734E+03  0.39844341793E+03  0.12500074770E+03 0.  0.
         25    2    1    2    0    0 -0.52138348949E+02  0.37222142220E+02  0.69552564868E+02  0.15671903385E+03  0.12497760195E+03 0.  0.
          5    1    4    4  502    0 -0.59342739057E+02  0.51675424055E+02 -0.62467859313E+01  0.79076054938E+02  0.47000000000E+01 0. -1.
         -5    1    4    4    0  502  0.72043901087E+01 -0.14453281834E+02  0.75799350799E+02  0.77642978911E+02  0.47000000000E+01 0. -1.
          5    1    3    3  503    0  0.11521386265E+02 -0.31221879257E+02  0.12721738405E+02  0.35937177322E+02  0.47000000000E+01 0. -1.
         -5    1    3    3    0  503  0.40616962683E+02 -0.60002629628E+01  0.36014294893E+03  0.36250624061E+03  0.47000000000E+01 0. -1.
<mgrwt>
<rscale>  0 0.14045510E+03</rscale>
<asrwt>0</asrwt>
<pdfrwt beam="2">  1        5 0.86727077E-02 0.14046025E+03</pdfrwt>
<pdfrwt beam="1">  1       -5 0.76736900E-01 0.14046025E+03</pdfrwt>
<totfact> 0.11105154E+02</totfact>
</mgrwt>
</event>
<event>
 8    1  0.1821556E-007  0.1324811E+03  0.7546771E-02  0.1223841E+00
          5   -1    0    0  501    0  0.00000000000E+00  0.00000000000E+00  0.60022772297E+02  0.60206504584E+02  0.47000000000E+01 0. -1.
         -5   -1    0    0    0  501 -0.00000000000E+00 -0.00000000000E+00 -0.40527861496E+03  0.40530586690E+03  0.47000000000E+01 0. -1.
         25    2    1    2    0    0 -0.31638384034E+02 -0.30409573068E+02 -0.29582173304E+03  0.32410881230E+03  0.12494116612E+03 0.  0.
         25    2    1    2    0    0  0.31638384034E+02  0.30409573068E+02 -0.49434109620E+02  0.14140355919E+03  0.12500202350E+03 0.  0.
          5    1    3    3  502    0  0.21091803216E+02 -0.41689740774E+02 -0.37265216292E+02  0.59947351851E+02  0.47000000000E+01 0.  1.
         -5    1    3    3    0  502 -0.52730187250E+02  0.11280167706E+02 -0.25855651675E+03  0.26416146045E+03  0.47000000000E+01 0.  1.
          5    1    4    4  503    0  0.19332041995E+01  0.55089445255E+02  0.22419580775E+02  0.59693482552E+02  0.47000000000E+01 0. -1.
         -5    1    4    4    0  503  0.29705179835E+02 -0.24679872187E+02 -0.71853690395E+02  0.81710076634E+02  0.47000000000E+01 0. -1.
<mgrwt>
<rscale>  0 0.13246672E+03</rscale>
<asrwt>0</asrwt>
<pdfrwt beam="1">  1        5 0.92505025E-02 0.13248108E+03</pdfrwt>
<pdfrwt beam="2">  1       -5 0.62366784E-01 0.13248108E+03</pdfrwt>
<totfact> 0.15531150E+02</totfact>
</mgrwt>
</event>
<event>
 8    1  0.1821556E-007  0.1441934E+03  0.7546771E-02  0.1207796E+00
         -5   -1    0    0    0  501 -0.00000000000E+00  0.00000000000E+00  0.44787409479E+03  0.44789875506E+03  0.47000000000E+01 0. -1.
          5   -1    0    0  501    0  0.00000000000E+00 -0.00000000000E+00 -0.50885434481E+02  0.51102029728E+02  0.47000000000E+01 0. -1.
         25    2    1    2    0    0  0.40607941158E+02 -0.59297601503E+02  0.27339129900E+03  0.30908490449E+03  0.12500186152E+03 0.  0.
         25    2    1    2    0    0 -0.40607941158E+02  0.59297601503E+02  0.12359736131E+03  0.18991588031E+03  0.12500609361E+03 0.  0.
          5    1    4    4  502    0  0.19987415044E+01  0.80560584048E+02  0.32505108268E+02  0.87021116594E+02  0.47000000000E+01 0.  1.
         -5    1    4    4    0  502 -0.42606682663E+02 -0.21262982546E+02  0.91092253045E+02  0.10289476371E+03  0.47000000000E+01 0.  1.
          5    1    3    3  503    0  0.29579513363E+02 -0.33159418955E+02  0.27656747149E+03  0.28015379876E+03  0.47000000000E+01 0. -1.
         -5    1    3    3    0  503  0.11028427795E+02 -0.26138182547E+02 -0.31761724911E+01  0.28931105720E+02  0.47000000000E+01 0. -1.
<mgrwt>
<rscale>  0 0.14419247E+03</rscale>
<asrwt>0</asrwt>
<pdfrwt beam="2">  1        5 0.78470866E-02 0.14419339E+03</pdfrwt>
<pdfrwt beam="1">  1       -5 0.68922264E-01 0.14419339E+03</pdfrwt>
<totfact> 0.16976927E+02</totfact>
</mgrwt>
</event>
<event>
 8    1  0.1821556E-007  0.1284976E+03  0.7546771E-02  0.1229703E+00
          5   -1    0    0  501    0  0.00000000000E+00  0.00000000000E+00  0.74315627523E+03  0.74317113737E+03  0.47000000000E+01 0. -1.
         -5   -1    0    0    0  501 -0.00000000000E+00 -0.00000000000E+00 -0.23337602508E+02  0.23806169175E+02  0.47000000000E+01 0. -1.
         25    2    1    2    0    0 -0.26845360593E+02  0.12893056617E+02  0.26752252962E+03  0.29678220289E+03  0.12499787120E+03 0.  0.
         25    2    1    2    0    0  0.26845360593E+02 -0.12893056617E+02  0.45229614311E+03  0.47019510365E+03  0.12499892053E+03 0.  0.
          5    1    3    3  502    0 -0.18825714728E+02 -0.22582787328E+02  0.32199327009E+01  0.29947417002E+02  0.47000000000E+01 0. -1.
         -5    1    3    3    0  502 -0.80196458652E+01  0.35475843945E+02  0.26430259692E+03  0.26683478589E+03  0.47000000000E+01 0. -1.
          5    1    4    4  503    0  0.19728252950E+02  0.53221507498E+02  0.27370679633E+03  0.27956972866E+03  0.47000000000E+01 0.  1.
         -5    1    4    4    0  503  0.71171076432E+01 -0.66114564115E+02  0.17858934678E+03  0.19062537499E+03  0.47000000000E+01 0.  1.
<mgrwt>
<rscale>  0 0.12849735E+03</rscale>
<asrwt>0</asrwt>
<pdfrwt beam="1">  1        5 0.11436890E+00 0.12849760E+03</pdfrwt>
<pdfrwt beam="2">  1       -5 0.36275878E-02 0.12849760E+03</pdfrwt>
<totfact> 0.17826676E+02</totfact>
</mgrwt>
</event>
<event>
 8    1  0.1821556E-007  0.1486410E+03  0.7546771E-02  0.1202155E+00
         -5   -1    0    0    0  501 -0.00000000000E+00  0.00000000000E+00  0.52700087202E+02  0.52909254305E+02  0.47000000000E+01 0. -1.
          5   -1    0    0  501    0  0.00000000000E+00 -0.00000000000E+00 -0.48135779569E+03  0.48138074065E+03  0.47000000000E+01 0. -1.
         25    2    1    2    0    0 -0.78633180100E+02  0.16842953255E+02 -0.11756007136E+03  0.18950615588E+03  0.12500140261E+03 0.  0.
         25    2    1    2    0    0  0.78633180100E+02 -0.16842953255E+02 -0.31109763713E+03  0.34478383908E+03  0.12500917475E+03 0.  0.
          5    1    4    4  502    0 -0.22348684657E+02 -0.31863712339E+02 -0.44703956480E+02  0.59458334949E+02  0.47000000000E+01 0. -1.
         -5    1    4    4    0  502  0.10098186476E+03  0.15020759084E+02 -0.26639368065E+03  0.28532550413E+03  0.47000000000E+01 0. -1.
          5    1    3    3  503    0 -0.10551960936E+02 -0.24516776565E+02 -0.10534868753E+03  0.10877891421E+03  0.47000000000E+01 0.  1.
         -5    1    3    3    0  503 -0.68081219163E+02  0.41359729819E+02 -0.12211383830E+02  0.80727241676E+02  0.47000000000E+01 0.  1.
<mgrwt>
<rscale>  0 0.14863940E+03</rscale>
<asrwt>0</asrwt>
<pdfrwt beam="2">  1        5 0.74072897E-01 0.14864103E+03</pdfrwt>
<pdfrwt beam="1">  1       -5 0.81255608E-02 0.14864103E+03</pdfrwt>
<totfact> 0.13716946E+02</totfact>
</mgrwt>
</event>
<event>
 8    1  0.1821556E-007  0.3270455E+03  0.7546771E-02  0.1072453E+00
          5   -1    0    0  501    0  0.00000000000E+00  0.00000000000E+00  0.22760331420E+03  0.22765183644E+03  0.47000000000E+01 0.  1.
         -5   -1    0    0    0  501 -0.00000000000E+00 -0.00000000000E+00 -0.53932990348E+03  0.53935038221E+03  0.47000000000E+01 0.  1.
         25    2    1    2    0    0 -0.28548414715E+03 -0.99162549757E+02 -0.29353705993E+03  0.43945124351E+03  0.12497591898E+03 0.  0.
         25    2    1    2    0    0  0.28548414715E+03  0.99162549757E+02 -0.18189529353E+02  0.32755097514E+03  0.12499749112E+03 0.  0.
          5    1    3    3  502    0 -0.14963105727E+03 -0.98149975439E+02 -0.10671314125E+03  0.20840502752E+03  0.47000000000E+01 0. -1.
         -5    1    3    3    0  502 -0.13585308988E+03 -0.10125743181E+01 -0.18682391868E+03  0.23104621599E+03  0.47000000000E+01 0. -1.
          5    1    4    4  503    0  0.17186308422E+03  0.97476781311E+02 -0.59737623801E+02  0.20646868118E+03  0.47000000000E+01 0. -1.
         -5    1    4    4    0  503  0.11362106293E+03  0.16857684462E+01  0.41548094448E+02  0.12108229395E+03  0.47000000000E+01 0. -1.
<mgrwt>
<rscale>  0 0.32704347E+03</rscale>
<asrwt>0</asrwt>
<pdfrwt beam="1">  1        5 0.35021202E-01 0.32704554E+03</pdfrwt>
<pdfrwt beam="2">  1       -5 0.82979139E-01 0.32704554E+03</pdfrwt>
<totfact> 0.84839319E+00</totfact>
</mgrwt>
</event>
<event>
 8    1  0.1821556E-007  0.1796459E+03  0.7546771E-02  0.1168157E+00
          5   -1    0    0  501    0  0.00000000000E+00  0.00000000000E+00  0.53855823116E+03  0.53857873923E+03  0.47000000000E+01 0.  1.
         -5   -1    0    0    0  501 -0.00000000000E+00 -0.00000000000E+00 -0.61000359803E+02  0.61181156381E+02  0.47000000000E+01 0.  1.
         25    2    1    2    0    0  0.11949684068E+03  0.48663998416E+02  0.19673896402E+03  0.26641857202E+03  0.12499982350E+03 0.  0.
         25    2    1    2    0    0 -0.11949684068E+03 -0.48663998416E+02  0.28081890733E+03  0.33334132359E+03  0.12493798311E+03 0.  0.
          5    1    4    4  502    0 -0.65965951462E+02 -0.90079990319E+02  0.17318634652E+03  0.20611043649E+03  0.47000000000E+01 0.  1.
         -5    1    4    4    0  502 -0.53530889221E+02  0.41415991902E+02  0.10763256081E+03  0.12723088710E+03  0.47000000000E+01 0.  1.
          5    1    3    3  503    0  0.21883991907E+02  0.26235726592E+02 -0.10624765684E+02  0.36085982007E+02  0.47000000000E+01 0. -1.
         -5    1    3    3    0  503  0.97612848776E+02  0.22428271824E+02  0.20736372970E+03  0.23033259001E+03  0.47000000000E+01 0. -1.
<mgrwt>
<rscale>  0 0.17963510E+03</rscale>
<asrwt>0</asrwt>
<pdfrwt beam="1">  1        5 0.82870596E-01 0.17964586E+03</pdfrwt>
<pdfrwt beam="2">  1       -5 0.94001558E-02 0.17964586E+03</pdfrwt>
<totfact> 0.87048153E+01</totfact>
</mgrwt>
</event>
<event>
 8    1  0.1821556E-007  0.4213215E+03  0.7546771E-02  0.1036638E+00
         -5   -1    0    0    0  501 -0.00000000000E+00  0.00000000000E+00  0.62222905949E+03  0.62224680993E+03  0.47000000000E+01 0. -1.
          5   -1    0    0  501    0  0.00000000000E+00 -0.00000000000E+00 -0.28539724529E+03  0.28543594311E+03  0.47000000000E+01 0. -1.
         25    2    1    2    0    0 -0.78667450231E+01  0.40227315769E+03  0.15769756683E+03  0.44986088476E+03  0.12498285473E+03 0.  0.
         25    2    1    2    0    0  0.78667450231E+01 -0.40227315769E+03  0.17913424737E+03  0.45782186828E+03  0.12500482159E+03 0.  0.
          5    1    4    4  502    0  0.52569010488E+02 -0.32900606051E+03  0.16057494894E+03  0.36988497258E+03  0.47000000000E+01 0.  1.
         -5    1    4    4    0  502 -0.44702265465E+02 -0.73267097184E+02  0.18559298434E+02  0.87936895703E+02  0.47000000000E+01 0.  1.
          5    1    3    3  503    0 -0.62186504274E+02  0.14038394702E+03  0.50912866316E+02  0.16183023158E+03  0.47000000000E+01 0.  1.
         -5    1    3    3    0  503  0.54319759251E+02  0.26188921067E+03  0.10678470051E+03  0.28803065318E+03  0.47000000000E+01 0.  1.
<mgrwt>
<rscale>  0 0.42131984E+03</rscale>
<asrwt>0</asrwt>
<pdfrwt beam="2">  1        5 0.43911611E-01 0.42132147E+03</pdfrwt>
<pdfrwt beam="1">  1       -5 0.95731890E-01 0.42132147E+03</pdfrwt>
<totfact> 0.39145716E+00</totfact>
</mgrwt>
</event>
<event>
 8    1  0.1821556E-007  0.1965069E+03  0.7546771E-02  0.1152721E+00
          5   -1    0    0  501    0  0.00000000000E+00  0.00000000000E+00  0.19392556145E+03  0.19398250793E+03  0.47000000000E+01 0. -1.
         -5   -1    0    0    0  501 -0.00000000000E+00 -0.00000000000E+00 -0.24548253148E+03  0.24552752038E+03  0.47000000000E+01 0. -1.
         25    2    1    2    0    0 -0.20717118101E+02  0.15020266009E+03 -0.12138109219E+03  0.23097258517E+03  0.12499970990E+03 0.  0.
         25    2    1    2    0    0  0.20717118101E+02 -0.15020266009E+03  0.69824122159E+02  0.20853744314E+03  0.12498967588E+03 0.  0.
          5    1    4    4  502    0  0.62433202222E+02 -0.31658247415E+02  0.17360113637E+02  0.72274566166E+02  0.47000000000E+01 0. -1.
         -5    1    4    4    0  502 -0.41716084120E+02 -0.11854441268E+03  0.52464008522E+02  0.13626287698E+03  0.47000000000E+01 0. -1.
          5    1    3    3  503    0  0.25963601467E+02 -0.10840322385E+02 -0.21803459794E+02  0.35904067312E+02  0.47000000000E+01 0.  1.
         -5    1    3    3    0  503 -0.46680719568E+02  0.16104298248E+03 -0.99577632399E+02  0.19506851786E+03  0.47000000000E+01 0.  1.
<mgrwt>
<rscale>  0 0.19650531E+03</rscale>
<asrwt>0</asrwt>
<pdfrwt beam="1">  1        5 0.29842543E-01 0.19650691E+03</pdfrwt>
<pdfrwt beam="2">  1       -5 0.37774385E-01 0.19650691E+03</pdfrwt>
<totfact> 0.58612435E+01</totfact>
</mgrwt>
</event>
<event>
 8    1  0.1821556E-007  0.1262054E+03  0.7546771E-02  0.1233205E+00
          5   -1    0    0  501    0  0.00000000000E+00  0.00000000000E+00  0.30717590150E+02  0.31075075939E+02  0.47000000000E+01 0.  1.
         -5   -1    0    0    0  501 -0.00000000000E+00 -0.00000000000E+00 -0.51525574035E+03  0.51527717586E+03  0.47000000000E+01 0.  1.
         25    2    1    2    0    0 -0.15315142668E+02 -0.82774608094E+01 -0.24741604134E+03  0.27773600022E+03  0.12497807150E+03 0.  0.
         25    2    1    2    0    0  0.15315142668E+02  0.82774608094E+01 -0.23712210886E+03  0.26861625158E+03  0.12499890458E+03 0.  0.
          5    1    4    4  502    0  0.24652150451E+02  0.62702525510E+02 -0.99521777668E+02  0.12027472493E+03  0.47000000000E+01 0.  1.
         -5    1    4    4    0  502 -0.93370077833E+01 -0.54425064701E+02 -0.13760033119E+03  0.14834152664E+03  0.47000000000E+01 0.  1.
          5    1    3    3  503    0 -0.36246845434E+02 -0.12371991317E+02 -0.10739692530E+02  0.40054100523E+02  0.47000000000E+01 0.  1.
         -5    1    3    3    0  503  0.20931702766E+02  0.40945305075E+01 -0.23667634881E+03  0.23768189970E+03  0.47000000000E+01 0.  1.
<mgrwt>
<rscale>  0 0.12620021E+03</rscale>
<asrwt>0</asrwt>
<pdfrwt beam="1">  1        5 0.47549313E-02 0.12620537E+03</pdfrwt>
<pdfrwt beam="2">  1       -5 0.79299255E-01 0.12620537E+03</pdfrwt>
<totfact> 0.27383467E+02</totfact>
</mgrwt>
</event>
<event>
 8    1  0.1821556E-007  0.1355702E+03  0.7546771E-02  0.1219418E+00
         -5   -1    0    0    0  501 -0.00000000000E+00  0.00000000000E+00  0.74999536612E+02  0.75146659886E+02  0.47000000000E+01 0. -1.
          5   -1    0    0  501    0  0.00000000000E+00 -0.00000000000E+00 -0.26997696553E+03  0.27001787333E+03  0.47000000000E+01 0. -1.
         25    2    1    2    0    0 -0.35602872763E+01 -0.52347197611E+02 -0.44639984123E+02  0.14272784118E+03  0.12500241486E+03 0.  0.
         25    2    1    2    0    0  0.35602872763E+01  0.52347197611E+02 -0.15033744480E+03  0.20243669204E+03  0.12500544881E+03 0.  0.
          5    1    3    3  502    0 -0.45291637986E+02 -0.60963220723E+02  0.60601155323E+01  0.76332573340E+02  0.47000000000E+01 0.  1.
         -5    1    3    3    0  502  0.41731350710E+02  0.86160231124E+01 -0.50700099655E+02  0.66395267839E+02  0.47000000000E+01 0.  1.
          5    1    4    4  503    0  0.62801130684E+02  0.13048579495E+02 -0.70092132704E+02  0.95127517097E+02  0.47000000000E+01 0. -1.
         -5    1    4    4    0  503 -0.59240843408E+02  0.39298618116E+02 -0.80245312092E+02  0.10730917494E+03  0.47000000000E+01 0. -1.
<mgrwt>
<rscale>  0 0.13556946E+03</rscale>
<asrwt>0</asrwt>
<pdfrwt beam="2">  1        5 0.41549381E-01 0.13557016E+03</pdfrwt>
<pdfrwt beam="1">  1       -5 0.11552854E-01 0.13557016E+03</pdfrwt>
<totfact> 0.25164820E+02</totfact>
</mgrwt>
</event>
<event>
 8    1  0.1821556E-007  0.1325760E+03  0.7546771E-02  0.1223683E+00
          5   -1    0    0  501    0  0.00000000000E+00  0.00000000000E+00  0.21375908700E+02  0.21886513490E+02  0.47000000000E+01 0. -1.
         -5   -1    0    0    0  501 -0.00000000000E+00 -0.00000000000E+00 -0.86772452361E+03  0.86773725221E+03  0.47000000000E+01 0. -1.
         25    2    1    2    0    0 -0.30192567490E+02  0.32247808643E+02 -0.53583828911E+03  0.55199553007E+03  0.12499952340E+03 0.  0.
         25    2    1    2    0    0  0.30192567490E+02 -0.32247808643E+02 -0.31051032581E+03  0.33762823563E+03  0.12499860308E+03 0.  0.
          5    1    3    3  502    0 -0.78195872688E+02  0.23468212572E+02 -0.37682254550E+03  0.38559392151E+03  0.47000000000E+01 0.  1.
         -5    1    3    3    0  502  0.48003305198E+02  0.87795960716E+01 -0.15901574360E+03  0.16640160856E+03  0.47000000000E+01 0.  1.
          5    1    4    4  503    0 -0.21141152778E+02 -0.33073158377E+02 -0.26773600528E+03  0.27063894891E+03  0.47000000000E+01 0.  1.
         -5    1    4    4    0  503  0.51333720268E+02  0.82534973371E+00 -0.42774320526E+02  0.66989286719E+02  0.47000000000E+01 0.  1.
<mgrwt>
<rscale>  0 0.13257577E+03</rscale>
<asrwt>0</asrwt>
<pdfrwt beam="1">  1        5 0.33288584E-02 0.13257599E+03</pdfrwt>
<pdfrwt beam="2">  1       -5 0.13353631E+00 0.13257599E+03</pdfrwt>
<totfact> 0.13928899E+02</totfact>
</mgrwt>
</event>
<event>
 8    1  0.1821556E-007  0.1352792E+03  0.7546771E-02  0.1219826E+00
          5   -1    0    0  501    0  0.00000000000E+00  0.00000000000E+00  0.10556348304E+02  0.11555366265E+02  0.47000000000E+01 0. -1.
         -5   -1    0    0    0  501 -0.00000000000E+00 -0.00000000000E+00 -0.20943894120E+04  0.20943946856E+04  0.47000000000E+01 0. -1.
         25    2    1    2    0    0  0.15795138087E+02 -0.49273985468E+02 -0.15244994050E+04  0.15304897043E+04  0.12499154831E+03 0.  0.
         25    2    1    2    0    0 -0.15795138087E+02  0.49273985468E+02 -0.55933365866E+03  0.57546034752E+03  0.12499223105E+03 0.  0.
          5    1    3    3  502    0  0.54451671927E+02 -0.10361871039E+02 -0.32489583789E+03  0.32962364664E+03  0.47000000000E+01 0. -1.
         -5    1    3    3    0  502 -0.38656533839E+02 -0.38912114428E+02 -0.11996035671E+04  0.12008660577E+04  0.47000000000E+01 0. -1.
          5    1    4    4  503    0  0.40629241080E+02 -0.14712451374E+02 -0.11401406387E+03  0.12201839294E+03  0.47000000000E+01 0. -1.
         -5    1    4    4    0  503 -0.56424379167E+02  0.63986436842E+02 -0.44531959479E+03  0.45344195458E+03  0.47000000000E+01 0. -1.
<mgrwt>
<rscale>  0 0.13527907E+03</rscale>
<asrwt>0</asrwt>
<pdfrwt beam="1">  1        5 0.17013084E-02 0.13527923E+03</pdfrwt>
<pdfrwt beam="2">  1       -5 0.32229069E+00 0.13527923E+03</pdfrwt>
<totfact> 0.21572640E+01</totfact>
</mgrwt>
</event>
<event>
 8    1  0.1821556E-007  0.1324969E+03  0.7546771E-02  0.1223797E+00
         -5   -1    0    0    0  501 -0.00000000000E+00  0.00000000000E+00  0.44732792921E+02  0.44979025807E+02  0.47000000000E+01 0.  1.
          5   -1    0    0  501    0  0.00000000000E+00 -0.00000000000E+00 -0.42939016610E+03  0.42941588786E+03  0.47000000000E+01 0.  1.
         25    2    1    2    0    0 -0.43314059333E+02 -0.73754523193E+01 -0.12153001459E+03  0.17979149928E+03  0.12499973494E+03 0.  0.
         25    2    1    2    0    0  0.43314059333E+02  0.73754523193E+01 -0.26312735859E+03  0.29460341438E+03  0.12499863957E+03 0.  0.
          5    1    3    3  502    0 -0.23582762587E+02 -0.26577636359E+02 -0.14116863601E+03  0.14564748964E+03  0.47000000000E+01 0.  1.
         -5    1    3    3    0  502 -0.19731296747E+02  0.19202184040E+02  0.19638621418E+02  0.34144009642E+02  0.47000000000E+01 0.  1.
          5    1    4    4  503    0  0.74365270809E+02  0.90417504971E+01 -0.83640770650E+02  0.11238245090E+03  0.47000000000E+01 0.  1.
         -5    1    4    4    0  503 -0.31051211476E+02 -0.16662981778E+01 -0.17948658794E+03  0.18222096349E+03  0.47000000000E+01 0.  1.
<mgrwt>
<rscale>  0 0.13249668E+03</rscale>
<asrwt>0</asrwt>
<pdfrwt beam="2">  1        5 0.66080943E-01 0.13249694E+03</pdfrwt>
<pdfrwt beam="1">  1       -5 0.69028880E-02 0.13249694E+03</pdfrwt>
<totfact> 0.22565707E+02</totfact>
</mgrwt>
</event>
<event>
 8    1  0.1821556E-007  0.1388166E+03  0.7546771E-02  0.1214933E+00
         -5   -1    0    0    0  501 -0.00000000000E+00  0.00000000000E+00  0.76477533644E+03  0.76478977845E+03  0.47000000000E+01 0.  1.
          5   -1    0    0  501    0  0.00000000000E+00 -0.00000000000E+00 -0.46906347831E+02  0.47141228949E+02  0.47000000000E+01 0.  1.
         25    2    1    2    0    0 -0.33675896996E+02  0.50098914004E+02  0.63558301320E+03  0.65056576568E+03  0.12500432624E+03 0.  0.
         25    2    1    2    0    0  0.33675896996E+02 -0.50098914004E+02  0.82285975404E+02  0.16136524172E+03  0.12499516897E+03 0.  0.
          5    1    3    3  502    0 -0.24296154112E+02  0.56999706907E+01  0.17591182218E+02  0.30892271887E+02  0.47000000000E+01 0. -1.
         -5    1    3    3    0  502 -0.93797428842E+01  0.44398943313E+02  0.61799183098E+03  0.61967349379E+03  0.47000000000E+01 0. -1.
          5    1    4    4  503    0 -0.47704814910E+02 -0.18509026671E+02  0.30422922568E+02  0.59715807384E+02  0.47000000000E+01 0.  1.
         -5    1    4    4    0  503  0.81380711906E+02 -0.31589887333E+02  0.51863052837E+02  0.10164943434E+03  0.47000000000E+01 0.  1.
<mgrwt>
<rscale>  0 0.13881454E+03</rscale>
<asrwt>0</asrwt>
<pdfrwt beam="2">  1        5 0.72355402E-02 0.13881660E+03</pdfrwt>
<pdfrwt beam="1">  1       -5 0.11767692E+00 0.13881660E+03</pdfrwt>
<totfact> 0.53947713E+01</totfact>
</mgrwt>
</event>
<event>
 8    1  0.1821556E-007  0.1487610E+03  0.7546771E-02  0.1202004E+00
          5   -1    0    0  501    0  0.00000000000E+00  0.00000000000E+00  0.49957201995E+02  0.50177804168E+02  0.47000000000E+01 0. -1.
         -5   -1    0    0    0  501 -0.00000000000E+00 -0.00000000000E+00 -0.46477082899E+03  0.46479459278E+03  0.47000000000E+01 0. -1.
         25    2    1    2    0    0  0.76965874138E+02 -0.24120649937E+02 -0.26468015711E+03  0.30361989125E+03  0.12499560495E+03 0.  0.
         25    2    1    2    0    0 -0.76965874138E+02  0.24120649937E+02 -0.15013346988E+03  0.21135250570E+03  0.12499708537E+03 0.  0.
          5    1    4    4  502    0  0.73993799230E+00 -0.44296252837E+02 -0.36879773652E+02  0.57835224805E+02  0.47000000000E+01 0.  1.
         -5    1    4    4    0  502 -0.77705812131E+02  0.68416902773E+02 -0.11325369623E+03  0.15351728090E+03  0.47000000000E+01 0.  1.
          5    1    3    3  503    0  0.10723958279E+03 -0.22882179545E+02 -0.24121210008E+03  0.26500809324E+03  0.47000000000E+01 0. -1.
         -5    1    3    3    0  503 -0.30273708653E+02 -0.12384703919E+01 -0.23468057034E+02  0.38611798009E+02  0.47000000000E+01 0. -1.
<mgrwt>
<rscale>  0 0.14876065E+03</rscale>
<asrwt>0</asrwt>
<pdfrwt beam="1">  1        5 0.77045211E-02 0.14876096E+03</pdfrwt>
<pdfrwt beam="2">  1       -5 0.71521999E-01 0.14876096E+03</pdfrwt>
<totfact> 0.16278539E+02</totfact>
</mgrwt>
</event>
<event>
 8    1  0.1821556E-007  0.1423463E+03  0.7546771E-02  0.1210209E+00
         -5   -1    0    0    0  501 -0.00000000000E+00  0.00000000000E+00  0.45615485989E+02  0.45856979425E+02  0.47000000000E+01 0. -1.
          5   -1    0    0  501    0  0.00000000000E+00 -0.00000000000E+00 -0.45188740673E+03  0.45191184800E+03  0.47000000000E+01 0. -1.
         25    2    1    2    0    0  0.53193823647E+02 -0.42494353801E+02 -0.16775959190E+03  0.22001305056E+03  0.12500843478E+03 0.  0.
         25    2    1    2    0    0 -0.53193823647E+02  0.42494353801E+02 -0.23851232885E+03  0.27775577686E+03  0.12499915035E+03 0.  0.
          5    1    4    4  502    0 -0.16616718205E+02  0.44727159925E+02 -0.13610304764E+02  0.49839387583E+02  0.47000000000E+01 0. -1.
         -5    1    4    4    0  502 -0.36577105442E+02 -0.22328061236E+01 -0.22490202408E+03  0.22791638928E+03  0.47000000000E+01 0. -1.
          5    1    3    3  503    0 -0.24148986121E+02  0.33116217995E+01 -0.11067730402E+03  0.11342705142E+03  0.47000000000E+01 0.  1.
         -5    1    3    3    0  503  0.77342809769E+02 -0.45805975601E+02 -0.57082287881E+02  0.10658599914E+03  0.47000000000E+01 0.  1.
<mgrwt>
<rscale>  0 0.14234424E+03</rscale>
<asrwt>0</asrwt>
<pdfrwt beam="2">  1        5 0.69541593E-01 0.14234627E+03</pdfrwt>
<pdfrwt beam="1">  1       -5 0.70382239E-02 0.14234627E+03</pdfrwt>
<totfact> 0.19948587E+02</totfact>
</mgrwt>
</event>
<event>
 8    1  0.1821556E-007  0.1476105E+03  0.7546771E-02  0.1203441E+00
         -5   -1    0    0    0  501 -0.00000000000E+00  0.00000000000E+00  0.18174286440E+03  0.18180362692E+03  0.47000000000E+01 0. -1.
          5   -1    0    0  501    0  0.00000000000E+00 -0.00000000000E+00 -0.12431437136E+03  0.12440318696E+03  0.47000000000E+01 0. -1.
         25    2    1    2    0    0 -0.26351463156E+02 -0.73953747873E+02  0.58004666611E+02  0.15859821065E+03  0.12500117854E+03 0.  0.
         25    2    1    2    0    0  0.26351463156E+02  0.73953747873E+02 -0.57617357400E+00  0.14760860323E+03  0.12499764533E+03 0.  0.
          5    1    4    4  502    0 -0.23247787385E+01  0.70452246554E+02  0.51804287479E+02  0.87605352816E+02  0.47000000000E+01 0.  1.
         -5    1    4    4    0  502  0.28676241894E+02  0.35015013186E+01 -0.52380461053E+02  0.60003250419E+02  0.47000000000E+01 0.  1.
          5    1    3    3  503    0 -0.86734081503E+00  0.34258948219E+02  0.24509844027E+02  0.42393988576E+02  0.47000000000E+01 0. -1.
         -5    1    3    3    0  503 -0.25484122341E+02 -0.10821269609E+03  0.33494822584E+02  0.11620422207E+03  0.47000000000E+01 0. -1.
<mgrwt>
<rscale>  0 0.14760972E+03</rscale>
<asrwt>0</asrwt>
<pdfrwt beam="2">  1        5 0.19136794E-01 0.14761047E+03</pdfrwt>
<pdfrwt beam="1">  1       -5 0.27971947E-01 0.14761047E+03</pdfrwt>
<totfact> 0.22907335E+02</totfact>
</mgrwt>
</event>
<event>
 8    1  0.1821556E-007  0.1284835E+03  0.7546771E-02  0.1229725E+00
          5   -1    0    0  501    0  0.00000000000E+00  0.00000000000E+00  0.46923552340E+03  0.46925906109E+03  0.47000000000E+01 0.  1.
         -5   -1    0    0    0  501 -0.00000000000E+00 -0.00000000000E+00 -0.38108965766E+02  0.38397698782E+02  0.47000000000E+01 0.  1.
         25    2    1    2    0    0  0.20169886178E+02  0.21804580786E+02  0.14335272929E+03  0.19250458343E+03  0.12500298234E+03 0.  0.
         25    2    1    2    0    0 -0.20169886178E+02 -0.21804580786E+02  0.28777382834E+03  0.31515217644E+03  0.12499941596E+03 0.  0.
          5    1    3    3  502    0  0.71355601047E+02  0.69478904040E+01  0.10256406457E+03  0.12522528627E+03  0.47000000000E+01 0.  1.
         -5    1    3    3    0  502 -0.51185714869E+02  0.14856690382E+02  0.40788664728E+02  0.67279297158E+02  0.47000000000E+01 0.  1.
          5    1    4    4  503    0  0.21791695569E+02 -0.59519948271E+02  0.20681768329E+03  0.21636345893E+03  0.47000000000E+01 0.  1.
         -5    1    4    4    0  503 -0.41961581747E+02  0.37715367485E+02  0.80956145045E+02  0.98788717513E+02  0.47000000000E+01 0.  1.
<mgrwt>
<rscale>  0 0.12848263E+03</rscale>
<asrwt>0</asrwt>
<pdfrwt beam="1">  1        5 0.72214106E-01 0.12848350E+03</pdfrwt>
<pdfrwt beam="2">  1       -5 0.58869383E-02 0.12848350E+03</pdfrwt>
<totfact> 0.23918029E+02</totfact>
</mgrwt>
</event>
<event>
 8    1  0.1821556E-007  0.1250644E+03  0.7546771E-02  0.1234969E+00
          5   -1    0    0  501    0  0.00000000000E+00  0.00000000000E+00  0.15808980626E+03  0.15815965618E+03  0.47000000000E+01 0. -1.
         -5   -1    0    0    0  501 -0.00000000000E+00 -0.00000000000E+00 -0.10072635579E+03  0.10083594970E+03  0.47000000000E+01 0. -1.
         25    2    1    2    0    0  0.40309016665E+01  0.13293165752E-01  0.10743490073E+02  0.12552455110E+03  0.12499896801E+03 0.  0.
         25    2    1    2    0    0 -0.40309016665E+01 -0.13293165752E-01  0.46619960397E+02  0.13347105478E+03  0.12499941365E+03 0.  0.
          5    1    3    3  502    0 -0.10988393118E+02 -0.33558648562E+02 -0.45729694061E+02  0.57967427022E+02  0.47000000000E+01 0. -1.
         -5    1    3    3    0  502  0.15019294784E+02  0.33571941728E+02  0.56473184134E+02  0.67557124076E+02  0.47000000000E+01 0. -1.
          5    1    4    4  503    0  0.29999595598E+02  0.11095621642E+02 -0.32907750156E+02  0.46131318819E+02  0.47000000000E+01 0.  1.
         -5    1    4    4    0  503 -0.34030497264E+02 -0.11108914807E+02  0.79527710554E+02  0.87339735963E+02  0.47000000000E+01 0.  1.
<mgrwt>
<rscale>  0 0.12506428E+03</rscale>
<asrwt>0</asrwt>
<pdfrwt beam="1">  1        5 0.24335312E-01 0.12506439E+03</pdfrwt>
<pdfrwt beam="2">  1       -5 0.15510166E-01 0.12506439E+03</pdfrwt>
<totfact> 0.41568160E+02</totfact>
</mgrwt>
</event>
<event>
 8    1  0.1821556E-007  0.1383623E+03  0.7546771E-02  0.1215558E+00
          5   -1    0    0  501    0  0.00000000000E+00  0.00000000000E+00  0.12761486995E+03  0.12770139009E+03  0.47000000000E+01 0.  1.
         -5   -1    0    0    0  501 -0.00000000000E+00 -0.00000000000E+00 -0.15309909507E+03  0.15317122090E+03  0.47000000000E+01 0.  1.
         25    2    1    2    0    0  0.48496820685E+02 -0.33988311587E+02 -0.33297716793E+02  0.14228986568E+03  0.12502208201E+03 0.  0.
         25    2    1    2    0    0 -0.48496820685E+02  0.33988311587E+02  0.78134916696E+01  0.13858274531E+03  0.12504790964E+03 0.  0.
          5    1    4    4  502    0 -0.48404185516E+02 -0.16252190822E+01 -0.50477494000E+02  0.70111867135E+02  0.47000000000E+01 0.  1.
         -5    1    4    4    0  502 -0.92635168839E-01  0.35613530669E+02  0.58290985670E+02  0.68470878177E+02  0.47000000000E+01 0.  1.
          5    1    3    3  503    0  0.34332693610E+02 -0.80702554363E+02 -0.11334728445E+02  0.88556209269E+02  0.47000000000E+01 0. -1.
         -5    1    3    3    0  503  0.14164127075E+02  0.46714242776E+02 -0.21962988349E+02  0.53733656409E+02  0.47000000000E+01 0. -1.
<mgrwt>
<rscale>  0 0.13835647E+03</rscale>
<asrwt>0</asrwt>
<pdfrwt beam="1">  1        5 0.19645260E-01 0.13836230E+03</pdfrwt>
<pdfrwt beam="2">  1       -5 0.23565910E-01 0.13836230E+03</pdfrwt>
<totfact> 0.29683102E+02</totfact>
</mgrwt>
</event>
<event>
 8    1  0.1821556E-007  0.1420594E+03  0.7546771E-02  0.1210586E+00
         -5   -1    0    0    0  501 -0.00000000000E+00  0.00000000000E+00  0.41147902441E+02  0.41415454546E+02  0.47000000000E+01 0.  1.
          5   -1    0    0  501    0  0.00000000000E+00 -0.00000000000E+00 -0.11300896635E+04  0.11300994370E+04  0.47000000000E+01 0.  1.
         25    2    1    2    0    0  0.27890017461E+02  0.61458261553E+02 -0.10318954545E+03  0.17557900470E+03  0.12499973446E+03 0.  0.
         25    2    1    2    0    0 -0.27890017461E+02 -0.61458261553E+02 -0.98575221560E+03  0.99593588685E+03  0.12500355664E+03 0.  0.
          5    1    4    4  502    0  0.26573234898E+02  0.25876615229E+02 -0.20085407336E+03  0.20430414781E+03  0.47000000000E+01 0. -1.
         -5    1    4    4    0  502 -0.54463252359E+02 -0.87334876782E+02 -0.78489814224E+03  0.79163173904E+03  0.47000000000E+01 0. -1.
          5    1    3    3  503    0 -0.44561378278E+02  0.20426050817E+01 -0.16353818934E+02  0.47743335276E+02  0.47000000000E+01 0. -1.
         -5    1    3    3    0  503  0.72451395739E+02  0.59415656472E+02 -0.86835726518E+02  0.12783566943E+03  0.47000000000E+01 0. -1.
<mgrwt>
<rscale>  0 0.14205851E+03</rscale>
<asrwt>0</asrwt>
<pdfrwt beam="2">  1        5 0.17388126E+00 0.14205935E+03</pdfrwt>
<pdfrwt beam="1">  1       -5 0.63517801E-02 0.14205935E+03</pdfrwt>
<totfact> 0.23632900E+01</totfact>
</mgrwt>
</event>
<event>
 8    1  0.1821556E-007  0.1523030E+03  0.7546771E-02  0.1197671E+00
         -5   -1    0    0    0  501 -0.00000000000E+00  0.00000000000E+00  0.19449225644E+03  0.19454903705E+03  0.47000000000E+01 0. -1.
          5   -1    0    0  501    0  0.00000000000E+00 -0.00000000000E+00 -0.13400269049E+03  0.13408508888E+03  0.47000000000E+01 0. -1.
         25    2    1    2    0    0 -0.59994940552E+02 -0.63022347344E+02  0.84930427514E+02  0.17438248151E+03  0.12499945273E+03 0.  0.
         25    2    1    2    0    0  0.59994940552E+02  0.63022347344E+02 -0.24440861568E+02  0.15425164442E+03  0.12500001974E+03 0.  0.
          5    1    4    4  502    0  0.24013339936E+02  0.98465908475E+02 -0.19144316724E+02  0.10325100721E+03  0.47000000000E+01 0.  1.
         -5    1    4    4    0  502  0.35981600615E+02 -0.35443561131E+02 -0.52965448434E+01  0.51000637209E+02  0.47000000000E+01 0.  1.
          5    1    3    3  503    0 -0.79122452297E+02 -0.55722535118E+02  0.10982905359E+02  0.97509371794E+02  0.47000000000E+01 0.  1.
         -5    1    3    3    0  503  0.19127511746E+02 -0.72998122264E+01  0.73947522155E+02  0.76873109713E+02  0.47000000000E+01 0.  1.
<mgrwt>
<rscale>  0 0.15230292E+03</rscale>
<asrwt>0</asrwt>
<pdfrwt beam="2">  1        5 0.20626505E-01 0.15230303E+03</pdfrwt>
<pdfrwt beam="1">  1       -5 0.29932592E-01 0.15230303E+03</pdfrwt>
<totfact> 0.17623520E+02</totfact>
</mgrwt>
</event>
<event>
 8    1  0.1821556E-007  0.1391669E+03  0.7546771E-02  0.1214463E+00
         -5   -1    0    0    0  501 -0.00000000000E+00  0.00000000000E+00  0.24891889718E+02  0.25331722676E+02  0.47000000000E+01 0.  1.
          5   -1    0    0  501    0  0.00000000000E+00 -0.00000000000E+00 -0.83478895630E+03  0.83480218708E+03  0.47000000000E+01 0.  1.
         25    2    1    2    0    0 -0.24069207221E+02 -0.56183008425E+02 -0.28575019667E+03  0.31782647262E+03  0.12499853850E+03 0.  0.
         25    2    1    2    0    0  0.24069207221E+02  0.56183008425E+02 -0.52414686991E+03  0.54230743714E+03  0.12502622914E+03 0.  0.
          5    1    4    4  502    0 -0.37661521696E+02  0.66294331418E+02 -0.29482225241E+03  0.30455800615E+03  0.47000000000E+01 0. -1.
         -5    1    4    4    0  502  0.61730728916E+02 -0.10111322994E+02 -0.22932461750E+03  0.23774943099E+03  0.47000000000E+01 0. -1.
          5    1    3    3  503    0  0.41466097050E+02  0.77778837555E+01 -0.13359789264E+03  0.14017995434E+03  0.47000000000E+01 0.  1.
         -5    1    3    3    0  503 -0.65535304270E+02 -0.63960892180E+02 -0.15215230403E+03  0.17764651828E+03  0.47000000000E+01 0.  1.
<mgrwt>
<rscale>  0 0.13916064E+03</rscale>
<asrwt>0</asrwt>
<pdfrwt beam="2">  1        5 0.12846390E+00 0.13916686E+03</pdfrwt>
<pdfrwt beam="1">  1       -5 0.38643732E-02 0.13916686E+03</pdfrwt>
<totfact> 0.12270163E+02</totfact>
</mgrwt>
</event>
<event>
 8    1  0.1821556E-007  0.1395802E+03  0.7546771E-02  0.1213896E+00
         -5   -1    0    0    0  501 -0.00000000000E+00  0.00000000000E+00  0.87796956705E+02  0.87922668332E+02  0.47000000000E+01 0. -1.
          5   -1    0    0  501    0  0.00000000000E+00 -0.00000000000E+00 -0.22160235978E+03  0.22165219570E+03  0.47000000000E+01 0. -1.
         25    2    1    2    0    0  0.60809880280E+02 -0.12628857880E+02 -0.65858819598E+02  0.15433731687E+03  0.12500117467E+03 0.  0.
         25    2    1    2    0    0 -0.60809880280E+02  0.12628857880E+02 -0.67946583478E+02  0.15523754716E+03  0.12499851300E+03 0.  0.
          5    1    4    4  502    0 -0.47430255311E+02  0.48982240934E+01  0.29628757801E+02  0.56334492161E+02  0.47000000000E+01 0.  1.
         -5    1    4    4    0  502 -0.13379624969E+02  0.77306337864E+01 -0.97575341279E+02  0.98903055002E+02  0.47000000000E+01 0.  1.
          5    1    3    3  503    0  0.51333011083E+02  0.49419474037E+02 -0.55732054438E+02  0.90584294073E+02  0.47000000000E+01 0.  1.
         -5    1    3    3    0  503  0.94768691976E+01 -0.62048331917E+02 -0.10126765160E+02  0.63753022800E+02  0.47000000000E+01 0.  1.
<mgrwt>
<rscale>  0 0.13957957E+03</rscale>
<asrwt>0</asrwt>
<pdfrwt beam="2">  1        5 0.34106174E-01 0.13958017E+03</pdfrwt>
<pdfrwt beam="1">  1       -5 0.13520728E-01 0.13958017E+03</pdfrwt>
<totfact> 0.28662163E+02</totfact>
</mgrwt>
</event>
<event>
 8    1  0.1821556E-007  0.1497864E+03  0.7546771E-02  0.1200738E+00
          5   -1    0    0  501    0  0.00000000000E+00  0.00000000000E+00  0.83129491734E+02  0.83262250726E+02  0.47000000000E+01 0.  1.
         -5   -1    0    0    0  501 -0.00000000000E+00 -0.00000000000E+00 -0.35375784968E+03  0.35378907023E+03  0.47000000000E+01 0.  1.
         25    2    1    2    0    0 -0.35170345151E+02  0.74632365414E+02 -0.24192821549E+03  0.28454013938E+03  0.12500754506E+03 0.  0.
         25    2    1    2    0    0  0.35170345151E+02 -0.74632365414E+02 -0.28700142459E+02  0.15251118158E+03  0.12501607570E+03 0.  0.
          5    1    4    4  502    0  0.46929033427E+02 -0.23048297704E+02 -0.68383330391E+02  0.86208631127E+02  0.47000000000E+01 0. -1.
         -5    1    4    4    0  502 -0.11758688276E+02 -0.51584067710E+02  0.39683187932E+02  0.66302550448E+02  0.47000000000E+01 0. -1.
          5    1    3    3  503    0 -0.22290882891E+02  0.90199331875E+02 -0.84273401188E+02  0.12552648756E+03  0.47000000000E+01 0. -1.
         -5    1    3    3    0  503 -0.12879462261E+02 -0.15566966461E+02 -0.15765481430E+03  0.15901365182E+03  0.47000000000E+01 0. -1.
<mgrwt>
<rscale>  0 0.14978461E+03</rscale>
<asrwt>0</asrwt>
<pdfrwt beam="1">  1        5 0.12801767E-01 0.14978639E+03</pdfrwt>
<pdfrwt beam="2">  1       -5 0.54436898E-01 0.14978639E+03</pdfrwt>
<totfact> 0.12275905E+02</totfact>
</mgrwt>
</event>
<event>
 8    1  0.1821556E-007  0.1293118E+03  0.7546771E-02  0.1228492E+00
          5   -1    0    0  501    0  0.00000000000E+00  0.00000000000E+00  0.24466621223E+03  0.24471135120E+03  0.47000000000E+01 0. -1.
         -5   -1    0    0    0  501 -0.00000000000E+00 -0.00000000000E+00 -0.68257474259E+02  0.68419096692E+02  0.47000000000E+01 0. -1.
         25    2    1    2    0    0  0.21735496115E+02 -0.24850618034E+02  0.83506706491E+02  0.15390633992E+03  0.12499522563E+03 0.  0.
         25    2    1    2    0    0 -0.21735496115E+02  0.24850618034E+02  0.92902031477E+02  0.15922410797E+03  0.12502617365E+03 0.  0.
          5    1    3    3  502    0  0.71475975200E+02 -0.18530777723E+02  0.28392964738E+02  0.79249323028E+02  0.47000000000E+01 0.  1.
         -5    1    3    3    0  502 -0.49740479085E+02 -0.63198403103E+01  0.55113741754E+02  0.74657016892E+02  0.47000000000E+01 0.  1.
          5    1    4    4  503    0  0.33670124201E+02  0.56026879590E+02  0.45406771748E+02  0.79727996469E+02  0.47000000000E+01 0. -1.
         -5    1    4    4    0  503 -0.55405620317E+02 -0.31176261556E+02  0.47495259729E+02  0.79496111502E+02  0.47000000000E+01 0. -1.
<mgrwt>
<rscale>  0 0.12930427E+03</rscale>
<asrwt>0</asrwt>
<pdfrwt beam="1">  1        5 0.37656860E-01 0.12931175E+03</pdfrwt>
<pdfrwt beam="2">  1       -5 0.10517055E-01 0.12931175E+03</pdfrwt>
<totfact> 0.35678320E+02</totfact>
</mgrwt>
</event>
<event>
 8    1  0.1821556E-007  0.1318130E+03  0.7546771E-02  0.1224795E+00
         -5   -1    0    0    0  501 -0.00000000000E+00  0.00000000000E+00  0.24679647970E+03  0.24684122912E+03  0.47000000000E+01 0. -1.
          5   -1    0    0  501    0  0.00000000000E+00 -0.00000000000E+00 -0.71180777394E+02  0.71335776932E+02  0.47000000000E+01 0. -1.
         25    2    1    2    0    0  0.40458725244E+02  0.10605131853E+02  0.10583216652E+03  0.16903138599E+03  0.12498713818E+03 0.  0.
         25    2    1    2    0    0 -0.40458725244E+02 -0.10605131853E+02  0.69783535786E+02  0.14914562006E+03  0.12500118738E+03 0.  0.
          5    1    4    4  502    0 -0.66418659185E+02 -0.34366304919E+01  0.92207277533E+02  0.11378717303E+03  0.47000000000E+01 0.  1.
         -5    1    4    4    0  502  0.25959933940E+02 -0.71685013611E+01 -0.22423741747E+02  0.35358447023E+02  0.47000000000E+01 0.  1.
          5    1    3    3  503    0 -0.25788040314E+02  0.34743412686E+01  0.98321983930E+02  0.10181550272E+03  0.47000000000E+01 0. -1.
         -5    1    3    3    0  503  0.66246765558E+02  0.71307905845E+01  0.75101825887E+01  0.67215883270E+02  0.47000000000E+01 0. -1.
<mgrwt>
<rscale>  0 0.13180970E+03</rscale>
<asrwt>0</asrwt>
<pdfrwt beam="2">  1        5 0.10966254E-01 0.13181303E+03</pdfrwt>
<pdfrwt beam="1">  1       -5 0.37984055E-01 0.13181303E+03</pdfrwt>
<totfact> 0.32808176E+02</totfact>
</mgrwt>
</event>
<event>
 8    1  0.1821556E-007  0.1259295E+03  0.7546771E-02  0.1233625E+00
          5   -1    0    0  501    0  0.00000000000E+00  0.00000000000E+00  0.11422155472E+02  0.12351341451E+02  0.47000000000E+01 0.  1.
         -5   -1    0    0    0  501 -0.00000000000E+00 -0.00000000000E+00 -0.15701072471E+04  0.15701142816E+04  0.47000000000E+01 0.  1.
         25    2    1    2    0    0  0.36072039046E+01 -0.14855765567E+02 -0.10866460239E+04  0.10939185610E+04  0.12499812484E+03 0.  0.
         25    2    1    2    0    0 -0.36072039046E+01  0.14855765567E+02 -0.47203906770E+03  0.48854706203E+03  0.12499457866E+03 0.  0.
          5    1    4    4  502    0  0.41622865873E+02  0.49266514777E+02 -0.31255055031E+03  0.31917015672E+03  0.47000000000E+01 0. -1.
         -5    1    4    4    0  502 -0.45230069778E+02 -0.34410749210E+02 -0.15948851738E+03  0.16937690530E+03  0.47000000000E+01 0. -1.
          5    1    3    3  503    0  0.49530878929E+02  0.17214434825E+02 -0.25516056024E+03  0.26053530708E+03  0.47000000000E+01 0.  1.
         -5    1    3    3    0  503 -0.45923675024E+02 -0.32070200392E+02 -0.83148546365E+03  0.83338325394E+03  0.47000000000E+01 0.  1.
<mgrwt>
<rscale>  0 0.12592861E+03</rscale>
<asrwt>0</asrwt>
<pdfrwt beam="1">  1        5 0.18292729E-02 0.12592949E+03</pdfrwt>
<pdfrwt beam="2">  1       -5 0.24162681E+00 0.12592949E+03</pdfrwt>
<totfact> 0.60937705E+01</totfact>
</mgrwt>
</event>
<event>
 8    1  0.1821556E-007  0.1549542E+03  0.7546771E-02  0.1194515E+00
          5   -1    0    0  501    0  0.00000000000E+00  0.00000000000E+00  0.18353610024E+02  0.18945843895E+02  0.47000000000E+01 0. -1.
         -5   -1    0    0    0  501 -0.00000000000E+00 -0.00000000000E+00 -0.13746911403E+04  0.13746991748E+04  0.47000000000E+01 0. -1.
         25    2    1    2    0    0 -0.70597554872E+01 -0.91307977111E+02 -0.85427189042E+03  0.86821117937E+03  0.12499280933E+03 0.  0.
         25    2    1    2    0    0  0.70597554872E+01  0.91307977111E+02 -0.50206563986E+03  0.52543383934E+03  0.12499530377E+03 0.  0.
          5    1    3    3  502    0  0.41287860491E+02 -0.15404570383E+02 -0.11137505502E+03  0.11986859928E+03  0.47000000000E+01 0.  1.
         -5    1    3    3    0  502 -0.48347615978E+02 -0.75903406727E+02 -0.74289683540E+03  0.74834258009E+03  0.47000000000E+01 0.  1.
          5    1    4    4  503    0 -0.11189253751E+01 -0.31420136537E+02 -0.10978420011E+03  0.11429408370E+03  0.47000000000E+01 0. -1.
         -5    1    4    4    0  503  0.81786808623E+01  0.12272811365E+03 -0.39228143975E+03  0.41113975565E+03  0.47000000000E+01 0. -1.
<mgrwt>
<rscale>  0 0.15495373E+03</rscale>
<asrwt>0</asrwt>
<pdfrwt beam="1">  1        5 0.28698079E-02 0.15495423E+03</pdfrwt>
<pdfrwt beam="2">  1       -5 0.21153704E+00 0.15495423E+03</pdfrwt>
<totfact> 0.49289937E+01</totfact>
</mgrwt>
</event>
<event>
 8    1  0.1821556E-007  0.1498973E+03  0.7546771E-02  0.1200600E+00
         -5   -1    0    0    0  501 -0.00000000000E+00  0.00000000000E+00  0.18994692265E+03  0.19000506158E+03  0.47000000000E+01 0.  1.
          5   -1    0    0  501    0  0.00000000000E+00 -0.00000000000E+00 -0.11854308164E+03  0.11863621793E+03  0.47000000000E+01 0.  1.
         25    2    1    2    0    0  0.58074754481E+02  0.58917518596E+02  0.44381240307E+02  0.15632775644E+03  0.12499888734E+03 0.  0.
         25    2    1    2    0    0 -0.58074754481E+02 -0.58917518596E+02  0.27022600706E+02  0.15231352306E+03  0.12500094901E+03 0.  0.
          5    1    3    3  502    0  0.23168384776E+02 -0.39114783576E+02  0.14832233186E+02  0.48050239214E+02  0.47000000000E+01 0. -1.
         -5    1    3    3    0  502  0.34906369705E+02  0.98032302172E+02  0.29549007121E+02  0.10827751723E+03  0.47000000000E+01 0. -1.
          5    1    4    4  503    0  0.10986851408E+02 -0.41156541460E+02  0.59897964301E+02  0.73650715789E+02  0.47000000000E+01 0. -1.
         -5    1    4    4    0  503 -0.69061605889E+02 -0.17760977136E+02 -0.32875363595E+02  0.78662807274E+02  0.47000000000E+01 0. -1.
<mgrwt>
<rscale>  0 0.14989683E+03</rscale>
<asrwt>0</asrwt>
<pdfrwt beam="2">  1        5 0.18249034E-01 0.14989726E+03</pdfrwt>
<pdfrwt beam="1">  1       -5 0.29234240E-01 0.14989726E+03</pdfrwt>
<totfact> 0.23068809E+02</totfact>
</mgrwt>
</event>
<event>
 8    1  0.1821556E-007  0.1271781E+03  0.7546771E-02  0.1231711E+00
         -5   -1    0    0    0  501 -0.00000000000E+00  0.00000000000E+00  0.10870146700E+04  0.10870248308E+04  0.47000000000E+01 0. -1.
          5   -1    0    0  501    0  0.00000000000E+00 -0.00000000000E+00 -0.15797116115E+02  0.16481470733E+02  0.47000000000E+01 0. -1.
         25    2    1    2    0    0 -0.23238543208E+02 -0.24752458563E+01  0.69043002130E+03  0.70204221519E+03  0.12499400328E+03 0.  0.
         25    2    1    2    0    0  0.23238543208E+02  0.24752458563E+01  0.38078753255E+03  0.40146408633E+03  0.12501244309E+03 0.  0.
          5    1    4    4  502    0  0.28232639853E+02  0.61267082738E+02  0.21814363261E+03  0.22838448246E+03  0.47000000000E+01 0.  1.
         -5    1    4    4    0  502 -0.49940966459E+01 -0.58791836882E+02  0.16264389994E+03  0.17307960387E+03  0.47000000000E+01 0.  1.
          5    1    3    3  503    0  0.37269162756E+02 -0.21673116876E+02  0.48600481439E+03  0.48793594262E+03  0.47000000000E+01 0.  1.
         -5    1    3    3    0  503 -0.60507705964E+02  0.19197871020E+02  0.20442520691E+03  0.21410627257E+03  0.47000000000E+01 0.  1.
<mgrwt>
<rscale>  0 0.12717356E+03</rscale>
<asrwt>0</asrwt>
<pdfrwt beam="2">  1        5 0.24837487E-02 0.12717809E+03</pdfrwt>
<pdfrwt beam="1">  1       -5 0.16728653E+00 0.12717809E+03</pdfrwt>
<totfact> 0.11911895E+02</totfact>
</mgrwt>
</event>
<event>
 8    1  0.1821556E-007  0.1826005E+03  0.7546771E-02  0.1165311E+00
          5   -1    0    0  501    0  0.00000000000E+00  0.00000000000E+00  0.73126397805E+02  0.73277281991E+02  0.47000000000E+01 0.  1.
         -5   -1    0    0    0  501 -0.00000000000E+00 -0.00000000000E+00 -0.54176131521E+03  0.54178170204E+03  0.47000000000E+01 0.  1.
         25    2    1    2    0    0 -0.45975233937E+02  0.12490762073E+03 -0.35713829185E+03  0.40110935969E+03  0.12500129229E+03 0.  0.
         25    2    1    2    0    0  0.45975233937E+02 -0.12490762073E+03 -0.11149662555E+03  0.21394962433E+03  0.12500923322E+03 0.  0.
          5    1    3    3  502    0 -0.33381818926E+02  0.10924434378E+03 -0.13034951522E+03  0.17338327082E+03  0.47000000000E+01 0. -1.
         -5    1    3    3    0  502 -0.12593415011E+02  0.15663276948E+02 -0.22678877663E+03  0.22772608887E+03  0.47000000000E+01 0. -1.
          5    1    4    4  503    0 -0.13720737523E+02  0.19972333314E+02 -0.23955906449E+02  0.34396630503E+02  0.47000000000E+01 0. -1.
         -5    1    4    4    0  503  0.59695971460E+02 -0.14487995404E+03 -0.87540719106E+02  0.17955299383E+03  0.47000000000E+01 0. -1.
<mgrwt>
<rscale>  0 0.18259915E+03</rscale>
<asrwt>0</asrwt>
<pdfrwt beam="1">  1        5 0.11263390E-01 0.18260050E+03</pdfrwt>
<pdfrwt beam="2">  1       -5 0.83361067E-01 0.18260050E+03</pdfrwt>
<totfact> 0.62762901E+01</totfact>
</mgrwt>
</event>
<event>
 8    1  0.1821556E-007  0.1260519E+03  0.7546771E-02  0.1233437E+00
         -5   -1    0    0    0  501 -0.00000000000E+00  0.00000000000E+00  0.67346631857E+02  0.67510434915E+02  0.47000000000E+01 0. -1.
          5   -1    0    0  501    0  0.00000000000E+00 -0.00000000000E+00 -0.27186373393E+03  0.27190435787E+03  0.47000000000E+01 0. -1.
         25    2    1    2    0    0  0.13489269281E+02 -0.90492182517E+01 -0.40171110431E+02  0.13229816463E+03  0.12500095005E+03 0.  0.
         25    2    1    2    0    0 -0.13489269281E+02  0.90492182517E+01 -0.16434599164E+03  0.20711662815E+03  0.12499537572E+03 0.  0.
          5    1    4    4  502    0  0.32705748990E+02  0.47714231594E+02 -0.11608532088E+03  0.12978522889E+03  0.47000000000E+01 0. -1.
         -5    1    4    4    0  502 -0.46195018271E+02 -0.38665013342E+02 -0.48260670760E+02  0.77331399264E+02  0.47000000000E+01 0. -1.
          5    1    3    3  503    0  0.14812626501E+02 -0.41430117393E+01 -0.85218084798E+02  0.86722490894E+02  0.47000000000E+01 0. -1.
         -5    1    3    3    0  503 -0.13233572201E+01 -0.49062065123E+01  0.45046974367E+02  0.45575673734E+02  0.47000000000E+01 0. -1.
<mgrwt>
<rscale>  0 0.12605054E+03</rscale>
<asrwt>0</asrwt>
<pdfrwt beam="2">  1        5 0.41840914E-01 0.12605192E+03</pdfrwt>
<pdfrwt beam="1">  1       -5 0.10376746E-01 0.12605192E+03</pdfrwt>
<totfact> 0.29188377E+02</totfact>
</mgrwt>
</event>
<event>
 8    1  0.1821556E-007  0.1540857E+03  0.7546771E-02  0.1195560E+00
         -5   -1    0    0    0  501 -0.00000000000E+00  0.00000000000E+00  0.11917493360E+03  0.11926757648E+03  0.47000000000E+01 0. -1.
          5   -1    0    0  501    0  0.00000000000E+00 -0.00000000000E+00 -0.20537831480E+03  0.20543208656E+03  0.47000000000E+01 0. -1.
         25    2    1    2    0    0  0.86102234186E+02 -0.26517047765E+02 -0.14372824870E+02  0.15475459753E+03  0.12500263520E+03 0.  0.
         25    2    1    2    0    0 -0.86102234186E+02  0.26517047765E+02 -0.71830556326E+02  0.16994506551E+03  0.12491976592E+03 0.  0.
          5    1    4    4  502    0  0.16397230926E+02  0.43955050886E+02 -0.37844137522E+02  0.60458121251E+02  0.47000000000E+01 0. -1.
         -5    1    4    4    0  502 -0.10249946511E+03 -0.17438003121E+02 -0.33986418803E+02  0.10948694426E+03  0.47000000000E+01 0. -1.
          5    1    3    3  503    0  0.54295000896E+02  0.46324152326E+02  0.82011748465E+01  0.71994607297E+02  0.47000000000E+01 0.  1.
         -5    1    3    3    0  503  0.31807233290E+02 -0.72841200091E+02 -0.22573999717E+02  0.82759990234E+02  0.47000000000E+01 0.  1.
<mgrwt>
<rscale>  0 0.15406891E+03</rscale>
<asrwt>0</asrwt>
<pdfrwt beam="2">  1        5 0.31607926E-01 0.15408571E+03</pdfrwt>
<pdfrwt beam="1">  1       -5 0.18345868E-01 0.15408571E+03</pdfrwt>
<totfact> 0.19767319E+02</totfact>
</mgrwt>
</event>
<event>
 8    1  0.1821556E-007  0.1596204E+03  0.7546771E-02  0.1189127E+00
         -5   -1    0    0    0  501 -0.00000000000E+00  0.00000000000E+00  0.16307368089E+03  0.16314139695E+03  0.47000000000E+01 0.  1.
          5   -1    0    0  501    0  0.00000000000E+00 -0.00000000000E+00 -0.15862690759E+03  0.15869652111E+03  0.47000000000E+01 0.  1.
         25    2    1    2    0    0  0.80382679242E+02 -0.58251625094E+02 -0.18073717379E+02  0.16064039796E+03  0.12499620494E+03 0.  0.
         25    2    1    2    0    0 -0.80382679242E+02  0.58251625094E+02  0.22520490677E+02  0.16119752010E+03  0.12499136385E+03 0.  0.
          5    1    4    4  502    0  0.12876971046E+01 -0.33071917658E+02  0.19192551779E+02  0.38546776068E+02  0.47000000000E+01 0.  1.
         -5    1    4    4    0  502 -0.81670376347E+02  0.91323542753E+02  0.33279388987E+01  0.12265074403E+03  0.47000000000E+01 0.  1.
          5    1    3    3  503    0  0.73098786433E+02 -0.54344973874E+02 -0.65487150863E+02  0.11228297151E+03  0.47000000000E+01 0. -1.
         -5    1    3    3    0  503  0.72838928091E+01 -0.39066512204E+01  0.47413433484E+02  0.48357426451E+02  0.47000000000E+01 0. -1.
<mgrwt>
<rscale>  0 0.15961947E+03</rscale>
<asrwt>0</asrwt>
<pdfrwt beam="2">  1        5 0.24414704E-01 0.15962042E+03</pdfrwt>
<pdfrwt beam="1">  1       -5 0.25098822E-01 0.15962042E+03</pdfrwt>
<totfact> 0.18304919E+02</totfact>
</mgrwt>
</event>
<event>
 8    1  0.1821556E-007  0.1316823E+03  0.7546771E-02  0.1224987E+00
         -5   -1    0    0    0  501 -0.00000000000E+00  0.00000000000E+00  0.16068196788E+03  0.16075069145E+03  0.47000000000E+01 0. -1.
          5   -1    0    0  501    0  0.00000000000E+00 -0.00000000000E+00 -0.11260046025E+03  0.11269850775E+03  0.47000000000E+01 0. -1.
         25    2    1    2    0    0  0.41219241248E+02 -0.34148847730E+01  0.52369816691E+02  0.14169704978E+03  0.12499907571E+03 0.  0.
         25    2    1    2    0    0 -0.41219241248E+02  0.34148847730E+01 -0.42883090614E+01  0.13175214942E+03  0.12501820665E+03 0.  0.
          5    1    4    4  502    0  0.13467063811E+02 -0.18912474002E+01  0.51403083492E+02  0.53378887371E+02  0.47000000000E+01 0.  1.
         -5    1    4    4    0  502 -0.54686305059E+02  0.53061321731E+01 -0.55691392554E+02  0.78373262049E+02  0.47000000000E+01 0.  1.
          5    1    3    3  503    0 -0.31838519413E+02 -0.30962713073E+02 -0.46486596341E+01  0.44900790145E+02  0.47000000000E+01 0. -1.
         -5    1    3    3    0  503  0.73057760661E+02  0.27547828300E+02  0.57018476325E+02  0.96796259635E+02  0.47000000000E+01 0. -1.
<mgrwt>
<rscale>  0 0.13167780E+03</rscale>
<asrwt>0</asrwt>
<pdfrwt beam="2">  1        5 0.17335976E-01 0.13168234E+03</pdfrwt>
<pdfrwt beam="1">  1       -5 0.24733131E-01 0.13168234E+03</pdfrwt>
<totfact> 0.33529014E+02</totfact>
</mgrwt>
</event>
<event>
 8    1  0.1821556E-007  0.1315543E+03  0.7546771E-02  0.1225171E+00
         -5   -1    0    0    0  501 -0.00000000000E+00  0.00000000000E+00  0.13639132900E+02  0.14426224256E+02  0.47000000000E+01 0. -1.
          5   -1    0    0  501    0  0.00000000000E+00 -0.00000000000E+00 -0.13442788635E+04  0.13442870798E+04  0.47000000000E+01 0. -1.
         25    2    1    2    0    0 -0.30994102450E+02  0.26900441944E+02 -0.46942556183E+03  0.48751090271E+03  0.12498901550E+03 0.  0.
         25    2    1    2    0    0  0.30994102450E+02 -0.26900441944E+02 -0.86121416875E+03  0.87120240130E+03  0.12497804376E+03 0.  0.
          5    1    4    4  502    0  0.14137321285E+02  0.29889771322E+02 -0.67303696263E+03  0.67386504981E+03  0.47000000000E+01 0. -1.
         -5    1    4    4    0  502  0.16856781166E+02 -0.56790213266E+02 -0.18817720611E+03  0.19733735149E+03  0.47000000000E+01 0. -1.
          5    1    3    3  503    0  0.25425556395E+02  0.60287339668E+02 -0.22008320941E+03  0.22965132551E+03  0.47000000000E+01 0. -1.
         -5    1    3    3    0  503 -0.56419658846E+02 -0.33386897724E+02 -0.24934235242E+03  0.25785957720E+03  0.47000000000E+01 0. -1.
<mgrwt>
<rscale>  0 0.13155165E+03</rscale>
<asrwt>0</asrwt>
<pdfrwt beam="2">  1        5 0.20687321E+00 0.13155426E+03</pdfrwt>
<pdfrwt beam="1">  1       -5 0.21595067E-02 0.13155426E+03</pdfrwt>
<totfact> 0.79704539E+01</totfact>
</mgrwt>
</event>
<event>
 8    1  0.1821556E-007  0.1271348E+03  0.7546771E-02  0.1231772E+00
          5   -1    0    0  501    0  0.00000000000E+00  0.00000000000E+00  0.29547682169E+03  0.29551419959E+03  0.47000000000E+01 0. -1.
         -5   -1    0    0    0  501 -0.00000000000E+00 -0.00000000000E+00 -0.56155380769E+02  0.56351723925E+02  0.47000000000E+01 0. -1.
         25    2    1    2    0    0  0.12315002912E+02 -0.19649479111E+02  0.90050752306E+02  0.15579197906E+03  0.12499696565E+03 0.  0.
         25    2    1    2    0    0 -0.12315002912E+02  0.19649479111E+02  0.14927068862E+03  0.19607394446E+03  0.12500196754E+03 0.  0.
          5    1    3    3  502    0  0.69415263811E+01 -0.49949240316E+02 -0.94618612882E+01  0.51524054729E+02  0.47000000000E+01 0. -1.
         -5    1    3    3    0  502  0.53734765307E+01  0.30299761206E+02  0.99512613594E+02  0.10426792433E+03  0.47000000000E+01 0. -1.
          5    1    4    4  503    0  0.52253671905E+02 -0.41140219122E+01  0.37060086493E+02  0.64365452027E+02  0.47000000000E+01 0.  1.
         -5    1    4    4    0  503 -0.64568674817E+02  0.23763501023E+02  0.11221060213E+03  0.13170849243E+03  0.47000000000E+01 0.  1.
<mgrwt>
<rscale>  0 0.12713355E+03</rscale>
<asrwt>0</asrwt>
<pdfrwt beam="1">  1        5 0.45475951E-01 0.12713478E+03</pdfrwt>
<pdfrwt beam="2">  1       -5 0.86572679E-02 0.12713478E+03</pdfrwt>
<totfact> 0.33744111E+02</totfact>
</mgrwt>
</event>
<event>
 8    1  0.1821556E-007  0.1387570E+03  0.7546771E-02  0.1215013E+00
          5   -1    0    0  501    0  0.00000000000E+00  0.00000000000E+00  0.53499852451E+03  0.53501916903E+03  0.47000000000E+01 0. -1.
         -5   -1    0    0    0  501 -0.00000000000E+00 -0.00000000000E+00 -0.35858951434E+02  0.36165652184E+02  0.47000000000E+01 0. -1.
         25    2    1    2    0    0 -0.56893246706E+02 -0.19777931081E+02  0.25985199986E+03  0.29457862722E+03  0.12500199082E+03 0.  0.
         25    2    1    2    0    0  0.56893246706E+02  0.19777931081E+02  0.23928757322E+03  0.27660619399E+03  0.12499774309E+03 0.  0.
          5    1    4    4  502    0  0.93553418201E+02 -0.30405744678E+01  0.14301059192E+03  0.17098422896E+03  0.47000000000E+01 0. -1.
         -5    1    4    4    0  502 -0.36660171495E+02  0.22818505549E+02  0.96276981300E+02  0.10562196503E+03  0.47000000000E+01 0. -1.
          5    1    3    3  503    0 -0.93269954979E+02 -0.13315266230E+02  0.22324006646E+03  0.24235263170E+03  0.47000000000E+01 0.  1.
         -5    1    3    3    0  503  0.36376708273E+02 -0.64626648511E+01  0.36611933395E+02  0.52225995526E+02  0.47000000000E+01 0.  1.
<mgrwt>
<rscale>  0 0.13875605E+03</rscale>
<asrwt>0</asrwt>
<pdfrwt beam="1">  1        5 0.82332647E-01 0.13875700E+03</pdfrwt>
<pdfrwt beam="2">  1       -5 0.55419421E-02 0.13875700E+03</pdfrwt>
<totfact> 0.20108694E+02</totfact>
</mgrwt>
</event>
<event>
 8    1  0.1821556E-007  0.1518453E+03  0.7546771E-02  0.1198224E+00
         -5   -1    0    0    0  501 -0.00000000000E+00  0.00000000000E+00  0.17939527592E+03  0.17945683331E+03  0.47000000000E+01 0.  1.
          5   -1    0    0  501    0  0.00000000000E+00 -0.00000000000E+00 -0.13453324122E+03  0.13461531486E+03  0.47000000000E+01 0.  1.
         25    2    1    2    0    0 -0.34293809501E+02 -0.79090938138E+02  0.55946548738E+02  0.16182399808E+03  0.12500219267E+03 0.  0.
         25    2    1    2    0    0  0.34293809501E+02  0.79090938138E+02 -0.11084514044E+02  0.15224815009E+03  0.12500076355E+03 0.  0.
          5    1    4    4  502    0  0.65036825468E+02  0.47362127509E+02  0.35330820340E+02  0.87996117272E+02  0.47000000000E+01 0. -1.
         -5    1    4    4    0  502 -0.30743015967E+02  0.31728810629E+02 -0.46415334384E+02  0.64252032814E+02  0.47000000000E+01 0. -1.
          5    1    3    3  503    0 -0.79879440664E+02 -0.60371856005E+02  0.49843631990E+02  0.11194625357E+03  0.47000000000E+01 0.  1.
         -5    1    3    3    0  503  0.45585631163E+02 -0.18719082133E+02  0.61029167476E+01  0.49877744509E+02  0.47000000000E+01 0.  1.
<mgrwt>
<rscale>  0 0.15184499E+03</rscale>
<asrwt>0</asrwt>
<pdfrwt beam="2">  1        5 0.20708470E-01 0.15184528E+03</pdfrwt>
<pdfrwt beam="1">  1       -5 0.27610322E-01 0.15184528E+03</pdfrwt>
<totfact> 0.20464209E+02</totfact>
</mgrwt>
</event>
<event>
 8    1  0.1821556E-007  0.1441916E+03  0.7546771E-02  0.1207799E+00
         -5   -1    0    0    0  501 -0.00000000000E+00  0.00000000000E+00  0.60592167378E+03  0.60593990194E+03  0.47000000000E+01 0. -1.
          5   -1    0    0  501    0  0.00000000000E+00 -0.00000000000E+00 -0.46518445347E+02  0.46755275184E+02  0.47000000000E+01 0. -1.
         25    2    1    2    0    0 -0.15837034410E+01  0.71857181960E+02  0.44755770899E+03  0.47021055421E+03  0.12499639873E+03 0.  0.
         25    2    1    2    0    0  0.15837034410E+01 -0.71857181960E+02  0.11184551944E+03  0.18248462291E+03  0.12500101865E+03 0.  0.
          5    1    4    4  502    0 -0.47911972330E+02 -0.10042921743E+02  0.85972023714E+02  0.99043910621E+02  0.47000000000E+01 0.  1.
         -5    1    4    4    0  502  0.49495675771E+02 -0.61814260217E+02  0.25873495728E+02  0.83440712290E+02  0.47000000000E+01 0.  1.
          5    1    3    3  503    0 -0.78968762764E+01  0.33407556078E+02  0.18341327404E+02  0.39203568064E+02  0.47000000000E+01 0.  1.
         -5    1    3    3    0  503  0.63131728354E+01  0.38449625882E+02  0.42921638159E+03  0.43100698614E+03  0.47000000000E+01 0.  1.
<mgrwt>
<rscale>  0 0.14419060E+03</rscale>
<asrwt>0</asrwt>
<pdfrwt beam="2">  1        5 0.71763036E-02 0.14419160E+03</pdfrwt>
<pdfrwt beam="1">  1       -5 0.93238341E-01 0.14419160E+03</pdfrwt>
<totfact> 0.98162759E+01</totfact>
</mgrwt>
</event>
<event>
 8    1  0.1821556E-007  0.1259805E+03  0.7546771E-02  0.1233551E+00
         -5   -1    0    0    0  501 -0.00000000000E+00  0.00000000000E+00  0.10259173456E+03  0.10269933787E+03  0.47000000000E+01 0.  1.
          5   -1    0    0  501    0  0.00000000000E+00 -0.00000000000E+00 -0.16905683233E+03  0.16912215277E+03  0.47000000000E+01 0.  1.
         25    2    1    2    0    0  0.51261110945E+01  0.14876312966E+02  0.66862052122E+01  0.12614311749E+03  0.12497919446E+03 0.  0.
         25    2    1    2    0    0 -0.51261110945E+01 -0.14876312966E+02 -0.73151302985E+02  0.14567837316E+03  0.12499397415E+03 0.  0.
          5    1    4    4  502    0 -0.89685944152E+01 -0.47329500188E+02  0.15706400591E+02  0.50885148063E+02  0.47000000000E+01 0. -1.
         -5    1    4    4    0  502  0.38424833207E+01  0.32453187222E+02 -0.88857703576E+02  0.94793225094E+02  0.47000000000E+01 0. -1.
          5    1    3    3  503    0 -0.37462406872E+02  0.38322064360E+02  0.39985583283E+02  0.67029466774E+02  0.47000000000E+01 0. -1.
         -5    1    3    3    0  503  0.42588517967E+02 -0.23445751394E+02 -0.33299378071E+02  0.59113650716E+02  0.47000000000E+01 0. -1.
<mgrwt>
<rscale>  0 0.12597679E+03</rscale>
<asrwt>0</asrwt>
<pdfrwt beam="2">  1        5 0.26022045E-01 0.12598046E+03</pdfrwt>
<pdfrwt beam="1">  1       -5 0.15796646E-01 0.12598046E+03</pdfrwt>
<totfact> 0.35464897E+02</totfact>
</mgrwt>
</event>
<event>
 8    1  0.1821556E-007  0.1260648E+03  0.7546771E-02  0.1233421E+00
          5   -1    0    0  501    0  0.00000000000E+00  0.00000000000E+00  0.21435015115E+02  0.21944244644E+02  0.47000000000E+01 0. -1.
         -5   -1    0    0    0  501 -0.00000000000E+00 -0.00000000000E+00 -0.86463901985E+03  0.86465179388E+03  0.47000000000E+01 0. -1.
         25    2    1    2    0    0  0.13302732900E+02  0.93751084867E+01 -0.59512745650E+03  0.60833297943E+03  0.12500987570E+03 0.  0.
         25    2    1    2    0    0 -0.13302732900E+02 -0.93751084867E+01 -0.24807654824E+03  0.27826305909E+03  0.12499400348E+03 0.  0.
          5    1    3    3  502    0  0.27905213434E+02 -0.36897392712E+02 -0.49277606419E+03  0.49496510782E+03  0.47000000000E+01 0.  1.
         -5    1    3    3    0  502 -0.14602480534E+02  0.46272501198E+02 -0.10235139232E+03  0.11336787161E+03  0.47000000000E+01 0.  1.
          5    1    4    4  503    0 -0.51370171359E+02 -0.19274327409E+02 -0.22661449790E+03  0.23320937987E+03  0.47000000000E+01 0. -1.
         -5    1    4    4    0  503  0.38067438459E+02  0.98992189228E+01 -0.21462050338E+02  0.45053679215E+02  0.47000000000E+01 0. -1.
<mgrwt>
<rscale>  0 0.12606083E+03</rscale>
<asrwt>0</asrwt>
<pdfrwt beam="1">  1        5 0.33378494E-02 0.12606476E+03</pdfrwt>
<pdfrwt beam="2">  1       -5 0.13306151E+00 0.12606476E+03</pdfrwt>
<totfact> 0.13761437E+02</totfact>
</mgrwt>
</event>
<event>
 8    1  0.1821556E-007  0.1289915E+03  0.7546771E-02  0.1228961E+00
          5   -1    0    0  501    0  0.00000000000E+00  0.00000000000E+00  0.15521996227E+03  0.15529110305E+03  0.47000000000E+01 0.  1.
         -5   -1    0    0    0  501 -0.00000000000E+00 -0.00000000000E+00 -0.10751606776E+03  0.10761874756E+03  0.47000000000E+01 0.  1.
         25    2    1    2    0    0 -0.29487681245E+02  0.11997384941E+02  0.15161167486E+02  0.12987942991E+03  0.12500137888E+03 0.  0.
         25    2    1    2    0    0  0.29487681245E+02 -0.11997384941E+02  0.32542727025E+02  0.13303042071E+03  0.12499841263E+03 0.  0.
          5    1    3    3  502    0  0.67071522879E+01  0.54618765770E+02  0.40322669497E+02  0.68382769332E+02  0.47000000000E+01 0.  1.
         -5    1    3    3    0  502 -0.36194833533E+02 -0.42621380829E+02 -0.25161502011E+02  0.61496660574E+02  0.47000000000E+01 0.  1.
          5    1    4    4  503    0 -0.24539793789E+02  0.13014140117E+02  0.60763859709E+02  0.66976906236E+02  0.47000000000E+01 0.  1.
         -5    1    4    4    0  503  0.54027475034E+02 -0.25011525058E+02 -0.28221132683E+02  0.66053514473E+02  0.47000000000E+01 0.  1.
<mgrwt>
<rscale>  0 0.12899077E+03</rscale>
<asrwt>0</asrwt>
<pdfrwt beam="1">  1        5 0.23893365E-01 0.12899149E+03</pdfrwt>
<pdfrwt beam="2">  1       -5 0.16554304E-01 0.12899149E+03</pdfrwt>
<totfact> 0.38674518E+02</totfact>
</mgrwt>
</event>
<event>
 8    1  0.1821556E-007  0.1374290E+03  0.7546771E-02  0.1216832E+00
         -5   -1    0    0    0  501 -0.00000000000E+00  0.00000000000E+00  0.65512274101E+02  0.65680652082E+02  0.47000000000E+01 0.  1.
          5   -1    0    0  501    0  0.00000000000E+00 -0.00000000000E+00 -0.28772777829E+03  0.28776616271E+03  0.47000000000E+01 0.  1.
         25    2    1    2    0    0  0.22633887824E+01 -0.57060780989E+02 -0.11099872713E+03  0.17665344257E+03  0.12499866276E+03 0.  0.
         25    2    1    2    0    0 -0.22633887824E+01  0.57060780989E+02 -0.11121677706E+03  0.17679337222E+03  0.12500267719E+03 0.  0.
          5    1    4    4  502    0  0.25735878212E+02 -0.30373813529E+02 -0.12707761491E+02  0.42053313517E+02  0.47000000000E+01 0.  1.
         -5    1    4    4    0  502 -0.27999266994E+02  0.87434594518E+02 -0.98509015572E+02  0.13474005870E+03  0.47000000000E+01 0.  1.
          5    1    3    3  503    0  0.10898461419E+02 -0.28503259865E+02  0.23502473966E+02  0.38802945336E+02  0.47000000000E+01 0.  1.
         -5    1    3    3    0  503 -0.86350726367E+01 -0.28557521124E+02 -0.13450120110E+03  0.13785049724E+03  0.47000000000E+01 0.  1.
<mgrwt>
<rscale>  0 0.13742807E+03</rscale>
<asrwt>0</asrwt>
<pdfrwt beam="2">  1        5 0.44281716E-01 0.13742898E+03</pdfrwt>
<pdfrwt beam="1">  1       -5 0.10094716E-01 0.13742898E+03</pdfrwt>
<totfact> 0.28088331E+02</totfact>
</mgrwt>
</event>
<event>
 8    1  0.1821556E-007  0.1299643E+03  0.7546771E-02  0.1227510E+00
          5   -1    0    0  501    0  0.00000000000E+00  0.00000000000E+00  0.13252672292E+02  0.14061412549E+02  0.47000000000E+01 0. -1.
         -5   -1    0    0    0  501 -0.00000000000E+00 -0.00000000000E+00 -0.16454663225E+04  0.16454730349E+04  0.47000000000E+01 0. -1.
         25    2    1    2    0    0 -0.26394801991E+02 -0.23874172024E+02 -0.12299519896E+04  0.12367991062E+04  0.12499388294E+03 0.  0.
         25    2    1    2    0    0  0.26394801991E+02  0.23874172024E+02 -0.40226166063E+03  0.42273534122E+03  0.12499625370E+03 0.  0.
          5    1    3    3  502    0 -0.44732056918E+02  0.39658835923E+02 -0.73228577935E+03  0.73473691402E+03  0.47000000000E+01 0.  1.
         -5    1    3    3    0  502  0.18337254927E+02 -0.63533007947E+02 -0.49766621024E+03  0.50206219220E+03  0.47000000000E+01 0.  1.
          5    1    4    4  503    0 -0.34919647408E+02  0.43448146553E+02 -0.26791542376E+03  0.27369305344E+03  0.47000000000E+01 0.  1.
         -5    1    4    4    0  503  0.61314449399E+02 -0.19573974529E+02 -0.13434623687E+03  0.14904228778E+03  0.47000000000E+01 0.  1.
<mgrwt>
<rscale>  0 0.12996375E+03</rscale>
<asrwt>0</asrwt>
<pdfrwt beam="1">  1        5 0.21016011E-02 0.12996432E+03</pdfrwt>
<pdfrwt beam="2">  1       -5 0.25321124E+00 0.12996432E+03</pdfrwt>
<totfact> 0.41714314E+01</totfact>
</mgrwt>
</event>
<event>
 8    1  0.1821556E-007  0.1430599E+03  0.7546771E-02  0.1209275E+00
          5   -1    0    0  501    0  0.00000000000E+00  0.00000000000E+00  0.13224709298E+03  0.13233058453E+03  0.47000000000E+01 0.  1.
         -5   -1    0    0    0  501 -0.00000000000E+00 -0.00000000000E+00 -0.15457199673E+03  0.15464343560E+03  0.47000000000E+01 0.  1.
         25    2    1    2    0    0  0.69353927051E+02 -0.55406014828E+01 -0.11080297337E+02  0.14347287286E+03  0.12498410617E+03 0.  0.
         25    2    1    2    0    0 -0.69353927051E+02  0.55406014828E+01 -0.11244606412E+02  0.14350114727E+03  0.12500189051E+03 0.  0.
          5    1    3    3  502    0  0.60620290089E+02 -0.46164041707E+02 -0.45882429446E+02  0.89068656940E+02  0.47000000000E+01 0. -1.
         -5    1    3    3    0  502  0.87336369622E+01  0.40623440224E+02  0.34802132109E+02  0.54404215917E+02  0.47000000000E+01 0. -1.
          5    1    4    4  503    0 -0.16245384261E+02 -0.36813465711E+02 -0.50627029524E+02  0.64840804174E+02  0.47000000000E+01 0.  1.
         -5    1    4    4    0  503 -0.53108542790E+02  0.42354067194E+02  0.39382423112E+02  0.78660343092E+02  0.47000000000E+01 0.  1.
<mgrwt>
<rscale>  0 0.14305603E+03</rscale>
<asrwt>0</asrwt>
<pdfrwt beam="1">  1        5 0.20357624E-01 0.14305991E+03</pdfrwt>
<pdfrwt beam="2">  1       -5 0.23792225E-01 0.14305991E+03</pdfrwt>
<totfact> 0.27583928E+02</totfact>
</mgrwt>
</event>
<event>
 8    1  0.1821556E-007  0.1787019E+03  0.7546771E-02  0.1169066E+00
          5   -1    0    0  501    0  0.00000000000E+00  0.00000000000E+00  0.75198695552E+03  0.75200164313E+03  0.47000000000E+01 0.  1.
         -5   -1    0    0    0  501 -0.00000000000E+00 -0.00000000000E+00 -0.70162811269E+02  0.70320054644E+02  0.47000000000E+01 0.  1.
         25    2    1    2    0    0  0.43026806879E+02  0.12023808390E+03  0.82318491196E+02  0.19674885380E+03  0.12500109820E+03 0.  0.
         25    2    1    2    0    0 -0.43026806879E+02 -0.12023808390E+03  0.59950565305E+03  0.62557284397E+03  0.12500340851E+03 0.  0.
          5    1    4    4  502    0 -0.72459478025E+02 -0.81684523126E+02  0.52699336455E+03  0.53820705454E+03  0.47000000000E+01 0. -1.
         -5    1    4    4    0  502  0.29432671145E+02 -0.38553560772E+02  0.72512288496E+02  0.87365789425E+02  0.47000000000E+01 0. -1.
          5    1    3    3  503    0  0.84229709789E+02  0.10322962853E+03  0.68250149065E+02  0.14977040116E+03  0.47000000000E+01 0. -1.
         -5    1    3    3    0  503 -0.41202902910E+02  0.17008455370E+02  0.14068342130E+02  0.46978452641E+02  0.47000000000E+01 0. -1.
<mgrwt>
<rscale>  0 0.17870146E+03</rscale>
<asrwt>0</asrwt>
<pdfrwt beam="1">  1        5 0.11570353E+00 0.17870186E+03</pdfrwt>
<pdfrwt beam="2">  1       -5 0.10807504E-01 0.17870186E+03</pdfrwt>
<totfact> 0.30179018E+01</totfact>
</mgrwt>
</event>
<event>
 8    1  0.1821556E-007  0.1345369E+03  0.7546771E-02  0.1220878E+00
         -5   -1    0    0    0  501 -0.00000000000E+00  0.00000000000E+00  0.64146869876E+03  0.64148591683E+03  0.47000000000E+01 0.  1.
          5   -1    0    0  501    0  0.00000000000E+00 -0.00000000000E+00 -0.40208157863E+02  0.40481921382E+02  0.47000000000E+01 0.  1.
         25    2    1    2    0    0 -0.49655401885E+02 -0.27990245101E+01  0.48768753454E+03  0.50590248458E+03  0.12499879631E+03 0.  0.
         25    2    1    2    0    0  0.49655401885E+02  0.27990245101E+01  0.11357300636E+03  0.17606535364E+03  0.12500674983E+03 0.  0.
          5    1    3    3  502    0 -0.46739094392E+02  0.53644299706E+02  0.19172737963E+03  0.20455740499E+03  0.47000000000E+01 0.  1.
         -5    1    3    3    0  502 -0.29163074928E+01 -0.56443324216E+02  0.29596015491E+03  0.30134507958E+03  0.47000000000E+01 0.  1.
          5    1    4    4  503    0 -0.37482512658E+02  0.23649667662E+02  0.42791968396E+02  0.61785824385E+02  0.47000000000E+01 0.  1.
         -5    1    4    4    0  503  0.87137914543E+02 -0.20850643152E+02  0.70781037963E+02  0.11427952925E+03  0.47000000000E+01 0.  1.
<mgrwt>
<rscale>  0 0.13453507E+03</rscale>
<asrwt>0</asrwt>
<pdfrwt beam="2">  1        5 0.62082542E-02 0.13453691E+03</pdfrwt>
<pdfrwt beam="1">  1       -5 0.98709866E-01 0.13453691E+03</pdfrwt>
<totfact> 0.10698973E+02</totfact>
</mgrwt>
</event>
<event>
 8    1  0.1821556E-007  0.1308369E+03  0.7546771E-02  0.1226223E+00
         -5   -1    0    0    0  501 -0.00000000000E+00  0.00000000000E+00  0.40492774323E+03  0.40495501878E+03  0.47000000000E+01 0. -1.
          5   -1    0    0  501    0  0.00000000000E+00 -0.00000000000E+00 -0.43484379197E+02  0.43737640930E+02  0.47000000000E+01 0. -1.
         25    2    1    2    0    0 -0.24041615177E+02  0.30250993595E+02  0.14099481794E+03  0.19234162493E+03  0.12499056012E+03 0.  0.
         25    2    1    2    0    0  0.24041615177E+02 -0.30250993595E+02  0.22044854609E+03  0.25635103479E+03  0.12500067875E+03 0.  0.
          5    1    3    3  502    0 -0.27793896473E+02  0.54414074621E+01  0.15869923029E+03  0.16127506097E+03  0.47000000000E+01 0.  1.
         -5    1    3    3    0  502  0.37522812965E+01  0.24809586133E+02 -0.17704412354E+02  0.31066563953E+02  0.47000000000E+01 0.  1.
          5    1    4    4  503    0 -0.21239899105E+01  0.25160234983E+01 -0.15568195615E+02  0.16592179547E+02  0.47000000000E+01 0.  1.
         -5    1    4    4    0  503  0.26165605087E+02 -0.32767017093E+02  0.23601674171E+03  0.23975885524E+03  0.47000000000E+01 0.  1.
<mgrwt>
<rscale>  0 0.13083447E+03</rscale>
<asrwt>0</asrwt>
<pdfrwt beam="2">  1        5 0.67114841E-02 0.13083689E+03</pdfrwt>
<pdfrwt beam="1">  1       -5 0.62318157E-01 0.13083689E+03</pdfrwt>
<totfact> 0.26824994E+02</totfact>
</mgrwt>
</event>
<event>
 8    1  0.1821556E-007  0.1643986E+03  0.7546771E-02  0.1183819E+00
          5   -1    0    0  501    0  0.00000000000E+00  0.00000000000E+00  0.47212275360E+03  0.47214614736E+03  0.47000000000E+01 0.  1.
         -5   -1    0    0    0  501 -0.00000000000E+00 -0.00000000000E+00 -0.70669629141E+02  0.70825747316E+02  0.47000000000E+01 0.  1.
         25    2    1    2    0    0  0.85571824307E+02  0.63872644440E+02  0.82032193158E+02  0.18372738682E+03  0.12499688049E+03 0.  0.
         25    2    1    2    0    0 -0.85571824307E+02 -0.63872644440E+02  0.31942093130E+03  0.35924450786E+03  0.12499853297E+03 0.  0.
          5    1    4    4  502    0 -0.21543641569E+02 -0.43367982346E+02  0.20456134901E+02  0.52777398950E+02  0.47000000000E+01 0.  1.
         -5    1    4    4    0  502 -0.64028182738E+02 -0.20504662094E+02  0.29896479640E+03  0.30646710891E+03  0.47000000000E+01 0.  1.
          5    1    3    3  503    0  0.87630419644E+02  0.41040902062E+02  0.11044806615E+03  0.14691600119E+03  0.47000000000E+01 0.  1.
         -5    1    3    3    0  503 -0.20585953376E+01  0.22831742378E+02 -0.28415872989E+02  0.36811385637E+02  0.47000000000E+01 0.  1.
<mgrwt>
<rscale>  0 0.16439824E+03</rscale>
<asrwt>0</asrwt>
<pdfrwt beam="1">  1        5 0.72648079E-01 0.16439856E+03</pdfrwt>
<pdfrwt beam="2">  1       -5 0.10886059E-01 0.16439856E+03</pdfrwt>
<totfact> 0.88911595E+01</totfact>
</mgrwt>
</event>
<event>
 8    1  0.1821556E-007  0.1378621E+03  0.7546771E-02  0.1216237E+00
         -5   -1    0    0    0  501 -0.00000000000E+00  0.00000000000E+00  0.80611527028E+02  0.80748425928E+02  0.47000000000E+01 0.  1.
          5   -1    0    0  501    0  0.00000000000E+00 -0.00000000000E+00 -0.26121815427E+03  0.26126043351E+03  0.47000000000E+01 0.  1.
         25    2    1    2    0    0 -0.14965527412E+02 -0.56188222698E+02 -0.36564540504E+02  0.14262859674E+03  0.12499947042E+03 0.  0.
         25    2    1    2    0    0  0.14965527412E+02  0.56188222698E+02 -0.14404208674E+03  0.19938026270E+03  0.12499313190E+03 0.  0.
          5    1    4    4  502    0 -0.74195791472E+01 -0.36919091185E+02 -0.64359544726E+02  0.74714860944E+02  0.47000000000E+01 0.  1.
         -5    1    4    4    0  502  0.22385106560E+02  0.93107313883E+02 -0.79682542011E+02  0.12466540176E+03  0.47000000000E+01 0.  1.
          5    1    3    3  503    0  0.29868164551E+02  0.71789352318E+01  0.27788624685E+02  0.41688631863E+02  0.47000000000E+01 0.  1.
         -5    1    3    3    0  503 -0.44833691964E+02 -0.63367157930E+02 -0.64353165189E+02  0.10093996488E+03  0.47000000000E+01 0.  1.
<mgrwt>
<rscale>  0 0.13786064E+03</rscale>
<asrwt>0</asrwt>
<pdfrwt beam="2">  1        5 0.40201191E-01 0.13786207E+03</pdfrwt>
<pdfrwt beam="1">  1       -5 0.12415556E-01 0.13786207E+03</pdfrwt>
<totfact> 0.23836127E+02</totfact>
</mgrwt>
</event>
<event>
 8    1  0.1821556E-007  0.1348101E+03  0.7546771E-02  0.1220491E+00
          5   -1    0    0  501    0  0.00000000000E+00  0.00000000000E+00  0.16938763005E+03  0.16945282297E+03  0.47000000000E+01 0.  1.
         -5   -1    0    0    0  501 -0.00000000000E+00 -0.00000000000E+00 -0.14511522767E+03  0.14519131965E+03  0.47000000000E+01 0.  1.
         25    2    1    2    0    0 -0.10712009909E+02  0.49303186421E+02 -0.68293146186E+02  0.15112149159E+03  0.12501279957E+03 0.  0.
         25    2    1    2    0    0  0.10712009909E+02 -0.49303186421E+02  0.92565548565E+02  0.16352265103E+03  0.12500290105E+03 0.  0.
          5    1    4    4  502    0  0.30567009233E+01 -0.31597979978E+02 -0.27233551929E+02  0.42089572461E+02  0.47000000000E+01 0. -1.
         -5    1    4    4    0  502  0.76553089857E+01 -0.17705206443E+02  0.11979910049E+03  0.12143307857E+03  0.47000000000E+01 0. -1.
          5    1    3    3  503    0 -0.21890410044E+02  0.35871865631E+02  0.29570277846E+02  0.51599148516E+02  0.47000000000E+01 0.  1.
         -5    1    3    3    0  503  0.11178400136E+02  0.13431320790E+02 -0.97863424031E+02  0.99522343074E+02  0.47000000000E+01 0.  1.
<mgrwt>
<rscale>  0 0.13480776E+03</rscale>
<asrwt>0</asrwt>
<pdfrwt beam="1">  1        5 0.26070504E-01 0.13481006E+03</pdfrwt>
<pdfrwt beam="2">  1       -5 0.22336288E-01 0.13481006E+03</pdfrwt>
<totfact> 0.19060865E+02</totfact>
</mgrwt>
</event>
<event>
 8    1  0.1821556E-007  0.1440611E+03  0.7546771E-02  0.1207971E+00
          5   -1    0    0  501    0  0.00000000000E+00  0.00000000000E+00  0.20328560727E+02  0.20864812034E+02  0.47000000000E+01 0. -1.
         -5   -1    0    0    0  501 -0.00000000000E+00 -0.00000000000E+00 -0.12100939822E+04  0.12101031096E+04  0.47000000000E+01 0. -1.
         25    2    1    2    0    0  0.96823545448E+01 -0.70953730850E+02 -0.84696396546E+03  0.85912595414E+03  0.12498506466E+03 0.  0.
         25    2    1    2    0    0 -0.96823545448E+01  0.70953730850E+02 -0.34280145602E+03  0.37184196745E+03  0.12500172238E+03 0.  0.
          5    1    4    4  502    0 -0.16850809520E+02  0.41794990094E+02 -0.23393577102E+02  0.50991376016E+02  0.47000000000E+01 0. -1.
         -5    1    4    4    0  502  0.71684549757E+01  0.29158740757E+02 -0.31940787891E+03  0.32085059143E+03  0.47000000000E+01 0. -1.
          5    1    3    3  503    0  0.12602904969E+02 -0.94882124349E+02 -0.39363331187E+03  0.40513050360E+03  0.47000000000E+01 0. -1.
         -5    1    3    3    0  503 -0.29205504247E+01  0.23928393499E+02 -0.45333065359E+03  0.45399545055E+03  0.47000000000E+01 0. -1.
<mgrwt>
<rscale>  0 0.14405752E+03</rscale>
<asrwt>0</asrwt>
<pdfrwt beam="1">  1        5 0.31694240E-02 0.14406113E+03</pdfrwt>
<pdfrwt beam="2">  1       -5 0.18621020E+00 0.14406113E+03</pdfrwt>
<totfact> 0.61139216E+01</totfact>
</mgrwt>
</event>
<event>
 8    1  0.1821556E-007  0.1392209E+03  0.7546771E-02  0.1214382E+00
         -5   -1    0    0    0  501 -0.00000000000E+00  0.00000000000E+00  0.82183635376E+02  0.82317919821E+02  0.47000000000E+01 0. -1.
          5   -1    0    0  501    0  0.00000000000E+00 -0.00000000000E+00 -0.23854869142E+03  0.23859498775E+03  0.47000000000E+01 0. -1.
         25    2    1    2    0    0  0.58750014335E+02 -0.17493734905E+02 -0.96347761370E+02  0.16930640402E+03  0.12499668946E+03 0.  0.
         25    2    1    2    0    0 -0.58750014335E+02  0.17493734905E+02 -0.60017294673E+02  0.15160650355E+03  0.12499944525E+03 0.  0.
          5    1    4    4  502    0  0.85842176401E+01  0.57276595607E+02 -0.10860388204E+02  0.59112902388E+02  0.47000000000E+01 0.  1.
         -5    1    4    4    0  502 -0.67334231975E+02 -0.39782860702E+02 -0.49156906470E+02  0.92493601157E+02  0.47000000000E+01 0.  1.
          5    1    3    3  503    0  0.95574693242E+02 -0.47162146252E+01 -0.48407462132E+02  0.10734121789E+03  0.47000000000E+01 0.  1.
         -5    1    3    3    0  503 -0.36824678906E+02 -0.12777520280E+02 -0.47940299238E+02  0.61965186130E+02  0.47000000000E+01 0.  1.
<mgrwt>
<rscale>  0 0.13922027E+03</rscale>
<asrwt>0</asrwt>
<pdfrwt beam="2">  1        5 0.36713689E-01 0.13922089E+03</pdfrwt>
<pdfrwt beam="1">  1       -5 0.12657527E-01 0.13922089E+03</pdfrwt>
<totfact> 0.27788941E+02</totfact>
</mgrwt>
</event>
<event>
 8    1  0.1821556E-007  0.1357450E+03  0.7546771E-02  0.1219174E+00
         -5   -1    0    0    0  501 -0.00000000000E+00  0.00000000000E+00  0.72962377248E+02  0.73113599923E+02  0.47000000000E+01 0.  1.
          5   -1    0    0  501    0  0.00000000000E+00 -0.00000000000E+00 -0.25927779825E+03  0.25932039384E+03  0.47000000000E+01 0.  1.
         25    2    1    2    0    0 -0.20114101495E+02 -0.48973444040E+02 -0.65524162135E+02  0.15072755597E+03  0.12498961959E+03 0.  0.
         25    2    1    2    0    0  0.20114101495E+02  0.48973444040E+02 -0.12079125886E+03  0.18170643779E+03  0.12499490397E+03 0.  0.
          5    1    4    4  502    0  0.78424134983E+01  0.55154616705E+02  0.40214509062E+01  0.56051737357E+02  0.47000000000E+01 0.  1.
         -5    1    4    4    0  502  0.12271687997E+02 -0.61811726650E+01 -0.12481270977E+03  0.12565470044E+03  0.47000000000E+01 0.  1.
          5    1    3    3  503    0 -0.99344385656E+01 -0.91031736738E+02 -0.38180080759E+02  0.99324109510E+02  0.47000000000E+01 0.  1.
         -5    1    3    3    0  503 -0.10179662930E+02  0.42058292698E+02 -0.27344081375E+02  0.51403446463E+02  0.47000000000E+01 0.  1.
<mgrwt>
<rscale>  0 0.13574377E+03</rscale>
<asrwt>0</asrwt>
<pdfrwt beam="2">  1        5 0.39903801E-01 0.13574499E+03</pdfrwt>
<pdfrwt beam="1">  1       -5 0.11239890E-01 0.13574499E+03</pdfrwt>
<totfact> 0.28708263E+02</totfact>
</mgrwt>
</event>
<event>
 8    1  0.1821556E-007  0.1311223E+03  0.7546771E-02  0.1225802E+00
          5   -1    0    0  501    0  0.00000000000E+00  0.00000000000E+00  0.17754585249E+03  0.17760805088E+03  0.47000000000E+01 0.  1.
         -5   -1    0    0    0  501 -0.00000000000E+00 -0.00000000000E+00 -0.97570682806E+02  0.97683817203E+02  0.47000000000E+01 0.  1.
         25    2    1    2    0    0 -0.27772474022E+02 -0.28209206202E+02  0.26967384675E+02  0.13386672799E+03  0.12500396553E+03 0.  0.
         25    2    1    2    0    0  0.27772474022E+02  0.28209206202E+02  0.53007785012E+02  0.14142514009E+03  0.12499670136E+03 0.  0.
          5    1    3    3  502    0 -0.92838172163E+01  0.45333924995E+02 -0.12620480139E+02  0.48194611074E+02  0.47000000000E+01 0. -1.
         -5    1    3    3    0  502 -0.18488656806E+02 -0.73543131198E+02  0.39587864814E+02  0.85672116919E+02  0.47000000000E+01 0. -1.
          5    1    4    4  503    0  0.64525280254E+02  0.34834663675E+02  0.68749844329E+02  0.10062602387E+03  0.47000000000E+01 0.  1.
         -5    1    4    4    0  503 -0.36752806232E+02 -0.66254574724E+01 -0.15742059317E+02  0.40799116218E+02  0.47000000000E+01 0.  1.
<mgrwt>
<rscale>  0 0.13112058E+03</rscale>
<asrwt>0</asrwt>
<pdfrwt beam="1">  1        5 0.27328234E-01 0.13112231E+03</pdfrwt>
<pdfrwt beam="2">  1       -5 0.15024362E-01 0.13112231E+03</pdfrwt>
<totfact> 0.35861276E+02</totfact>
</mgrwt>
</event>
<event>
 8    1  0.1821556E-007  0.1366006E+03  0.7546771E-02  0.1217979E+00
         -5   -1    0    0    0  501 -0.00000000000E+00  0.00000000000E+00  0.73349751426E+02  0.73500177104E+02  0.47000000000E+01 0.  1.
          5   -1    0    0  501    0  0.00000000000E+00 -0.00000000000E+00 -0.25737923762E+03  0.25742214737E+03  0.47000000000E+01 0.  1.
         25    2    1    2    0    0 -0.53316520757E+02  0.13837629202E+02 -0.72927797812E+02  0.15484476617E+03  0.12499722616E+03 0.  0.
         25    2    1    2    0    0  0.53316520757E+02 -0.13837629202E+02 -0.11110168838E+03  0.17607755831E+03  0.12500236002E+03 0.  0.
          5    1    3    3  502    0  0.25953203264E+01  0.57513088155E+02 -0.75532275877E+01  0.58254890299E+02  0.47000000000E+01 0. -1.
         -5    1    3    3    0  502 -0.55911841084E+02 -0.43675458953E+02 -0.65374570225E+02  0.96589875868E+02  0.47000000000E+01 0. -1.
          5    1    4    4  503    0  0.27224403335E+02  0.43148907107E+01 -0.13383034644E+03  0.13672029128E+03  0.47000000000E+01 0. -1.
         -5    1    4    4    0  503  0.26092117423E+02 -0.18152519913E+02  0.22728658061E+02  0.39357267029E+02  0.47000000000E+01 0. -1.
<mgrwt>
<rscale>  0 0.13659942E+03</rscale>
<asrwt>0</asrwt>
<pdfrwt beam="2">  1        5 0.39611677E-01 0.13660059E+03</pdfrwt>
<pdfrwt beam="1">  1       -5 0.11299449E-01 0.13660059E+03</pdfrwt>
<totfact> 0.28934406E+02</totfact>
</mgrwt>
</event>
<event>
 8    1  0.1821556E-007  0.1764578E+03  0.7546771E-02  0.1171277E+00
         -5   -1    0    0    0  501 -0.00000000000E+00  0.00000000000E+00  0.77595593287E+02  0.77737803529E+02  0.47000000000E+01 0. -1.
          5   -1    0    0  501    0  0.00000000000E+00 -0.00000000000E+00 -0.40259570191E+03  0.40262313544E+03  0.47000000000E+01 0. -1.
         25    2    1    2    0    0 -0.12452528218E+03  0.20639057362E+01 -0.17878241891E+03  0.25119511745E+03  0.12500011243E+03 0.  0.
         25    2    1    2    0    0  0.12452528218E+03 -0.20639057362E+01 -0.14621768970E+03  0.22916582152E+03  0.12500622130E+03 0.  0.
          5    1    4    4  502    0  0.49688860389E+02 -0.57468344655E+02 -0.98348185523E+02  0.12436257106E+03  0.47000000000E+01 0.  1.
         -5    1    4    4    0  502  0.74836421787E+02  0.55404438918E+02 -0.47869504180E+02  0.10480325047E+03  0.47000000000E+01 0.  1.
          5    1    3    3  503    0 -0.14616694004E+03  0.19819116916E+02 -0.14271550314E+03  0.20529826252E+03  0.47000000000E+01 0. -1.
         -5    1    3    3    0  503  0.21641657863E+02 -0.17755211180E+02 -0.36066915774E+02  0.45896854931E+02  0.47000000000E+01 0. -1.
<mgrwt>
<rscale>  0 0.17645673E+03</rscale>
<asrwt>0</asrwt>
<pdfrwt beam="2">  1        5 0.61950849E-01 0.17645782E+03</pdfrwt>
<pdfrwt beam="1">  1       -5 0.11950833E-01 0.17645782E+03</pdfrwt>
<totfact> 0.10999938E+02</totfact>
</mgrwt>
</event>
<event>
 8    1  0.1821556E-007  0.1533333E+03  0.7546771E-02  0.1196443E+00
         -5   -1    0    0    0  501 -0.00000000000E+00  0.00000000000E+00  0.18786382982E+03  0.18792261321E+03  0.47000000000E+01 0. -1.
          5   -1    0    0  501    0  0.00000000000E+00 -0.00000000000E+00 -0.17722244036E+03  0.17728475221E+03  0.47000000000E+01 0. -1.
         25    2    1    2    0    0  0.69371822441E+02  0.55449728217E+02  0.10439845536E+03  0.18548122647E+03  0.12496849916E+03 0.  0.
         25    2    1    2    0    0 -0.69371822441E+02 -0.55449728217E+02 -0.93757065900E+02  0.17972613895E+03  0.12499590196E+03 0.  0.
          5    1    3    3  502    0  0.40792782608E+02  0.10462059947E+02  0.12200498584E+03  0.12915421937E+03  0.47000000000E+01 0. -1.
         -5    1    3    3    0  502  0.28579039833E+02  0.44987668270E+02 -0.17606530471E+02  0.56327007105E+02  0.47000000000E+01 0. -1.
          5    1    4    4  503    0 -0.10142540278E+03 -0.40572159035E+02 -0.42540744044E+02  0.11732441059E+03  0.47000000000E+01 0.  1.
         -5    1    4    4    0  503  0.32053580337E+02 -0.14877569181E+02 -0.51216321856E+02  0.62401728354E+02  0.47000000000E+01 0.  1.
<mgrwt>
<rscale>  0 0.15332770E+03</rscale>
<asrwt>0</asrwt>
<pdfrwt beam="2">  1        5 0.27274306E-01 0.15333329E+03</pdfrwt>
<pdfrwt beam="1">  1       -5 0.28911443E-01 0.15333329E+03</pdfrwt>
<totfact> 0.11094966E+02</totfact>
</mgrwt>
</event>
<event>
 8    1  0.1821556E-007  0.2044675E+03  0.7546771E-02  0.1146024E+00
         -5   -1    0    0    0  501 -0.00000000000E+00  0.00000000000E+00  0.28873378444E+03  0.28877203514E+03  0.47000000000E+01 0. -1.
          5   -1    0    0  501    0  0.00000000000E+00 -0.00000000000E+00 -0.14722898190E+03  0.14730398199E+03  0.47000000000E+01 0. -1.
         25    2    1    2    0    0  0.92038996477E+02  0.13308136341E+03  0.99273654129E+02  0.22729277909E+03  0.12499969145E+03 0.  0.
         25    2    1    2    0    0 -0.92038996477E+02 -0.13308136341E+03  0.42231148413E+02  0.20878323804E+03  0.12500057773E+03 0.  0.
          5    1    4    4  502    0  0.16704513673E+02 -0.77309474966E+02 -0.49002393944E+00  0.79234625133E+02  0.47000000000E+01 0. -1.
         -5    1    4    4    0  502 -0.10874351015E+03 -0.55771888442E+02  0.42721172352E+02  0.12954861291E+03  0.47000000000E+01 0. -1.
          5    1    3    3  503    0 -0.63247026587E+01  0.99750381915E+02  0.56159501626E+02  0.11474371520E+03  0.47000000000E+01 0.  1.
         -5    1    3    3    0  503  0.98363699136E+02  0.33330981493E+02  0.43114152503E+02  0.11254906388E+03  0.47000000000E+01 0.  1.
<mgrwt>
<rscale>  0 0.20446739E+03</rscale>
<asrwt>0</asrwt>
<pdfrwt beam="2">  1        5 0.22659324E-01 0.20446753E+03</pdfrwt>
<pdfrwt beam="1">  1       -5 0.44429294E-01 0.20446753E+03</pdfrwt>
<totfact> 0.72235004E+01</totfact>
</mgrwt>
</event>
<event>
 8    1  0.1821556E-007  0.1275840E+03  0.7546771E-02  0.1231100E+00
          5   -1    0    0  501    0  0.00000000000E+00  0.00000000000E+00  0.92381930912E+02  0.92501411660E+02  0.47000000000E+01 0.  1.
         -5   -1    0    0    0  501 -0.00000000000E+00 -0.00000000000E+00 -0.25449752385E+03  0.25454091940E+03  0.47000000000E+01 0.  1.
         25    2    1    2    0    0 -0.69708086092E+01  0.24568614790E+02 -0.17747424682E+03  0.21857444135E+03  0.12500187647E+03 0.  0.
         25    2    1    2    0    0  0.69708086092E+01 -0.24568614790E+02  0.15358653873E+02  0.12846788971E+03  0.12496360043E+03 0.  0.
          5    1    4    4  502    0 -0.15627074106E+02  0.38856813081E+02 -0.25799230521E+02  0.49414043180E+02  0.47000000000E+01 0. -1.
         -5    1    4    4    0  502  0.22597882715E+02 -0.63425427870E+02  0.41157884394E+02  0.79053846532E+02  0.47000000000E+01 0. -1.
          5    1    3    3  503    0 -0.74228845600E+01 -0.10308044066E+02  0.16549021843E+02  0.21384927206E+02  0.47000000000E+01 0. -1.
         -5    1    3    3    0  503  0.45207595077E+00  0.34876658856E+02 -0.19402326866E+03  0.19718951414E+03  0.47000000000E+01 0. -1.
<mgrwt>
<rscale>  0 0.12757463E+03</rscale>
<asrwt>0</asrwt>
<pdfrwt beam="1">  1        5 0.14225134E-01 0.12758400E+03</pdfrwt>
<pdfrwt beam="2">  1       -5 0.39165994E-01 0.12758400E+03</pdfrwt>
<totfact> 0.19187350E+02</totfact>
</mgrwt>
</event>
<event>
 8    1  0.1821556E-007  0.1260013E+03  0.7546771E-02  0.1233513E+00
          5   -1    0    0  501    0  0.00000000000E+00  0.00000000000E+00  0.13981503752E+03  0.13989401244E+03  0.47000000000E+01 0. -1.
         -5   -1    0    0    0  501 -0.00000000000E+00 -0.00000000000E+00 -0.11706132500E+03  0.11715563926E+03  0.47000000000E+01 0. -1.
         25    2    1    2    0    0 -0.13358560780E+02  0.85325308527E+01 -0.11361035047E+02  0.12651242303E+03  0.12500025934E+03 0.  0.
         25    2    1    2    0    0  0.13358560780E+02 -0.85325308527E+01  0.34114747567E+02  0.13053722867E+03  0.12499958735E+03 0.  0.
          5    1    4    4  502    0  0.42094994625E+02  0.21426089564E+02 -0.28424436192E+02  0.55327248796E+02  0.47000000000E+01 0.  1.
         -5    1    4    4    0  502 -0.28736433845E+02 -0.29958620416E+02  0.62539183759E+02  0.75209979874E+02  0.47000000000E+01 0.  1.
          5    1    3    3  503    0  0.39972966386E+02  0.33017654266E+02 -0.35365612543E+02  0.62935046559E+02  0.47000000000E+01 0. -1.
         -5    1    3    3    0  503 -0.53331527166E+02 -0.24485123413E+02  0.24004577496E+02  0.63577376473E+02  0.47000000000E+01 0. -1.
<mgrwt>
<rscale>  0 0.12600110E+03</rscale>
<asrwt>0</asrwt>
<pdfrwt beam="1">  1        5 0.21523336E-01 0.12600127E+03</pdfrwt>
<pdfrwt beam="2">  1       -5 0.18022765E-01 0.12600127E+03</pdfrwt>
<totfact> 0.39971644E+02</totfact>
</mgrwt>
</event>
<event>
 8    1  0.1821556E-007  0.1256095E+03  0.7546771E-02  0.1234131E+00
         -5   -1    0    0    0  501 -0.00000000000E+00  0.00000000000E+00  0.24127178867E+03  0.24131756258E+03  0.47000000000E+01 0. -1.
          5   -1    0    0  501    0  0.00000000000E+00 -0.00000000000E+00 -0.15020868343E+03  0.15028219647E+03  0.47000000000E+01 0. -1.
         25    2    1    2    0    0  0.11119158296E+01  0.12381818148E+02  0.19271243661E+03  0.23003439761E+03  0.12499278012E+03 0.  0.
         25    2    1    2    0    0 -0.11119158296E+01 -0.12381818148E+02 -0.10164933136E+03  0.16156536145E+03  0.12496492978E+03 0.  0.
          5    1    4    4  502    0 -0.48388520410E+02  0.32869273516E+02 -0.36538415506E+02  0.69130194970E+02  0.47000000000E+01 0.  1.
         -5    1    4    4    0  502  0.47276604580E+02 -0.45251091665E+02 -0.65110915857E+02  0.92435166475E+02  0.47000000000E+01 0.  1.
          5    1    3    3  503    0 -0.11154294017E+02  0.17029551627E+02  0.20817449563E+03  0.20922030144E+03  0.47000000000E+01 0. -1.
         -5    1    3    3    0  503  0.12266209847E+02 -0.46477334790E+01 -0.15462059016E+02  0.20814096173E+02  0.47000000000E+01 0. -1.
<mgrwt>
<rscale>  0 0.12560255E+03</rscale>
<asrwt>0</asrwt>
<pdfrwt beam="2">  1        5 0.23118204E-01 0.12560948E+03</pdfrwt>
<pdfrwt beam="1">  1       -5 0.37127912E-01 0.12560948E+03</pdfrwt>
<totfact> 0.86837788E+01</totfact>
</mgrwt>
</event>
<event>
 8    1  0.1821556E-007  0.1567754E+03  0.7546771E-02  0.1192390E+00
         -5   -1    0    0    0  501 -0.00000000000E+00  0.00000000000E+00  0.24682340729E+03  0.24686815182E+03  0.47000000000E+01 0. -1.
          5   -1    0    0  501    0  0.00000000000E+00 -0.00000000000E+00 -0.10446444364E+03  0.10457011995E+03  0.47000000000E+01 0. -1.
         25    2    1    2    0    0 -0.60335542962E+01  0.94403445483E+02  0.10960975937E+03  0.19129254078E+03  0.12502048836E+03 0.  0.
         25    2    1    2    0    0  0.60335542962E+01 -0.94403445483E+02  0.32749204270E+02  0.16014573099E+03  0.12500292188E+03 0.  0.
          5    1    3    3  502    0  0.30030126389E+02  0.29802955690E+01 -0.13755051353E+02  0.33496001110E+02  0.47000000000E+01 0. -1.
         -5    1    3    3    0  502 -0.36063680685E+02  0.91423149914E+02  0.12336481073E+03  0.15779653967E+03  0.47000000000E+01 0. -1.
          5    1    4    4  503    0 -0.55895598470E+02 -0.23554921996E+02  0.14126776122E+01  0.60854235157E+02  0.47000000000E+01 0.  1.
         -5    1    4    4    0  503  0.61929152766E+02 -0.70848523487E+02  0.31336526658E+02  0.99291495837E+02  0.47000000000E+01 0.  1.
<mgrwt>
<rscale>  0 0.15677193E+03</rscale>
<asrwt>0</asrwt>
<pdfrwt beam="2">  1        5 0.16083024E-01 0.15677543E+03</pdfrwt>
<pdfrwt beam="1">  1       -5 0.37984402E-01 0.15677543E+03</pdfrwt>
<totfact> 0.17514911E+02</totfact>
</mgrwt>
</event>
<event>
 8    1  0.1821556E-007  0.1259836E+03  0.7546771E-02  0.1233544E+00
         -5   -1    0    0    0  501 -0.00000000000E+00  0.00000000000E+00  0.32066405225E+02  0.32409016401E+02  0.47000000000E+01 0. -1.
          5   -1    0    0  501    0  0.00000000000E+00 -0.00000000000E+00 -0.61596810698E+03  0.61598603784E+03  0.47000000000E+01 0. -1.
         25    2    1    2    0    0 -0.11904717807E+02  0.10213266745E+02 -0.14653141493E+03  0.19324420543E+03  0.12500333694E+03 0.  0.
         25    2    1    2    0    0  0.11904717807E+02 -0.10213266745E+02 -0.43737028682E+03  0.45515084881E+03  0.12499397687E+03 0.  0.
          5    1    4    4  502    0 -0.28836592260E+02  0.39590190272E+02 -0.29187132772E+03  0.29598968590E+03  0.47000000000E+01 0. -1.
         -5    1    4    4    0  502  0.40741310067E+02 -0.49803457017E+02 -0.14549895910E+03  0.15916116290E+03  0.47000000000E+01 0. -1.
          5    1    3    3  503    0 -0.57574882973E+02  0.15276195163E+02 -0.27913787072E+02  0.65950730069E+02  0.47000000000E+01 0. -1.
         -5    1    3    3    0  503  0.45670165166E+02 -0.50629284182E+01 -0.11861762786E+03  0.12729347536E+03  0.47000000000E+01 0. -1.
<mgrwt>
<rscale>  0 0.12598128E+03</rscale>
<asrwt>0</asrwt>
<pdfrwt beam="2">  1        5 0.94792049E-01 0.12598360E+03</pdfrwt>
<pdfrwt beam="1">  1       -5 0.49610276E-02 0.12598360E+03</pdfrwt>
<totfact> 0.16775806E+02</totfact>
</mgrwt>
</event>
<event>
 8    1  0.1821556E-007  0.1364966E+03  0.7546771E-02  0.1218122E+00
          5   -1    0    0  501    0  0.00000000000E+00  0.00000000000E+00  0.63322052333E+03  0.63323796567E+03  0.47000000000E+01 0.  1.
         -5   -1    0    0    0  501 -0.00000000000E+00 -0.00000000000E+00 -0.30999439180E+02  0.31353711574E+02  0.47000000000E+01 0.  1.
         25    2    1    2    0    0 -0.11626937639E+02  0.53577553073E+02  0.22192594758E+03  0.26054262826E+03  0.12500238022E+03 0.  0.
         25    2    1    2    0    0  0.11626937639E+02 -0.53577553073E+02  0.38029513657E+03  0.40404904898E+03  0.12500201284E+03 0.  0.
          5    1    4    4  502    0 -0.12604925151E+02 -0.72696403533E+02  0.11363863573E+03  0.13557094363E+03  0.47000000000E+01 0. -1.
         -5    1    4    4    0  502  0.24231862790E+02  0.19118850459E+02  0.26665650084E+03  0.26847810536E+03  0.47000000000E+01 0. -1.
          5    1    3    3  503    0  0.41673844345E+02  0.15782970828E+02  0.17318980413E+03  0.17889273245E+03  0.47000000000E+01 0.  1.
         -5    1    3    3    0  503 -0.53300781984E+02  0.37794582245E+02  0.48736143455E+02  0.81649895811E+02  0.47000000000E+01 0.  1.
<mgrwt>
<rscale>  0 0.13649656E+03</rscale>
<asrwt>0</asrwt>
<pdfrwt beam="1">  1        5 0.97447137E-01 0.13649665E+03</pdfrwt>
<pdfrwt beam="2">  1       -5 0.47977378E-02 0.13649665E+03</pdfrwt>
<totfact> 0.17052690E+02</totfact>
</mgrwt>
</event>
<event>
 8    1  0.1821556E-007  0.1561303E+03  0.7546771E-02  0.1193137E+00
         -5   -1    0    0    0  501 -0.00000000000E+00  0.00000000000E+00  0.84255117147E+02  0.84386105287E+02  0.47000000000E+01 0. -1.
          5   -1    0    0  501    0  0.00000000000E+00 -0.00000000000E+00 -0.35138019542E+03  0.35141162720E+03  0.47000000000E+01 0. -1.
         25    2    1    2    0    0 -0.87834179773E+02 -0.32202137929E+02 -0.41728942081E+02  0.16160787152E+03  0.12499591476E+03 0.  0.
         25    2    1    2    0    0  0.87834179773E+02  0.32202137929E+02 -0.22539613619E+03  0.27418986097E+03  0.12499936329E+03 0.  0.
          5    1    3    3  502    0 -0.31232648440E+02 -0.52810600937E+02  0.29470219702E+02  0.68227719800E+02  0.47000000000E+01 0.  1.
         -5    1    3    3    0  502 -0.56601531333E+02  0.20608463007E+02 -0.71199161783E+02  0.93380151721E+02  0.47000000000E+01 0.  1.
          5    1    4    4  503    0  0.45352086632E+01  0.46878150773E+02 -0.18849530400E+02  0.50946284789E+02  0.47000000000E+01 0.  1.
         -5    1    4    4    0  503  0.83298971110E+02 -0.14676012844E+02 -0.20654660579E+03  0.22324357618E+03  0.47000000000E+01 0.  1.
<mgrwt>
<rscale>  0 0.15612958E+03</rscale>
<asrwt>0</asrwt>
<pdfrwt beam="2">  1        5 0.54070985E-01 0.15613027E+03</pdfrwt>
<pdfrwt beam="1">  1       -5 0.12974820E-01 0.15613027E+03</pdfrwt>
<totfact> 0.12322021E+02</totfact>
</mgrwt>
</event>
<event>
 8    1  0.1821556E-007  0.1394087E+03  0.7546771E-02  0.1214131E+00
         -5   -1    0    0    0  501 -0.00000000000E+00  0.00000000000E+00  0.21938423339E+03  0.21943457308E+03  0.47000000000E+01 0. -1.
          5   -1    0    0  501    0  0.00000000000E+00 -0.00000000000E+00 -0.90494893867E+02  0.90616862758E+02  0.47000000000E+01 0. -1.
         25    2    1    2    0    0 -0.43954026522E+02  0.43326698561E+02  0.87680317405E+02  0.16467963129E+03  0.12498953414E+03 0.  0.
         25    2    1    2    0    0  0.43954026522E+02 -0.43326698561E+02  0.41209022121E+02  0.14537180455E+03  0.12500247516E+03 0.  0.
          5    1    3    3  502    0  0.38651437860E+02  0.39653814893E+02  0.45000921345E+02  0.71508961719E+02  0.47000000000E+01 0. -1.
         -5    1    3    3    0  502 -0.82605464382E+02  0.36728836684E+01  0.42679396059E+02  0.93170669571E+02  0.47000000000E+01 0. -1.
          5    1    4    4  503    0  0.52158290123E+02  0.30545509681E+02  0.36460254986E+02  0.70745710710E+02  0.47000000000E+01 0. -1.
         -5    1    4    4    0  503 -0.82042636008E+01 -0.73872208242E+02  0.47487671350E+01  0.74626093835E+02  0.47000000000E+01 0. -1.
<mgrwt>
<rscale>  0 0.13940577E+03</rscale>
<asrwt>0</asrwt>
<pdfrwt beam="2">  1        5 0.13935546E-01 0.13940867E+03</pdfrwt>
<pdfrwt beam="1">  1       -5 0.33764675E-01 0.13940867E+03</pdfrwt>
<totfact> 0.27687914E+02</totfact>
</mgrwt>
</event>
<event>
 8    1  0.1821556E-007  0.1317799E+03  0.7546771E-02  0.1224853E+00
          5   -1    0    0  501    0  0.00000000000E+00  0.00000000000E+00  0.93629344257E+03  0.93630523902E+03  0.47000000000E+01 0.  1.
         -5   -1    0    0    0  501 -0.00000000000E+00 -0.00000000000E+00 -0.18915698008E+02  0.19490860195E+02  0.47000000000E+01 0.  1.
         25    2    1    2    0    0  0.27104354016E+02  0.31553429941E+02  0.36929517309E+03  0.39210311760E+03  0.12504265278E+03 0.  0.
         25    2    1    2    0    0 -0.27104354016E+02 -0.31553429941E+02  0.54808257147E+03  0.56369298161E+03  0.12500002967E+03 0.  0.
          5    1    4    4  502    0 -0.95669253028E+00  0.45627870392E+02  0.13384725446E+03  0.14149203279E+03  0.47000000000E+01 0. -1.
         -5    1    4    4    0  502 -0.26147661486E+02 -0.77181300333E+02  0.41423531702E+03  0.42220094882E+03  0.47000000000E+01 0. -1.
          5    1    3    3  503    0  0.30852843604E+02  0.63819298109E+02  0.34233527702E+03  0.34962884987E+03  0.47000000000E+01 0. -1.
         -5    1    3    3    0  503 -0.37484895883E+01 -0.32265868168E+02  0.26959896073E+02  0.42474267729E+02  0.47000000000E+01 0. -1.
<mgrwt>
<rscale>  0 0.13176974E+03</rscale>
<asrwt>0</asrwt>
<pdfrwt beam="1">  1        5 0.14409033E+00 0.13177985E+03</pdfrwt>
<pdfrwt beam="2">  1       -5 0.29552574E-02 0.13177985E+03</pdfrwt>
<totfact> 0.13770147E+02</totfact>
</mgrwt>
</event>
<event>
 8    1  0.1821556E-007  0.1438669E+03  0.7546771E-02  0.1208227E+00
         -5   -1    0    0    0  501 -0.00000000000E+00  0.00000000000E+00  0.15123889617E+03  0.15131190871E+03  0.47000000000E+01 0.  1.
          5   -1    0    0  501    0  0.00000000000E+00 -0.00000000000E+00 -0.14066018723E+03  0.14073868790E+03  0.47000000000E+01 0.  1.
         25    2    1    2    0    0 -0.14396514812E+02 -0.69704196739E+02  0.29829812587E+02  0.14692681717E+03  0.12502694591E+03 0.  0.
         25    2    1    2    0    0  0.14396514812E+02  0.69704196739E+02 -0.19251103645E+02  0.14512377944E+03  0.12499748671E+03 0.  0.
          5    1    4    4  502    0 -0.56444464653E+01 -0.88184334634E+00  0.46138027993E+02  0.46727347995E+02  0.47000000000E+01 0.  1.
         -5    1    4    4    0  502  0.20040961278E+02  0.70586040086E+02 -0.65389131638E+02  0.98396431440E+02  0.47000000000E+01 0.  1.
          5    1    3    3  503    0  0.25736756200E+02  0.25167072249E+02  0.24252304300E+02  0.43658062361E+02  0.47000000000E+01 0.  1.
         -5    1    3    3    0  503 -0.40133271013E+02 -0.94871268988E+02  0.55775082870E+01  0.10326875481E+03  0.47000000000E+01 0.  1.
<mgrwt>
<rscale>  0 0.14386045E+03</rscale>
<asrwt>0</asrwt>
<pdfrwt beam="2">  1        5 0.21651684E-01 0.14386685E+03</pdfrwt>
<pdfrwt beam="1">  1       -5 0.23279177E-01 0.14386685E+03</pdfrwt>
<totfact> 0.25658644E+02</totfact>
</mgrwt>
</event>
<event>
 8    1  0.1821556E-007  0.1272522E+03  0.7546771E-02  0.1231593E+00
          5   -1    0    0  501    0  0.00000000000E+00  0.00000000000E+00  0.15024666852E+03  0.15032016299E+03  0.47000000000E+01 0. -1.
         -5   -1    0    0    0  501 -0.00000000000E+00 -0.00000000000E+00 -0.11037465172E+03  0.11047467466E+03  0.47000000000E+01 0. -1.
         25    2    1    2    0    0 -0.23819397871E+02  0.81403161792E+00 -0.64290410286E+00  0.12725378934E+03  0.12500034885E+03 0.  0.
         25    2    1    2    0    0  0.23819397871E+02 -0.81403161792E+00  0.40514920912E+02  0.13354104831E+03  0.12499490552E+03 0.  0.
          5    1    3    3  502    0  0.14410111096E+02  0.43727474402E+01  0.56270316608E+02  0.58439804527E+02  0.47000000000E+01 0.  1.
         -5    1    3    3    0  502 -0.38229508967E+02 -0.35587158223E+01 -0.56913220711E+02  0.68813984813E+02  0.47000000000E+01 0.  1.
          5    1    4    4  503    0  0.56500418602E+02 -0.40088531316E+02  0.21419086745E+01  0.69469888571E+02  0.47000000000E+01 0.  1.
         -5    1    4    4    0  503 -0.32681020731E+02  0.39274499698E+02  0.38373012237E+02  0.64071159743E+02  0.47000000000E+01 0.  1.
<mgrwt>
<rscale>  0 0.12725083E+03</rscale>
<asrwt>0</asrwt>
<pdfrwt beam="1">  1        5 0.23128219E-01 0.12725217E+03</pdfrwt>
<pdfrwt beam="2">  1       -5 0.16994063E-01 0.12725217E+03</pdfrwt>
<totfact> 0.39018450E+02</totfact>
</mgrwt>
</event>
<event>
 8    1  0.1821556E-007  0.1407658E+03  0.7546771E-02  0.1212303E+00
         -5   -1    0    0    0  501 -0.00000000000E+00  0.00000000000E+00  0.17746910482E+03  0.17753133010E+03  0.47000000000E+01 0.  1.
          5   -1    0    0  501    0  0.00000000000E+00 -0.00000000000E+00 -0.11182270204E+03  0.11192143089E+03  0.47000000000E+01 0.  1.
         25    2    1    2    0    0 -0.43396440493E+02 -0.48031401033E+02  0.40337318764E+02  0.14642985685E+03  0.12499734861E+03 0.  0.
         25    2    1    2    0    0  0.43396440493E+02  0.48031401033E+02  0.25309084020E+02  0.14302290414E+03  0.12499893936E+03 0.  0.
          5    1    4    4  502    0  0.65646770709E+02  0.72958989419E+02 -0.39848494017E+01  0.98338607201E+02  0.47000000000E+01 0.  1.
         -5    1    4    4    0  502 -0.22250330216E+02 -0.24927588385E+02  0.29293933422E+02  0.44684296937E+02  0.47000000000E+01 0.  1.
          5    1    3    3  503    0 -0.75395244860E+02 -0.68684519409E+02  0.33482037831E+02  0.10744832717E+03  0.47000000000E+01 0. -1.
         -5    1    3    3    0  503  0.31998804367E+02  0.20653118376E+02  0.68552809328E+01  0.38981529681E+02  0.47000000000E+01 0. -1.
<mgrwt>
<rscale>  0 0.14076541E+03</rscale>
<asrwt>0</asrwt>
<pdfrwt beam="2">  1        5 0.17215874E-01 0.14076577E+03</pdfrwt>
<pdfrwt beam="1">  1       -5 0.27315320E-01 0.14076577E+03</pdfrwt>
<totfact> 0.28705070E+02</totfact>
</mgrwt>
</event>
<event>
 8    1  0.1821556E-007  0.1292391E+03  0.7546771E-02  0.1228590E+00
         -5   -1    0    0    0  501 -0.00000000000E+00  0.00000000000E+00  0.39260967099E+03  0.39263780224E+03  0.47000000000E+01 0.  1.
          5   -1    0    0  501    0  0.00000000000E+00 -0.00000000000E+00 -0.42385591821E+02  0.42645379515E+02  0.47000000000E+01 0.  1.
         25    2    1    2    0    0  0.20056221562E+02  0.25987515624E+02  0.17333095783E+03  0.21620909543E+03  0.12500059605E+03 0.  0.
         25    2    1    2    0    0 -0.20056221562E+02 -0.25987515624E+02  0.17689312134E+03  0.21907408633E+03  0.12499870373E+03 0.  0.
          5    1    3    3  502    0  0.22774686972E+02  0.37982091402E+02  0.18989628866E+03  0.19504875309E+03  0.47000000000E+01 0.  1.
         -5    1    3    3    0  502 -0.27184654097E+01 -0.11994575777E+02 -0.16565330833E+02  0.21160342338E+02  0.47000000000E+01 0.  1.
          5    1    4    4  503    0  0.49567478031E+02 -0.26307577099E+02  0.10332687636E+03  0.11767564264E+03  0.47000000000E+01 0.  1.
         -5    1    4    4    0  503 -0.69623699594E+02  0.32006147412E+00  0.73566244976E+02  0.10139844370E+03  0.47000000000E+01 0.  1.
<mgrwt>
<rscale>  0 0.12923867E+03</rscale>
<asrwt>0</asrwt>
<pdfrwt beam="2">  1        5 0.65430080E-02 0.12923913E+03</pdfrwt>
<pdfrwt beam="1">  1       -5 0.60423634E-01 0.12923913E+03</pdfrwt>
<totfact> 0.29833413E+02</totfact>
</mgrwt>
</event>
<event>
 8    1  0.1821556E-007  0.1494169E+03  0.7546771E-02  0.1201196E+00
          5   -1    0    0  501    0  0.00000000000E+00  0.00000000000E+00  0.12414541593E+03  0.12423435232E+03  0.47000000000E+01 0. -1.
         -5   -1    0    0    0  501 -0.00000000000E+00 -0.00000000000E+00 -0.18282400323E+03  0.18288440654E+03  0.47000000000E+01 0. -1.
         25    2    1    2    0    0  0.19827645022E+02 -0.79416103330E+02 -0.90451943318E+01  0.14967386483E+03  0.12498158783E+03 0.  0.
         25    2    1    2    0    0 -0.19827645022E+02  0.79416103330E+02 -0.49633392961E+02  0.15744489404E+03  0.12500147194E+03 0.  0.
          5    1    3    3  502    0  0.28451102299E+02 -0.53737697466E+01  0.47613993749E+02  0.55924279379E+02  0.47000000000E+01 0. -1.
         -5    1    3    3    0  502 -0.86234572774E+01 -0.74042333583E+02 -0.56659188081E+02  0.93749585449E+02  0.47000000000E+01 0. -1.
          5    1    4    4  503    0 -0.32515108103E+02 -0.26716670886E+02 -0.11760558611E+02  0.43947849743E+02  0.47000000000E+01 0.  1.
         -5    1    4    4    0  503  0.12687463081E+02  0.10613277422E+03 -0.37872834350E+02  0.11349704430E+03  0.47000000000E+01 0.  1.
<mgrwt>
<rscale>  0 0.14941278E+03</rscale>
<asrwt>0</asrwt>
<pdfrwt beam="1">  1        5 0.19110783E-01 0.14941694E+03</pdfrwt>
<pdfrwt beam="2">  1       -5 0.28138257E-01 0.14941694E+03</pdfrwt>
<totfact> 0.22793781E+02</totfact>
</mgrwt>
</event>
<event>
 8    1  0.1821556E-007  0.1447284E+03  0.7546771E-02  0.1207116E+00
         -5   -1    0    0    0  501 -0.00000000000E+00  0.00000000000E+00  0.44368753515E+02  0.44616995511E+02  0.47000000000E+01 0. -1.
          5   -1    0    0  501    0  0.00000000000E+00 -0.00000000000E+00 -0.47817756925E+03  0.47820066681E+03  0.47000000000E+01 0. -1.
         25    2    1    2    0    0 -0.29837699719E+02  0.66484415466E+02 -0.18356324976E+03  0.23373438775E+03  0.12500332608E+03 0.  0.
         25    2    1    2    0    0  0.29837699719E+02 -0.66484415466E+02 -0.25024556598E+03  0.28908327457E+03  0.12504331458E+03 0.  0.
          5    1    3    3  502    0  0.37662922482E+02  0.19523045120E+02 -0.13483249746E+02  0.44760842758E+02  0.47000000000E+01 0. -1.
         -5    1    3    3    0  502 -0.67500622201E+02  0.46961370346E+02 -0.17008000001E+03  0.18897354499E+03  0.47000000000E+01 0. -1.
          5    1    4    4  503    0  0.51633273490E+02  0.12793078801E+02 -0.52554043377E+02  0.74924463774E+02  0.47000000000E+01 0.  1.
         -5    1    4    4    0  503 -0.21795573771E+02 -0.79277494267E+02 -0.19769152260E+03  0.21415881080E+03  0.47000000000E+01 0.  1.
<mgrwt>
<rscale>  0 0.14471972E+03</rscale>
<asrwt>0</asrwt>
<pdfrwt beam="2">  1        5 0.73586649E-01 0.14472835E+03</pdfrwt>
<pdfrwt beam="1">  1       -5 0.68468347E-02 0.14472835E+03</pdfrwt>
<totfact> 0.18493784E+02</totfact>
</mgrwt>
</event>
<event>
 8    1  0.1821556E-007  0.1557654E+03  0.7546771E-02  0.1193563E+00
          5   -1    0    0  501    0  0.00000000000E+00  0.00000000000E+00  0.94793517288E+02  0.94909962174E+02  0.47000000000E+01 0. -1.
         -5   -1    0    0    0  501 -0.00000000000E+00 -0.00000000000E+00 -0.25995944854E+03  0.26000193247E+03  0.47000000000E+01 0. -1.
         25    2    1    2    0    0 -0.29309914357E+02 -0.88192644790E+02 -0.10540705861E+03  0.18807843645E+03  0.12500334627E+03 0.  0.
         25    2    1    2    0    0  0.29309914357E+02  0.88192644790E+02 -0.59758872643E+02  0.16683345819E+03  0.12500106494E+03 0.  0.
          5    1    4    4  502    0  0.73687851808E+02  0.63983127832E+02 -0.14411068405E+02  0.98759855426E+02  0.47000000000E+01 0. -1.
         -5    1    4    4    0  502 -0.44377937451E+02  0.24209516958E+02 -0.45347804239E+02  0.68073602763E+02  0.47000000000E+01 0. -1.
          5    1    3    3  503    0 -0.44046474563E+02  0.75537360227E+01 -0.13081581096E+00  0.44936154287E+02  0.47000000000E+01 0. -1.
         -5    1    3    3    0  503  0.14736560206E+02 -0.95746380813E+02 -0.10527624280E+03  0.14314228217E+03  0.47000000000E+01 0. -1.
<mgrwt>
<rscale>  0 0.15576491E+03</rscale>
<asrwt>0</asrwt>
<pdfrwt beam="1">  1        5 0.14595844E-01 0.15576537E+03</pdfrwt>
<pdfrwt beam="2">  1       -5 0.40005986E-01 0.15576537E+03</pdfrwt>
<totfact> 0.18755772E+02</totfact>
</mgrwt>
</event>
<event>
 8    1  0.1821556E-007  0.1458762E+03  0.7546771E-02  0.1205634E+00
         -5   -1    0    0    0  501 -0.00000000000E+00  0.00000000000E+00  0.98067842905E+03  0.98068969160E+03  0.47000000000E+01 0.  1.
          5   -1    0    0  501    0  0.00000000000E+00 -0.00000000000E+00 -0.25220689253E+02  0.25654885820E+02  0.47000000000E+01 0.  1.
         25    2    1    2    0    0 -0.61645528798E+02  0.43066102083E+02  0.67088430907E+03  0.68656072997E+03  0.12500007766E+03 0.  0.
         25    2    1    2    0    0  0.61645528798E+02 -0.43066102083E+02  0.28457343073E+03  0.31978384744E+03  0.12499924496E+03 0.  0.
          5    1    3    3  502    0 -0.18666452018E+02 -0.38206175652E+02  0.10741477662E+03  0.11562081355E+03  0.47000000000E+01 0. -1.
         -5    1    3    3    0  502 -0.42979076780E+02  0.81272277735E+02  0.56346953245E+03  0.57093991643E+03  0.47000000000E+01 0. -1.
          5    1    4    4  503    0  0.77601864938E+02  0.70986981666E+01  0.23382530130E+03  0.24651329069E+03  0.47000000000E+01 0. -1.
         -5    1    4    4    0  503 -0.15956336140E+02 -0.50164800250E+02  0.50748129429E+02  0.73270556758E+02  0.47000000000E+01 0. -1.
<mgrwt>
<rscale>  0 0.14587607E+03</rscale>
<asrwt>0</asrwt>
<pdfrwt beam="2">  1        5 0.39143728E-02 0.14587625E+03</pdfrwt>
<pdfrwt beam="1">  1       -5 0.15090785E+00 0.14587625E+03</pdfrwt>
<totfact> 0.79374779E+01</totfact>
</mgrwt>
</event>
<event>
 8    1  0.1821556E-007  0.1465504E+03  0.7546771E-02  0.1204778E+00
          5   -1    0    0  501    0  0.00000000000E+00  0.00000000000E+00  0.16087400708E+03  0.16094264865E+03  0.47000000000E+01 0. -1.
         -5   -1    0    0    0  501 -0.00000000000E+00 -0.00000000000E+00 -0.14035089611E+03  0.14042956967E+03  0.47000000000E+01 0. -1.
         25    2    1    2    0    0  0.28183454450E+02  0.71114510155E+02 -0.23351843058E+02  0.14839925742E+03  0.12500180147E+03 0.  0.
         25    2    1    2    0    0 -0.28183454450E+02 -0.71114510155E+02  0.43874954030E+02  0.15297296090E+03  0.12499653802E+03 0.  0.
          5    1    3    3  502    0  0.18939057957E+02  0.71356180129E+02  0.40072254679E+02  0.84132442934E+02  0.47000000000E+01 0. -1.
         -5    1    3    3    0  502  0.92443964928E+01 -0.24166997414E+00 -0.63424097737E+02  0.64266814490E+02  0.47000000000E+01 0. -1.
          5    1    4    4  503    0 -0.34022060894E+02 -0.89020875101E+02  0.71483394521E+02  0.11922324657E+03  0.47000000000E+01 0.  1.
         -5    1    4    4    0  503  0.58386064445E+01  0.17906364946E+02 -0.27608440491E+02  0.33749714327E+02  0.47000000000E+01 0.  1.
<mgrwt>
<rscale>  0 0.14654932E+03</rscale>
<asrwt>0</asrwt>
<pdfrwt beam="1">  1        5 0.24761179E-01 0.14655044E+03</pdfrwt>
<pdfrwt beam="2">  1       -5 0.21603777E-01 0.14655044E+03</pdfrwt>
<totfact> 0.23045447E+02</totfact>
</mgrwt>
</event>
<event>
 8    1  0.1821556E-007  0.1251152E+03  0.7546771E-02  0.1234892E+00
         -5   -1    0    0    0  501 -0.00000000000E+00  0.00000000000E+00  0.90356575343E+02  0.90478730693E+02  0.47000000000E+01 0. -1.
          5   -1    0    0  501    0  0.00000000000E+00 -0.00000000000E+00 -0.17844561929E+03  0.17850750416E+03  0.47000000000E+01 0. -1.
         25    2    1    2    0    0 -0.96284383974E+00  0.51933545228E+01 -0.20485439756E+02  0.12678121559E+03  0.12500370149E+03 0.  0.
         25    2    1    2    0    0  0.96284383974E+00 -0.51933545228E+01 -0.67603604189E+02  0.14220501926E+03  0.12499648877E+03 0.  0.
          5    1    3    3  502    0 -0.58508440011E+01  0.64736359865E+02 -0.96146947354E+01  0.65875344545E+02  0.47000000000E+01 0.  1.
         -5    1    3    3    0  502  0.48880001614E+01 -0.59543005342E+02 -0.10870745020E+02  0.60905871048E+02  0.47000000000E+01 0.  1.
          5    1    4    4  503    0 -0.52329304288E+02 -0.34362798757E+02 -0.23710163014E+02  0.67107524585E+02  0.47000000000E+01 0.  1.
         -5    1    4    4    0  503  0.53292148128E+02  0.29169444234E+02 -0.43893441174E+02  0.75097494680E+02  0.47000000000E+01 0.  1.
<mgrwt>
<rscale>  0 0.12511344E+03</rscale>
<asrwt>0</asrwt>
<pdfrwt beam="2">  1        5 0.27467329E-01 0.12511524E+03</pdfrwt>
<pdfrwt beam="1">  1       -5 0.13915169E-01 0.12511524E+03</pdfrwt>
<totfact> 0.40071149E+02</totfact>
</mgrwt>
</event>
<event>
 8    1  0.1821556E-007  0.1293643E+03  0.7546771E-02  0.1228405E+00
         -5   -1    0    0    0  501 -0.00000000000E+00  0.00000000000E+00  0.42196617753E+03  0.42199235180E+03  0.47000000000E+01 0.  1.
          5   -1    0    0  501    0  0.00000000000E+00 -0.00000000000E+00 -0.39796375918E+02  0.40072952677E+02  0.47000000000E+01 0.  1.
         25    2    1    2    0    0 -0.29195118825E+02  0.16007399709E+02  0.17092862146E+03  0.21436354320E+03  0.12500617268E+03 0.  0.
         25    2    1    2    0    0  0.29195118825E+02 -0.16007399709E+02  0.21124118015E+03  0.24770176128E+03  0.12499893816E+03 0.  0.
          5    1    4    4  502    0 -0.33894367639E+02 -0.44136391031E+02  0.12645358257E+03  0.13823692602E+03  0.47000000000E+01 0. -1.
         -5    1    4    4    0  502  0.63089486464E+02  0.28128991322E+02  0.84787597577E+02  0.10946483526E+03  0.47000000000E+01 0. -1.
          5    1    3    3  503    0 -0.69520533796E+01 -0.37191888711E+02  0.47734780170E+01  0.38424519834E+02  0.47000000000E+01 0. -1.
         -5    1    3    3    0  503 -0.22243065446E+02  0.53199288420E+02  0.16615514344E+03  0.17593902336E+03  0.47000000000E+01 0. -1.
<mgrwt>
<rscale>  0 0.12936260E+03</rscale>
<asrwt>0</asrwt>
<pdfrwt beam="2">  1        5 0.61458079E-02 0.12936435E+03</pdfrwt>
<pdfrwt beam="1">  1       -5 0.64941162E-01 0.12936435E+03</pdfrwt>
<totfact> 0.28294342E+02</totfact>
</mgrwt>
</event>
<event>
 8    1  0.1821556E-007  0.1481897E+03  0.7546771E-02  0.1202720E+00
          5   -1    0    0  501    0  0.00000000000E+00  0.00000000000E+00  0.38654846538E+02  0.38939532109E+02  0.47000000000E+01 0.  1.
         -5   -1    0    0    0  501 -0.00000000000E+00 -0.00000000000E+00 -0.84355671539E+03  0.84356980866E+03  0.47000000000E+01 0.  1.
         25    2    1    2    0    0 -0.77100999818E+02 -0.19717593152E+02 -0.65565099251E+03  0.67218577127E+03  0.12498855735E+03 0.  0.
         25    2    1    2    0    0  0.77100999818E+02  0.19717593152E+02 -0.14925087634E+03  0.21032356950E+03  0.12500732836E+03 0.  0.
          5    1    3    3  502    0  0.24623480743E+02 -0.14835822897E+02 -0.48815463121E+02  0.56845904731E+02  0.47000000000E+01 0. -1.
         -5    1    3    3    0  502 -0.10172448056E+03 -0.48817702550E+01 -0.60683552939E+03  0.61533986654E+03  0.47000000000E+01 0. -1.
          5    1    4    4  503    0  0.78926696704E+02  0.57096419062E+02 -0.14144227405E+03  0.17180637768E+03  0.47000000000E+01 0.  1.
         -5    1    4    4    0  503 -0.18256968865E+01 -0.37378825910E+02 -0.78086022883E+01  0.38517191814E+02  0.47000000000E+01 0.  1.
<mgrwt>
<rscale>  0 0.14818572E+03</rscale>
<asrwt>0</asrwt>
<pdfrwt beam="1">  1        5 0.59698061E-02 0.14818968E+03</pdfrwt>
<pdfrwt beam="2">  1       -5 0.12980085E+00 0.14818968E+03</pdfrwt>
<totfact> 0.59188042E+01</totfact>
</mgrwt>
</event>
<event>
 8    1  0.1821556E-007  0.1358596E+03  0.7546771E-02  0.1219018E+00
          5   -1    0    0  501    0  0.00000000000E+00  0.00000000000E+00  0.21504740960E+03  0.21509876423E+03  0.47000000000E+01 0. -1.
         -5   -1    0    0    0  501 -0.00000000000E+00 -0.00000000000E+00 -0.88545005893E+02  0.88669656978E+02  0.47000000000E+01 0. -1.
         25    2    1    2    0    0  0.51463521693E+02  0.13572937472E+02  0.36017897424E+02  0.14053458503E+03  0.12497984621E+03 0.  0.
         25    2    1    2    0    0 -0.51463521693E+02 -0.13572937472E+02  0.90484506278E+02  0.16323383618E+03  0.12500048280E+03 0.  0.
          5    1    4    4  502    0 -0.20790931325E+02 -0.69065606894E+02  0.48002851555E+02  0.86767993168E+02  0.47000000000E+01 0. -1.
         -5    1    4    4    0  502 -0.30672590368E+02  0.55492669423E+02  0.42481654723E+02  0.76465843012E+02  0.47000000000E+01 0. -1.
          5    1    3    3  503    0  0.93089822542E+02  0.10652791112E+02  0.26309597149E+02  0.97434500674E+02  0.47000000000E+01 0.  1.
         -5    1    3    3    0  503 -0.41626300850E+02  0.29201463598E+01  0.97083002752E+01  0.43100084355E+02  0.47000000000E+01 0.  1.
<mgrwt>
<rscale>  0 0.13585488E+03</rscale>
<asrwt>0</asrwt>
<pdfrwt beam="1">  1        5 0.33097756E-01 0.13585963E+03</pdfrwt>
<pdfrwt beam="2">  1       -5 0.13635848E-01 0.13585963E+03</pdfrwt>
<totfact> 0.29694509E+02</totfact>
</mgrwt>
</event>
<event>
 8    1  0.1821556E-007  0.1297990E+03  0.7546771E-02  0.1227757E+00
         -5   -1    0    0    0  501 -0.00000000000E+00  0.00000000000E+00  0.49732838097E+03  0.49735058914E+03  0.47000000000E+01 0. -1.
          5   -1    0    0  501    0  0.00000000000E+00 -0.00000000000E+00 -0.36047288719E+02  0.36352400526E+02  0.47000000000E+01 0. -1.
         25    2    1    2    0    0  0.60348098406E+00 -0.34941798587E+02  0.29857686878E+03  0.32556732209E+03  0.12499856467E+03 0.  0.
         25    2    1    2    0    0 -0.60348098406E+00  0.34941798587E+02  0.16270422347E+03  0.20813566757E+03  0.12500599306E+03 0.  0.
          5    1    4    4  502    0 -0.53452746765E+02  0.48204132381E+02  0.11399395898E+03  0.13489828464E+03  0.47000000000E+01 0. -1.
         -5    1    4    4    0  502  0.52849265781E+02 -0.13262333794E+02  0.48710264490E+02  0.73237382927E+02  0.47000000000E+01 0. -1.
          5    1    3    3  503    0  0.48967643911E+02 -0.31394024416E+02  0.66690652547E+02  0.88617989463E+02  0.47000000000E+01 0.  1.
         -5    1    3    3    0  503 -0.48364162927E+02 -0.35477741710E+01  0.23188621623E+03  0.23694933263E+03  0.47000000000E+01 0.  1.
<mgrwt>
<rscale>  0 0.12979726E+03</rscale>
<asrwt>0</asrwt>
<pdfrwt beam="2">  1        5 0.55709152E-02 0.12979904E+03</pdfrwt>
<pdfrwt beam="1">  1       -5 0.76537237E-01 0.12979904E+03</pdfrwt>
<totfact> 0.23063212E+02</totfact>
</mgrwt>
</event>
<event>
 8    1  0.1821556E-007  0.1489066E+03  0.7546771E-02  0.1201825E+00
          5   -1    0    0  501    0  0.00000000000E+00  0.00000000000E+00  0.13776055441E+03  0.13784070644E+03  0.47000000000E+01 0. -1.
         -5   -1    0    0    0  501 -0.00000000000E+00 -0.00000000000E+00 -0.18156737954E+03  0.18162820076E+03  0.47000000000E+01 0. -1.
         25    2    1    2    0    0  0.15028081849E+02  0.79511272234E+02 -0.75919288544E+02  0.16713909687E+03  0.12499541461E+03 0.  0.
         25    2    1    2    0    0 -0.15028081849E+02 -0.79511272234E+02  0.32112463414E+02  0.15232981033E+03  0.12500110061E+03 0.  0.
          5    1    4    4  502    0 -0.58417569810E+02 -0.89560984507E+01  0.35850323589E+02  0.69283186008E+02  0.47000000000E+01 0. -1.
         -5    1    4    4    0  502  0.43389487961E+02 -0.70555173784E+02 -0.37378601744E+01  0.83046624325E+02  0.47000000000E+01 0. -1.
          5    1    3    3  503    0 -0.97966089141E+01  0.89564447435E+02 -0.40661713131E+01  0.90312720807E+02  0.47000000000E+01 0. -1.
         -5    1    3    3    0  503  0.24824690763E+02 -0.10053175200E+02 -0.71853117231E+02  0.76826376062E+02  0.47000000000E+01 0. -1.
<mgrwt>
<rscale>  0 0.14890536E+03</rscale>
<asrwt>0</asrwt>
<pdfrwt beam="1">  1        5 0.21204775E-01 0.14890655E+03</pdfrwt>
<pdfrwt beam="2">  1       -5 0.27944287E-01 0.14890655E+03</pdfrwt>
<totfact> 0.18998105E+02</totfact>
</mgrwt>
</event>
<event>
 8    1  0.1821556E-007  0.1305300E+03  0.7546771E-02  0.1226672E+00
          5   -1    0    0  501    0  0.00000000000E+00  0.00000000000E+00  0.49156753907E+02  0.49380932097E+02  0.47000000000E+01 0. -1.
         -5   -1    0    0    0  501 -0.00000000000E+00 -0.00000000000E+00 -0.34639831508E+03  0.34643019888E+03  0.47000000000E+01 0. -1.
         25    2    1    2    0    0 -0.28197836424E+01 -0.37488269810E+02 -0.15828733661E+03  0.20516393066E+03  0.12499614378E+03 0.  0.
         25    2    1    2    0    0  0.28197836424E+01  0.37488269810E+02 -0.13895422457E+03  0.19064720032E+03  0.12499902763E+03 0.  0.
          5    1    4    4  502    0  0.39204993749E+02 -0.16985592290E+02 -0.74086221983E+01  0.43617881232E+02  0.47000000000E+01 0.  1.
         -5    1    4    4    0  502 -0.36385210107E+02  0.54473862100E+02 -0.13154560237E+03  0.14702931908E+03  0.47000000000E+01 0.  1.
          5    1    3    3  503    0  0.14994580783E+02 -0.77479128117E+02 -0.66284585542E+02  0.10316777126E+03  0.47000000000E+01 0. -1.
         -5    1    3    3    0  503 -0.17814364426E+02  0.39990858307E+02 -0.92002751063E+02  0.10199615939E+03  0.47000000000E+01 0. -1.
<mgrwt>
<rscale>  0 0.13052930E+03</rscale>
<asrwt>0</asrwt>
<pdfrwt beam="1">  1        5 0.75822748E-02 0.13052999E+03</pdfrwt>
<pdfrwt beam="2">  1       -5 0.53311744E-01 0.13052999E+03</pdfrwt>
<totfact> 0.30570051E+02</totfact>
</mgrwt>
</event>
<event>
 8    1  0.1821556E-007  0.1325091E+03  0.7546771E-02  0.1223781E+00
          5   -1    0    0  501    0  0.00000000000E+00  0.00000000000E+00  0.15437521143E+02  0.16137132925E+02  0.47000000000E+01 0. -1.
         -5   -1    0    0    0  501 -0.00000000000E+00 -0.00000000000E+00 -0.11173425156E+04  0.11173524006E+04  0.47000000000E+01 0. -1.
         25    2    1    2    0    0 -0.28437208200E+02 -0.33539871322E+02 -0.59204995219E+03  0.60669656234E+03  0.12499590027E+03 0.  0.
         25    2    1    2    0    0  0.28437208200E+02  0.33539871322E+02 -0.50985504228E+03  0.52679297122E+03  0.12500029044E+03 0.  0.
          5    1    4    4  502    0 -0.18220176535E+02  0.70380001355E+02 -0.27543719976E+03  0.28490886338E+03  0.47000000000E+01 0. -1.
         -5    1    4    4    0  502  0.46657384735E+02 -0.36840130033E+02 -0.23441784252E+03  0.24188410784E+03  0.47000000000E+01 0. -1.
          5    1    3    3  503    0 -0.13154202231E+02  0.15146644027E+02 -0.50687983768E+03  0.50729844639E+03  0.47000000000E+01 0.  1.
         -5    1    3    3    0  503 -0.15283005969E+02 -0.48686515349E+02 -0.85170114508E+02  0.99398115946E+02  0.47000000000E+01 0.  1.
<mgrwt>
<rscale>  0 0.13250810E+03</rscale>
<asrwt>0</asrwt>
<pdfrwt beam="1">  1        5 0.24295808E-02 0.13250913E+03</pdfrwt>
<pdfrwt beam="2">  1       -5 0.17195336E+00 0.13250913E+03</pdfrwt>
<totfact> 0.11559834E+02</totfact>
</mgrwt>
</event>
<event>
 8    1  0.1821556E-007  0.1684953E+03  0.7546771E-02  0.1179438E+00
          5   -1    0    0  501    0  0.00000000000E+00  0.00000000000E+00  0.42495116150E+03  0.42497715192E+03  0.47000000000E+01 0. -1.
         -5   -1    0    0    0  501 -0.00000000000E+00 -0.00000000000E+00 -0.74590578490E+02  0.74738506805E+02  0.47000000000E+01 0. -1.
         25    2    1    2    0    0 -0.82150949810E+02 -0.77571172640E+02  0.93897104883E+02  0.19285381421E+03  0.12493943321E+03 0.  0.
         25    2    1    2    0    0  0.82150949810E+02  0.77571172640E+02  0.25646347812E+03  0.30686184451E+03  0.12499844250E+03 0.  0.
          5    1    4    4  502    0  0.10872327380E+03  0.68136733692E+02  0.24391038572E+03  0.27564058301E+03  0.47000000000E+01 0. -1.
         -5    1    4    4    0  502 -0.26572323993E+02  0.94344389485E+01  0.12553092408E+02  0.31221261500E+02  0.47000000000E+01 0. -1.
          5    1    3    3  503    0 -0.23648352485E+02 -0.10198258719E+02  0.99926454029E+02  0.10329876704E+03  0.47000000000E+01 0.  1.
         -5    1    3    3    0  503 -0.58502597325E+02 -0.67372913921E+02 -0.60293491463E+01  0.89555047179E+02  0.47000000000E+01 0.  1.
<mgrwt>
<rscale>  0 0.16848439E+03</rscale>
<asrwt>0</asrwt>
<pdfrwt beam="1">  1        5 0.65390480E-01 0.16849533E+03</pdfrwt>
<pdfrwt beam="2">  1       -5 0.11488852E-01 0.16849533E+03</pdfrwt>
<totfact> 0.10322224E+02</totfact>
</mgrwt>
</event>
<event>
 8    1  0.1821556E-007  0.1266217E+03  0.7546771E-02  0.1232558E+00
          5   -1    0    0  501    0  0.00000000000E+00  0.00000000000E+00  0.29376674613E+03  0.29380434158E+03  0.47000000000E+01 0. -1.
         -5   -1    0    0    0  501 -0.00000000000E+00 -0.00000000000E+00 -0.55662714443E+02  0.55860789281E+02  0.47000000000E+01 0. -1.
         25    2    1    2    0    0 -0.11508308739E+02  0.16558689310E+02  0.93129797272E+02  0.15718210106E+03  0.12500568944E+03 0.  0.
         25    2    1    2    0    0  0.11508308739E+02 -0.16558689310E+02  0.14497423442E+03  0.19248302980E+03  0.12500222700E+03 0.  0.
          5    1    3    3  502    0 -0.35240491789E+02 -0.33533652781E+02  0.88831037610E+02  0.10138757998E+03  0.47000000000E+01 0. -1.
         -5    1    3    3    0  502  0.23732183050E+02  0.50092342091E+02  0.42987596622E+01  0.55794521085E+02  0.47000000000E+01 0. -1.
          5    1    4    4  503    0 -0.14006598707E+02 -0.94815194485E+00  0.15859316398E+03  0.15928265901E+03  0.47000000000E+01 0.  1.
         -5    1    4    4    0  503  0.25514907446E+02 -0.15610537366E+02 -0.13618929560E+02  0.33200370799E+02  0.47000000000E+01 0.  1.
<mgrwt>
<rscale>  0 0.12662084E+03</rscale>
<asrwt>0</asrwt>
<pdfrwt beam="1">  1        5 0.45213012E-01 0.12662170E+03</pdfrwt>
<pdfrwt beam="2">  1       -5 0.85816232E-02 0.12662170E+03</pdfrwt>
<totfact> 0.34622555E+02</totfact>
</mgrwt>
</event>
<event>
 8    1  0.1821556E-007  0.1774188E+03  0.7546771E-02  0.1170326E+00
          5   -1    0    0  501    0  0.00000000000E+00  0.00000000000E+00  0.10686888634E+03  0.10697218735E+03  0.47000000000E+01 0. -1.
         -5   -1    0    0    0  501 -0.00000000000E+00 -0.00000000000E+00 -0.34737177031E+03  0.34740356476E+03  0.47000000000E+01 0. -1.
         25    2    1    2    0    0 -0.35565924274E+02  0.12077386460E+03 -0.20905690128E+03  0.27419177096E+03  0.12500031179E+03 0.  0.
         25    2    1    2    0    0  0.35565924274E+02 -0.12077386460E+03 -0.31445982691E+02  0.18018398115E+03  0.12500462350E+03 0.  0.
          5    1    3    3  502    0  0.29640956388E+02  0.57573554960E+02 -0.15586328469E+03  0.16884535540E+03  0.47000000000E+01 0.  1.
         -5    1    3    3    0  502 -0.65206880662E+02  0.63200309640E+02 -0.53193616591E+02  0.10534641556E+03  0.47000000000E+01 0.  1.
          5    1    4    4  503    0  0.64625127052E+02 -0.10726162776E+03  0.12117990750E+02  0.12589836987E+03  0.47000000000E+01 0. -1.
         -5    1    4    4    0  503 -0.29059202778E+02 -0.13512236841E+02 -0.43563973441E+02  0.54285611285E+02  0.47000000000E+01 0. -1.
<mgrwt>
<rscale>  0 0.17741800E+03</rscale>
<asrwt>0</asrwt>
<pdfrwt beam="1">  1        5 0.16451759E-01 0.17741876E+03</pdfrwt>
<pdfrwt beam="2">  1       -5 0.53452202E-01 0.17741876E+03</pdfrwt>
<totfact> 0.85336078E+01</totfact>
</mgrwt>
</event>
<event>
 8    1  0.1821556E-007  0.1286491E+03  0.7546771E-02  0.1229476E+00
          5   -1    0    0  501    0  0.00000000000E+00  0.00000000000E+00  0.10270954165E+03  0.10281702167E+03  0.47000000000E+01 0.  1.
         -5   -1    0    0    0  501 -0.00000000000E+00 -0.00000000000E+00 -0.17469977830E+03  0.17476298962E+03  0.47000000000E+01 0.  1.
         25    2    1    2    0    0  0.25455677666E+02 -0.16654920444E+02 -0.74972297892E+02  0.14890076640E+03  0.12500085953E+03 0.  0.
         25    2    1    2    0    0 -0.25455677666E+02  0.16654920444E+02  0.29820612357E+01  0.12867924489E+03  0.12499630985E+03 0.  0.
          5    1    3    3  502    0  0.21004448917E+02 -0.66915762900E+02 -0.17817206218E+02  0.72515164180E+02  0.47000000000E+01 0. -1.
         -5    1    3    3    0  502  0.44512287497E+01  0.50260842455E+02 -0.57155091674E+02  0.76385602216E+02  0.47000000000E+01 0. -1.
          5    1    4    4  503    0 -0.55709155081E+02 -0.36780723503E+02  0.45352376459E+01  0.67074510522E+02  0.47000000000E+01 0. -1.
         -5    1    4    4    0  503  0.30253477415E+02  0.53435643947E+02 -0.15531764102E+01  0.61604734369E+02  0.47000000000E+01 0. -1.
<mgrwt>
<rscale>  0 0.12864800E+03</rscale>
<asrwt>0</asrwt>
<pdfrwt beam="1">  1        5 0.15814598E-01 0.12864911E+03</pdfrwt>
<pdfrwt beam="2">  1       -5 0.26890019E-01 0.12864911E+03</pdfrwt>
<totfact> 0.33481129E+02</totfact>
</mgrwt>
</event>
<event>
 8    1  0.1821556E-007  0.1465595E+03  0.7546771E-02  0.1204767E+00
          5   -1    0    0  501    0  0.00000000000E+00  0.00000000000E+00  0.14167554234E+03  0.14175348072E+03  0.47000000000E+01 0. -1.
         -5   -1    0    0    0  501 -0.00000000000E+00 -0.00000000000E+00 -0.15193791165E+03  0.15201058844E+03  0.47000000000E+01 0. -1.
         25    2    1    2    0    0  0.71426067987E+02 -0.27418109068E+02 -0.13431447045E+02  0.14717032334E+03  0.12500105764E+03 0.  0.
         25    2    1    2    0    0 -0.71426067987E+02  0.27418109068E+02  0.31690777288E+01  0.14659374582E+03  0.12500498936E+03 0.  0.
          5    1    4    4  502    0 -0.60506598382E+02 -0.24468980702E+02 -0.41174226425E+02  0.77312265431E+02  0.47000000000E+01 0. -1.
         -5    1    4    4    0  502 -0.10919469605E+02  0.51887089770E+02  0.44343304153E+02  0.69281480386E+02  0.47000000000E+01 0. -1.
          5    1    3    3  503    0  0.98633889875E+02 -0.17406051114E+02 -0.39627777736E+02  0.10781496007E+03  0.47000000000E+01 0.  1.
         -5    1    3    3    0  503 -0.27207821888E+02 -0.10012057954E+02  0.26196330691E+02  0.39355363269E+02  0.47000000000E+01 0.  1.
<mgrwt>
<rscale>  0 0.14655865E+03</rscale>
<asrwt>0</asrwt>
<pdfrwt beam="1">  1        5 0.21807823E-01 0.14655949E+03</pdfrwt>
<pdfrwt beam="2">  1       -5 0.23386649E-01 0.14655949E+03</pdfrwt>
<totfact> 0.25249376E+02</totfact>
</mgrwt>
</event>
<event>
 8    1  0.1821556E-007  0.1285976E+03  0.7546771E-02  0.1229552E+00
          5   -1    0    0  501    0  0.00000000000E+00  0.00000000000E+00  0.84417931351E+02  0.84548667249E+02  0.47000000000E+01 0.  1.
         -5   -1    0    0    0  501 -0.00000000000E+00 -0.00000000000E+00 -0.27550019868E+03  0.27554028648E+03  0.47000000000E+01 0.  1.
         25    2    1    2    0    0 -0.30164659141E+02  0.14727261469E+01 -0.19247991641E+03  0.23148621171E+03  0.12500108962E+03 0.  0.
         25    2    1    2    0    0  0.30164659141E+02 -0.14727261469E+01  0.13976490804E+01  0.12860274202E+03  0.12499854499E+03 0.  0.
          5    1    4    4  502    0 -0.44125370074E+02 -0.21765471101E+02  0.11621372975E+02  0.50773322978E+02  0.47000000000E+01 0.  1.
         -5    1    4    4    0  502  0.74290029215E+02  0.20292744954E+02 -0.10223723895E+02  0.77829419044E+02  0.47000000000E+01 0.  1.
          5    1    3    3  503    0 -0.87584356523E+01 -0.53786222794E+02 -0.14636166272E+03  0.15624818166E+03  0.47000000000E+01 0. -1.
         -5    1    3    3    0  503 -0.21406223489E+02  0.55258948941E+02 -0.46118253694E+02  0.75238030050E+02  0.47000000000E+01 0. -1.
<mgrwt>
<rscale>  0 0.12859700E+03</rscale>
<asrwt>0</asrwt>
<pdfrwt beam="1">  1        5 0.13000514E-01 0.12859762E+03</pdfrwt>
<pdfrwt beam="2">  1       -5 0.42397786E-01 0.12859762E+03</pdfrwt>
<totfact> 0.19219048E+02</totfact>
</mgrwt>
</event>
<event>
 8    1  0.1821556E-007  0.1369059E+03  0.7546771E-02  0.1217557E+00
         -5   -1    0    0    0  501 -0.00000000000E+00  0.00000000000E+00  0.63342378784E+03  0.63344122459E+03  0.47000000000E+01 0.  1.
          5   -1    0    0  501    0  0.00000000000E+00 -0.00000000000E+00 -0.39329167756E+02  0.39609007011E+02  0.47000000000E+01 0.  1.
         25    2    1    2    0    0 -0.31023140723E+02  0.46451513249E+02  0.46553101580E+03  0.48524228736E+03  0.12498308855E+03 0.  0.
         25    2    1    2    0    0  0.31023140723E+02 -0.46451513249E+02  0.12856360429E+03  0.18780794424E+03  0.12499218067E+03 0.  0.
          5    1    3    3  502    0 -0.24741816570E+02 -0.39718550699E+02  0.11623815557E+03  0.12539186404E+03  0.47000000000E+01 0.  1.
         -5    1    3    3    0  502 -0.62813241529E+01  0.86170063949E+02  0.34929286023E+03  0.35985042331E+03  0.47000000000E+01 0.  1.
          5    1    4    4  503    0 -0.30192357485E+02 -0.65750681322E+02  0.65716335975E+02  0.97854265920E+02  0.47000000000E+01 0.  1.
         -5    1    4    4    0  503  0.61215498208E+02  0.19299168073E+02  0.62847268311E+02  0.89953678320E+02  0.47000000000E+01 0.  1.
<mgrwt>
<rscale>  0 0.13690382E+03</rscale>
<asrwt>0</asrwt>
<pdfrwt beam="2">  1        5 0.60735092E-02 0.13690589E+03</pdfrwt>
<pdfrwt beam="1">  1       -5 0.97472670E-01 0.13690589E+03</pdfrwt>
<totfact> 0.11509213E+02</totfact>
</mgrwt>
</event>
<event>
 8    1  0.1821556E-007  0.1364949E+03  0.7546771E-02  0.1218125E+00
         -5   -1    0    0    0  501 -0.00000000000E+00  0.00000000000E+00  0.93538542498E+02  0.93656547730E+02  0.47000000000E+01 0.  1.
          5   -1    0    0  501    0  0.00000000000E+00 -0.00000000000E+00 -0.19990484982E+03  0.19996009347E+03  0.47000000000E+01 0.  1.
         25    2    1    2    0    0 -0.54301236538E+02  0.75459959801E+01 -0.63556268002E+02  0.15056575033E+03  0.12500031850E+03 0.  0.
         25    2    1    2    0    0  0.54301236538E+02 -0.75459959801E+01 -0.42810039320E+02  0.14305089087E+03  0.12500116627E+03 0.  0.
          5    1    3    3  502    0 -0.71832051745E+02 -0.18762242686E+01  0.11367033897E+02  0.72901737531E+02  0.47000000000E+01 0.  1.
         -5    1    3    3    0  502  0.17530815207E+02  0.94222202487E+01 -0.74923301899E+02  0.77664012797E+02  0.47000000000E+01 0.  1.
          5    1    4    4  503    0  0.41783374450E+02  0.59362873914E+01  0.39852340935E+02  0.58235633134E+02  0.47000000000E+01 0. -1.
         -5    1    4    4    0  503  0.12517862088E+02 -0.13482283371E+02 -0.82662380256E+02  0.84815257741E+02  0.47000000000E+01 0. -1.
<mgrwt>
<rscale>  0 0.13649471E+03</rscale>
<asrwt>0</asrwt>
<pdfrwt beam="2">  1        5 0.30767919E-01 0.13649490E+03</pdfrwt>
<pdfrwt beam="1">  1       -5 0.14403872E-01 0.13649490E+03</pdfrwt>
<totfact> 0.31138795E+02</totfact>
</mgrwt>
</event>
<event>
 8    1  0.1821556E-007  0.1283418E+03  0.7546771E-02  0.1229940E+00
         -5   -1    0    0    0  501 -0.00000000000E+00  0.00000000000E+00  0.31024493134E+02  0.31378482663E+02  0.47000000000E+01 0. -1.
          5   -1    0    0  501    0  0.00000000000E+00 -0.00000000000E+00 -0.52755563031E+03  0.52757656607E+03  0.47000000000E+01 0. -1.
         25    2    1    2    0    0 -0.80188660521E+01 -0.27984931009E+02 -0.25070250279E+03  0.28164052610E+03  0.12498872931E+03 0.  0.
         25    2    1    2    0    0  0.80188660521E+01  0.27984931009E+02 -0.24582863438E+03  0.27731452264E+03  0.12499667360E+03 0.  0.
          5    1    4    4  502    0 -0.20193861866E+02  0.27014608301E+02 -0.45638729064E+01  0.34358405881E+02  0.47000000000E+01 0.  1.
         -5    1    4    4    0  502  0.28212727919E+02  0.97032270736E+00 -0.24126476147E+03  0.24295611676E+03  0.47000000000E+01 0.  1.
          5    1    3    3  503    0  0.21104267620E+02 -0.38268410800E+01  0.54842000938E+01  0.22631864154E+02  0.47000000000E+01 0.  1.
         -5    1    3    3    0  503 -0.29123133672E+02 -0.24158089929E+02 -0.25618670289E+03  0.25900866194E+03  0.47000000000E+01 0.  1.
<mgrwt>
<rscale>  0 0.12833990E+03</rscale>
<asrwt>0</asrwt>
<pdfrwt beam="2">  1        5 0.81191239E-01 0.12834184E+03</pdfrwt>
<pdfrwt beam="1">  1       -5 0.48018397E-02 0.12834184E+03</pdfrwt>
<totfact> 0.25667968E+02</totfact>
</mgrwt>
</event>
<event>
 8    1  0.1821556E-007  0.1441534E+03  0.7546771E-02  0.1207852E+00
         -5   -1    0    0    0  501 -0.00000000000E+00  0.00000000000E+00  0.18799674348E+03  0.18805548532E+03  0.47000000000E+01 0.  1.
          5   -1    0    0  501    0  0.00000000000E+00 -0.00000000000E+00 -0.11564930505E+03  0.11574476990E+03  0.47000000000E+01 0.  1.
         25    2    1    2    0    0  0.42167988209E+01  0.71650866944E+02  0.68518924680E+02  0.15959600286E+03  0.12499765184E+03 0.  0.
         25    2    1    2    0    0 -0.42167988209E+01 -0.71650866944E+02  0.38285137533E+01  0.14420425236E+03  0.12501432220E+03 0.  0.
          5    1    4    4  502    0 -0.50862546695E+02 -0.27749926274E+02 -0.36241125240E+02  0.68502308160E+02  0.47000000000E+01 0.  1.
         -5    1    4    4    0  502  0.46645747874E+02 -0.43900940670E+02  0.40069638993E+02  0.75701944199E+02  0.47000000000E+01 0.  1.
          5    1    3    3  503    0  0.12444354390E+02  0.55780027419E+02 -0.26231710869E+02  0.63059226686E+02  0.47000000000E+01 0.  1.
         -5    1    3    3    0  503 -0.82275555695E+01  0.15870839525E+02  0.94750635549E+02  0.96536776178E+02  0.47000000000E+01 0.  1.
<mgrwt>
<rscale>  0 0.14414981E+03</rscale>
<asrwt>0</asrwt>
<pdfrwt beam="2">  1        5 0.17804063E-01 0.14415342E+03</pdfrwt>
<pdfrwt beam="1">  1       -5 0.28934438E-01 0.14415342E+03</pdfrwt>
<totfact> 0.24317330E+02</totfact>
</mgrwt>
</event>
<event>
 8    1  0.1821556E-007  0.1886000E+03  0.7546771E-02  0.1159731E+00
         -5   -1    0    0    0  501 -0.00000000000E+00  0.00000000000E+00  0.23557183283E+03  0.23561871408E+03  0.47000000000E+01 0. -1.
          5   -1    0    0  501    0  0.00000000000E+00 -0.00000000000E+00 -0.15103021925E+03  0.15110333261E+03  0.47000000000E+01 0. -1.
         25    2    1    2    0    0  0.13257896459E+03 -0.48653851061E+02  0.48112493278E+02  0.19463604593E+03  0.12499599709E+03 0.  0.
         25    2    1    2    0    0 -0.13257896459E+03  0.48653851061E+02  0.36429120310E+02  0.19208600076E+03  0.12500228720E+03 0.  0.
          5    1    3    3  502    0  0.66011843892E+02 -0.56437687034E+02 -0.29630355058E+02  0.91884840929E+02  0.47000000000E+01 0.  1.
         -5    1    3    3    0  502  0.66567120701E+02  0.77838359732E+01  0.77742848336E+02  0.10275120500E+03  0.47000000000E+01 0.  1.
          5    1    4    4  503    0 -0.49668715994E+02  0.12612056530E+02  0.77217708451E+02  0.92793910451E+02  0.47000000000E+01 0.  1.
         -5    1    4    4    0  503 -0.82910248598E+02  0.36041794531E+02 -0.40788588141E+02  0.99292090310E+02  0.47000000000E+01 0.  1.
<mgrwt>
<rscale>  0 0.18859893E+03</rscale>
<asrwt>0</asrwt>
<pdfrwt beam="2">  1        5 0.23244649E-01 0.18859998E+03</pdfrwt>
<pdfrwt beam="1">  1       -5 0.36251051E-01 0.18859998E+03</pdfrwt>
<totfact> 0.10233221E+02</totfact>
</mgrwt>
</event>
<event>
 8    1  0.1821556E-007  0.1389484E+03  0.7546771E-02  0.1214762E+00
         -5   -1    0    0    0  501 -0.00000000000E+00  0.00000000000E+00  0.12741770330E+03  0.12750435723E+03  0.47000000000E+01 0.  1.
          5   -1    0    0  501    0  0.00000000000E+00 -0.00000000000E+00 -0.19332595612E+03  0.19338307917E+03  0.47000000000E+01 0.  1.
         25    2    1    2    0    0 -0.74731112913E+01  0.60145316300E+02  0.41814492221E+02  0.14507266249E+03  0.12499727668E+03 0.  0.
         25    2    1    2    0    0  0.74731112913E+01 -0.60145316300E+02 -0.10772274504E+03  0.17581477390E+03  0.12503334939E+03 0.  0.
          5    1    3    3  502    0 -0.59319695247E+02  0.79256600131E+01  0.38390151457E+02  0.71256831671E+02  0.47000000000E+01 0.  1.
         -5    1    3    3    0  502  0.51846583956E+02  0.52219656287E+02  0.34243407644E+01  0.73815830824E+02  0.47000000000E+01 0.  1.
          5    1    4    4  503    0  0.44283433139E+02 -0.77265895021E+02 -0.10041346301E+03  0.13429815537E+03  0.47000000000E+01 0. -1.
         -5    1    4    4    0  503 -0.36810321848E+02  0.17120578722E+02 -0.73092820332E+01  0.41516618530E+02  0.47000000000E+01 0. -1.
<mgrwt>
<rscale>  0 0.13894024E+03</rscale>
<asrwt>0</asrwt>
<pdfrwt beam="2">  1        5 0.29753515E-01 0.13894835E+03</pdfrwt>
<pdfrwt beam="1">  1       -5 0.19613783E-01 0.13894835E+03</pdfrwt>
<totfact> 0.19007864E+02</totfact>
</mgrwt>
</event>
<event>
 8    1  0.1821556E-007  0.1337900E+03  0.7546771E-02  0.1221940E+00
         -5   -1    0    0    0  501 -0.00000000000E+00  0.00000000000E+00  0.42739404011E+03  0.42741988199E+03  0.47000000000E+01 0.  1.
          5   -1    0    0  501    0  0.00000000000E+00 -0.00000000000E+00 -0.41804024831E+02  0.42067404152E+02  0.47000000000E+01 0.  1.
         25    2    1    2    0    0 -0.43027897572E+02  0.20563088865E+02  0.20325755999E+03  0.24333804819E+03  0.12500211763E+03 0.  0.
         25    2    1    2    0    0  0.43027897572E+02 -0.20563088865E+02  0.18233245528E+03  0.22614923795E+03  0.12499645188E+03 0.  0.
          5    1    3    3  502    0 -0.17262383479E+02  0.60374696118E+02  0.17922840321E+03  0.18996842983E+03  0.47000000000E+01 0.  1.
         -5    1    3    3    0  502 -0.25765514093E+02 -0.39811607254E+02  0.24029156783E+02  0.53369618364E+02  0.47000000000E+01 0.  1.
          5    1    4    4  503    0  0.57578881068E+01  0.26419721148E+02  0.15944214101E+03  0.16178702443E+03  0.47000000000E+01 0.  1.
         -5    1    4    4    0  503  0.37270009465E+02 -0.46982810013E+02  0.22890314268E+02  0.64362213522E+02  0.47000000000E+01 0.  1.
<mgrwt>
<rscale>  0 0.13378870E+03</rscale>
<asrwt>0</asrwt>
<pdfrwt beam="2">  1        5 0.64536365E-02 0.13379002E+03</pdfrwt>
<pdfrwt beam="1">  1       -5 0.65775174E-01 0.13379002E+03</pdfrwt>
<totfact> 0.25633364E+02</totfact>
</mgrwt>
</event>
<event>
 8    1  0.1821556E-007  0.1346101E+03  0.7546771E-02  0.1220771E+00
         -5   -1    0    0    0  501 -0.00000000000E+00  0.00000000000E+00  0.18036218640E+03  0.18042341390E+03  0.47000000000E+01 0.  1.
          5   -1    0    0  501    0  0.00000000000E+00 -0.00000000000E+00 -0.12340836034E+03  0.12349782752E+03  0.47000000000E+01 0.  1.
         25    2    1    2    0    0  0.48488723472E+02  0.11973506222E+02  0.94147844745E+02  0.16426709211E+03  0.12500135890E+03 0.  0.
         25    2    1    2    0    0 -0.48488723472E+02 -0.11973506222E+02 -0.37194018679E+02  0.13965414930E+03  0.12500146094E+03 0.  0.
          5    1    3    3  502    0  0.17911423600E+02  0.61131144167E+02  0.14175638189E+02  0.65428392924E+02  0.47000000000E+01 0. -1.
         -5    1    3    3    0  502  0.30577299872E+02 -0.49157637946E+02  0.79972206557E+02  0.98838699189E+02  0.47000000000E+01 0. -1.
          5    1    4    4  503    0 -0.40435461356E+02 -0.54963070113E+02 -0.59208535287E+02  0.90463839528E+02  0.47000000000E+01 0.  1.
         -5    1    4    4    0  503 -0.80532621159E+01  0.42989563892E+02  0.22014516608E+02  0.49190309776E+02  0.47000000000E+01 0.  1.
<mgrwt>
<rscale>  0 0.13461010E+03</rscale>
<asrwt>0</asrwt>
<pdfrwt beam="2">  1        5 0.18997493E-01 0.13461013E+03</pdfrwt>
<pdfrwt beam="1">  1       -5 0.27759621E-01 0.13461013E+03</pdfrwt>
<totfact> 0.22847969E+02</totfact>
</mgrwt>
</event>
<event>
 8    1  0.1821556E-007  0.1351121E+03  0.7546771E-02  0.1220071E+00
          5   -1    0    0  501    0  0.00000000000E+00  0.00000000000E+00  0.20103386886E+03  0.20108880234E+03  0.47000000000E+01 0.  1.
         -5   -1    0    0    0  501 -0.00000000000E+00 -0.00000000000E+00 -0.14056111507E+03  0.14063967104E+03  0.47000000000E+01 0.  1.
         25    2    1    2    0    0 -0.49529979150E+02 -0.13135115986E+02 -0.71513909683E+02  0.15284818493E+03  0.12499031263E+03 0.  0.
         25    2    1    2    0    0  0.49529979150E+02  0.13135115986E+02  0.13198666347E+03  0.18888028845E+03  0.12501813438E+03 0.  0.
          5    1    3    3  502    0  0.19991130501E+02 -0.47955009914E+02 -0.49470007751E+02  0.71893671080E+02  0.47000000000E+01 0.  1.
         -5    1    3    3    0  502 -0.69521109652E+02  0.34819893928E+02 -0.22043901932E+02  0.80954513850E+02  0.47000000000E+01 0.  1.
          5    1    4    4  503    0  0.10382144937E+02  0.43742959256E+02 -0.26580675085E+01  0.45281240496E+02  0.47000000000E+01 0. -1.
         -5    1    4    4    0  503  0.39147834213E+02 -0.30607843270E+02  0.13464473098E+03  0.14359904795E+03  0.47000000000E+01 0. -1.
<mgrwt>
<rscale>  0 0.13510568E+03</rscale>
<asrwt>0</asrwt>
<pdfrwt beam="1">  1        5 0.30938556E-01 0.13511212E+03</pdfrwt>
<pdfrwt beam="2">  1       -5 0.21635055E-01 0.13511212E+03</pdfrwt>
<totfact> 0.14514535E+02</totfact>
</mgrwt>
</event>
<event>
 8    1  0.1821556E-007  0.1450835E+03  0.7546771E-02  0.1206657E+00
         -5   -1    0    0    0  501 -0.00000000000E+00  0.00000000000E+00  0.28603923248E+03  0.28607784346E+03  0.47000000000E+01 0.  1.
          5   -1    0    0  501    0  0.00000000000E+00 -0.00000000000E+00 -0.73461038707E+02  0.73611236968E+02  0.47000000000E+01 0.  1.
         25    2    1    2    0    0 -0.28519406508E+02  0.67847495242E+02  0.10778314788E+03  0.18073854056E+03  0.12503029200E+03 0.  0.
         25    2    1    2    0    0  0.28519406508E+02 -0.67847495242E+02  0.10479504589E+03  0.17895053987E+03  0.12499861967E+03 0.  0.
          5    1    3    3  502    0 -0.57380795842E+02 -0.49596965765E+00  0.10858786575E+02  0.58590143909E+02  0.47000000000E+01 0. -1.
         -5    1    3    3    0  502  0.28861389335E+02  0.68343464900E+02  0.96924361305E+02  0.12214839665E+03  0.47000000000E+01 0. -1.
          5    1    4    4  503    0 -0.35513759231E+02 -0.70528980654E+02  0.44152382515E+02  0.90592974830E+02  0.47000000000E+01 0.  1.
         -5    1    4    4    0  503  0.64033165738E+02  0.26814854115E+01  0.60642663379E+02  0.88357565042E+02  0.47000000000E+01 0.  1.
<mgrwt>
<rscale>  0 0.14507665E+03</rscale>
<asrwt>0</asrwt>
<pdfrwt beam="2">  1        5 0.11316222E-01 0.14508347E+03</pdfrwt>
<pdfrwt beam="1">  1       -5 0.44020559E-01 0.14508347E+03</pdfrwt>
<totfact> 0.23698177E+02</totfact>
</mgrwt>
</event>
<event>
 8    1  0.1821556E-007  0.1335398E+03  0.7546771E-02  0.1222298E+00
          5   -1    0    0  501    0  0.00000000000E+00  0.00000000000E+00  0.94944227869E+02  0.95060488141E+02  0.47000000000E+01 0.  1.
         -5   -1    0    0    0  501 -0.00000000000E+00 -0.00000000000E+00 -0.20727965004E+03  0.20733292869E+03  0.47000000000E+01 0.  1.
         25    2    1    2    0    0 -0.39823345662E+02 -0.24906342930E+02 -0.10278876798E+03  0.16851278047E+03  0.12499920632E+03 0.  0.
         25    2    1    2    0    0  0.39823345662E+02  0.24906342930E+02 -0.95466541901E+01  0.13388063637E+03  0.12500664546E+03 0.  0.
          5    1    3    3  502    0 -0.77807326805E+02  0.91642102776E+01 -0.42029974095E+02  0.89031295492E+02  0.47000000000E+01 0. -1.
         -5    1    3    3    0  502  0.37983981144E+02 -0.34070553207E+02 -0.60758793887E+02  0.79481484976E+02  0.47000000000E+01 0. -1.
          5    1    4    4  503    0  0.53163531130E+02 -0.16315046019E+02  0.39421744984E+02  0.68327928011E+02  0.47000000000E+01 0. -1.
         -5    1    4    4    0  503 -0.13340185468E+02  0.41221388948E+02 -0.48968399174E+02  0.65552708356E+02  0.47000000000E+01 0. -1.
<mgrwt>
<rscale>  0 0.13353809E+03</rscale>
<asrwt>0</asrwt>
<pdfrwt beam="1">  1        5 0.14619846E-01 0.13353983E+03</pdfrwt>
<pdfrwt beam="2">  1       -5 0.31902218E-01 0.13353983E+03</pdfrwt>
<totfact> 0.28012670E+02</totfact>
</mgrwt>
</event>
<event>
 8    1  0.1821556E-007  0.1276982E+03  0.7546771E-02  0.1230917E+00
         -5   -1    0    0    0  501 -0.00000000000E+00  0.00000000000E+00  0.16209240840E+03  0.16216053422E+03  0.47000000000E+01 0. -1.
          5   -1    0    0  501    0  0.00000000000E+00 -0.00000000000E+00 -0.17793620675E+03  0.17799826874E+03  0.47000000000E+01 0. -1.
         25    2    1    2    0    0  0.10730892744E+02 -0.23702427351E+02  0.10426692978E+03  0.16485876652E+03  0.12501945101E+03 0.  0.
         25    2    1    2    0    0 -0.10730892744E+02  0.23702427351E+02 -0.12011072814E+03  0.17530003644E+03  0.12500623441E+03 0.  0.
          5    1    3    3  502    0 -0.50093593445E+01 -0.55972807753E+02  0.11415306760E+03  0.12732266779E+03  0.47000000000E+01 0. -1.
         -5    1    3    3    0  502  0.15740252088E+02  0.32270380402E+02 -0.98861378209E+01  0.37536098733E+02  0.47000000000E+01 0. -1.
          5    1    4    4  503    0  0.13578448208E+02 -0.17514402059E+02  0.18079300798E+02  0.28984127597E+02  0.47000000000E+01 0. -1.
         -5    1    4    4    0  503 -0.24309340952E+02  0.41216829410E+02 -0.13819002894E+03  0.14631590885E+03  0.47000000000E+01 0. -1.
<mgrwt>
<rscale>  0 0.12769493E+03</rscale>
<asrwt>0</asrwt>
<pdfrwt beam="2">  1        5 0.27384816E-01 0.12769816E+03</pdfrwt>
<pdfrwt beam="1">  1       -5 0.24947308E-01 0.12769816E+03</pdfrwt>
<totfact> 0.13787104E+02</totfact>
</mgrwt>
</event>
<event>
 8    1  0.1821556E-007  0.1959494E+03  0.7546771E-02  0.1153202E+00
          5   -1    0    0  501    0  0.00000000000E+00  0.00000000000E+00  0.36916007247E+03  0.36918999053E+03  0.47000000000E+01 0.  1.
         -5   -1    0    0    0  501 -0.00000000000E+00 -0.00000000000E+00 -0.10470695118E+03  0.10481238298E+03  0.47000000000E+01 0.  1.
         25    2    1    2    0    0 -0.14282757108E+03 -0.48694874711E+02  0.11171818964E+03  0.22555953996E+03  0.12500098514E+03 0.  0.
         25    2    1    2    0    0  0.14282757108E+03  0.48694874711E+02  0.15273493165E+03  0.24844283355E+03  0.12499990526E+03 0.  0.
          5    1    4    4  502    0  0.14869210728E+03  0.65770855118E+02  0.96350583835E+02  0.18905203822E+03  0.47000000000E+01 0.  1.
         -5    1    4    4    0  502 -0.58645361992E+01 -0.17075980407E+02  0.56384347818E+02  0.59390795335E+02  0.47000000000E+01 0.  1.
          5    1    3    3  503    0 -0.11789701825E+03 -0.72950863603E+01  0.12810366233E+03  0.17431455332E+03  0.47000000000E+01 0.  1.
         -5    1    3    3    0  503 -0.24930552828E+02 -0.41399788351E+02 -0.16385472692E+02  0.51244986634E+02  0.47000000000E+01 0.  1.
<mgrwt>
<rscale>  0 0.19594919E+03</rscale>
<asrwt>0</asrwt>
<pdfrwt beam="1">  1        5 0.56804268E-01 0.19594936E+03</pdfrwt>
<pdfrwt beam="2">  1       -5 0.16119174E-01 0.19594936E+03</pdfrwt>
<totfact> 0.79864589E+01</totfact>
</mgrwt>
</event>
<event>
 8    1  0.1821556E-007  0.1264447E+03  0.7546771E-02  0.1232834E+00
         -5   -1    0    0    0  501 -0.00000000000E+00  0.00000000000E+00  0.67348900661E+02  0.67512698215E+02  0.47000000000E+01 0.  1.
          5   -1    0    0  501    0  0.00000000000E+00 -0.00000000000E+00 -0.23848028356E+03  0.23852659317E+03  0.47000000000E+01 0.  1.
         25    2    1    2    0    0 -0.19019707063E+02  0.10091258735E+01 -0.98046289856E+02  0.16000416287E+03  0.12500195834E+03 0.  0.
         25    2    1    2    0    0  0.19019707063E+02 -0.10091258735E+01 -0.73085093047E+02  0.14603512851E+03  0.12498824082E+03 0.  0.
          5    1    3    3  502    0  0.15367971519E+02 -0.17633008682E+02 -0.11475612935E+03  0.11720988340E+03  0.47000000000E+01 0.  1.
         -5    1    3    3    0  502 -0.34387678582E+02  0.18642134556E+02  0.16709839496E+02  0.42794279466E+02  0.47000000000E+01 0.  1.
          5    1    4    4  503    0  0.30073023486E+02 -0.41323204145E+02 -0.87607096575E+02  0.10153367576E+03  0.47000000000E+01 0. -1.
         -5    1    4    4    0  503 -0.11053316423E+02  0.40314078272E+02  0.14522003528E+02  0.44501452755E+02  0.47000000000E+01 0. -1.
<mgrwt>
<rscale>  0 0.12644129E+03</rscale>
<asrwt>0</asrwt>
<pdfrwt beam="2">  1        5 0.36705436E-01 0.12644468E+03</pdfrwt>
<pdfrwt beam="1">  1       -5 0.10377532E-01 0.12644468E+03</pdfrwt>
<totfact> 0.38141932E+02</totfact>
</mgrwt>
</event>
<event>
 8    1  0.1821556E-007  0.1389250E+03  0.7546771E-02  0.1214783E+00
          5   -1    0    0  501    0  0.00000000000E+00  0.00000000000E+00  0.32785512141E+02  0.33120685475E+02  0.47000000000E+01 0. -1.
         -5   -1    0    0    0  501 -0.00000000000E+00 -0.00000000000E+00 -0.65888502690E+03  0.65890178985E+03  0.47000000000E+01 0. -1.
         25    2    1    2    0    0  0.42518550217E+02  0.43214232806E+02 -0.42861986672E+03  0.45057191660E+03  0.12499905942E+03 0.  0.
         25    2    1    2    0    0 -0.42518550217E+02 -0.43214232806E+02 -0.19747964804E+03  0.24145055872E+03  0.12499945556E+03 0.  0.
          5    1    4    4  502    0  0.27415832804E+02 -0.34466184006E+02 -0.16653529007E+02  0.47317816482E+02  0.47000000000E+01 0.  1.
         -5    1    4    4    0  502 -0.69934383021E+02 -0.87480487997E+01 -0.18082611903E+03  0.19413274224E+03  0.47000000000E+01 0.  1.
          5    1    3    3  503    0  0.60365421703E+02  0.70897124732E+02 -0.38253112010E+03  0.39372901123E+03  0.47000000000E+01 0. -1.
         -5    1    3    3    0  503 -0.17846871486E+02 -0.27682891927E+02 -0.46088746615E+02  0.56842905378E+02  0.47000000000E+01 0. -1.
<mgrwt>
<rscale>  0 0.13892493E+03</rscale>
<asrwt>0</asrwt>
<pdfrwt beam="1">  1        5 0.50709975E-02 0.13892502E+03</pdfrwt>
<pdfrwt beam="2">  1       -5 0.10139399E+00 0.13892502E+03</pdfrwt>
<totfact> 0.14205044E+02</totfact>
</mgrwt>
</event>
<event>
 8    1  0.1821556E-007  0.1259652E+03  0.7546771E-02  0.1233570E+00
         -5   -1    0    0    0  501 -0.00000000000E+00  0.00000000000E+00  0.24047898933E+03  0.24052491412E+03  0.47000000000E+01 0.  1.
          5   -1    0    0  501    0  0.00000000000E+00 -0.00000000000E+00 -0.66184216401E+02  0.66350889223E+02  0.47000000000E+01 0.  1.
         25    2    1    2    0    0 -0.12203286567E+02 -0.96381096896E+01  0.76157462061E+02  0.14719775544E+03  0.12500162726E+03 0.  0.
         25    2    1    2    0    0  0.12203286567E+02  0.96381096896E+01  0.98137310870E+02  0.15967804790E+03  0.12499733531E+03 0.  0.
          5    1    3    3  502    0  0.40661510176E+02 -0.44208922307E+02  0.51387979488E+02  0.79187130629E+02  0.47000000000E+01 0. -1.
         -5    1    3    3    0  502 -0.52864796744E+02  0.34570812618E+02  0.24769482574E+02  0.68010624808E+02  0.47000000000E+01 0. -1.
          5    1    4    4  503    0 -0.24366743243E+01  0.59643278994E+02  0.15463993775E+02  0.61842406279E+02  0.47000000000E+01 0. -1.
         -5    1    4    4    0  503  0.14639960892E+02 -0.50005169305E+02  0.82673317095E+02  0.97835641622E+02  0.47000000000E+01 0. -1.
<mgrwt>
<rscale>  0 0.12596409E+03</rscale>
<asrwt>0</asrwt>
<pdfrwt beam="2">  1        5 0.10198541E-01 0.12596515E+03</pdfrwt>
<pdfrwt beam="1">  1       -5 0.37013121E-01 0.12596515E+03</pdfrwt>
<totfact> 0.38607998E+02</totfact>
</mgrwt>
</event>
<event>
 8    1  0.1821556E-007  0.1347866E+03  0.7546771E-02  0.1220522E+00
         -5   -1    0    0    0  501 -0.00000000000E+00  0.00000000000E+00  0.37746775488E+02  0.38038257843E+02  0.47000000000E+01 0. -1.
          5   -1    0    0  501    0  0.00000000000E+00 -0.00000000000E+00 -0.48345455869E+03  0.48347740415E+03  0.47000000000E+01 0. -1.
         25    2    1    2    0    0 -0.10598552648E+02 -0.49292717602E+02 -0.19822095535E+03  0.23970516702E+03  0.12499967453E+03 0.  0.
         25    2    1    2    0    0  0.10598552648E+02  0.49292717602E+02 -0.24748682786E+03  0.28181049497E+03  0.12500129513E+03 0.  0.
          5    1    4    4  502    0 -0.43346894267E+02  0.62581049356E+02 -0.11416441921E+03  0.13729874578E+03  0.47000000000E+01 0. -1.
         -5    1    4    4    0  502  0.53945446916E+02 -0.13288331754E+02 -0.13332240865E+03  0.14451174918E+03  0.47000000000E+01 0. -1.
          5    1    3    3  503    0 -0.29870505519E+01  0.34024676835E+02 -0.13794960037E+02  0.37134781905E+02  0.47000000000E+01 0.  1.
         -5    1    3    3    0  503 -0.76115020963E+01 -0.83317394437E+02 -0.18442599531E+03  0.20257038512E+03  0.47000000000E+01 0.  1.
<mgrwt>
<rscale>  0 0.13478622E+03</rscale>
<asrwt>0</asrwt>
<pdfrwt beam="2">  1        5 0.74401799E-01 0.13478659E+03</pdfrwt>
<pdfrwt beam="1">  1       -5 0.58313756E-02 0.13478659E+03</pdfrwt>
<totfact> 0.23092387E+02</totfact>
</mgrwt>
</event>
<event>
 8    1  0.1821556E-007  0.1279657E+03  0.7546771E-02  0.1230507E+00
         -5   -1    0    0    0  501 -0.00000000000E+00  0.00000000000E+00  0.22810778353E+03  0.22815619848E+03  0.47000000000E+01 0. -1.
          5   -1    0    0  501    0  0.00000000000E+00 -0.00000000000E+00 -0.72732923066E+02  0.72884621819E+02  0.47000000000E+01 0. -1.
         25    2    1    2    0    0  0.20472516641E+02  0.18179347236E+02  0.96008415413E+02  0.15997757252E+03  0.12500238109E+03 0.  0.
         25    2    1    2    0    0 -0.20472516641E+02 -0.18179347236E+02  0.59366445051E+02  0.14106324778E+03  0.12499940989E+03 0.  0.
          5    1    3    3  502    0 -0.24707258441E+02 -0.38346698284E+02  0.68471519372E+02  0.82409689079E+02  0.47000000000E+01 0.  1.
         -5    1    3    3    0  502  0.45179775082E+02  0.56526045520E+02  0.27536896041E+02  0.77567883445E+02  0.47000000000E+01 0.  1.
          5    1    4    4  503    0 -0.59120515683E+02  0.28481558917E+02  0.20434224706E+02  0.68891814553E+02  0.47000000000E+01 0.  1.
         -5    1    4    4    0  503  0.38647999042E+02 -0.46660906153E+02  0.38932220345E+02  0.72171433227E+02  0.47000000000E+01 0.  1.
<mgrwt>
<rscale>  0 0.12796493E+03</rscale>
<asrwt>0</asrwt>
<pdfrwt beam="2">  1        5 0.11205074E-01 0.12796565E+03</pdfrwt>
<pdfrwt beam="1">  1       -5 0.35108899E-01 0.12796565E+03</pdfrwt>
<totfact> 0.36617745E+02</totfact>
</mgrwt>
</event>
<event>
 8    1  0.1821556E-007  0.1466490E+03  0.7546771E-02  0.1204653E+00
         -5   -1    0    0    0  501 -0.00000000000E+00  0.00000000000E+00  0.14438351960E+02  0.15184070842E+02  0.47000000000E+01 0.  1.
          5   -1    0    0  501    0  0.00000000000E+00 -0.00000000000E+00 -0.15126127861E+04  0.15126200881E+04  0.47000000000E+01 0.  1.
         25    2    1    2    0    0  0.76466916999E+02 -0.57730037264E+01 -0.59523696655E+03  0.61303534112E+03  0.12499906459E+03 0.  0.
         25    2    1    2    0    0 -0.76466916999E+02  0.57730037264E+01 -0.90293746763E+03  0.91476881778E+03  0.12500161024E+03 0.  0.
          5    1    4    4  502    0 -0.48170203530E+02 -0.58177816437E+02 -0.51862210369E+03  0.52411449443E+03  0.47000000000E+01 0. -1.
         -5    1    4    4    0  502 -0.28296713469E+02  0.63950820163E+02 -0.38431536394E+03  0.39065432335E+03  0.47000000000E+01 0. -1.
          5    1    3    3  503    0  0.43315268399E+02  0.31051727406E+02 -0.85404107362E+02  0.10077883610E+03  0.47000000000E+01 0. -1.
         -5    1    3    3    0  503  0.33151648600E+02 -0.36824731132E+02 -0.50983285919E+03  0.51225650502E+03  0.47000000000E+01 0. -1.
<mgrwt>
<rscale>  0 0.14664842E+03</rscale>
<asrwt>0</asrwt>
<pdfrwt beam="2">  1        5 0.23276746E+00 0.14664897E+03</pdfrwt>
<pdfrwt beam="1">  1       -5 0.22792108E-02 0.14664897E+03</pdfrwt>
<totfact> 0.51097371E+01</totfact>
</mgrwt>
</event>
<event>
 8    1  0.1821556E-007  0.1314217E+03  0.7546771E-02  0.1225365E+00
         -5   -1    0    0    0  501 -0.00000000000E+00  0.00000000000E+00  0.14466146785E+04  0.14466223135E+04  0.47000000000E+01 0. -1.
          5   -1    0    0  501    0  0.00000000000E+00 -0.00000000000E+00 -0.11701187816E+02  0.12609829353E+02  0.47000000000E+01 0. -1.
         25    2    1    2    0    0  0.40238568424E+02  0.52048173722E+01  0.81666082012E+03  0.82716778933E+03  0.12500169628E+03 0.  0.
         25    2    1    2    0    0 -0.40238568424E+02 -0.52048173722E+01  0.61825267052E+03  0.63206435353E+03  0.12499099919E+03 0.  0.
          5    1    4    4  502    0 -0.36825442332E+02  0.54012395933E+02  0.22554726957E+03  0.23487680373E+03  0.47000000000E+01 0.  1.
         -5    1    4    4    0  502 -0.34131260920E+01 -0.59217213306E+02  0.39270540095E+03  0.39718754980E+03  0.47000000000E+01 0.  1.
          5    1    3    3  503    0  0.51977001230E+02 -0.51284430628E+02  0.48627425268E+03  0.49174835058E+03  0.47000000000E+01 0.  1.
         -5    1    3    3    0  503 -0.11738432806E+02  0.56489248000E+02  0.33038656744E+03  0.33541943875E+03  0.47000000000E+01 0.  1.
<mgrwt>
<rscale>  0 0.13141913E+03</rscale>
<asrwt>0</asrwt>
<pdfrwt beam="2">  1        5 0.18706646E-02 0.13142167E+03</pdfrwt>
<pdfrwt beam="1">  1       -5 0.22262670E+00 0.13142167E+03</pdfrwt>
<totfact> 0.78844853E+01</totfact>
</mgrwt>
</event>
<event>
 8    1  0.1821556E-007  0.1696226E+03  0.7546771E-02  0.1178248E+00
          5   -1    0    0  501    0  0.00000000000E+00  0.00000000000E+00  0.20733809909E+03  0.20739136272E+03  0.47000000000E+01 0.  1.
         -5   -1    0    0    0  501 -0.00000000000E+00 -0.00000000000E+00 -0.17819377578E+03  0.17825574809E+03  0.47000000000E+01 0.  1.
         25    2    1    2    0    0 -0.68756160761E+02 -0.91746861973E+02 -0.76245002714E+02  0.18597072982E+03  0.12500766212E+03 0.  0.
         25    2    1    2    0    0  0.68756160761E+02  0.91746861973E+02  0.10538932602E+03  0.19967638099E+03  0.12497540063E+03 0.  0.
          5    1    3    3  502    0 -0.10074156216E+03 -0.41558625114E+02 -0.40297185393E+02  0.11628385450E+03  0.47000000000E+01 0. -1.
         -5    1    3    3    0  502  0.31985401399E+02 -0.50188236859E+02 -0.35947817321E+02  0.69686875320E+02  0.47000000000E+01 0. -1.
          5    1    4    4  503    0  0.24717319048E+02 -0.19612975471E+02 -0.98784613014E+01  0.33395937858E+02  0.47000000000E+01 0. -1.
         -5    1    4    4    0  503  0.44038841713E+02  0.11135983744E+03  0.11526778732E+03  0.16628044313E+03  0.47000000000E+01 0. -1.
<mgrwt>
<rscale>  0 0.16961661E+03</rscale>
<asrwt>0</asrwt>
<pdfrwt beam="1">  1        5 0.31907033E-01 0.16962256E+03</pdfrwt>
<pdfrwt beam="2">  1       -5 0.27423291E-01 0.16962256E+03</pdfrwt>
<totfact> 0.93204615E+01</totfact>
</mgrwt>
</event>
<event>
 8    1  0.1821556E-007  0.1791572E+03  0.7546771E-02  0.1168622E+00
          5   -1    0    0  501    0  0.00000000000E+00  0.00000000000E+00  0.86884401321E+03  0.86885672542E+03  0.47000000000E+01 0. -1.
         -5   -1    0    0    0  501 -0.00000000000E+00 -0.00000000000E+00 -0.40897341051E+02  0.41166521653E+02  0.47000000000E+01 0. -1.
         25    2    1    2    0    0 -0.11949084817E+03 -0.46830707488E+02  0.27011534063E+03  0.32412899722E+03  0.12500452645E+03 0.  0.
         25    2    1    2    0    0  0.11949084817E+03  0.46830707488E+02  0.55783133153E+03  0.58589424985E+03  0.12500039843E+03 0.  0.
          5    1    3    3  502    0 -0.41764291199E+02  0.43054620736E+02  0.94953028143E+02  0.11241051525E+03  0.47000000000E+01 0. -1.
         -5    1    3    3    0  502 -0.77726556972E+02 -0.89885328224E+02  0.17516231249E+03  0.21171848196E+03  0.47000000000E+01 0. -1.
          5    1    4    4  503    0 -0.91668884591E+01  0.45663774153E+02  0.20583136224E+03  0.21108730847E+03  0.47000000000E+01 0.  1.
         -5    1    4    4    0  503  0.12865773663E+03  0.11669333358E+01  0.35199996929E+03  0.37480694138E+03  0.47000000000E+01 0.  1.
<mgrwt>
<rscale>  0 0.17915650E+03</rscale>
<asrwt>0</asrwt>
<pdfrwt beam="1">  1        5 0.13368999E+00 0.17915722E+03</pdfrwt>
<pdfrwt beam="2">  1       -5 0.63135828E-02 0.17915722E+03</pdfrwt>
<totfact> 0.52578789E+01</totfact>
</mgrwt>
</event>
<event>
 8    1  0.1821556E-007  0.1264079E+03  0.7546771E-02  0.1232888E+00
         -5   -1    0    0    0  501 -0.00000000000E+00  0.00000000000E+00  0.80191105671E+03  0.80192482994E+03  0.47000000000E+01 0. -1.
          5   -1    0    0  501    0  0.00000000000E+00 -0.00000000000E+00 -0.19844445421E+02  0.20393430659E+02  0.47000000000E+01 0. -1.
         25    2    1    2    0    0 -0.36977131989E+00 -0.18839357096E+02  0.34923666980E+03  0.37140726804E+03  0.12498819589E+03 0.  0.
         25    2    1    2    0    0  0.36977131989E+00  0.18839357096E+02  0.43282994149E+03  0.45091099256E+03  0.12499562734E+03 0.  0.
          5    1    4    4  502    0  0.34371064342E+02  0.30236620097E+02  0.56601859337E+02  0.72948500597E+02  0.47000000000E+01 0.  1.
         -5    1    4    4    0  502 -0.34001293022E+02 -0.11397263001E+02  0.37622808215E+03  0.37796249196E+03  0.47000000000E+01 0.  1.
          5    1    3    3  503    0 -0.21055481069E+01  0.46205153003E+02  0.23760794533E+03  0.24211355844E+03  0.47000000000E+01 0. -1.
         -5    1    3    3    0  503  0.17357767870E+01 -0.65044510099E+02  0.11162872448E+03  0.12929370960E+03  0.47000000000E+01 0. -1.
<mgrwt>
<rscale>  0 0.12640609E+03</rscale>
<asrwt>0</asrwt>
<pdfrwt beam="2">  1        5 0.30962805E-02 0.12640793E+03</pdfrwt>
<pdfrwt beam="1">  1       -5 0.12341423E+00 0.12640793E+03</pdfrwt>
<totfact> 0.18898667E+02</totfact>
</mgrwt>
</event>
<event>
 8    1  0.1821556E-007  0.1518006E+03  0.7546771E-02  0.1198279E+00
          5   -1    0    0  501    0  0.00000000000E+00  0.00000000000E+00  0.88162087035E+03  0.88163339832E+03  0.47000000000E+01 0.  1.
         -5   -1    0    0    0  501 -0.00000000000E+00 -0.00000000000E+00 -0.32331998230E+02  0.32671824399E+02  0.47000000000E+01 0.  1.
         25    2    1    2    0    0 -0.63984741718E+02 -0.57651363661E+02  0.22218092828E+03  0.26908697043E+03  0.12500282341E+03 0.  0.
         25    2    1    2    0    0  0.63984741718E+02  0.57651363661E+02  0.62710794384E+03  0.64521825229E+03  0.12499797181E+03 0.  0.
          5    1    4    4  502    0  0.35457073234E+02  0.62431998731E+02  0.60298267583E+03  0.60726036909E+03  0.47000000000E+01 0.  1.
         -5    1    4    4    0  502  0.28527668484E+02 -0.47806350698E+01  0.24125268003E+02  0.37957883200E+02  0.47000000000E+01 0.  1.
          5    1    3    3  503    0  0.17150837000E+02  0.23944056495E+02  0.84394546168E+02  0.89509767479E+02  0.47000000000E+01 0. -1.
         -5    1    3    3    0  503 -0.81135578718E+02 -0.81595420156E+02  0.13778638211E+03  0.17957720295E+03  0.47000000000E+01 0. -1.
<mgrwt>
<rscale>  0 0.15179964E+03</rscale>
<asrwt>0</asrwt>
<pdfrwt beam="1">  1        5 0.13566106E+00 0.15180063E+03</pdfrwt>
<pdfrwt beam="2">  1       -5 0.50012587E-02 0.15180063E+03</pdfrwt>
<totfact> 0.71400167E+01</totfact>
</mgrwt>
</event>
<event>
 8    1  0.1821556E-007  0.1353014E+03  0.7546771E-02  0.1219798E+00
          5   -1    0    0  501    0  0.00000000000E+00  0.00000000000E+00  0.24871379997E+03  0.24875820448E+03  0.47000000000E+01 0. -1.
         -5   -1    0    0    0  501 -0.00000000000E+00 -0.00000000000E+00 -0.73550500649E+02  0.73700516590E+02  0.47000000000E+01 0. -1.
         25    2    1    2    0    0  0.32678969635E+02  0.40156684305E+02  0.82371470944E+02  0.15840303454E+03  0.12500395104E+03 0.  0.
         25    2    1    2    0    0 -0.32678969635E+02 -0.40156684305E+02  0.92791828382E+02  0.16405568654E+03  0.12499388193E+03 0.  0.
          5    1    4    4  502    0 -0.39223926702E+02 -0.22241851250E+02 -0.20010841011E+02  0.49555424839E+02  0.47000000000E+01 0. -1.
         -5    1    4    4    0  502  0.65449570678E+01 -0.17914833055E+02  0.11280266939E+03  0.11450026170E+03  0.47000000000E+01 0. -1.
          5    1    3    3  503    0 -0.13643306963E+02  0.16010279588E+02  0.10059516602E+03  0.10287830823E+03  0.47000000000E+01 0.  1.
         -5    1    3    3    0  503  0.46322276598E+02  0.24146404717E+02 -0.18223695073E+02  0.55524726312E+02  0.47000000000E+01 0.  1.
<mgrwt>
<rscale>  0 0.13529905E+03</rscale>
<asrwt>0</asrwt>
<pdfrwt beam="1">  1        5 0.38278618E-01 0.13530138E+03</pdfrwt>
<pdfrwt beam="2">  1       -5 0.11330417E-01 0.13530138E+03</pdfrwt>
<totfact> 0.30772631E+02</totfact>
</mgrwt>
</event>
<event>
 8    1  0.1821556E-007  0.1800280E+03  0.7546771E-02  0.1167776E+00
          5   -1    0    0  501    0  0.00000000000E+00  0.00000000000E+00  0.10851099793E+04  0.10851201579E+04  0.47000000000E+01 0. -1.
         -5   -1    0    0    0  501 -0.00000000000E+00 -0.00000000000E+00 -0.29851822216E+02  0.30219551446E+02  0.47000000000E+01 0. -1.
         25    2    1    2    0    0  0.12213532686E+03  0.43200222815E+02  0.57056263351E+03  0.59829073793E+03  0.12500716385E+03 0.  0.
         25    2    1    2    0    0 -0.12213532686E+03 -0.43200222815E+02  0.48469552358E+03  0.51704897147E+03  0.12500636384E+03 0.  0.
          5    1    3    3  502    0  0.44581969663E+02 -0.42134874885E+02  0.14862972801E+03  0.16085952178E+03  0.47000000000E+01 0.  1.
         -5    1    3    3    0  502  0.77553357195E+02  0.85335097700E+02  0.42193290550E+03  0.43743121614E+03  0.47000000000E+01 0.  1.
          5    1    4    4  503    0 -0.13017875540E+03 -0.47772894088E+02  0.28395133723E+03  0.31603672204E+03  0.47000000000E+01 0.  1.
         -5    1    4    4    0  503  0.80434285391E+01  0.45726712735E+01  0.20074418635E+03  0.20101224942E+03  0.47000000000E+01 0.  1.
<mgrwt>
<rscale>  0 0.18002788E+03</rscale>
<asrwt>0</asrwt>
<pdfrwt beam="1">  1        5 0.16696906E+00 0.18002802E+03</pdfrwt>
<pdfrwt beam="2">  1       -5 0.46216582E-02 0.18002802E+03</pdfrwt>
<totfact> 0.48187867E+01</totfact>
</mgrwt>
</event>
<event>
 8    1  0.1821556E-007  0.1437438E+03  0.7546771E-02  0.1208398E+00
          5   -1    0    0  501    0  0.00000000000E+00  0.00000000000E+00  0.29619469446E+02  0.29990047853E+02  0.47000000000E+01 0.  1.
         -5   -1    0    0    0  501 -0.00000000000E+00 -0.00000000000E+00 -0.91189749846E+03  0.91190961048E+03  0.47000000000E+01 0.  1.
         25    2    1    2    0    0 -0.24783007252E+02  0.66390492609E+02 -0.67197726158E+03  0.68716709353E+03  0.12499311738E+03 0.  0.
         25    2    1    2    0    0  0.24783007252E+02 -0.66390492609E+02 -0.21030076743E+03  0.25473256481E+03  0.12506147222E+03 0.  0.
          5    1    3    3  502    0  0.23296376033E+02  0.13236368979E+02 -0.27436110406E+02  0.38636158637E+02  0.47000000000E+01 0. -1.
         -5    1    3    3    0  502 -0.48079383285E+02  0.53154123630E+02 -0.64454115118E+03  0.64853093489E+03  0.47000000000E+01 0. -1.
          5    1    4    4  503    0  0.40863874857E+02 -0.49063048623E+01 -0.17900684629E+03  0.18373750057E+03  0.47000000000E+01 0. -1.
         -5    1    4    4    0  503 -0.16080867605E+02 -0.61484187746E+02 -0.31293921136E+02  0.70995064235E+02  0.47000000000E+01 0. -1.
<mgrwt>
<rscale>  0 0.14372888E+03</rscale>
<asrwt>0</asrwt>
<pdfrwt beam="1">  1        5 0.45862799E-02 0.14374375E+03</pdfrwt>
<pdfrwt beam="2">  1       -5 0.14032134E+00 0.14374375E+03</pdfrwt>
<totfact> 0.74125021E+01</totfact>
</mgrwt>
</event>
<event>
 8    1  0.1821556E-007  0.1521356E+03  0.7546771E-02  0.1197875E+00
         -5   -1    0    0    0  501 -0.00000000000E+00  0.00000000000E+00  0.15775836506E+03  0.15782836167E+03  0.47000000000E+01 0.  1.
          5   -1    0    0  501    0  0.00000000000E+00 -0.00000000000E+00 -0.15296634371E+03  0.15303853210E+03  0.47000000000E+01 0.  1.
         25    2    1    2    0    0  0.14081688595E+02  0.85555488632E+02  0.34171532640E+02  0.15592045702E+03  0.12500183873E+03 0.  0.
         25    2    1    2    0    0 -0.14081688595E+02 -0.85555488632E+02 -0.29379511284E+02  0.15494643674E+03  0.12500882764E+03 0.  0.
          5    1    3    3  502    0 -0.41201067994E+02  0.83279252842E+02  0.49306080773E+01  0.93163098134E+02  0.47000000000E+01 0.  1.
         -5    1    3    3    0  502  0.55282756589E+02  0.22762357893E+01  0.29240924563E+02  0.62757358889E+02  0.47000000000E+01 0.  1.
          5    1    4    4  503    0  0.74338134205E+01  0.24935580260E+02 -0.32922969499E+02  0.42226255641E+02  0.47000000000E+01 0. -1.
         -5    1    4    4    0  503 -0.21515502015E+02 -0.11049106889E+03  0.35434582156E+01  0.11272018110E+03  0.47000000000E+01 0. -1.
<mgrwt>
<rscale>  0 0.15213417E+03</rscale>
<asrwt>0</asrwt>
<pdfrwt beam="2">  1        5 0.23544221E-01 0.15213561E+03</pdfrwt>
<pdfrwt beam="1">  1       -5 0.24281455E-01 0.15213561E+03</pdfrwt>
<totfact> 0.20579802E+02</totfact>
</mgrwt>
</event>
<event>
 8    1  0.1821556E-007  0.1340849E+03  0.7546771E-02  0.1221520E+00
          5   -1    0    0  501    0  0.00000000000E+00  0.00000000000E+00  0.11225666501E+04  0.11225764891E+04  0.47000000000E+01 0.  1.
         -5   -1    0    0    0  501 -0.00000000000E+00 -0.00000000000E+00 -0.18013900811E+02  0.18616944497E+02  0.47000000000E+01 0.  1.
         25    2    1    2    0    0 -0.47253301401E+02 -0.10984427013E+02  0.34965073672E+03  0.37447588441E+03  0.12499207247E+03 0.  0.
         25    2    1    2    0    0  0.47253301401E+02  0.10984427013E+02  0.75490201257E+03  0.76671754921E+03  0.12500087822E+03 0.  0.
          5    1    4    4  502    0 -0.29362503068E+02  0.52807728645E+01  0.48812540642E+03  0.48905883648E+03  0.47000000000E+01 0. -1.
         -5    1    4    4    0  502  0.76615804469E+02  0.57036541490E+01  0.26677660615E+03  0.27765871273E+03  0.47000000000E+01 0. -1.
          5    1    3    3  503    0 -0.53795168875E+02 -0.29942674867E+02  0.34841096012E+03  0.35384003604E+03  0.47000000000E+01 0. -1.
         -5    1    3    3    0  503  0.65418674744E+01  0.18958247854E+02  0.12397766009E+01  0.20635848366E+02  0.47000000000E+01 0. -1.
<mgrwt>
<rscale>  0 0.13408282E+03</rscale>
<asrwt>0</asrwt>
<pdfrwt beam="1">  1        5 0.17274969E+00 0.13408487E+03</pdfrwt>
<pdfrwt beam="2">  1       -5 0.28185144E-02 0.13408487E+03</pdfrwt>
<totfact> 0.90229393E+01</totfact>
</mgrwt>
</event>
<event>
 8    1  0.1821556E-007  0.1332230E+03  0.7546771E-02  0.1222766E+00
          5   -1    0    0  501    0  0.00000000000E+00  0.00000000000E+00  0.18446166737E+03  0.18452153459E+03  0.47000000000E+01 0.  1.
         -5   -1    0    0    0  501 -0.00000000000E+00 -0.00000000000E+00 -0.10480208884E+03  0.10490742503E+03  0.47000000000E+01 0.  1.
         25    2    1    2    0    0 -0.39536049157E+02 -0.23661729296E+02 -0.19439960131E+01  0.13323716826E+03  0.12500154906E+03 0.  0.
         25    2    1    2    0    0  0.39536049157E+02  0.23661729296E+02  0.81603574539E+02  0.15619179136E+03  0.12495501469E+03 0.  0.
          5    1    3    3  502    0  0.34340198322E+02  0.25417166856E+02  0.84818092332E+01  0.43809960963E+02  0.47000000000E+01 0.  1.
         -5    1    3    3    0  502 -0.73876247479E+02 -0.49078896152E+02 -0.10425805246E+02  0.89427207292E+02  0.47000000000E+01 0.  1.
          5    1    4    4  503    0  0.12229057638E+02 -0.88982969402E+01  0.10585857371E+03  0.10703670944E+03  0.47000000000E+01 0.  1.
         -5    1    4    4    0  503  0.27306991519E+02  0.32560026237E+02 -0.24254999172E+02  0.49155081926E+02  0.47000000000E+01 0.  1.
<mgrwt>
<rscale>  0 0.13321207E+03</rscale>
<asrwt>0</asrwt>
<pdfrwt beam="1">  1        5 0.28391425E-01 0.13322299E+03</pdfrwt>
<pdfrwt beam="2">  1       -5 0.16136107E-01 0.13322299E+03</pdfrwt>
<totfact> 0.29419066E+02</totfact>
</mgrwt>
</event>
<event>
 8    1  0.1821556E-007  0.1401286E+03  0.7546771E-02  0.1213159E+00
          5   -1    0    0  501    0  0.00000000000E+00  0.00000000000E+00  0.15908157760E+02  0.16587931857E+02  0.47000000000E+01 0. -1.
         -5   -1    0    0    0  501 -0.00000000000E+00 -0.00000000000E+00 -0.12951594687E+04  0.12951679966E+04  0.47000000000E+01 0. -1.
         25    2    1    2    0    0 -0.20742436073E+02 -0.59828515230E+02 -0.80998744597E+03  0.82201927846E+03  0.12500532648E+03 0.  0.
         25    2    1    2    0    0  0.20742436073E+02  0.59828515230E+02 -0.46926386496E+03  0.48973664996E+03  0.12499484578E+03 0.  0.
          5    1    4    4  502    0 -0.40987777702E+02 -0.10170015711E+02 -0.96550390861E+02  0.10548694287E+03  0.47000000000E+01 0. -1.
         -5    1    4    4    0  502  0.61730213775E+02  0.69998530941E+02 -0.37271347410E+03  0.38424970709E+03  0.47000000000E+01 0. -1.
          5    1    3    3  503    0 -0.71065402244E+02 -0.16643562950E+02 -0.45917917138E+03  0.46496763437E+03  0.47000000000E+01 0.  1.
         -5    1    3    3    0  503  0.50322966171E+02 -0.43184952280E+02 -0.35080827458E+03  0.35705164408E+03  0.47000000000E+01 0.  1.
<mgrwt>
<rscale>  0 0.14012629E+03</rscale>
<asrwt>0</asrwt>
<pdfrwt beam="1">  1        5 0.25003562E-02 0.14012862E+03</pdfrwt>
<pdfrwt beam="2">  1       -5 0.19930817E+00 0.14012862E+03</pdfrwt>
<totfact> 0.72222561E+01</totfact>
</mgrwt>
</event>
<event>
 8    1  0.1821556E-007  0.1361356E+03  0.7546771E-02  0.1218630E+00
          5   -1    0    0  501    0  0.00000000000E+00  0.00000000000E+00  0.39010700424E+03  0.39013531596E+03  0.47000000000E+01 0. -1.
         -5   -1    0    0    0  501 -0.00000000000E+00 -0.00000000000E+00 -0.55090428017E+02  0.55290553073E+02  0.47000000000E+01 0. -1.
         25    2    1    2    0    0  0.52758539141E+02  0.11175320811E+02  0.84253848895E+02  0.16009878372E+03  0.12499823298E+03 0.  0.
         25    2    1    2    0    0 -0.52758539141E+02 -0.11175320811E+02  0.25076272733E+03  0.28532708531E+03  0.12498499489E+03 0.  0.
          5    1    4    4  502    0 -0.23491711019E+01 -0.44725103820E+02  0.20335034878E+03  0.20827699793E+03  0.47000000000E+01 0.  1.
         -5    1    4    4    0  502 -0.50409368039E+02  0.33549783009E+02  0.47412378549E+02  0.77050087383E+02  0.47000000000E+01 0.  1.
          5    1    3    3  503    0  0.38393351298E+02 -0.19775249302E+02 -0.21790620072E+02  0.48600730776E+02  0.47000000000E+01 0. -1.
         -5    1    3    3    0  503  0.14365187842E+02  0.30950570113E+02  0.10604446897E+03  0.11149805295E+03  0.47000000000E+01 0. -1.
<mgrwt>
<rscale>  0 0.13613259E+03</rscale>
<asrwt>0</asrwt>
<pdfrwt beam="1">  1        5 0.60034034E-01 0.13613563E+03</pdfrwt>
<pdfrwt beam="2">  1       -5 0.84930226E-02 0.13613563E+03</pdfrwt>
<totfact> 0.19750330E+02</totfact>
</mgrwt>
</event>
<event>
 8    1  0.1821556E-007  0.1304748E+03  0.7546771E-02  0.1226756E+00
          5   -1    0    0  501    0  0.00000000000E+00  0.00000000000E+00  0.73224269731E+02  0.73374952659E+02  0.47000000000E+01 0.  1.
         -5   -1    0    0    0  501 -0.00000000000E+00 -0.00000000000E+00 -0.24177193610E+03  0.24181761534E+03  0.47000000000E+01 0.  1.
         25    2    1    2    0    0  0.23373138345E+01  0.37303229908E+02 -0.11584619294E+03  0.17447612694E+03  0.12499833781E+03 0.  0.
         25    2    1    2    0    0 -0.23373138345E+01 -0.37303229908E+02 -0.52701473429E+02  0.14071644106E+03  0.12500670976E+03 0.  0.
          5    1    4    4  502    0  0.35433631744E+02 -0.62799611114E+02 -0.60502634065E+02  0.94244321545E+02  0.47000000000E+01 0. -1.
         -5    1    4    4    0  502 -0.37770945578E+02  0.25496381206E+02  0.78011606363E+01  0.46472119510E+02  0.47000000000E+01 0. -1.
          5    1    3    3  503    0  0.76187765141E+01 -0.41082579323E+02 -0.11155804250E+02  0.43501333863E+02  0.47000000000E+01 0.  1.
         -5    1    3    3    0  503 -0.52814626796E+01  0.78385809231E+02 -0.10469038869E+03  0.13097479308E+03  0.47000000000E+01 0.  1.
<mgrwt>
<rscale>  0 0.13047279E+03</rscale>
<asrwt>0</asrwt>
<pdfrwt beam="1">  1        5 0.11280377E-01 0.13047479E+03</pdfrwt>
<pdfrwt beam="2">  1       -5 0.37210787E-01 0.13047479E+03</pdfrwt>
<totfact> 0.32424036E+02</totfact>
</mgrwt>
</event>
<event>
 8    1  0.1821556E-007  0.1505495E+03  0.7546771E-02  0.1199812E+00
         -5   -1    0    0    0  501 -0.00000000000E+00  0.00000000000E+00  0.20699278029E+02  0.21226165714E+02  0.47000000000E+01 0.  1.
          5   -1    0    0  501    0  0.00000000000E+00 -0.00000000000E+00 -0.20239347177E+04  0.20239401749E+04  0.47000000000E+01 0.  1.
         25    2    1    2    0    0  0.68408412966E+02 -0.48582091356E+02 -0.30343125141E+03  0.33870818284E+03  0.12495110333E+03 0.  0.
         25    2    1    2    0    0 -0.68408412966E+02  0.48582091356E+02 -0.16998041883E+04  0.17064581578E+04  0.12500094081E+03 0.  0.
          5    1    3    3  502    0  0.48149480570E+02 -0.15168688522E+02 -0.29386324320E+03  0.29820489147E+03  0.47000000000E+01 0.  1.
         -5    1    3    3    0  502  0.20258932396E+02 -0.33413402834E+02 -0.95680082132E+01  0.40503291371E+02  0.47000000000E+01 0.  1.
          5    1    4    4  503    0 -0.17816947506E+02 -0.41413102778E+02 -0.40258224407E+03  0.40512595811E+03  0.47000000000E+01 0. -1.
         -5    1    4    4    0  503 -0.50591465460E+02  0.89995194134E+02 -0.12972219442E+04  0.13013321996E+04  0.47000000000E+01 0. -1.
<mgrwt>
<rscale>  0 0.15053920E+03</rscale>
<asrwt>0</asrwt>
<pdfrwt beam="2">  1        5 0.31141537E+00 0.15054955E+03</pdfrwt>
<pdfrwt beam="1">  1       -5 0.32254555E-02 0.15054955E+03</pdfrwt>
<totfact> 0.93310616E+00</totfact>
</mgrwt>
</event>
<event>
 8    1  0.1821556E-007  0.1634746E+03  0.7546771E-02  0.1184829E+00
          5   -1    0    0  501    0  0.00000000000E+00  0.00000000000E+00  0.23806312769E+02  0.24265830455E+02  0.47000000000E+01 0.  1.
         -5   -1    0    0    0  501 -0.00000000000E+00 -0.00000000000E+00 -0.12580004118E+04  0.12580091916E+04  0.47000000000E+01 0.  1.
         25    2    1    2    0    0  0.41558986030E+02  0.96802673468E+02 -0.83595518890E+03  0.85178904056E+03  0.12500233939E+03 0.  0.
         25    2    1    2    0    0 -0.41558986030E+02 -0.96802673468E+02 -0.39823891013E+03  0.43048598147E+03  0.12500417510E+03 0.  0.
          5    1    4    4  502    0 -0.26627094884E+02 -0.27287389031E+02 -0.32864695578E+03  0.33088444406E+03  0.47000000000E+01 0. -1.
         -5    1    4    4    0  502 -0.14931891146E+02 -0.69515284437E+02 -0.69591954352E+02  0.99601537408E+02  0.47000000000E+01 0. -1.
          5    1    3    3  503    0 -0.19201567206E+02 -0.20433618097E+02 -0.95688025756E+02  0.99822448401E+02  0.47000000000E+01 0. -1.
         -5    1    3    3    0  503  0.60760553235E+02  0.11723629156E+03 -0.74026716314E+03  0.75196659216E+03  0.47000000000E+01 0. -1.
<mgrwt>
<rscale>  0 0.16347427E+03</rscale>
<asrwt>0</asrwt>
<pdfrwt beam="1">  1        5 0.36985335E-02 0.16347462E+03</pdfrwt>
<pdfrwt beam="2">  1       -5 0.19357450E+00 0.16347462E+03</pdfrwt>
<totfact> 0.43769886E+01</totfact>
</mgrwt>
</event>
<event>
 8    1  0.1821556E-007  0.1264163E+03  0.7546771E-02  0.1232883E+00
          5   -1    0    0  501    0  0.00000000000E+00  0.00000000000E+00  0.30411286912E+03  0.30414918570E+03  0.47000000000E+01 0. -1.
         -5   -1    0    0    0  501 -0.00000000000E+00 -0.00000000000E+00 -0.52786765975E+02  0.52995590969E+02  0.47000000000E+01 0. -1.
         25    2    1    2    0    0 -0.27331759220E+01 -0.18692642403E+02  0.11029910058E+03  0.16777061523E+03  0.12499681041E+03 0.  0.
         25    2    1    2    0    0  0.27331759220E+01  0.18692642403E+02  0.14102700256E+03  0.18937416145E+03  0.12496828574E+03 0.  0.
          5    1    3    3  502    0  0.33516231144E+02  0.35109556770E+02  0.84967950581E+02  0.97967654624E+02  0.47000000000E+01 0.  1.
         -5    1    3    3    0  502 -0.36249407066E+02 -0.53802199172E+02  0.25331149999E+02  0.69802960601E+02  0.47000000000E+01 0.  1.
          5    1    4    4  503    0  0.34458665049E+02  0.32303588931E+02  0.14659828964E+03  0.15409110935E+03  0.47000000000E+01 0. -1.
         -5    1    4    4    0  503 -0.31725489127E+02 -0.13610946529E+02 -0.55712870758E+01  0.35283052099E+02  0.47000000000E+01 0. -1.
<mgrwt>
<rscale>  0 0.12640928E+03</rscale>
<asrwt>0</asrwt>
<pdfrwt beam="1">  1        5 0.46805452E-01 0.12641633E+03</pdfrwt>
<pdfrwt beam="2">  1       -5 0.81398981E-02 0.12641633E+03</pdfrwt>
<totfact> 0.35248526E+02</totfact>
</mgrwt>
</event>
<event>
 8    1  0.1821556E-007  0.1251863E+03  0.7546771E-02  0.1234782E+00
          5   -1    0    0  501    0  0.00000000000E+00  0.00000000000E+00  0.93608605334E+03  0.93609785240E+03  0.47000000000E+01 0.  1.
         -5   -1    0    0    0  501 -0.00000000000E+00 -0.00000000000E+00 -0.16713436349E+02  0.17361709438E+02  0.47000000000E+01 0.  1.
         25    2    1    2    0    0 -0.67632901638E+01 -0.88850735545E+00  0.39552086236E+03  0.41485943706E+03  0.12500027368E+03 0.  0.
         25    2    1    2    0    0  0.67632901638E+01  0.88850735545E+00  0.52385175463E+03  0.53860012477E+03  0.12499160785E+03 0.  0.
          5    1    3    3  502    0 -0.84185017440E+01 -0.44120512358E+02  0.34599652057E+03  0.34893147326E+03  0.47000000000E+01 0.  1.
         -5    1    3    3    0  502  0.16552115802E+01  0.43232005002E+02  0.49524341786E+02  0.65927963804E+02  0.47000000000E+01 0.  1.
          5    1    4    4  503    0 -0.28296133545E+02  0.49442463649E+02  0.35060261967E+03  0.35523163613E+03  0.47000000000E+01 0.  1.
         -5    1    4    4    0  503  0.35059423709E+02 -0.48553956293E+02  0.17324913496E+03  0.18336848864E+03  0.47000000000E+01 0.  1.
<mgrwt>
<rscale>  0 0.12518410E+03</rscale>
<asrwt>0</asrwt>
<pdfrwt beam="1">  1        5 0.14406404E+00 0.12518626E+03</pdfrwt>
<pdfrwt beam="2">  1       -5 0.26220721E-02 0.12518626E+03</pdfrwt>
<totfact> 0.16410051E+02</totfact>
</mgrwt>
</event>
<event>
 8    1  0.1821556E-007  0.1317398E+03  0.7546771E-02  0.1224901E+00
          5   -1    0    0  501    0  0.00000000000E+00  0.00000000000E+00  0.70361478867E+03  0.70363048600E+03  0.47000000000E+01 0. -1.
         -5   -1    0    0    0  501 -0.00000000000E+00 -0.00000000000E+00 -0.26254641034E+02  0.26672011095E+02  0.47000000000E+01 0. -1.
         25    2    1    2    0    0  0.41350400954E+02 -0.43183453596E+01  0.24308158454E+03  0.27648514639E+03  0.12500750244E+03 0.  0.
         25    2    1    2    0    0 -0.41350400954E+02  0.43183453596E+01  0.43427856310E+03  0.45381735071E+03  0.12499525462E+03 0.  0.
          5    1    3    3  502    0 -0.43169103916E+02 -0.70562280817E+01  0.11299658101E+03  0.12125872838E+03  0.47000000000E+01 0.  1.
         -5    1    3    3    0  502  0.84519504869E+02  0.27378827221E+01  0.13008500353E+03  0.15522641801E+03  0.47000000000E+01 0.  1.
          5    1    4    4  503    0 -0.63138593924E+02 -0.86621803684E+01  0.41898593836E+03  0.42383112433E+03  0.47000000000E+01 0.  1.
         -5    1    4    4    0  503  0.21788192970E+02  0.12980525728E+02  0.15292624738E+02  0.29986226379E+02  0.47000000000E+01 0.  1.
<mgrwt>
<rscale>  0 0.13173691E+03</rscale>
<asrwt>0</asrwt>
<pdfrwt beam="1">  1        5 0.10828174E+00 0.13173982E+03</pdfrwt>
<pdfrwt beam="2">  1       -5 0.40724884E-02 0.13173982E+03</pdfrwt>
<totfact> 0.17053892E+02</totfact>
</mgrwt>
</event>
<event>
 8    1  0.1821556E-007  0.1285777E+03  0.7546771E-02  0.1229591E+00
          5   -1    0    0  501    0  0.00000000000E+00  0.00000000000E+00  0.57820500057E+03  0.57822410248E+03  0.47000000000E+01 0.  1.
         -5   -1    0    0    0  501 -0.00000000000E+00 -0.00000000000E+00 -0.29592002721E+02  0.29962920836E+02  0.47000000000E+01 0.  1.
         25    2    1    2    0    0  0.28217222763E+02  0.10373685464E+02  0.33562117779E+03  0.35940757131E+03  0.12501360853E+03 0.  0.
         25    2    1    2    0    0 -0.28217222763E+02 -0.10373685464E+02  0.21299182006E+03  0.24877945201E+03  0.12498750065E+03 0.  0.
          5    1    3    3  502    0 -0.58052928081E+01 -0.43759293053E+02  0.24137749143E+03  0.24542567209E+03  0.47000000000E+01 0. -1.
         -5    1    3    3    0  502  0.34022515571E+02  0.54132978516E+02  0.94243686362E+02  0.11398189921E+03  0.47000000000E+01 0. -1.
          5    1    4    4  503    0  0.37270959366E+01 -0.31163501318E+02  0.20758667815E+03  0.20999850953E+03  0.47000000000E+01 0. -1.
         -5    1    4    4    0  503 -0.31944318700E+02  0.20789815854E+02  0.54051419051E+01  0.38780942477E+02  0.47000000000E+01 0. -1.
<mgrwt>
<rscale>  0 0.12857136E+03</rscale>
<asrwt>0</asrwt>
<pdfrwt beam="1">  1        5 0.88984604E-01 0.12857771E+03</pdfrwt>
<pdfrwt beam="2">  1       -5 0.45826180E-02 0.12857771E+03</pdfrwt>
<totfact> 0.22392565E+02</totfact>
</mgrwt>
</event>
<event>
 8    1  0.1821556E-007  0.1390329E+03  0.7546771E-02  0.1214638E+00
         -5   -1    0    0    0  501 -0.00000000000E+00  0.00000000000E+00  0.11363947576E+03  0.11373662757E+03  0.47000000000E+01 0.  1.
          5   -1    0    0  501    0  0.00000000000E+00 -0.00000000000E+00 -0.17389164443E+03  0.17395514940E+03  0.47000000000E+01 0.  1.
         25    2    1    2    0    0 -0.31937394296E+02  0.51814975168E+02 -0.83186387775E+01  0.13927601093E+03  0.12499527457E+03 0.  0.
         25    2    1    2    0    0  0.31937394296E+02 -0.51814975168E+02 -0.51933529893E+02  0.14841576604E+03  0.12500143710E+03 0.  0.
          5    1    4    4  502    0  0.60852779589E+02 -0.62626664525E+02  0.42857995607E+00  0.87449605911E+02  0.47000000000E+01 0.  1.
         -5    1    4    4    0  502 -0.28915385294E+02  0.10811689357E+02 -0.52362109850E+02  0.60966160133E+02  0.47000000000E+01 0.  1.
          5    1    3    3  503    0 -0.37902737663E+02  0.36070158573E+02 -0.62906655442E+02  0.81957374047E+02  0.47000000000E+01 0. -1.
         -5    1    3    3    0  503  0.59653433673E+01  0.15744816594E+02  0.54588016664E+02  0.57318636886E+02  0.47000000000E+01 0. -1.
<mgrwt>
<rscale>  0 0.13903152E+03</rscale>
<asrwt>0</asrwt>
<pdfrwt beam="2">  1        5 0.26764919E-01 0.13903290E+03</pdfrwt>
<pdfrwt beam="1">  1       -5 0.17495355E-01 0.13903290E+03</pdfrwt>
<totfact> 0.28865943E+02</totfact>
</mgrwt>
</event>
<event>
 8    1  0.1821556E-007  0.1417071E+03  0.7546771E-02  0.1211056E+00
         -5   -1    0    0    0  501 -0.00000000000E+00  0.00000000000E+00  0.27038355235E+03  0.27042439864E+03  0.47000000000E+01 0. -1.
          5   -1    0    0  501    0  0.00000000000E+00 -0.00000000000E+00 -0.75193517247E+02  0.75340261720E+02  0.47000000000E+01 0. -1.
         25    2    1    2    0    0 -0.58472801888E+02 -0.32015523178E+02  0.11805487854E+03  0.18443932857E+03  0.12504738817E+03 0.  0.
         25    2    1    2    0    0  0.58472801888E+02  0.32015523178E+02  0.77135156560E+02  0.16132533180E+03  0.12502786896E+03 0.  0.
          5    1    3    3  502    0 -0.46847854934E+01 -0.31117774280E+01  0.12279493064E+03  0.12301347635E+03  0.47000000000E+01 0.  1.
         -5    1    3    3    0  502 -0.53788016395E+02 -0.28903745750E+02 -0.47400520952E+01  0.61425852212E+02  0.47000000000E+01 0.  1.
          5    1    4    4  503    0  0.44143182728E+02 -0.25251452005E+02  0.87395082851E+02  0.10122374680E+03  0.47000000000E+01 0. -1.
         -5    1    4    4    0  503  0.14329619160E+02  0.57266975183E+02 -0.10259926291E+02  0.60101584999E+02  0.47000000000E+01 0. -1.
<mgrwt>
<rscale>  0 0.14170283E+03</rscale>
<asrwt>0</asrwt>
<pdfrwt beam="2">  1        5 0.11582663E-01 0.14170713E+03</pdfrwt>
<pdfrwt beam="1">  1       -5 0.41611901E-01 0.14170713E+03</pdfrwt>
<totfact> 0.25350069E+02</totfact>
</mgrwt>
</event>
<event>
 8    1  0.1821556E-007  0.1340812E+03  0.7546771E-02  0.1221529E+00
         -5   -1    0    0    0  501 -0.00000000000E+00  0.00000000000E+00  0.56627655179E+03  0.56629605606E+03  0.47000000000E+01 0. -1.
          5   -1    0    0  501    0  0.00000000000E+00 -0.00000000000E+00 -0.32840307113E+02  0.33174926847E+02  0.47000000000E+01 0. -1.
         25    2    1    2    0    0 -0.53378054200E+00  0.48447544549E+02  0.32581406910E+03  0.35231772280E+03  0.12500208270E+03 0.  0.
         25    2    1    2    0    0  0.53378054200E+00 -0.48447544549E+02  0.20762217558E+03  0.24715326011E+03  0.12502126498E+03 0.  0.
          5    1    3    3  502    0  0.36550513271E+02  0.49913974860E+02  0.68996657857E+02  0.92789943971E+02  0.47000000000E+01 0. -1.
         -5    1    3    3    0  502 -0.37084293813E+02 -0.14664303103E+01  0.25681741124E+03  0.25952777882E+03  0.47000000000E+01 0. -1.
          5    1    4    4  503    0  0.40481015446E+02  0.11465825473E+02  0.21397004773E+02  0.47435214541E+02  0.47000000000E+01 0.  1.
         -5    1    4    4    0  503 -0.39947234904E+02 -0.59913370022E+02  0.18622517081E+03  0.19971804557E+03  0.47000000000E+01 0.  1.
<mgrwt>
<rscale>  0 0.13407672E+03</rscale>
<asrwt>0</asrwt>
<pdfrwt beam="2">  1        5 0.50795949E-02 0.13408119E+03</pdfrwt>
<pdfrwt beam="1">  1       -5 0.87146715E-01 0.13408119E+03</pdfrwt>
<totfact> 0.20125494E+02</totfact>
</mgrwt>
</event>
<event>
 8    1  0.1821556E-007  0.1414147E+03  0.7546771E-02  0.1211438E+00
         -5   -1    0    0    0  501 -0.00000000000E+00  0.00000000000E+00  0.22881967235E+03  0.22886793671E+03  0.47000000000E+01 0. -1.
          5   -1    0    0  501    0  0.00000000000E+00 -0.00000000000E+00 -0.97626168428E+02  0.97739238599E+02  0.47000000000E+01 0. -1.
         25    2    1    2    0    0 -0.11032815618E+02  0.65202305647E+02  0.11872314742E+03  0.18464366682E+03  0.12500013712E+03 0.  0.
         25    2    1    2    0    0  0.11032815618E+02 -0.65202305647E+02  0.12470356504E+02  0.14196350849E+03  0.12500025708E+03 0.  0.
          5    1    3    3  502    0  0.35783843052E+02 -0.22041166801E+02  0.34992844987E+02  0.54889759134E+02  0.47000000000E+01 0.  1.
         -5    1    3    3    0  502 -0.46816658670E+02  0.87243472447E+02  0.83730302429E+02  0.12975390768E+03  0.47000000000E+01 0.  1.
          5    1    4    4  503    0  0.62673561386E+02 -0.61838970845E+02 -0.13960582244E+01  0.88182042336E+02  0.47000000000E+01 0.  1.
         -5    1    4    4    0  503 -0.51640745768E+02 -0.33633348017E+01  0.13866414728E+02  0.53781466156E+02  0.47000000000E+01 0.  1.
<mgrwt>
<rscale>  0 0.14141471E+03</rscale>
<asrwt>0</asrwt>
<pdfrwt beam="2">  1        5 0.15031821E-01 0.14141474E+03</pdfrwt>
<pdfrwt beam="1">  1       -5 0.35215437E-01 0.14141474E+03</pdfrwt>
<totfact> 0.22308420E+02</totfact>
</mgrwt>
</event>
<event>
 8    1  0.1821556E-007  0.1460894E+03  0.7546771E-02  0.1205364E+00
         -5   -1    0    0    0  501 -0.00000000000E+00  0.00000000000E+00  0.75471747579E+02  0.75617952118E+02  0.47000000000E+01 0. -1.
          5   -1    0    0  501    0  0.00000000000E+00 -0.00000000000E+00 -0.31318860449E+03  0.31322386879E+03  0.47000000000E+01 0. -1.
         25    2    1    2    0    0  0.10051508004E+02  0.74937504810E+02 -0.57854674474E+02  0.15712823664E+03  0.12500182779E+03 0.  0.
         25    2    1    2    0    0 -0.10051508004E+02 -0.74937504810E+02 -0.17986218243E+03  0.23171358427E+03  0.12499647205E+03 0.  0.
          5    1    3    3  502    0  0.37823856526E+02 -0.73751749008E+01 -0.58401932855E+02  0.70127833907E+02  0.47000000000E+01 0.  1.
         -5    1    3    3    0  502 -0.27772348522E+02  0.82312679711E+02  0.54725838085E+00  0.87000402731E+02  0.47000000000E+01 0.  1.
          5    1    4    4  503    0 -0.25155186464E+02 -0.84978987516E+02 -0.52778835862E+02  0.10325651185E+03  0.47000000000E+01 0.  1.
         -5    1    4    4    0  503  0.15103678460E+02  0.10041482706E+02 -0.12708334657E+03  0.12845707242E+03  0.47000000000E+01 0.  1.
<mgrwt>
<rscale>  0 0.14608828E+03</rscale>
<asrwt>0</asrwt>
<pdfrwt beam="2">  1        5 0.48196821E-01 0.14608942E+03</pdfrwt>
<pdfrwt beam="1">  1       -5 0.11624997E-01 0.14608942E+03</pdfrwt>
<totfact> 0.18734672E+02</totfact>
</mgrwt>
</event>
<event>
 8    1  0.1821556E-007  0.1277042E+03  0.7546771E-02  0.1230925E+00
          5   -1    0    0  501    0  0.00000000000E+00  0.00000000000E+00  0.20491364539E+03  0.20496753906E+03  0.47000000000E+01 0. -1.
         -5   -1    0    0    0  501 -0.00000000000E+00 -0.00000000000E+00 -0.80337448908E+02  0.80474814054E+02  0.47000000000E+01 0. -1.
         25    2    1    2    0    0 -0.21605300198E+02  0.14813508256E+02  0.77564915804E+02  0.14941443588E+03  0.12498851333E+03 0.  0.
         25    2    1    2    0    0  0.21605300198E+02 -0.14813508256E+02  0.47011280678E+02  0.13602791723E+03  0.12492919887E+03 0.  0.
          5    1    3    3  502    0  0.21310590387E+02  0.25565730700E+02  0.95652817719E+02  0.10138687975E+03  0.47000000000E+01 0.  1.
         -5    1    3    3    0  502 -0.42915890585E+02 -0.10752222444E+02 -0.18087901915E+02  0.48027556130E+02  0.47000000000E+01 0.  1.
          5    1    4    4  503    0 -0.44058331152E+02 -0.80113334793E+00 -0.12649920709E+02  0.46085668624E+02  0.47000000000E+01 0.  1.
         -5    1    4    4    0  503  0.65663631350E+02 -0.14012374908E+02  0.59661201387E+02  0.89942248602E+02  0.47000000000E+01 0.  1.
<mgrwt>
<rscale>  0 0.12768966E+03</rscale>
<asrwt>0</asrwt>
<pdfrwt beam="1">  1        5 0.31539889E-01 0.12770418E+03</pdfrwt>
<pdfrwt beam="2">  1       -5 0.12374320E-01 0.12770418E+03</pdfrwt>
<totfact> 0.37995708E+02</totfact>
</mgrwt>
</event>
<event>
 8    1  0.1821556E-007  0.1327194E+03  0.7546771E-02  0.1223477E+00
         -5   -1    0    0    0  501 -0.00000000000E+00  0.00000000000E+00  0.10241633100E+04  0.10241740943E+04  0.47000000000E+01 0. -1.
          5   -1    0    0  501    0  0.00000000000E+00 -0.00000000000E+00 -0.17530964331E+02  0.18150060892E+02  0.47000000000E+01 0. -1.
         25    2    1    2    0    0 -0.44176403278E+02  0.60908517766E+01  0.60299967537E+03  0.61743263182E+03  0.12500317302E+03 0.  0.
         25    2    1    2    0    0  0.44176403278E+02 -0.60908517766E+01  0.40363267028E+03  0.42489152340E+03  0.12499928424E+03 0.  0.
          5    1    4    4  502    0  0.47897210942E+02  0.49989615295E+02  0.28794106735E+03  0.29618449102E+03  0.47000000000E+01 0. -1.
         -5    1    4    4    0  502 -0.37208076639E+01 -0.56080467072E+02  0.11569160293E+03  0.12870703239E+03  0.47000000000E+01 0. -1.
          5    1    3    3  503    0  0.42586236648E+02 -0.55716974670E+01  0.25022592666E+03  0.25392860362E+03  0.47000000000E+01 0.  1.
         -5    1    3    3    0  503 -0.86762639926E+02  0.11662549244E+02  0.35277374870E+03  0.36350402820E+03  0.47000000000E+01 0.  1.
<mgrwt>
<rscale>  0 0.13271851E+03</rscale>
<asrwt>0</asrwt>
<pdfrwt beam="2">  1        5 0.27455247E-02 0.13271943E+03</pdfrwt>
<pdfrwt beam="1">  1       -5 0.15761199E+00 0.13271943E+03</pdfrwt>
<totfact> 0.12163366E+02</totfact>
</mgrwt>
</event>
<event>
 8    1  0.1821556E-007  0.1638194E+03  0.7546771E-02  0.1184451E+00
          5   -1    0    0  501    0  0.00000000000E+00  0.00000000000E+00  0.33937956812E+03  0.33941211124E+03  0.47000000000E+01 0. -1.
         -5   -1    0    0    0  501 -0.00000000000E+00 -0.00000000000E+00 -0.89560166562E+02  0.89683406685E+02  0.47000000000E+01 0. -1.
         25    2    1    2    0    0  0.81479798386E+02  0.67622940968E+02  0.51198380259E+02  0.17163348759E+03  0.12499984092E+03 0.  0.
         25    2    1    2    0    0 -0.81479798386E+02 -0.67622940968E+02  0.19862102130E+03  0.25746203033E+03  0.12499826908E+03 0.  0.
          5    1    4    4  502    0 -0.76807878141E+02  0.45343186582E+01  0.15440081979E+03  0.17257379100E+03  0.47000000000E+01 0. -1.
         -5    1    4    4    0  502 -0.46719202454E+01 -0.72157259626E+02  0.44220201509E+02  0.84888239333E+02  0.47000000000E+01 0. -1.
          5    1    3    3  503    0  0.44750947055E+02 -0.40713460157E+00  0.77683957680E+02  0.89775833618E+02  0.47000000000E+01 0.  1.
         -5    1    3    3    0  503  0.36728851331E+02  0.68030075569E+02 -0.26485577421E+02  0.81857653969E+02  0.47000000000E+01 0.  1.
<mgrwt>
<rscale>  0 0.16381905E+03</rscale>
<asrwt>0</asrwt>
<pdfrwt beam="1">  1        5 0.52224225E-01 0.16381935E+03</pdfrwt>
<pdfrwt beam="2">  1       -5 0.13790470E-01 0.16381935E+03</pdfrwt>
<totfact> 0.12077821E+02</totfact>
</mgrwt>
</event>
<event>
 8    1  0.1821556E-007  0.1261421E+03  0.7546771E-02  0.1233296E+00
         -5   -1    0    0    0  501 -0.00000000000E+00  0.00000000000E+00  0.33582473203E+02  0.33909770073E+02  0.47000000000E+01 0. -1.
          5   -1    0    0  501    0  0.00000000000E+00 -0.00000000000E+00 -0.47327834037E+03  0.47330167701E+03  0.47000000000E+01 0. -1.
         25    2    1    2    0    0 -0.14533417831E+02 -0.87401861723E+01 -0.20291514030E+03  0.23892755463E+03  0.12499684440E+03 0.  0.
         25    2    1    2    0    0  0.14533417831E+02  0.87401861723E+01 -0.23678072686E+03  0.26828389245E+03  0.12499409285E+03 0.  0.
          5    1    3    3  502    0  0.42844930989E+02 -0.18702887908E+02 -0.28421671507E+02  0.54912362350E+02  0.47000000000E+01 0.  1.
         -5    1    3    3    0  502 -0.57378348819E+02  0.99627017359E+01 -0.17449346879E+03  0.18401519228E+03  0.47000000000E+01 0.  1.
          5    1    4    4  503    0  0.56608151983E+02 -0.25680658763E+02 -0.17544609991E+03  0.18619184483E+03  0.47000000000E+01 0. -1.
         -5    1    4    4    0  503 -0.42074734153E+02  0.34420844935E+02 -0.61334626953E+02  0.82092047627E+02  0.47000000000E+01 0. -1.
<mgrwt>
<rscale>  0 0.12614139E+03</rscale>
<asrwt>0</asrwt>
<pdfrwt beam="2">  1        5 0.72839020E-01 0.12614207E+03</pdfrwt>
<pdfrwt beam="1">  1       -5 0.51935065E-02 0.12614207E+03</pdfrwt>
<totfact> 0.28722598E+02</totfact>
</mgrwt>
</event>
<event>
 8    1  0.1821556E-007  0.1415965E+03  0.7546771E-02  0.1211200E+00
         -5   -1    0    0    0  501 -0.00000000000E+00  0.00000000000E+00  0.10967732307E+03  0.10977798138E+03  0.47000000000E+01 0. -1.
          5   -1    0    0  501    0  0.00000000000E+00 -0.00000000000E+00 -0.19206442530E+03  0.19212192343E+03  0.47000000000E+01 0. -1.
         25    2    1    2    0    0 -0.40467995978E+02 -0.52778053277E+02 -0.76607612929E+01  0.14179491936E+03  0.12499572107E+03 0.  0.
         25    2    1    2    0    0  0.40467995978E+02  0.52778053277E+02 -0.74726340931E+02  0.16010498546E+03  0.12500559481E+03 0.  0.
          5    1    4    4  502    0  0.57860699735E+02 -0.20618009756E+02 -0.53534791040E+02  0.81615113501E+02  0.47000000000E+01 0. -1.
         -5    1    4    4    0  502 -0.17392703757E+02  0.73396063033E+02 -0.21191549891E+02  0.78489871955E+02  0.47000000000E+01 0. -1.
          5    1    3    3  503    0 -0.32488169420E+02 -0.47369972054E+02  0.54138196260E+02  0.79072306777E+02  0.47000000000E+01 0.  1.
         -5    1    3    3    0  503 -0.79798265574E+01 -0.54080812227E+01 -0.61798957553E+02  0.62722612582E+02  0.47000000000E+01 0.  1.
<mgrwt>
<rscale>  0 0.14159436E+03</rscale>
<asrwt>0</asrwt>
<pdfrwt beam="2">  1        5 0.29560539E-01 0.14159654E+03</pdfrwt>
<pdfrwt beam="1">  1       -5 0.16885600E-01 0.14159654E+03</pdfrwt>
<totfact> 0.25549879E+02</totfact>
</mgrwt>
</event>
<event>
 8    1  0.1821556E-007  0.1275175E+03  0.7546771E-02  0.1231210E+00
         -5   -1    0    0    0  501 -0.00000000000E+00  0.00000000000E+00  0.63144483925E+02  0.63319158634E+02  0.47000000000E+01 0.  1.
          5   -1    0    0  501    0  0.00000000000E+00 -0.00000000000E+00 -0.25684035614E+03  0.25688335591E+03  0.47000000000E+01 0.  1.
         25    2    1    2    0    0 -0.57072819249E+01  0.24568412484E+02 -0.97408639346E+02  0.16046541479E+03  0.12499810545E+03 0.  0.
         25    2    1    2    0    0  0.57072819249E+01 -0.24568412484E+02 -0.96287232871E+02  0.15973709976E+03  0.12493410209E+03 0.  0.
          5    1    3    3  502    0 -0.11209103944E+02 -0.50402974681E+02 -0.33925874460E+02  0.61960945973E+02  0.47000000000E+01 0. -1.
         -5    1    3    3    0  502  0.55018220191E+01  0.74971387165E+02 -0.63482764886E+02  0.98504468815E+02  0.47000000000E+01 0. -1.
          5    1    4    4  503    0  0.81239865135E+01  0.30259993801E+02 -0.99637011770E+02  0.10455281200E+03  0.47000000000E+01 0.  1.
         -5    1    4    4    0  503 -0.24167045886E+01 -0.54828406285E+02  0.33497788995E+01  0.55184287759E+02  0.47000000000E+01 0.  1.
<mgrwt>
<rscale>  0 0.12750179E+03</rscale>
<asrwt>0</asrwt>
<pdfrwt beam="2">  1        5 0.39530644E-01 0.12751747E+03</pdfrwt>
<pdfrwt beam="1">  1       -5 0.97312803E-02 0.12751747E+03</pdfrwt>
<totfact> 0.36827826E+02</totfact>
</mgrwt>
</event>
<event>
 8    1  0.1821556E-007  0.1309780E+03  0.7546771E-02  0.1226044E+00
         -5   -1    0    0    0  501 -0.00000000000E+00  0.00000000000E+00  0.27342927018E+03  0.27346966156E+03  0.47000000000E+01 0.  1.
          5   -1    0    0  501    0  0.00000000000E+00 -0.00000000000E+00 -0.95640393259E+02  0.95755808297E+02  0.47000000000E+01 0.  1.
         25    2    1    2    0    0  0.11359646437E+02 -0.37115674141E+02  0.19737193975E+03  0.23687740709E+03  0.12509439857E+03 0.  0.
         25    2    1    2    0    0 -0.11359646437E+02  0.37115674141E+02 -0.19583062833E+02  0.13234806276E+03  0.12500359408E+03 0.  0.
          5    1    3    3  502    0 -0.12187592496E+01 -0.29585402799E+02  0.21290618928E+03  0.21500678331E+03  0.47000000000E+01 0. -1.
         -5    1    3    3    0  502  0.12578405687E+02 -0.75302713420E+01 -0.15534249530E+02  0.21870623781E+02  0.47000000000E+01 0. -1.
          5    1    4    4  503    0 -0.55453095020E+01  0.70179218575E+02 -0.50263107474E+02  0.86627611938E+02  0.47000000000E+01 0. -1.
         -5    1    4    4    0  503 -0.58143369351E+01 -0.33063544434E+02  0.30680044641E+02  0.45720450825E+02  0.47000000000E+01 0. -1.
<mgrwt>
<rscale>  0 0.13095626E+03</rscale>
<asrwt>0</asrwt>
<pdfrwt beam="2">  1        5 0.14725892E-01 0.13097795E+03</pdfrwt>
<pdfrwt beam="1">  1       -5 0.42078026E-01 0.13097795E+03</pdfrwt>
<totfact> 0.15711198E+02</totfact>
</mgrwt>
</event>
<event>
 8    1  0.1821556E-007  0.1543686E+03  0.7546771E-02  0.1195206E+00
          5   -1    0    0  501    0  0.00000000000E+00  0.00000000000E+00  0.32079695766E+03  0.32083138569E+03  0.47000000000E+01 0. -1.
         -5   -1    0    0    0  501 -0.00000000000E+00 -0.00000000000E+00 -0.86562002388E+02  0.86689504887E+02  0.47000000000E+01 0. -1.
         25    2    1    2    0    0  0.34888532711E+02  0.83581540521E+02  0.40097182912E+02  0.15949122594E+03  0.12500633361E+03 0.  0.
         25    2    1    2    0    0 -0.34888532711E+02 -0.83581540521E+02  0.19413777236E+03  0.24802966464E+03  0.12500462493E+03 0.  0.
          5    1    3    3  502    0  0.26805428021E+02 -0.13896961425E+02  0.52538027130E+02  0.60778209935E+02  0.47000000000E+01 0.  1.
         -5    1    3    3    0  502  0.80831046905E+01  0.97478501946E+02 -0.12440844217E+02  0.98713016001E+02  0.47000000000E+01 0.  1.
          5    1    4    4  503    0 -0.71612307710E+02 -0.30285629797E+02  0.15158739938E+03  0.17042996109E+03  0.47000000000E+01 0. -1.
         -5    1    4    4    0  503  0.36723774999E+02 -0.53295910725E+02  0.42550372984E+02  0.77599703551E+02  0.47000000000E+01 0. -1.
<mgrwt>
<rscale>  0 0.15436826E+03</rscale>
<asrwt>0</asrwt>
<pdfrwt beam="1">  1        5 0.49365834E-01 0.15436861E+03</pdfrwt>
<pdfrwt beam="2">  1       -5 0.13329687E-01 0.15436861E+03</pdfrwt>
<totfact> 0.14209395E+02</totfact>
</mgrwt>
</event>
<event>
 8    1  0.1821556E-007  0.1807665E+03  0.7546771E-02  0.1167066E+00
         -5   -1    0    0    0  501 -0.00000000000E+00  0.00000000000E+00  0.41748785443E+03  0.41751430945E+03  0.47000000000E+01 0.  1.
          5   -1    0    0  501    0  0.00000000000E+00 -0.00000000000E+00 -0.11991586508E+03  0.12000793598E+03  0.47000000000E+01 0.  1.
         25    2    1    2    0    0  0.12140595576E+03 -0.48086341586E+02  0.30727312986E+03  0.35649565280E+03  0.12498268595E+03 0.  0.
         25    2    1    2    0    0 -0.12140595576E+03  0.48086341586E+02 -0.97011405107E+01  0.18102659263E+03  0.12499925108E+03 0.  0.
          5    1    3    3  502    0  0.83670130259E+02 -0.57360278939E+02  0.89904986071E+02  0.13563144480E+03  0.47000000000E+01 0. -1.
         -5    1    3    3    0  502  0.37735825498E+02  0.92739373523E+01  0.21736814379E+03  0.22086420800E+03  0.47000000000E+01 0. -1.
          5    1    4    4  503    0 -0.12197931695E+03  0.78836158465E+02  0.74409448111E+01  0.14550447177E+03  0.47000000000E+01 0. -1.
         -5    1    4    4    0  503  0.57336119358E+00 -0.30749816878E+02 -0.17142085322E+02  0.35522120858E+02  0.47000000000E+01 0. -1.
<mgrwt>
<rscale>  0 0.18076360E+03</rscale>
<asrwt>0</asrwt>
<pdfrwt beam="2">  1        5 0.18457712E-01 0.18076647E+03</pdfrwt>
<pdfrwt beam="1">  1       -5 0.64238019E-01 0.18076647E+03</pdfrwt>
<totfact> 0.46376367E+01</totfact>
</mgrwt>
</event>
<event>
 8    1  0.1821556E-007  0.1638856E+03  0.7546771E-02  0.1184380E+00
         -5   -1    0    0    0  501 -0.00000000000E+00  0.00000000000E+00  0.35876679108E+03  0.35879757577E+03  0.47000000000E+01 0.  1.
          5   -1    0    0  501    0  0.00000000000E+00 -0.00000000000E+00 -0.76661778297E+02  0.76805717571E+02  0.47000000000E+01 0.  1.
         25    2    1    2    0    0 -0.47234581227E+02 -0.94878944121E+02  0.17537335119E+03  0.24002686680E+03  0.12499585903E+03 0.  0.
         25    2    1    2    0    0  0.47234581227E+02  0.94878944121E+02  0.10673166159E+03  0.19557642655E+03  0.12500148533E+03 0.  0.
          5    1    4    4  502    0  0.50610912131E+02  0.10188388980E+03  0.12868045687E+03  0.17182124842E+03  0.47000000000E+01 0.  1.
         -5    1    4    4    0  502 -0.33763309036E+01 -0.70049456811E+01 -0.21948795271E+02  0.23755178134E+02  0.47000000000E+01 0.  1.
          5    1    3    3  503    0 -0.13597941012E+02 -0.11395417147E+03  0.89097230319E+02  0.14536458869E+03  0.47000000000E+01 0.  1.
         -5    1    3    3    0  503 -0.33636640215E+02  0.19075227350E+02  0.86276120869E+02  0.94662278103E+02  0.47000000000E+01 0.  1.
<mgrwt>
<rscale>  0 0.16388453E+03</rscale>
<asrwt>0</asrwt>
<pdfrwt beam="2">  1        5 0.11807560E-01 0.16388560E+03</pdfrwt>
<pdfrwt beam="1">  1       -5 0.55208330E-01 0.16388560E+03</pdfrwt>
<totfact> 0.14146297E+02</totfact>
</mgrwt>
</event>
<event>
 8    1  0.1821556E-007  0.1348365E+03  0.7546771E-02  0.1220452E+00
          5   -1    0    0  501    0  0.00000000000E+00  0.00000000000E+00  0.89413911120E+02  0.89537352551E+02  0.47000000000E+01 0.  1.
         -5   -1    0    0    0  501 -0.00000000000E+00 -0.00000000000E+00 -0.21178939587E+03  0.21184154031E+03  0.47000000000E+01 0.  1.
         25    2    1    2    0    0  0.46548729465E+02 -0.19748511269E+02 -0.91805968907E+02  0.16312333525E+03  0.12499639460E+03 0.  0.
         25    2    1    2    0    0 -0.46548729465E+02  0.19748511269E+02 -0.30569515842E+02  0.13825555762E+03  0.12499326382E+03 0.  0.
          5    1    3    3  502    0  0.40568975932E+02  0.42480184860E+02 -0.95442274477E+01  0.59695813852E+02  0.47000000000E+01 0.  1.
         -5    1    3    3    0  502  0.59797535328E+01 -0.62228696129E+02 -0.82261741459E+02  0.10342752140E+03  0.47000000000E+01 0.  1.
          5    1    4    4  503    0 -0.57756263435E+02  0.30795487253E+02  0.32396317859E+02  0.73183054131E+02  0.47000000000E+01 0.  1.
         -5    1    4    4    0  503  0.11207533970E+02 -0.11046975984E+02 -0.62965833701E+02  0.65072503485E+02  0.47000000000E+01 0.  1.
<mgrwt>
<rscale>  0 0.13483579E+03</rscale>
<asrwt>0</asrwt>
<pdfrwt beam="1">  1        5 0.13769493E-01 0.13483652E+03</pdfrwt>
<pdfrwt beam="2">  1       -5 0.32596491E-01 0.13483652E+03</pdfrwt>
<totfact> 0.29999462E+02</totfact>
</mgrwt>
</event>
<event>
 8    1  0.1821556E-007  0.1289757E+03  0.7546771E-02  0.1228987E+00
          5   -1    0    0  501    0  0.00000000000E+00  0.00000000000E+00  0.45926718940E+03  0.45929123795E+03  0.47000000000E+01 0. -1.
         -5   -1    0    0    0  501 -0.00000000000E+00 -0.00000000000E+00 -0.36368357641E+02  0.36670798157E+02  0.47000000000E+01 0. -1.
         25    2    1    2    0    0 -0.15919639503E+02  0.27497882462E+02  0.18797974523E+03  0.22796631447E+03  0.12499074948E+03 0.  0.
         25    2    1    2    0    0  0.15919639503E+02 -0.27497882462E+02  0.23491908653E+03  0.26799572164E+03  0.12500064455E+03 0.  0.
          5    1    3    3  502    0 -0.53152453454E+01 -0.50017349645E+02  0.70036991357E+02  0.86355412436E+02  0.47000000000E+01 0.  1.
         -5    1    3    3    0  502 -0.10604394157E+02  0.77515232107E+02  0.11794275387E+03  0.14161090203E+03  0.47000000000E+01 0.  1.
          5    1    4    4  503    0  0.48327431079E+02 -0.43778538275E+02  0.21820140168E+03  0.22778508007E+03  0.47000000000E+01 0. -1.
         -5    1    4    4    0  503 -0.32407791576E+02  0.16280655814E+02  0.16717684853E+02  0.40210641569E+02  0.47000000000E+01 0. -1.
<mgrwt>
<rscale>  0 0.12897330E+03</rscale>
<asrwt>0</asrwt>
<pdfrwt beam="1">  1        5 0.70681608E-01 0.12897569E+03</pdfrwt>
<pdfrwt beam="2">  1       -5 0.56202462E-02 0.12897569E+03</pdfrwt>
<totfact> 0.27167974E+02</totfact>
</mgrwt>
</event>
<event>
 8    1  0.1821556E-007  0.1446365E+03  0.7546771E-02  0.1207229E+00
          5   -1    0    0  501    0  0.00000000000E+00  0.00000000000E+00  0.90233010881E+02  0.90355333283E+02  0.47000000000E+01 0. -1.
         -5   -1    0    0    0  501 -0.00000000000E+00 -0.00000000000E+00 -0.29487813219E+03  0.29491558596E+03  0.47000000000E+01 0. -1.
         25    2    1    2    0    0  0.71872152700E+02  0.11469464171E+02 -0.19159483832E+03  0.24004683501E+03  0.12496697957E+03 0.  0.
         25    2    1    2    0    0 -0.71872152700E+02 -0.11469464171E+02 -0.13050282989E+02  0.14522408424E+03  0.12499027888E+03 0.  0.
          5    1    4    4  502    0 -0.81233071463E+01  0.29929278397E+02  0.41155829302E+02  0.51745938101E+02  0.47000000000E+01 0. -1.
         -5    1    4    4    0  502 -0.63748845554E+02 -0.41398742568E+02 -0.54206112292E+02  0.93478146139E+02  0.47000000000E+01 0. -1.
          5    1    3    3  503    0  0.29474280848E+02  0.42523680016E+02 -0.12630020400E+02  0.53465914459E+02  0.47000000000E+01 0. -1.
         -5    1    3    3    0  503  0.42397871852E+02 -0.31054215845E+02 -0.17896481792E+03  0.18658092055E+03  0.47000000000E+01 0. -1.
<mgrwt>
<rscale>  0 0.14463149E+03</rscale>
<asrwt>0</asrwt>
<pdfrwt beam="1">  1        5 0.13894292E-01 0.14463653E+03</pdfrwt>
<pdfrwt beam="2">  1       -5 0.45378157E-01 0.14463653E+03</pdfrwt>
<totfact> 0.15417396E+02</totfact>
</mgrwt>
</event>
<event>
 8    1  0.1821556E-007  0.1325015E+03  0.7546771E-02  0.1223797E+00
          5   -1    0    0  501    0  0.00000000000E+00  0.00000000000E+00  0.56753891259E+03  0.56755837348E+03  0.47000000000E+01 0. -1.
         -5   -1    0    0    0  501 -0.00000000000E+00 -0.00000000000E+00 -0.34374441121E+02  0.34694267572E+02  0.47000000000E+01 0. -1.
         25    2    1    2    0    0  0.41941753325E+02 -0.12973733031E+02  0.16905325975E+03  0.21478184643E+03  0.12499923400E+03 0.  0.
         25    2    1    2    0    0 -0.41941753325E+02  0.12973733031E+02  0.36411121172E+03  0.38747079462E+03  0.12501685392E+03 0.  0.
          5    1    3    3  502    0  0.44868441470E+02 -0.30465041647E+02  0.18351622863E+03  0.19141993620E+03  0.47000000000E+01 0.  1.
         -5    1    3    3    0  502 -0.29266881446E+01  0.17491308616E+02 -0.14462968883E+02  0.23361910228E+02  0.47000000000E+01 0.  1.
          5    1    4    4  503    0 -0.17129188525E+02  0.18351498023E+02  0.33173908798E+01  0.25754255211E+02  0.47000000000E+01 0. -1.
         -5    1    4    4    0  503 -0.24812564800E+02 -0.53777649917E+01  0.36079382084E+03  0.36171653941E+03  0.47000000000E+01 0. -1.
<mgrwt>
<rscale>  0 0.13249732E+03</rscale>
<asrwt>0</asrwt>
<pdfrwt beam="1">  1        5 0.87339770E-01 0.13250148E+03</pdfrwt>
<pdfrwt beam="2">  1       -5 0.53144750E-02 0.13250148E+03</pdfrwt>
<totfact> 0.18497070E+02</totfact>
</mgrwt>
</event>
<event>
 8    1  0.1821556E-007  0.1519341E+03  0.7546771E-02  0.1198117E+00
          5   -1    0    0  501    0  0.00000000000E+00  0.00000000000E+00  0.51600496575E+03  0.51602637014E+03  0.47000000000E+01 0. -1.
         -5   -1    0    0    0  501 -0.00000000000E+00 -0.00000000000E+00 -0.44739594666E+02  0.44985790322E+02  0.47000000000E+01 0. -1.
         25    2    1    2    0    0 -0.40395985312E+01 -0.86270601502E+02  0.21943861058E+03  0.26690311577E+03  0.12500013742E+03 0.  0.
         25    2    1    2    0    0  0.40395985312E+01  0.86270601502E+02  0.25182676050E+03  0.29410904469E+03  0.12499791127E+03 0.  0.
          5    1    4    4  502    0 -0.28772740634E+02  0.89881989792E+02  0.95802465789E+02  0.13456167784E+03  0.47000000000E+01 0.  1.
         -5    1    4    4    0  502  0.32812339165E+02 -0.36113882895E+01  0.15602429471E+03  0.15954736685E+03  0.47000000000E+01 0.  1.
          5    1    3    3  503    0  0.41891272183E+02  0.37312104725E+01  0.29110175039E+02  0.51364315507E+02  0.47000000000E+01 0.  1.
         -5    1    3    3    0  503 -0.45930870714E+02 -0.90001811975E+02  0.19032843554E+03  0.21553880026E+03  0.47000000000E+01 0.  1.
<mgrwt>
<rscale>  0 0.15193364E+03</rscale>
<asrwt>0</asrwt>
<pdfrwt beam="1">  1        5 0.79405960E-01 0.15193410E+03</pdfrwt>
<pdfrwt beam="2">  1       -5 0.69035995E-02 0.15193410E+03</pdfrwt>
<totfact> 0.15555847E+02</totfact>
</mgrwt>
</event>
<event>
 8    1  0.1821556E-007  0.1978589E+03  0.7546771E-02  0.1151560E+00
         -5   -1    0    0    0  501 -0.00000000000E+00  0.00000000000E+00  0.22287153385E+03  0.22292108604E+03  0.47000000000E+01 0.  1.
          5   -1    0    0  501    0  0.00000000000E+00 -0.00000000000E+00 -0.18601367421E+03  0.18607304209E+03  0.47000000000E+01 0.  1.
         25    2    1    2    0    0 -0.11415096011E+03 -0.10243022497E+03  0.66923180601E+02  0.20886401223E+03  0.12499228306E+03 0.  0.
         25    2    1    2    0    0  0.11415096011E+03  0.10243022497E+03 -0.30065320963E+02  0.20013011590E+03  0.12500298831E+03 0.  0.
          5    1    3    3  502    0  0.15582663498E+02 -0.24300754736E+02  0.47947901086E+02  0.56164377509E+02  0.47000000000E+01 0.  1.
         -5    1    3    3    0  502 -0.12973362360E+03 -0.78129470232E+02  0.18975279515E+02  0.15269963472E+03  0.47000000000E+01 0.  1.
          5    1    4    4  503    0  0.76901448196E+02 -0.10240434291E+02 -0.23456169047E+02  0.81184857550E+02  0.47000000000E+01 0. -1.
         -5    1    4    4    0  503  0.37249511910E+02  0.11267065926E+03 -0.66091519163E+01  0.11894525835E+03  0.47000000000E+01 0. -1.
<mgrwt>
<rscale>  0 0.19785720E+03</rscale>
<asrwt>0</asrwt>
<pdfrwt beam="2">  1        5 0.28625867E-01 0.19785889E+03</pdfrwt>
<pdfrwt beam="1">  1       -5 0.34296307E-01 0.19785889E+03</pdfrwt>
<totfact> 0.77509082E+01</totfact>
</mgrwt>
</event>
<event>
 8    1  0.1821556E-007  0.1283677E+03  0.7546771E-02  0.1229901E+00
         -5   -1    0    0    0  501 -0.00000000000E+00  0.00000000000E+00  0.19915506818E+02  0.20462585658E+02  0.47000000000E+01 0. -1.
          5   -1    0    0  501    0  0.00000000000E+00 -0.00000000000E+00 -0.83089085842E+03  0.83090415128E+03  0.47000000000E+01 0. -1.
         25    2    1    2    0    0  0.44826674121E+01 -0.28860725114E+02 -0.34776388817E+03  0.37069932931E+03  0.12500094029E+03 0.  0.
         25    2    1    2    0    0 -0.44826674121E+01  0.28860725114E+02 -0.46321146343E+03  0.48066740762E+03  0.12499304435E+03 0.  0.
          5    1    3    3  502    0  0.17370373602E+02  0.42683531004E+02 -0.20793782172E+03  0.21303483612E+03  0.47000000000E+01 0.  1.
         -5    1    3    3    0  502 -0.12887706190E+02 -0.71544256118E+02 -0.13982606645E+03  0.15766449319E+03  0.47000000000E+01 0.  1.
          5    1    4    4  503    0 -0.22009537489E+02  0.36674221863E+02 -0.45829166360E+03  0.46030724219E+03  0.47000000000E+01 0. -1.
         -5    1    4    4    0  503  0.17526870077E+02 -0.78134967494E+01 -0.49197998368E+01  0.20360165436E+02  0.47000000000E+01 0. -1.
<mgrwt>
<rscale>  0 0.12836580E+03</rscale>
<asrwt>0</asrwt>
<pdfrwt beam="2">  1        5 0.12787244E+00 0.12836772E+03</pdfrwt>
<pdfrwt beam="1">  1       -5 0.31070303E-02 0.12836772E+03</pdfrwt>
<totfact> 0.17242737E+02</totfact>
</mgrwt>
</event>
<event>
 8    1  0.1821556E-007  0.1592876E+03  0.7546771E-02  0.1189504E+00
         -5   -1    0    0    0  501 -0.00000000000E+00  0.00000000000E+00  0.53375889523E+03  0.53377958769E+03  0.47000000000E+01 0. -1.
          5   -1    0    0  501    0  0.00000000000E+00 -0.00000000000E+00 -0.51623832860E+02  0.51837342902E+02  0.47000000000E+01 0. -1.
         25    2    1    2    0    0 -0.85348907746E+02 -0.49628701400E+02  0.32465375802E+03  0.36162494592E+03  0.12500037942E+03 0.  0.
         25    2    1    2    0    0  0.85348907746E+02  0.49628701400E+02  0.15748130435E+03  0.22399198468E+03  0.12499841569E+03 0.  0.
          5    1    3    3  502    0 -0.10512046880E+03  0.16754846699E+00  0.22477219485E+03  0.24818334072E+03  0.47000000000E+01 0. -1.
         -5    1    3    3    0  502  0.19771561056E+02 -0.49796249867E+02  0.99881563173E+02  0.11344160519E+03  0.47000000000E+01 0. -1.
          5    1    4    4  503    0  0.10547870258E+03  0.60599609709E+02  0.15933239781E+03  0.20051676336E+03  0.47000000000E+01 0. -1.
         -5    1    4    4    0  503 -0.20129794831E+02 -0.10970908310E+02 -0.18510934666E+01  0.23475221321E+02  0.47000000000E+01 0. -1.
<mgrwt>
<rscale>  0 0.15928721E+03</rscale>
<asrwt>0</asrwt>
<pdfrwt beam="2">  1        5 0.79601437E-02 0.15928760E+03</pdfrwt>
<pdfrwt beam="1">  1       -5 0.82134769E-01 0.15928760E+03</pdfrwt>
<totfact> 0.11444825E+02</totfact>
</mgrwt>
</event>
<event>
 8    1  0.1821556E-007  0.1866953E+03  0.7546771E-02  0.1161478E+00
         -5   -1    0    0    0  501 -0.00000000000E+00  0.00000000000E+00  0.71020257522E+03  0.71021812695E+03  0.47000000000E+01 0.  1.
          5   -1    0    0  501    0  0.00000000000E+00 -0.00000000000E+00 -0.48952290160E+02  0.49177400419E+02  0.47000000000E+01 0.  1.
         25    2    1    2    0    0  0.79741168269E+02 -0.11344715349E+03  0.32654791814E+03  0.37614982496E+03  0.12500494960E+03 0.  0.
         25    2    1    2    0    0 -0.79741168269E+02  0.11344715349E+03  0.33470236692E+03  0.38324570240E+03  0.12499073342E+03 0.  0.
          5    1    4    4  502    0 -0.93491332336E+02  0.99164256890E+02  0.17309596763E+03  0.22035989444E+03  0.47000000000E+01 0.  1.
         -5    1    4    4    0  502  0.13750164067E+02  0.14282896596E+02  0.16160639929E+03  0.16288580797E+03  0.47000000000E+01 0.  1.
          5    1    3    3  503    0  0.15997488227E+02 -0.85999397702E+02  0.75511720487E+02  0.11565433829E+03  0.47000000000E+01 0.  1.
         -5    1    3    3    0  503  0.63743680041E+02 -0.27447755784E+02  0.25103619766E+03  0.26049548667E+03  0.47000000000E+01 0.  1.
<mgrwt>
<rscale>  0 0.18669295E+03</rscale>
<asrwt>0</asrwt>
<pdfrwt beam="2">  1        5 0.75496342E-02 0.18669533E+03</pdfrwt>
<pdfrwt beam="1">  1       -5 0.10928044E+00 0.18669533E+03</pdfrwt>
<totfact> 0.65800883E+01</totfact>
</mgrwt>
</event>
<event>
 8    1  0.1821556E-007  0.1280595E+03  0.7546771E-02  0.1230365E+00
         -5   -1    0    0    0  501 -0.00000000000E+00  0.00000000000E+00  0.22271329953E+03  0.22276288692E+03  0.47000000000E+01 0.  1.
          5   -1    0    0  501    0  0.00000000000E+00 -0.00000000000E+00 -0.10126859508E+03  0.10137760280E+03  0.47000000000E+01 0.  1.
         25    2    1    2    0    0  0.41239049036E+01  0.27519866022E+02  0.14551687943E+03  0.19384115916E+03  0.12499953267E+03 0.  0.
         25    2    1    2    0    0 -0.41239049036E+01 -0.27519866022E+02 -0.24072174982E+02  0.13029933056E+03  0.12499638522E+03 0.  0.
          5    1    3    3  502    0  0.32983830726E+02 -0.39750211936E+02  0.80844678360E+02  0.96051884195E+02  0.47000000000E+01 0. -1.
         -5    1    3    3    0  502 -0.28859925823E+02  0.67270077958E+02  0.64672201070E+02  0.97789274965E+02  0.47000000000E+01 0. -1.
          5    1    4    4  503    0  0.38021391757E+02 -0.60948358166E+02 -0.21502858099E+01  0.72021124147E+02  0.47000000000E+01 0.  1.
         -5    1    4    4    0  503 -0.42145296661E+02  0.33428492144E+02 -0.21921889172E+02  0.58278206411E+02  0.47000000000E+01 0.  1.
<mgrwt>
<rscale>  0 0.12805872E+03</rscale>
<asrwt>0</asrwt>
<pdfrwt beam="2">  1        5 0.15591984E-01 0.12805949E+03</pdfrwt>
<pdfrwt beam="1">  1       -5 0.34275784E-01 0.12805949E+03</pdfrwt>
<totfact> 0.21298094E+02</totfact>
</mgrwt>
</event>
<event>
 8    1  0.1821556E-007  0.1329989E+03  0.7546771E-02  0.1223074E+00
         -5   -1    0    0    0  501 -0.00000000000E+00  0.00000000000E+00  0.73195390062E+03  0.73196899022E+03  0.47000000000E+01 0.  1.
          5   -1    0    0  501    0  0.00000000000E+00 -0.00000000000E+00 -0.24135500311E+02  0.24588866897E+02  0.47000000000E+01 0.  1.
         25    2    1    2    0    0 -0.44714766119E+02 -0.80571496498E+01  0.38914967199E+03  0.41124861611E+03  0.12499451616E+03 0.  0.
         25    2    1    2    0    0  0.44714766119E+02  0.80571496498E+01  0.31866872832E+03  0.34530924101E+03  0.12499754215E+03 0.  0.
          5    1    4    4  502    0  0.39774387292E+02 -0.47356965559E+02  0.85978448676E+02  0.10601446933E+03  0.47000000000E+01 0.  1.
         -5    1    4    4    0  502  0.49403788262E+01  0.55414115209E+02  0.23269027965E+03  0.23929477167E+03  0.47000000000E+01 0.  1.
          5    1    3    3  503    0  0.83836028802E+01  0.54913582939E+01  0.33108466754E+03  0.33126965887E+03  0.47000000000E+01 0. -1.
         -5    1    3    3    0  503 -0.53098368999E+02 -0.13548507944E+02  0.58065004454E+02  0.79978957233E+02  0.47000000000E+01 0. -1.
<mgrwt>
<rscale>  0 0.13299821E+03</rscale>
<asrwt>0</asrwt>
<pdfrwt beam="2">  1        5 0.37491890E-02 0.13299892E+03</pdfrwt>
<pdfrwt beam="1">  1       -5 0.11264433E+00 0.13299892E+03</pdfrwt>
<totfact> 0.17755964E+02</totfact>
</mgrwt>
</event>
<event>
 8    1  0.1821556E-007  0.1347342E+03  0.7546771E-02  0.1220599E+00
          5   -1    0    0  501    0  0.00000000000E+00  0.00000000000E+00  0.37140653386E+02  0.37436855289E+02  0.47000000000E+01 0. -1.
         -5   -1    0    0    0  501 -0.00000000000E+00 -0.00000000000E+00 -0.49763565745E+03  0.49765785191E+03  0.47000000000E+01 0. -1.
         25    2    1    2    0    0 -0.13075278235E+02 -0.48537246638E+02 -0.27029349292E+03  0.30201306116E+03  0.12500595819E+03 0.  0.
         25    2    1    2    0    0  0.13075278235E+02  0.48537246638E+02 -0.19020151114E+03  0.23308164604E+03  0.12499444655E+03 0.  0.
          5    1    3    3  502    0  0.12315345954E+02 -0.30275471640E+02 -0.33360840594E+01  0.33188723775E+02  0.47000000000E+01 0.  1.
         -5    1    3    3    0  502 -0.25390624189E+02 -0.18261774998E+02 -0.26695740886E+03  0.26882433738E+03  0.47000000000E+01 0.  1.
          5    1    4    4  503    0  0.18785540562E+02  0.23379806844E+02 -0.20204221333E+03  0.20431020011E+03  0.47000000000E+01 0.  1.
         -5    1    4    4    0  503 -0.57102623270E+01  0.25157439793E+02  0.11840702184E+02  0.28771445932E+02  0.47000000000E+01 0.  1.
<mgrwt>
<rscale>  0 0.13473157E+03</rscale>
<asrwt>0</asrwt>
<pdfrwt beam="1">  1        5 0.57384391E-02 0.13473425E+03</pdfrwt>
<pdfrwt beam="2">  1       -5 0.76583819E-01 0.13473425E+03</pdfrwt>
<totfact> 0.22203103E+02</totfact>
</mgrwt>
</event>
<event>
 8    1  0.1821556E-007  0.1385966E+03  0.7546771E-02  0.1215231E+00
          5   -1    0    0  501    0  0.00000000000E+00  0.00000000000E+00  0.54833378712E+03  0.54835392959E+03  0.47000000000E+01 0.  1.
         -5   -1    0    0    0  501 -0.00000000000E+00 -0.00000000000E+00 -0.36132094933E+02  0.36436496597E+02  0.47000000000E+01 0.  1.
         25    2    1    2    0    0  0.53796659326E+02 -0.26252110065E+02  0.20132755618E+03  0.24442133859E+03  0.12500300814E+03 0.  0.
         25    2    1    2    0    0 -0.53796659326E+02  0.26252110065E+02  0.31087413601E+03  0.34036908759E+03  0.12500053405E+03 0.  0.
          5    1    3    3  502    0  0.52728081068E+02  0.26422720565E+02  0.17618718115E+03  0.18585592134E+03  0.47000000000E+01 0.  1.
         -5    1    3    3    0  502  0.10685782583E+01 -0.52674830630E+02  0.25140375027E+02  0.58565417252E+02  0.47000000000E+01 0.  1.
          5    1    4    4  503    0 -0.16782500671E+02  0.73505004921E+02  0.13819593579E+03  0.15749553881E+03  0.47000000000E+01 0. -1.
         -5    1    4    4    0  503 -0.37014158655E+02 -0.47252894856E+02  0.17267820022E+03  0.18287354878E+03  0.47000000000E+01 0. -1.
<mgrwt>
<rscale>  0 0.13859600E+03</rscale>
<asrwt>0</asrwt>
<pdfrwt beam="1">  1        5 0.84384010E-01 0.13859656E+03</pdfrwt>
<pdfrwt beam="2">  1       -5 0.55837487E-02 0.13859656E+03</pdfrwt>
<totfact> 0.18742180E+02</totfact>
</mgrwt>
</event>
<event>
 8    1  0.1821556E-007  0.1362916E+03  0.7546771E-02  0.1218408E+00
          5   -1    0    0  501    0  0.00000000000E+00  0.00000000000E+00  0.46792248807E+02  0.47027699799E+02  0.47000000000E+01 0. -1.
         -5   -1    0    0    0  501 -0.00000000000E+00 -0.00000000000E+00 -0.40771101624E+03  0.40773810561E+03  0.47000000000E+01 0. -1.
         25    2    1    2    0    0  0.49165858230E+02 -0.23096583384E+02 -0.21942810902E+03  0.25830969538E+03  0.12499787966E+03 0.  0.
         25    2    1    2    0    0 -0.49165858230E+02  0.23096583384E+02 -0.14149065842E+03  0.19645611003E+03  0.12499865187E+03 0.  0.
          5    1    4    4  502    0 -0.66640489625E+02 -0.35010351686E+02 -0.79378713865E+02  0.10949771595E+03  0.47000000000E+01 0.  1.
         -5    1    4    4    0  502  0.17474631394E+02  0.58106935071E+02 -0.62111944553E+02  0.86958394085E+02  0.47000000000E+01 0.  1.
          5    1    3    3  503    0 -0.17232772816E+02  0.13333985014E+02  0.37326641284E+01  0.22600583992E+02  0.47000000000E+01 0. -1.
         -5    1    3    3    0  503  0.66398631047E+02 -0.36430568398E+02 -0.22316077315E+03  0.23570911139E+03  0.47000000000E+01 0. -1.
<mgrwt>
<rscale>  0 0.13629141E+03</rscale>
<asrwt>0</asrwt>
<pdfrwt beam="1">  1        5 0.72190032E-02 0.13629159E+03</pdfrwt>
<pdfrwt beam="2">  1       -5 0.62744965E-01 0.13629159E+03</pdfrwt>
<totfact> 0.23681781E+02</totfact>
</mgrwt>
</event>
<event>
 8    1  0.1821556E-007  0.1532965E+03  0.7546771E-02  0.1196481E+00
         -5   -1    0    0    0  501 -0.00000000000E+00  0.00000000000E+00  0.14573688488E+03  0.14581265245E+03  0.47000000000E+01 0.  1.
          5   -1    0    0  501    0  0.00000000000E+00 -0.00000000000E+00 -0.16866474469E+03  0.16873021691E+03  0.47000000000E+01 0.  1.
         25    2    1    2    0    0 -0.88511300454E+02 -0.63237012906E+01  0.21843394552E+02  0.15484231095E+03  0.12499907148E+03 0.  0.
         25    2    1    2    0    0  0.88511300454E+02  0.63237012906E+01 -0.44771254354E+02  0.15970055841E+03  0.12500225452E+03 0.  0.
          5    1    3    3  502    0 -0.77064225153E+02  0.22023145939E+02  0.63917311334E+02  0.10262273843E+03  0.47000000000E+01 0.  1.
         -5    1    3    3    0  502 -0.11447075301E+02 -0.28346847230E+02 -0.42073916781E+02  0.52219572520E+02  0.47000000000E+01 0.  1.
          5    1    4    4  503    0  0.10451060882E+03  0.40668027598E+02 -0.46474971761E+02  0.12148402704E+03  0.47000000000E+01 0. -1.
         -5    1    4    4    0  503 -0.15999308366E+02 -0.34344326307E+02  0.17037174073E+01  0.38216531379E+02  0.47000000000E+01 0. -1.
<mgrwt>
<rscale>  0 0.15329581E+03</rscale>
<asrwt>0</asrwt>
<pdfrwt beam="2">  1        5 0.25959287E-01 0.15329646E+03</pdfrwt>
<pdfrwt beam="1">  1       -5 0.22431924E-01 0.15329646E+03</pdfrwt>
<totfact> 0.19894389E+02</totfact>
</mgrwt>
</event>
<event>
 8    1  0.1821556E-007  0.1295112E+03  0.7546771E-02  0.1228195E+00
          5   -1    0    0  501    0  0.00000000000E+00  0.00000000000E+00  0.14571907019E+02  0.15311122564E+02  0.47000000000E+01 0.  1.
         -5   -1    0    0    0  501 -0.00000000000E+00 -0.00000000000E+00 -0.23357467913E+04  0.23357515200E+04  0.47000000000E+01 0.  1.
         25    2    1    2    0    0  0.32303951364E+02  0.10242860681E+02 -0.20080674332E+04  0.20122395425E+04  0.12499879443E+03 0.  0.
         25    2    1    2    0    0 -0.32303951364E+02 -0.10242860681E+02 -0.31310745105E+03  0.33882310002E+03  0.12496541816E+03 0.  0.
          5    1    3    3  502    0 -0.13098094491E+02 -0.62063544908E+01 -0.30664804431E+02  0.34241774868E+02  0.47000000000E+01 0.  1.
         -5    1    3    3    0  502  0.45402045855E+02  0.16449215171E+02 -0.19774026288E+04  0.19779977676E+04  0.47000000000E+01 0.  1.
          5    1    4    4  503    0 -0.58351759067E+02 -0.52481354684E+02 -0.17047027583E+03  0.18772699677E+03  0.47000000000E+01 0.  1.
         -5    1    4    4    0  503  0.26047807703E+02  0.42238494004E+02 -0.14263717522E+03  0.15109610324E+03  0.47000000000E+01 0.  1.
<mgrwt>
<rscale>  0 0.12950318E+03</rscale>
<asrwt>0</asrwt>
<pdfrwt beam="1">  1        5 0.22990602E-02 0.12951124E+03</pdfrwt>
<pdfrwt beam="2">  1       -5 0.35940260E+00 0.12951124E+03</pdfrwt>
<totfact> 0.75989855E+00</totfact>
</mgrwt>
</event>
<event>
 8    1  0.1821556E-007  0.1388126E+03  0.7546771E-02  0.1214936E+00
         -5   -1    0    0    0  501 -0.00000000000E+00  0.00000000000E+00  0.12174610512E+03  0.12183679293E+03  0.47000000000E+01 0. -1.
          5   -1    0    0  501    0  0.00000000000E+00 -0.00000000000E+00 -0.16194231253E+03  0.16201050148E+03  0.47000000000E+01 0. -1.
         25    2    1    2    0    0 -0.56073587068E+02 -0.22362688555E+02  0.17951628057E+01  0.13882422510E+03  0.12499842342E+03 0.  0.
         25    2    1    2    0    0  0.56073587068E+02  0.22362688555E+02 -0.41991370215E+02  0.14502306931E+03  0.12499631376E+03 0.  0.
          5    1    4    4  502    0  0.49291160249E+02 -0.32400014131E+02 -0.62405491053E+02  0.85999504115E+02  0.47000000000E+01 0. -1.
         -5    1    4    4    0  502  0.67824268186E+01  0.54762702686E+02  0.20414120838E+02  0.59023565197E+02  0.47000000000E+01 0. -1.
          5    1    3    3  503    0 -0.48494765968E+02  0.33817509533E+02  0.38883151467E+02  0.70917950798E+02  0.47000000000E+01 0.  1.
         -5    1    3    3    0  503 -0.75788210997E+01 -0.56180198088E+02 -0.37087988661E+02  0.67906274301E+02  0.47000000000E+01 0.  1.
<mgrwt>
<rscale>  0 0.13881214E+03</rscale>
<asrwt>0</asrwt>
<pdfrwt beam="2">  1        5 0.24926423E-01 0.13881262E+03</pdfrwt>
<pdfrwt beam="1">  1       -5 0.18742391E-01 0.13881262E+03</pdfrwt>
<totfact> 0.29135636E+02</totfact>
</mgrwt>
</event>
<event>
 8    1  0.1821556E-007  0.1465183E+03  0.7546771E-02  0.1204821E+00
         -5   -1    0    0    0  501 -0.00000000000E+00  0.00000000000E+00  0.36805010962E+03  0.36808011789E+03  0.47000000000E+01 0. -1.
          5   -1    0    0  501    0  0.00000000000E+00 -0.00000000000E+00 -0.68542159260E+02  0.68703111982E+02  0.47000000000E+01 0. -1.
         25    2    1    2    0    0  0.74434626115E+02  0.17269008495E+02  0.23446821340E+03  0.27647796395E+03  0.12500395689E+03 0.  0.
         25    2    1    2    0    0 -0.74434626115E+02 -0.17269008495E+02  0.65039736958E+02  0.16030526592E+03  0.12501551376E+03 0.  0.
          5    1    3    3  502    0 -0.25948118630E+02 -0.27614073608E+01  0.11978799210E+03  0.12268733953E+03  0.47000000000E+01 0.  1.
         -5    1    3    3    0  502  0.10038274475E+03  0.20030415856E+02  0.11468022130E+03  0.15379062442E+03  0.47000000000E+01 0.  1.
          5    1    4    4  503    0 -0.10002614764E+03 -0.66682724671E+01  0.13041781917E+02  0.10120214497E+03  0.47000000000E+01 0.  1.
         -5    1    4    4    0  503  0.25591521528E+02 -0.10600736028E+02  0.51997955041E+02  0.59103120957E+02  0.47000000000E+01 0.  1.
<mgrwt>
<rscale>  0 0.14651583E+03</rscale>
<asrwt>0</asrwt>
<pdfrwt beam="2">  1        5 0.10559637E-01 0.14651830E+03</pdfrwt>
<pdfrwt beam="1">  1       -5 0.56637783E-01 0.14651830E+03</pdfrwt>
<totfact> 0.15731381E+02</totfact>
</mgrwt>
</event>
<event>
 8    1  0.1821556E-007  0.1532324E+03  0.7546771E-02  0.1196556E+00
          5   -1    0    0  501    0  0.00000000000E+00  0.00000000000E+00  0.83685016651E+03  0.83686336471E+03  0.47000000000E+01 0. -1.
         -5   -1    0    0    0  501 -0.00000000000E+00 -0.00000000000E+00 -0.28164556764E+02  0.28554023494E+02  0.47000000000E+01 0. -1.
         25    2    1    2    0    0  0.68977133427E+02  0.55652324821E+02  0.35875347624E+03  0.39010797920E+03  0.12500061011E+03 0.  0.
         25    2    1    2    0    0 -0.68977133427E+02 -0.55652324821E+02  0.44993213351E+03  0.47530940900E+03  0.12500033331E+03 0.  0.
          5    1    4    4  502    0 -0.71433659359E+02 -0.21450705138E+02  0.42768590110E+03  0.43416612079E+03  0.47000000000E+01 0. -1.
         -5    1    4    4    0  502  0.24565259322E+01 -0.34201619683E+02  0.22246232407E+02  0.41143288212E+02  0.47000000000E+01 0. -1.
          5    1    3    3  503    0  0.69198760584E+02  0.11912192773E+02  0.74547189135E+02  0.10251703376E+03  0.47000000000E+01 0. -1.
         -5    1    3    3    0  503 -0.22162715729E+00  0.43740132048E+02  0.28420628710E+03  0.28759094544E+03  0.47000000000E+01 0. -1.
<mgrwt>
<rscale>  0 0.15323238E+03</rscale>
<asrwt>0</asrwt>
<pdfrwt beam="1">  1        5 0.12877717E+00 0.15323243E+03</pdfrwt>
<pdfrwt beam="2">  1       -5 0.43639825E-02 0.15323243E+03</pdfrwt>
<totfact> 0.10286895E+02</totfact>
</mgrwt>
</event>
<event>
 8    1  0.1821556E-007  0.1252991E+03  0.7546771E-02  0.1234604E+00
          5   -1    0    0  501    0  0.00000000000E+00  0.00000000000E+00  0.20444205004E+02  0.20977500286E+02  0.47000000000E+01 0.  1.
         -5   -1    0    0    0  501 -0.00000000000E+00 -0.00000000000E+00 -0.76138684095E+03  0.76140134724E+03  0.47000000000E+01 0.  1.
         25    2    1    2    0    0 -0.69485875321E+01  0.51361710784E+01 -0.39845403223E+03  0.41768949949E+03  0.12499695621E+03 0.  0.
         25    2    1    2    0    0  0.69485875321E+01 -0.51361710784E+01 -0.34248860372E+03  0.36468934803E+03  0.12500085508E+03 0.  0.
          5    1    4    4  502    0 -0.41442063438E+02 -0.26598505990E+02 -0.27172763531E+03  0.27619363305E+03  0.47000000000E+01 0.  1.
         -5    1    4    4    0  502  0.48390650970E+02  0.21462334912E+02 -0.70760968404E+02  0.88495714985E+02  0.47000000000E+01 0.  1.
          5    1    3    3  503    0 -0.28863859577E+01 -0.26868407155E+02 -0.12128119407E+02  0.29990395251E+02  0.47000000000E+01 0. -1.
         -5    1    3    3    0  503 -0.40622015744E+01  0.32004578234E+02 -0.38632591282E+03  0.38769910424E+03  0.47000000000E+01 0. -1.
<mgrwt>
<rscale>  0 0.12529818E+03</rscale>
<asrwt>0</asrwt>
<pdfrwt beam="1">  1        5 0.31874015E-02 0.12529915E+03</pdfrwt>
<pdfrwt beam="2">  1       -5 0.11717855E+00 0.12529915E+03</pdfrwt>
<totfact> 0.20513161E+02</totfact>
</mgrwt>
</event>
<event>
 8    1  0.1821556E-007  0.1266687E+03  0.7546771E-02  0.1232487E+00
         -5   -1    0    0    0  501 -0.00000000000E+00  0.00000000000E+00  0.15957109261E+02  0.16634883106E+02  0.47000000000E+01 0.  1.
          5   -1    0    0  501    0  0.00000000000E+00 -0.00000000000E+00 -0.10629041118E+04  0.10629145031E+04  0.47000000000E+01 0.  1.
         25    2    1    2    0    0  0.16796328028E+01  0.20387303096E+02 -0.37629660688E+03  0.39704157026E+03  0.12499763545E+03 0.  0.
         25    2    1    2    0    0 -0.16796328028E+01 -0.20387303096E+02 -0.67065039563E+03  0.68250781591E+03  0.12500600918E+03 0.  0.
          5    1    3    3  502    0  0.33735811169E+02  0.59321904575E+02 -0.28001548913E+03  0.28824981782E+03  0.47000000000E+01 0.  1.
         -5    1    3    3    0  502 -0.32056178366E+02 -0.38934601479E+02 -0.96281117753E+02  0.10879175244E+03  0.47000000000E+01 0.  1.
          5    1    4    4  503    0  0.34733017788E+02  0.19083653566E+02 -0.53576718023E+03  0.53725145860E+03  0.47000000000E+01 0.  1.
         -5    1    4    4    0  503 -0.36412650591E+02 -0.39470956662E+02 -0.13488321540E+03  0.14525635731E+03  0.47000000000E+01 0.  1.
<mgrwt>
<rscale>  0 0.12666666E+03</rscale>
<asrwt>0</asrwt>
<pdfrwt beam="2">  1        5 0.16357659E+00 0.12666872E+03</pdfrwt>
<pdfrwt beam="1">  1       -5 0.25078765E-02 0.12666872E+03</pdfrwt>
<totfact> 0.12480798E+02</totfact>
</mgrwt>
</event>
<event>
 8    1  0.1821556E-007  0.1292590E+03  0.7546771E-02  0.1228566E+00
         -5   -1    0    0    0  501 -0.00000000000E+00  0.00000000000E+00  0.52394652809E+03  0.52396760806E+03  0.47000000000E+01 0.  1.
          5   -1    0    0  501    0  0.00000000000E+00 -0.00000000000E+00 -0.32139984519E+02  0.32481819605E+02  0.47000000000E+01 0.  1.
         25    2    1    2    0    0  0.31557501189E+02  0.92633383284E+01  0.27869834892E+03  0.30721433695E+03  0.12500477518E+03 0.  0.
         25    2    1    2    0    0 -0.31557501189E+02 -0.92633383284E+01  0.21310819465E+03  0.24923509072E+03  0.12498536914E+03 0.  0.
          5    1    4    4  502    0  0.45263751531E+02  0.15985456980E+02  0.80748514516E+02  0.94057188104E+02  0.47000000000E+01 0. -1.
         -5    1    4    4    0  502 -0.76821252719E+02 -0.25248795308E+02  0.13235968014E+03  0.15517790261E+03  0.47000000000E+01 0. -1.
          5    1    3    3  503    0 -0.38639141177E+02 -0.15982084394E+02  0.43913765936E+02  0.60818739638E+02  0.47000000000E+01 0. -1.
         -5    1    3    3    0  503  0.70196642365E+02  0.25245422722E+02  0.23478458298E+03  0.24639559731E+03  0.47000000000E+01 0. -1.
<mgrwt>
<rscale>  0 0.12925427E+03</rscale>
<asrwt>0</asrwt>
<pdfrwt beam="2">  1        5 0.49725298E-02 0.12925896E+03</pdfrwt>
<pdfrwt beam="1">  1       -5 0.80635070E-01 0.12925896E+03</pdfrwt>
<totfact> 0.24676051E+02</totfact>
</mgrwt>
</event>
<event>
 8    1  0.1821556E-007  0.1651051E+03  0.7546771E-02  0.1183055E+00
          5   -1    0    0  501    0  0.00000000000E+00  0.00000000000E+00  0.20383461411E+03  0.20388879300E+03  0.47000000000E+01 0. -1.
         -5   -1    0    0    0  501 -0.00000000000E+00 -0.00000000000E+00 -0.13837487263E+03  0.13845466903E+03  0.47000000000E+01 0. -1.
         25    2    1    2    0    0 -0.10344492770E+03 -0.30564588638E+02  0.97737165292E+00  0.16509316667E+03  0.12497900336E+03 0.  0.
         25    2    1    2    0    0  0.10344492770E+03  0.30564588638E+02  0.64482369826E+02  0.17725029537E+03  0.12499857617E+03 0.  0.
          5    1    3    3  502    0 -0.18498725869E+02 -0.40345754556E+02 -0.48725873746E+02  0.66077859694E+02  0.47000000000E+01 0.  1.
         -5    1    3    3    0  502 -0.84946201826E+02  0.97811659181E+01  0.49703245399E+02  0.99015306971E+02  0.47000000000E+01 0.  1.
          5    1    4    4  503    0  0.41702283316E+02  0.76496814679E+01  0.95281577130E+02  0.10439476520E+03  0.47000000000E+01 0.  1.
         -5    1    4    4    0  503  0.61742644380E+02  0.22914907170E+02 -0.30799207304E+02  0.72855530169E+02  0.47000000000E+01 0.  1.
<mgrwt>
<rscale>  0 0.16510139E+03</rscale>
<asrwt>0</asrwt>
<pdfrwt beam="1">  1        5 0.31369477E-01 0.16510509E+03</pdfrwt>
<pdfrwt beam="2">  1       -5 0.21298748E-01 0.16510509E+03</pdfrwt>
<totfact> 0.15517014E+02</totfact>
</mgrwt>
</event>
<event>
 8    1  0.1821556E-007  0.1358392E+03  0.7546771E-02  0.1219041E+00
         -5   -1    0    0    0  501 -0.00000000000E+00  0.00000000000E+00  0.21124481679E+03  0.21129709563E+03  0.47000000000E+01 0.  1.
          5   -1    0    0  501    0  0.00000000000E+00 -0.00000000000E+00 -0.11390285215E+03  0.11399977951E+03  0.47000000000E+01 0.  1.
         25    2    1    2    0    0  0.27831934080E+02 -0.45307003376E+02  0.12733376782E+03  0.18618851986E+03  0.12499974157E+03 0.  0.
         25    2    1    2    0    0 -0.27831934080E+02  0.45307003376E+02 -0.29991803176E+02  0.13910835528E+03  0.12499714053E+03 0.  0.
          5    1    3    3  502    0  0.13437042470E+02 -0.12515198249E+02  0.14482273840E+03  0.14605786475E+03  0.47000000000E+01 0.  1.
         -5    1    3    3    0  502  0.14394891610E+02 -0.32791805127E+02 -0.17488970583E+02  0.40130655116E+02  0.47000000000E+01 0.  1.
          5    1    4    4  503    0  0.32431084973E+02  0.12268175719E+02 -0.55534832477E+02  0.65639096781E+02  0.47000000000E+01 0. -1.
         -5    1    4    4    0  503 -0.60263019053E+02  0.33038827657E+02  0.25543029301E+02  0.73469258498E+02  0.47000000000E+01 0. -1.
<mgrwt>
<rscale>  0 0.13583856E+03</rscale>
<asrwt>0</asrwt>
<pdfrwt beam="2">  1        5 0.17534993E-01 0.13583916E+03</pdfrwt>
<pdfrwt beam="1">  1       -5 0.32510680E-01 0.13583916E+03</pdfrwt>
<totfact> 0.19489002E+02</totfact>
</mgrwt>
</event>
<event>
 8    1  0.1821556E-007  0.1253206E+03  0.7546771E-02  0.1234569E+00
          5   -1    0    0  501    0  0.00000000000E+00  0.00000000000E+00  0.64296982803E+03  0.64298700591E+03  0.47000000000E+01 0.  1.
         -5   -1    0    0    0  501 -0.00000000000E+00 -0.00000000000E+00 -0.25614787519E+02  0.26042414244E+02  0.47000000000E+01 0.  1.
         25    2    1    2    0    0  0.24455528467E+01 -0.86486043533E+01  0.23026846504E+03  0.26216179393E+03  0.12499784445E+03 0.  0.
         25    2    1    2    0    0 -0.24455528467E+01  0.86486043533E+01  0.38708657548E+03  0.40686762622E+03  0.12499787705E+03 0.  0.
          5    1    3    3  502    0  0.11686750489E+02 -0.25223517118E+02  0.23906629890E+03  0.24072305918E+03  0.47000000000E+01 0.  1.
         -5    1    3    3    0  502 -0.92411976419E+01  0.16574912765E+02 -0.87978338570E+01  0.21438734748E+02  0.47000000000E+01 0.  1.
          5    1    4    4  503    0  0.37947499580E+02  0.31421690146E+02  0.66419033456E+02  0.82830630453E+02  0.47000000000E+01 0. -1.
         -5    1    4    4    0  503 -0.40393052427E+02 -0.22773085793E+02  0.32066754202E+03  0.32403699577E+03  0.47000000000E+01 0. -1.
<mgrwt>
<rscale>  0 0.12532057E+03</rscale>
<asrwt>0</asrwt>
<pdfrwt beam="1">  1        5 0.98952649E-01 0.12532058E+03</pdfrwt>
<pdfrwt beam="2">  1       -5 0.39749524E-02 0.12532058E+03</pdfrwt>
<totfact> 0.21750721E+02</totfact>
</mgrwt>
</event>
<event>
 8    1  0.1821556E-007  0.1562245E+03  0.7546771E-02  0.1193030E+00
         -5   -1    0    0    0  501 -0.00000000000E+00  0.00000000000E+00  0.20119178707E+03  0.20124667745E+03  0.47000000000E+01 0. -1.
          5   -1    0    0  501    0  0.00000000000E+00 -0.00000000000E+00 -0.12451736145E+03  0.12460603237E+03  0.47000000000E+01 0. -1.
         25    2    1    2    0    0  0.92420601380E+02  0.15428256130E+02  0.64995694235E+02  0.16920562431E+03  0.12500601738E+03 0.  0.
         25    2    1    2    0    0 -0.92420601380E+02 -0.15428256130E+02  0.11678731386E+02  0.15664708551E+03  0.12498927148E+03 0.  0.
          5    1    4    4  502    0 -0.20623370571E+02 -0.47810665453E+02 -0.36898301496E+02  0.63990294561E+02  0.47000000000E+01 0. -1.
         -5    1    4    4    0  502 -0.71797230810E+02  0.32382409323E+02  0.48577032882E+02  0.92656790950E+02  0.47000000000E+01 0. -1.
          5    1    3    3  503    0 -0.27564908112E+02  0.21382751661E+02  0.22066622707E+02  0.41546023462E+02  0.47000000000E+01 0. -1.
         -5    1    3    3    0  503  0.11998550949E+03 -0.59544955313E+01  0.42929071528E+02  0.12765960084E+03  0.47000000000E+01 0. -1.
<mgrwt>
<rscale>  0 0.15622118E+03</rscale>
<asrwt>0</asrwt>
<pdfrwt beam="2">  1        5 0.19167560E-01 0.15622453E+03</pdfrwt>
<pdfrwt beam="1">  1       -5 0.30963626E-01 0.15622453E+03</pdfrwt>
<totfact> 0.19066195E+02</totfact>
</mgrwt>
</event>
<event>
 8    1  0.1821556E-007  0.1561108E+03  0.7546771E-02  0.1193162E+00
          5   -1    0    0  501    0  0.00000000000E+00  0.00000000000E+00  0.25334745101E+03  0.25339104351E+03  0.47000000000E+01 0. -1.
         -5   -1    0    0    0  501 -0.00000000000E+00 -0.00000000000E+00 -0.10003560705E+03  0.10014595688E+03  0.47000000000E+01 0. -1.
         25    2    1    2    0    0 -0.85844534914E+02 -0.37145193747E+02  0.41527517513E+02  0.16153100372E+03  0.12497472088E+03 0.  0.
         25    2    1    2    0    0  0.85844534914E+02  0.37145193747E+02  0.11178432644E+03  0.19200599667E+03  0.12498606933E+03 0.  0.
          5    1    3    3  502    0 -0.66562693456E+02 -0.15471456132E+02  0.84932841371E+02  0.10911294909E+03  0.47000000000E+01 0. -1.
         -5    1    3    3    0  502 -0.19281841458E+02 -0.21673737615E+02 -0.43405323857E+02  0.52418054632E+02  0.47000000000E+01 0. -1.
          5    1    4    4  503    0  0.27117298121E+02  0.77449414861E+02  0.76888369567E+02  0.11255074897E+03  0.47000000000E+01 0.  1.
         -5    1    4    4    0  503  0.58727236793E+02 -0.40304221114E+02  0.34895956875E+02  0.79455247700E+02  0.47000000000E+01 0.  1.
<mgrwt>
<rscale>  0 0.15610848E+03</rscale>
<asrwt>0</asrwt>
<pdfrwt beam="1">  1        5 0.38988373E-01 0.15611075E+03</pdfrwt>
<pdfrwt beam="2">  1       -5 0.15401935E-01 0.15611075E+03</pdfrwt>
<totfact> 0.17946674E+02</totfact>
</mgrwt>
</event>
<event>
 8    1  0.1821556E-007  0.2248291E+03  0.7546771E-02  0.1130334E+00
         -5   -1    0    0    0  501 -0.00000000000E+00  0.00000000000E+00  0.76077598152E+03  0.76079049945E+03  0.47000000000E+01 0. -1.
          5   -1    0    0  501    0  0.00000000000E+00 -0.00000000000E+00 -0.76254541218E+02  0.76399247747E+02  0.47000000000E+01 0. -1.
         25    2    1    2    0    0 -0.14773371094E+03 -0.11444420490E+03  0.49300721104E+03  0.54185258087E+03  0.12500153548E+03 0.  0.
         25    2    1    2    0    0  0.14773371094E+03  0.11444420490E+03  0.19151422926E+03  0.29533716633E+03  0.12499446557E+03 0.  0.
          5    1    3    3  502    0 -0.79291960919E+02 -0.30778041468E+02  0.36227172559E+03  0.37215238285E+03  0.47000000000E+01 0. -1.
         -5    1    3    3    0  502 -0.68441750021E+02 -0.83666163434E+02  0.13073548545E+03  0.16970019801E+03  0.47000000000E+01 0. -1.
          5    1    4    4  503    0  0.53999919843E+01 -0.20865619472E+02  0.45522000585E+02  0.50585339049E+02  0.47000000000E+01 0. -1.
         -5    1    4    4    0  503  0.14233371896E+03  0.13530982437E+03  0.14599222868E+03  0.24475182728E+03  0.47000000000E+01 0. -1.
<mgrwt>
<rscale>  0 0.22482808E+03</rscale>
<asrwt>0</asrwt>
<pdfrwt beam="2">  1        5 0.11743716E-01 0.22482907E+03</pdfrwt>
<pdfrwt beam="1">  1       -5 0.11705471E+00 0.22482907E+03</pdfrwt>
<totfact> 0.26763919E+01</totfact>
</mgrwt>
</event>
<event>
 8    1  0.1821556E-007  0.1599488E+03  0.7546771E-02  0.1188757E+00
         -5   -1    0    0    0  501 -0.00000000000E+00  0.00000000000E+00  0.11155687791E+04  0.11155786798E+04  0.47000000000E+01 0. -1.
          5   -1    0    0  501    0  0.00000000000E+00 -0.00000000000E+00 -0.22743293660E+02  0.23223854256E+02  0.47000000000E+01 0. -1.
         25    2    1    2    0    0 -0.95226768161E+02  0.29801289644E+02  0.57587228807E+03  0.59767018895E+03  0.12499803337E+03 0.  0.
         25    2    1    2    0    0  0.95226768161E+02 -0.29801289644E+02  0.51695319733E+03  0.54113234511E+03  0.12500940946E+03 0.  0.
          5    1    3    3  502    0 -0.10447184941E+03  0.52854144675E+01  0.55222321623E+03  0.56206305115E+03  0.47000000000E+01 0. -1.
         -5    1    3    3    0  502  0.92450812488E+01  0.24515875176E+02  0.23649071841E+02  0.35607137794E+02  0.47000000000E+01 0. -1.
          5    1    4    4  503    0  0.11198699367E+03 -0.30701273385E+02  0.27494212909E+03  0.29849442086E+03  0.47000000000E+01 0. -1.
         -5    1    4    4    0  503 -0.16760225512E+02  0.89998374135E+00  0.24201106825E+03  0.24263792425E+03  0.47000000000E+01 0. -1.
<mgrwt>
<rscale>  0 0.15994654E+03</rscale>
<asrwt>0</asrwt>
<pdfrwt beam="2">  1        5 0.35366958E-02 0.15994876E+03</pdfrwt>
<pdfrwt beam="1">  1       -5 0.17166371E+00 0.15994876E+03</pdfrwt>
<totfact> 0.66982047E+01</totfact>
</mgrwt>
</event>
<event>
 8    1  0.1821556E-007  0.1343126E+03  0.7546771E-02  0.1221194E+00
         -5   -1    0    0    0  501 -0.00000000000E+00  0.00000000000E+00  0.13075543051E+04  0.13075627522E+04  0.47000000000E+01 0. -1.
          5   -1    0    0  501    0  0.00000000000E+00 -0.00000000000E+00 -0.13681205861E+02  0.14466008220E+02  0.47000000000E+01 0. -1.
         25    2    1    2    0    0  0.43814994023E+02  0.22249116537E+02  0.74106005606E+03  0.75313337570E+03  0.12500039212E+03 0.  0.
         25    2    1    2    0    0 -0.43814994023E+02 -0.22249116537E+02  0.55281304323E+03  0.56889538470E+03  0.12499968433E+03 0.  0.
          5    1    3    3  502    0  0.31680023623E+02  0.74157157484E+02  0.45220758494E+03  0.45936553831E+03  0.47000000000E+01 0.  1.
         -5    1    3    3    0  502  0.12134970400E+02 -0.51908040947E+02  0.28885247111E+03  0.29376783740E+03  0.47000000000E+01 0.  1.
          5    1    4    4  503    0 -0.64498571059E+02 -0.61782957581E+02  0.36508174769E+03  0.37587760244E+03  0.47000000000E+01 0. -1.
         -5    1    4    4    0  503  0.20683577036E+02  0.39533841043E+02  0.18773129554E+03  0.19301778227E+03  0.47000000000E+01 0. -1.
<mgrwt>
<rscale>  0 0.13431244E+03</rscale>
<asrwt>0</asrwt>
<pdfrwt beam="2">  1        5 0.21658201E-02 0.13431260E+03</pdfrwt>
<pdfrwt beam="1">  1       -5 0.20122322E+00 0.13431260E+03</pdfrwt>
<totfact> 0.87082922E+01</totfact>
</mgrwt>
</event>
<event>
 8    1  0.1821556E-007  0.1413592E+03  0.7546771E-02  0.1211515E+00
          5   -1    0    0  501    0  0.00000000000E+00  0.00000000000E+00  0.14667992988E+02  0.15402597777E+02  0.47000000000E+01 0.  1.
         -5   -1    0    0    0  501 -0.00000000000E+00 -0.00000000000E+00 -0.13940293864E+04  0.13940373095E+04  0.47000000000E+01 0.  1.
         25    2    1    2    0    0 -0.35333683753E+02  0.55755605367E+02 -0.53661159822E+03  0.55491840304E+03  0.12500107982E+03 0.  0.
         25    2    1    2    0    0  0.35333683753E+02 -0.55755605367E+02 -0.84274979522E+03  0.85452150422E+03  0.12499050797E+03 0.  0.
          5    1    3    3  502    0 -0.51075289377E+02  0.68782803375E+02 -0.19966297953E+03  0.21731809548E+03  0.47000000000E+01 0. -1.
         -5    1    3    3    0  502  0.15741605624E+02 -0.13027198007E+02 -0.33694861869E+03  0.33760030757E+03  0.47000000000E+01 0. -1.
          5    1    4    4  503    0  0.62986663926E+02 -0.29117029396E+02 -0.76000784187E+03  0.76318354997E+03  0.47000000000E+01 0.  1.
         -5    1    4    4    0  503 -0.27652980174E+02 -0.26638575971E+02 -0.82741953352E+02  0.91337954251E+02  0.47000000000E+01 0.  1.
<mgrwt>
<rscale>  0 0.14135687E+03</rscale>
<asrwt>0</asrwt>
<pdfrwt beam="1">  1        5 0.23137329E-02 0.14135921E+03</pdfrwt>
<pdfrwt beam="2">  1       -5 0.21452308E+00 0.14135921E+03</pdfrwt>
<totfact> 0.64887036E+01</totfact>
</mgrwt>
</event>
<event>
 8    1  0.1821556E-007  0.1290261E+03  0.7546771E-02  0.1228932E+00
         -5   -1    0    0    0  501 -0.00000000000E+00  0.00000000000E+00  0.54193863528E+02  0.54397287103E+02  0.47000000000E+01 0. -1.
          5   -1    0    0  501    0  0.00000000000E+00 -0.00000000000E+00 -0.34770406671E+03  0.34773583078E+03  0.47000000000E+01 0. -1.
         25    2    1    2    0    0 -0.27924474694E+02  0.15630452380E+02 -0.77378006186E+02  0.15044966171E+03  0.12499463004E+03 0.  0.
         25    2    1    2    0    0  0.27924474694E+02 -0.15630452380E+02 -0.21613219700E+03  0.25168345617E+03  0.12492937287E+03 0.  0.
          5    1    4    4  502    0  0.10130493199E+02  0.46498557553E+02 -0.15642601353E+03  0.16357240127E+03  0.47000000000E+01 0.  1.
         -5    1    4    4    0  502  0.17793981495E+02 -0.62129009933E+02 -0.59706183463E+02  0.88111054905E+02  0.47000000000E+01 0.  1.
          5    1    3    3  503    0 -0.42426628113E+02  0.40768832380E+02 -0.98094185851E+02  0.11448439092E+03  0.47000000000E+01 0. -1.
         -5    1    3    3    0  503  0.14502153419E+02 -0.25138380000E+02  0.20716179665E+02  0.35965270786E+02  0.47000000000E+01 0. -1.
<mgrwt>
<rscale>  0 0.12901033E+03</rscale>
<asrwt>0</asrwt>
<pdfrwt beam="2">  1        5 0.53511023E-01 0.12902614E+03</pdfrwt>
<pdfrwt beam="1">  1       -5 0.83556090E-02 0.12902614E+03</pdfrwt>
<totfact> 0.25573535E+02</totfact>
</mgrwt>
</event>
<event>
 8    1  0.1821556E-007  0.1291723E+03  0.7546771E-02  0.1228692E+00
          5   -1    0    0  501    0  0.00000000000E+00  0.00000000000E+00  0.35877130692E+03  0.35880209123E+03  0.47000000000E+01 0. -1.
         -5   -1    0    0    0  501 -0.00000000000E+00 -0.00000000000E+00 -0.47750256310E+02  0.47981006427E+02  0.47000000000E+01 0. -1.
         25    2    1    2    0    0  0.42007522306E+01 -0.32298925072E+02  0.12081395058E+03  0.17686090361E+03  0.12499160648E+03 0.  0.
         25    2    1    2    0    0 -0.42007522306E+01  0.32298925072E+02  0.19020710003E+03  0.22992219405E+03  0.12499843012E+03 0.  0.
          5    1    3    3  502    0  0.38961507210E+02  0.41124296855E+01  0.11997277329E+03  0.12629516005E+03  0.47000000000E+01 0.  1.
         -5    1    3    3    0  502 -0.34760754979E+02 -0.36411354757E+02  0.84117728994E+00  0.50565743555E+02  0.47000000000E+01 0.  1.
          5    1    4    4  503    0 -0.50719892670E+02  0.54355353705E+02  0.13567556117E+03  0.15478036014E+03  0.47000000000E+01 0. -1.
         -5    1    4    4    0  503  0.46519140439E+02 -0.22056428633E+02  0.54531538865E+02  0.75141833902E+02  0.47000000000E+01 0. -1.
<mgrwt>
<rscale>  0 0.12917062E+03</rscale>
<asrwt>0</asrwt>
<pdfrwt beam="1">  1        5 0.55215705E-01 0.12917227E+03</pdfrwt>
<pdfrwt beam="2">  1       -5 0.73663112E-02 0.12917227E+03</pdfrwt>
<totfact> 0.29670287E+02</totfact>
</mgrwt>
</event>
<event>
 8    1  0.1821556E-007  0.1300589E+03  0.7546771E-02  0.1227381E+00
         -5   -1    0    0    0  501 -0.00000000000E+00  0.00000000000E+00  0.10360774798E+02  0.11376979143E+02  0.47000000000E+01 0. -1.
          5   -1    0    0  501    0  0.00000000000E+00 -0.00000000000E+00 -0.15794707320E+04  0.15794777249E+04  0.47000000000E+01 0. -1.
         25    2    1    2    0    0 -0.25785480963E+02 -0.24843978747E+02 -0.68544180593E+03  0.69767168482E+03  0.12503278039E+03 0.  0.
         25    2    1    2    0    0  0.25785480963E+02  0.24843978747E+02 -0.88366815129E+03  0.89318301918E+03  0.12499755930E+03 0.  0.
          5    1    3    3  502    0  0.48366432273E+02  0.71793174784E+01 -0.25180628389E+03  0.25655281907E+03  0.47000000000E+01 0. -1.
         -5    1    3    3    0  502 -0.74151913236E+02 -0.32023296225E+02 -0.43363552204E+03  0.44111886574E+03  0.47000000000E+01 0. -1.
          5    1    4    4  503    0 -0.13814761998E+02 -0.45941323818E+02 -0.28942674962E+03  0.29341333691E+03  0.47000000000E+01 0. -1.
         -5    1    4    4    0  503  0.39600242961E+02  0.70785302565E+02 -0.59424140167E+03  0.59976968227E+03  0.47000000000E+01 0. -1.
<mgrwt>
<rscale>  0 0.13005041E+03</rscale>
<asrwt>0</asrwt>
<pdfrwt beam="2">  1        5 0.24307402E+00 0.13005887E+03</pdfrwt>
<pdfrwt beam="1">  1       -5 0.16726741E-02 0.13005887E+03</pdfrwt>
<totfact> 0.69344887E+01</totfact>
</mgrwt>
</event>
<event>
 8    1  0.1821556E-007  0.1590616E+03  0.7546771E-02  0.1189760E+00
          5   -1    0    0  501    0  0.00000000000E+00  0.00000000000E+00  0.62497799116E+03  0.62499566353E+03  0.47000000000E+01 0. -1.
         -5   -1    0    0    0  501 -0.00000000000E+00 -0.00000000000E+00 -0.51931532827E+02  0.52143782964E+02  0.47000000000E+01 0. -1.
         25    2    1    2    0    0  0.28848162959E+02  0.94039551864E+02  0.12688052892E+03  0.20346805336E+03  0.12499970519E+03 0.  0.
         25    2    1    2    0    0 -0.28848162959E+02 -0.94039551864E+02  0.44616592941E+03  0.47367139314E+03  0.12499959314E+03 0.  0.
          5    1    4    4  502    0  0.18749068367E+02  0.24340390286E+02  0.76260882489E+02  0.82351650632E+02  0.47000000000E+01 0. -1.
         -5    1    4    4    0  502 -0.47597231326E+02 -0.11837994215E+03  0.36990504692E+03  0.39131974250E+03  0.47000000000E+01 0. -1.
          5    1    3    3  503    0  0.17110891028E+02 -0.72940901650E+01  0.94367269113E+02  0.96297756064E+02  0.47000000000E+01 0. -1.
         -5    1    3    3    0  503  0.11737271932E+02  0.10133364203E+03  0.32513259808E+02  0.10717029730E+03  0.47000000000E+01 0. -1.
<mgrwt>
<rscale>  0 0.15906154E+03</rscale>
<asrwt>0</asrwt>
<pdfrwt beam="1">  1        5 0.96168140E-01 0.15906156E+03</pdfrwt>
<pdfrwt beam="2">  1       -5 0.80071535E-02 0.15906156E+03</pdfrwt>
<totfact> 0.77881460E+01</totfact>
</mgrwt>
</event>
<event>
 8    1  0.1821556E-007  0.1441207E+03  0.7546771E-02  0.1207891E+00
          5   -1    0    0  501    0  0.00000000000E+00  0.00000000000E+00  0.10534904365E+03  0.10545383349E+03  0.47000000000E+01 0.  1.
         -5   -1    0    0    0  501 -0.00000000000E+00 -0.00000000000E+00 -0.20211864264E+03  0.20217328137E+03  0.47000000000E+01 0.  1.
         25    2    1    2    0    0  0.11262752533E+02 -0.70841637381E+02 -0.73036316233E+02  0.16157062413E+03  0.12500150363E+03 0.  0.
         25    2    1    2    0    0 -0.11262752533E+02  0.70841637381E+02 -0.23733282757E+02  0.14605649073E+03  0.12499537029E+03 0.  0.
          5    1    3    3  502    0 -0.21110540514E+02  0.21303418903E+02 -0.54010417690E+02  0.61957290102E+02  0.47000000000E+01 0.  1.
         -5    1    3    3    0  502  0.32373293047E+02 -0.92145056283E+02 -0.19025898543E+02  0.99613334025E+02  0.47000000000E+01 0.  1.
          5    1    4    4  503    0  0.34479543505E+02  0.86397420204E+02 -0.27779571902E+01  0.93183475919E+02  0.47000000000E+01 0.  1.
         -5    1    4    4    0  503 -0.45742296038E+02 -0.15555782824E+02 -0.20955325567E+02  0.52873014816E+02  0.47000000000E+01 0.  1.
<mgrwt>
<rscale>  0 0.14411932E+03</rscale>
<asrwt>0</asrwt>
<pdfrwt beam="1">  1        5 0.16219809E-01 0.14412065E+03</pdfrwt>
<pdfrwt beam="2">  1       -5 0.31107439E-01 0.14412065E+03</pdfrwt>
<totfact> 0.25024904E+02</totfact>
</mgrwt>
</event>
<event>
 8    1  0.1821556E-007  0.1415847E+03  0.7546771E-02  0.1211226E+00
         -5   -1    0    0    0  501 -0.00000000000E+00  0.00000000000E+00  0.35517632902E+02  0.35827255643E+02  0.47000000000E+01 0. -1.
          5   -1    0    0  501    0  0.00000000000E+00 -0.00000000000E+00 -0.56980552129E+03  0.56982490477E+03  0.47000000000E+01 0. -1.
         25    2    1    2    0    0 -0.53598820711E+02 -0.39331744045E+02 -0.23055784297E+03  0.27056078253E+03  0.12500559354E+03 0.  0.
         25    2    1    2    0    0  0.53598820711E+02  0.39331744045E+02 -0.30373004542E+03  0.33509137788E+03  0.12495787838E+03 0.  0.
          5    1    4    4  502    0 -0.27665522495E+02  0.49221416627E+02 -0.15834301368E+03  0.16817469777E+03  0.47000000000E+01 0.  1.
         -5    1    4    4    0  502  0.81264343206E+02 -0.98896725818E+01 -0.14538703174E+03  0.16691668011E+03  0.47000000000E+01 0.  1.
          5    1    3    3  503    0 -0.59214693381E+02 -0.80110126431E+02 -0.15307316363E+03  0.18269508941E+03  0.47000000000E+01 0. -1.
         -5    1    3    3    0  503  0.56158726702E+01  0.40778382386E+02 -0.77484679338E+02  0.87865693123E+02  0.47000000000E+01 0. -1.
<mgrwt>
<rscale>  0 0.14157413E+03</rscale>
<asrwt>0</asrwt>
<pdfrwt beam="2">  1        5 0.87687689E-01 0.14158467E+03</pdfrwt>
<pdfrwt beam="1">  1       -5 0.54895598E-02 0.14158467E+03</pdfrwt>
<totfact> 0.17743052E+02</totfact>
</mgrwt>
</event>
<event>
 8    1  0.1821556E-007  0.1289812E+03  0.7546771E-02  0.1228978E+00
         -5   -1    0    0    0  501 -0.00000000000E+00  0.00000000000E+00  0.11211904082E+02  0.12157170442E+02  0.47000000000E+01 0.  1.
          5   -1    0    0  501    0  0.00000000000E+00 -0.00000000000E+00 -0.14240276219E+04  0.14240353780E+04  0.47000000000E+01 0.  1.
         25    2    1    2    0    0  0.14661234189E+02 -0.28205576081E+02 -0.68485661943E+03  0.69689650638E+03  0.12500258049E+03 0.  0.
         25    2    1    2    0    0 -0.14661234189E+02  0.28205576081E+02 -0.72795909838E+03  0.73929604210E+03  0.12499473042E+03 0.  0.
          5    1    3    3  502    0  0.50677330907E+02  0.25459412988E+02 -0.20751757099E+03  0.21517900884E+03  0.47000000000E+01 0. -1.
         -5    1    3    3    0  502 -0.36016096719E+02 -0.53664989068E+02 -0.47733904844E+03  0.48171749754E+03  0.47000000000E+01 0. -1.
          5    1    4    4  503    0  0.35232818606E+02  0.55567328356E+02 -0.49822622608E+03  0.50257391680E+03  0.47000000000E+01 0.  1.
         -5    1    4    4    0  503 -0.49894052795E+02 -0.27361752275E+02 -0.22973287230E+03  0.23672212530E+03  0.47000000000E+01 0.  1.
<mgrwt>
<rscale>  0 0.12897930E+03</rscale>
<asrwt>0</asrwt>
<pdfrwt beam="2">  1        5 0.21915434E+00 0.12898121E+03</pdfrwt>
<pdfrwt beam="1">  1       -5 0.17982189E-02 0.12898121E+03</pdfrwt>
<totfact> 0.87883639E+01</totfact>
</mgrwt>
</event>
<event>
 8    1  0.1821556E-007  0.1589586E+03  0.7546771E-02  0.1189888E+00
          5   -1    0    0  501    0  0.00000000000E+00  0.00000000000E+00  0.67308120733E+03  0.67309761674E+03  0.47000000000E+01 0. -1.
         -5   -1    0    0    0  501 -0.00000000000E+00 -0.00000000000E+00 -0.40346832961E+02  0.40619661865E+02  0.47000000000E+01 0. -1.
         25    2    1    2    0    0 -0.10267045066E+02  0.97594217265E+02  0.21972422126E+03  0.27117324212E+03  0.12500460142E+03 0.  0.
         25    2    1    2    0    0  0.10267045066E+02 -0.97594217265E+02  0.41301015311E+03  0.44254403648E+03  0.12505116632E+03 0.  0.
          5    1    3    3  502    0 -0.16062775289E+02  0.43552057407E+02  0.19803258966E+01  0.46699102187E+02  0.47000000000E+01 0.  1.
         -5    1    3    3    0  502  0.57957302236E+01  0.54042159858E+02  0.21774389536E+03  0.22447413993E+03  0.47000000000E+01 0.  1.
          5    1    4    4  503    0  0.37108389774E+02 -0.89433709992E+02  0.15396349098E+03  0.18194028589E+03  0.47000000000E+01 0.  1.
         -5    1    4    4    0  503 -0.26841344709E+02 -0.81605072728E+01  0.25904666212E+03  0.26060375059E+03  0.47000000000E+01 0.  1.
<mgrwt>
<rscale>  0 0.15894945E+03</rscale>
<asrwt>0</asrwt>
<pdfrwt beam="1">  1        5 0.10357320E+00 0.15895860E+03</pdfrwt>
<pdfrwt beam="2">  1       -5 0.62294542E-02 0.15895860E+03</pdfrwt>
<totfact> 0.99639213E+01</totfact>
</mgrwt>
</event>
<event>
 8    1  0.1821556E-007  0.1469147E+03  0.7546771E-02  0.1204317E+00
         -5   -1    0    0    0  501 -0.00000000000E+00  0.00000000000E+00  0.12613079755E+03  0.12621833500E+03  0.47000000000E+01 0. -1.
          5   -1    0    0  501    0  0.00000000000E+00 -0.00000000000E+00 -0.17197912854E+03  0.17204333946E+03  0.47000000000E+01 0. -1.
         25    2    1    2    0    0  0.63363675475E+02  0.44090780414E+02 -0.11348501332E+02  0.14735234379E+03  0.12499988980E+03 0.  0.
         25    2    1    2    0    0 -0.63363675475E+02 -0.44090780414E+02 -0.34499829664E+02  0.15090933067E+03  0.12499774218E+03 0.  0.
          5    1    4    4  502    0 -0.67833046632E+00 -0.32646254817E+02 -0.70309365806E+02  0.77664245350E+02  0.47000000000E+01 0. -1.
         -5    1    4    4    0  502 -0.62685345008E+02 -0.11444525597E+02  0.35809536142E+02  0.73245085321E+02  0.47000000000E+01 0. -1.
          5    1    3    3  503    0  0.73325527485E+01  0.19477979620E+02 -0.63387603662E+02  0.66882257123E+02  0.47000000000E+01 0. -1.
         -5    1    3    3    0  503  0.56031122726E+02  0.24612800793E+02  0.52039102330E+02  0.80470086667E+02  0.47000000000E+01 0. -1.
<mgrwt>
<rscale>  0 0.14691423E+03</rscale>
<asrwt>0</asrwt>
<pdfrwt beam="2">  1        5 0.26470000E-01 0.14691469E+03</pdfrwt>
<pdfrwt beam="1">  1       -5 0.19416411E-01 0.14691469E+03</pdfrwt>
<totfact> 0.24777029E+02</totfact>
</mgrwt>
</event>
<event>
 8    1  0.1821556E-007  0.1285472E+03  0.7546771E-02  0.1229644E+00
          5   -1    0    0  501    0  0.00000000000E+00  0.00000000000E+00  0.11497789741E+02  0.12421319130E+02  0.47000000000E+01 0.  1.
         -5   -1    0    0    0  501 -0.00000000000E+00 -0.00000000000E+00 -0.14033536818E+04  0.14033615522E+04  0.47000000000E+01 0.  1.
         25    2    1    2    0    0 -0.29170124823E+02  0.61812193831E+01 -0.78675158638E+03  0.79718407529E+03  0.12504114350E+03 0.  0.
         25    2    1    2    0    0  0.29170124823E+02 -0.61812193831E+01 -0.60510430569E+03  0.61859879606E+03  0.12499658423E+03 0.  0.
          5    1    4    4  502    0  0.36896040440E+02 -0.18925176641E+02 -0.58980288456E+02  0.72251259764E+02  0.47000000000E+01 0. -1.
         -5    1    4    4    0  502 -0.77259156178E+01  0.12743957258E+02 -0.54612401723E+03  0.54634753630E+03  0.47000000000E+01 0. -1.
          5    1    3    3  503    0  0.16855594940E+02  0.57970395086E+01 -0.14253433278E+02  0.23301654621E+02  0.47000000000E+01 0.  1.
         -5    1    3    3    0  503 -0.46025719763E+02  0.38417987447E+00 -0.77249815310E+03  0.77388242066E+03  0.47000000000E+01 0.  1.
<mgrwt>
<rscale>  0 0.12853640E+03</rscale>
<asrwt>0</asrwt>
<pdfrwt beam="1">  1        5 0.18405380E-02 0.12854723E+03</pdfrwt>
<pdfrwt beam="2">  1       -5 0.21597208E+00 0.12854723E+03</pdfrwt>
<totfact> 0.88776016E+01</totfact>
</mgrwt>
</event>
<event>
 8    1  0.1821556E-007  0.1315511E+03  0.7546771E-02  0.1225173E+00
          5   -1    0    0  501    0  0.00000000000E+00  0.00000000000E+00  0.76588457423E+03  0.76589899533E+03  0.47000000000E+01 0. -1.
         -5   -1    0    0    0  501 -0.00000000000E+00 -0.00000000000E+00 -0.22588175678E+02  0.23071967417E+02  0.47000000000E+01 0. -1.
         25    2    1    2    0    0  0.40919742518E+02 -0.23914758581E+01  0.41286187708E+03  0.43331353761E+03  0.12500219136E+03 0.  0.
         25    2    1    2    0    0 -0.40919742518E+02  0.23914758581E+01  0.33043452148E+03  0.35565742514E+03  0.12500034635E+03 0.  0.
          5    1    4    4  502    0 -0.39461743338E+02 -0.47650836789E+02  0.27000837861E+03  0.27704592751E+03  0.47000000000E+01 0.  1.
         -5    1    4    4    0  502 -0.14579991807E+01  0.50042312647E+02  0.60426142869E+02  0.78611497624E+02  0.47000000000E+01 0.  1.
          5    1    3    3  503    0  0.76969152028E+02 -0.20597705305E+02  0.17963136884E+03  0.19656559847E+03  0.47000000000E+01 0. -1.
         -5    1    3    3    0  503 -0.36049409510E+02  0.18206229447E+02  0.23323050823E+03  0.23674793914E+03  0.47000000000E+01 0. -1.
<mgrwt>
<rscale>  0 0.13155066E+03</rscale>
<asrwt>0</asrwt>
<pdfrwt beam="1">  1        5 0.11786671E+00 0.13155110E+03</pdfrwt>
<pdfrwt beam="2">  1       -5 0.35134284E-02 0.13155110E+03</pdfrwt>
<totfact> 0.17554251E+02</totfact>
</mgrwt>
</event>
<event>
 8    1  0.1821556E-007  0.1369106E+03  0.7546771E-02  0.1217551E+00
          5   -1    0    0  501    0  0.00000000000E+00  0.00000000000E+00  0.18941118563E+03  0.18946948894E+03  0.47000000000E+01 0. -1.
         -5   -1    0    0    0  501 -0.00000000000E+00 -0.00000000000E+00 -0.15037702372E+03  0.15045045452E+03  0.47000000000E+01 0. -1.
         25    2    1    2    0    0  0.36355494747E+01  0.55701279686E+02 -0.79944177861E+02  0.15854208457E+03  0.12501468405E+03 0.  0.
         25    2    1    2    0    0 -0.36355494747E+01 -0.55701279686E+02  0.11897833976E+03  0.18137785888E+03  0.12500493023E+03 0.  0.
          5    1    3    3  502    0 -0.45745182614E+02  0.70969877879E+02 -0.43284568137E+02  0.94999942829E+02  0.47000000000E+01 0.  1.
         -5    1    3    3    0  502  0.49380732089E+02 -0.15268598194E+02 -0.36659609724E+02  0.63542141745E+02  0.47000000000E+01 0.  1.
          5    1    4    4  503    0  0.14582598929E+02 -0.19115505835E+02 -0.22973516332E+02  0.33584627548E+02  0.47000000000E+01 0. -1.
         -5    1    4    4    0  503 -0.18218148404E+02 -0.36585773850E+02  0.14195185610E+03  0.14779323133E+03  0.47000000000E+01 0. -1.
<mgrwt>
<rscale>  0 0.13690840E+03</rscale>
<asrwt>0</asrwt>
<pdfrwt beam="1">  1        5 0.29150316E-01 0.13691063E+03</pdfrwt>
<pdfrwt beam="2">  1       -5 0.23145060E-01 0.13691063E+03</pdfrwt>
<totfact> 0.14422780E+02</totfact>
</mgrwt>
</event>
<event>
 8    1  0.1821556E-007  0.1727694E+03  0.7546771E-02  0.1174991E+00
          5   -1    0    0  501    0  0.00000000000E+00  0.00000000000E+00  0.11154793174E+03  0.11164690357E+03  0.47000000000E+01 0.  1.
         -5   -1    0    0    0  501 -0.00000000000E+00 -0.00000000000E+00 -0.29372892902E+03  0.29376652931E+03  0.47000000000E+01 0.  1.
         25    2    1    2    0    0 -0.81121394303E+02 -0.87421326755E+02 -0.15182728079E+03  0.23000172699E+03  0.12500440888E+03 0.  0.
         25    2    1    2    0    0  0.81121394303E+02  0.87421326755E+02 -0.30353716485E+02  0.17541170589E+03  0.12499899789E+03 0.  0.
          5    1    3    3  502    0 -0.43508368587E+02 -0.10958422286E+03 -0.14267567070E+03  0.18514890507E+03  0.47000000000E+01 0. -1.
         -5    1    3    3    0  502 -0.37613025716E+02  0.22162896104E+02 -0.91516100887E+01  0.44852821923E+02  0.47000000000E+01 0. -1.
          5    1    4    4  503    0  0.10924827716E+03  0.86214815878E+02 -0.85812104726E+01  0.13951310946E+03  0.47000000000E+01 0. -1.
         -5    1    4    4    0  503 -0.28126882853E+02  0.12065108772E+01 -0.21772506013E+02  0.35898596429E+02  0.47000000000E+01 0. -1.
<mgrwt>
<rscale>  0 0.17276844E+03</rscale>
<asrwt>0</asrwt>
<pdfrwt beam="1">  1        5 0.17171726E-01 0.17276942E+03</pdfrwt>
<pdfrwt beam="2">  1       -5 0.45199571E-01 0.17276942E+03</pdfrwt>
<totfact> 0.11174184E+02</totfact>
</mgrwt>
</event>
<event>
 8    1  0.1821556E-007  0.1304354E+03  0.7546771E-02  0.1226812E+00
         -5   -1    0    0    0  501 -0.00000000000E+00  0.00000000000E+00  0.22228308643E+02  0.22719764636E+02  0.47000000000E+01 0. -1.
          5   -1    0    0  501    0  0.00000000000E+00 -0.00000000000E+00 -0.11127895916E+04  0.11127995171E+04  0.47000000000E+01 0. -1.
         25    2    1    2    0    0 -0.32303963519E+02  0.18560248664E+02 -0.22409033078E+03  0.25928569798E+03  0.12499827173E+03 0.  0.
         25    2    1    2    0    0  0.32303963519E+02 -0.18560248664E+02 -0.86647095219E+03  0.87623358373E+03  0.12500141353E+03 0.  0.
          5    1    3    3  502    0  0.26746748960E+02  0.38076175884E+02 -0.30348203153E+02  0.55752015071E+02  0.47000000000E+01 0.  1.
         -5    1    3    3    0  502 -0.59050712480E+02 -0.19515927220E+02 -0.19374212763E+03  0.20353368291E+03  0.47000000000E+01 0.  1.
          5    1    4    4  503    0  0.56133230995E+02  0.37628738533E+02 -0.38894773681E+03  0.39480285404E+03  0.47000000000E+01 0. -1.
         -5    1    4    4    0  503 -0.23829267476E+02 -0.56188987197E+02 -0.47752321537E+03  0.48143072969E+03  0.47000000000E+01 0. -1.
<mgrwt>
<rscale>  0 0.13043460E+03</rscale>
<asrwt>0</asrwt>
<pdfrwt beam="2">  1        5 0.17123692E+00 0.13043536E+03</pdfrwt>
<pdfrwt beam="1">  1       -5 0.34583085E-02 0.13043536E+03</pdfrwt>
<totfact> 0.65908917E+01</totfact>
</mgrwt>
</event>
<event>
 8    1  0.1821556E-007  0.1852051E+03  0.7546771E-02  0.1162859E+00
          5   -1    0    0  501    0  0.00000000000E+00  0.00000000000E+00  0.26740839897E+03  0.26744969964E+03  0.47000000000E+01 0. -1.
         -5   -1    0    0    0  501 -0.00000000000E+00 -0.00000000000E+00 -0.12963908243E+03  0.12972425253E+03  0.47000000000E+01 0. -1.
         25    2    1    2    0    0  0.49755226385E+02  0.12727947620E+03  0.47792139189E+02  0.19126905222E+03  0.12499645657E+03 0.  0.
         25    2    1    2    0    0 -0.49755226385E+02 -0.12727947620E+03  0.89977177345E+02  0.20590489995E+03  0.12500115106E+03 0.  0.
          5    1    4    4  502    0 -0.87694271680E+02 -0.57835041460E+02  0.60594979792E+02  0.12136316938E+03  0.47000000000E+01 0.  1.
         -5    1    4    4    0  502  0.37939045295E+02 -0.69444434740E+02  0.29382197554E+02  0.84541730567E+02  0.47000000000E+01 0.  1.
          5    1    3    3  503    0  0.17988211770E+01  0.39640337020E+02 -0.41200768977E+02  0.57394994912E+02  0.47000000000E+01 0.  1.
         -5    1    3    3    0  503  0.47956405208E+02  0.87639139180E+02  0.88992908166E+02  0.13387405731E+03  0.47000000000E+01 0.  1.
<mgrwt>
<rscale>  0 0.18520432E+03</rscale>
<asrwt>0</asrwt>
<pdfrwt beam="1">  1        5 0.41149482E-01 0.18520512E+03</pdfrwt>
<pdfrwt beam="2">  1       -5 0.19954203E-01 0.18520512E+03</pdfrwt>
<totfact> 0.10485399E+02</totfact>
</mgrwt>
</event>
<event>
 8    1  0.1821556E-007  0.1288030E+03  0.7546771E-02  0.1229249E+00
          5   -1    0    0  501    0  0.00000000000E+00  0.00000000000E+00  0.16787901544E+02  0.17433405813E+02  0.47000000000E+01 0.  1.
         -5   -1    0    0    0  501 -0.00000000000E+00 -0.00000000000E+00 -0.97405037257E+03  0.97406171175E+03  0.47000000000E+01 0.  1.
         25    2    1    2    0    0 -0.28537407733E+02  0.12117696762E+02 -0.44228888542E+03  0.46066221639E+03  0.12501598792E+03 0.  0.
         25    2    1    2    0    0  0.28537407733E+02 -0.12117696762E+02 -0.51497358561E+03  0.53083290117E+03  0.12499821149E+03 0.  0.
          5    1    4    4  502    0  0.40256435794E+02  0.39606000472E+02 -0.12504859599E+03  0.13728968372E+03  0.47000000000E+01 0.  1.
         -5    1    4    4    0  502 -0.11719028060E+02 -0.51723697233E+02 -0.38992498962E+03  0.39354321745E+03  0.47000000000E+01 0.  1.
          5    1    3    3  503    0 -0.77571075258E+01  0.36112855310E+02 -0.41987011796E+03  0.42151787268E+03  0.47000000000E+01 0.  1.
         -5    1    3    3    0  503 -0.20780300208E+02 -0.23995158548E+02 -0.22418767460E+02  0.39144343715E+02  0.47000000000E+01 0.  1.
<mgrwt>
<rscale>  0 0.12879871E+03</rscale>
<asrwt>0</asrwt>
<pdfrwt beam="1">  1        5 0.26332812E-02 0.12880303E+03</pdfrwt>
<pdfrwt beam="2">  1       -5 0.14990439E+00 0.12880303E+03</pdfrwt>
<totfact> 0.14780045E+02</totfact>
</mgrwt>
</event>
<event>
 8    1  0.1821556E-007  0.1276646E+03  0.7546771E-02  0.1230964E+00
         -5   -1    0    0    0  501 -0.00000000000E+00  0.00000000000E+00  0.71747289176E+02  0.71901067476E+02  0.47000000000E+01 0.  1.
          5   -1    0    0  501    0  0.00000000000E+00 -0.00000000000E+00 -0.22781573092E+03  0.22786420793E+03  0.47000000000E+01 0.  1.
         25    2    1    2    0    0  0.20509404624E+02  0.15875189737E+02 -0.67705063834E+02  0.14450685329E+03  0.12500239058E+03 0.  0.
         25    2    1    2    0    0 -0.20509404624E+02 -0.15875189737E+02 -0.88363377911E+02  0.15525842212E+03  0.12499773500E+03 0.  0.
          5    1    4    4  502    0  0.35498855204E+02 -0.98821172674E+01  0.12870338973E+02  0.39313618350E+02  0.47000000000E+01 0.  1.
         -5    1    4    4    0  502 -0.56008259828E+02 -0.59930724694E+01 -0.10123371688E+03  0.11594480377E+03  0.47000000000E+01 0.  1.
          5    1    3    3  503    0 -0.32381723268E+02  0.42268450867E+02  0.13697728181E+01  0.53471153140E+02  0.47000000000E+01 0.  1.
         -5    1    3    3    0  503  0.52891127892E+02 -0.26393261130E+02 -0.69074836652E+02  0.91035700147E+02  0.47000000000E+01 0.  1.
<mgrwt>
<rscale>  0 0.12766348E+03</rscale>
<asrwt>0</asrwt>
<pdfrwt beam="2">  1        5 0.35064132E-01 0.12766462E+03</pdfrwt>
<pdfrwt beam="1">  1       -5 0.11053603E-01 0.12766462E+03</pdfrwt>
<totfact> 0.37567965E+02</totfact>
</mgrwt>
</event>
<event>
 8    1  0.1821556E-007  0.1325626E+03  0.7546771E-02  0.1223712E+00
          5   -1    0    0  501    0  0.00000000000E+00  0.00000000000E+00  0.83263703285E+03  0.83265029783E+03  0.47000000000E+01 0. -1.
         -5   -1    0    0    0  501 -0.00000000000E+00 -0.00000000000E+00 -0.22258995842E+02  0.22749788920E+02  0.47000000000E+01 0. -1.
         25    2    1    2    0    0  0.28186680405E+02  0.33850930096E+02  0.29793723955E+03  0.32609728122E+03  0.12502985120E+03 0.  0.
         25    2    1    2    0    0 -0.28186680405E+02 -0.33850930096E+02  0.51244079746E+03  0.52930280553E+03  0.12500205844E+03 0.  0.
          5    1    4    4  502    0  0.44773242294E+02 -0.29441911058E+02  0.29481123070E+03  0.29967852959E+03  0.47000000000E+01 0.  1.
         -5    1    4    4    0  502 -0.72959922699E+02 -0.44090190381E+01  0.21762956676E+03  0.22962427594E+03  0.47000000000E+01 0.  1.
          5    1    3    3  503    0  0.24095963458E+02  0.77722209456E+02  0.23792120209E+03  0.25149541885E+03  0.47000000000E+01 0.  1.
         -5    1    3    3    0  503  0.40907169474E+01 -0.43871279360E+02  0.60016037461E+02  0.74601862378E+02  0.47000000000E+01 0.  1.
<mgrwt>
<rscale>  0 0.13255603E+03</rscale>
<asrwt>0</asrwt>
<pdfrwt beam="1">  1        5 0.12813677E+00 0.13256258E+03</pdfrwt>
<pdfrwt beam="2">  1       -5 0.34632348E-02 0.13256258E+03</pdfrwt>
<totfact> 0.14542724E+02</totfact>
</mgrwt>
</event>
<event>
 8    1  0.1821556E-007  0.1307263E+03  0.7546771E-02  0.1226382E+00
          5   -1    0    0  501    0  0.00000000000E+00  0.00000000000E+00  0.47948938365E+03  0.47951241802E+03  0.47000000000E+01 0. -1.
         -5   -1    0    0    0  501 -0.00000000000E+00 -0.00000000000E+00 -0.64142491227E+02  0.64314455457E+02  0.47000000000E+01 0. -1.
         25    2    1    2    0    0  0.37641165462E+02 -0.68936432952E+01  0.26221957182E+02  0.13333021627E+03  0.12499990351E+03 0.  0.
         25    2    1    2    0    0 -0.37641165462E+02  0.68936432952E+01  0.38912493524E+03  0.41049665721E+03  0.12499964278E+03 0.  0.
          5    1    3    3  502    0  0.62941635053E+02 -0.45103958234E+02 -0.49066252906E+01  0.77731470096E+02  0.47000000000E+01 0.  1.
         -5    1    3    3    0  502 -0.25300469591E+02  0.38210314939E+02  0.31128582472E+02  0.55598746173E+02  0.47000000000E+01 0.  1.
          5    1    4    4  503    0  0.22946171403E+02  0.27938314225E+02  0.29035767190E+03  0.29263756392E+03  0.47000000000E+01 0.  1.
         -5    1    4    4    0  503 -0.60587336866E+02 -0.21044670929E+02  0.98767263343E+02  0.11785909329E+03  0.47000000000E+01 0.  1.
<mgrwt>
<rscale>  0 0.13072620E+03</rscale>
<asrwt>0</asrwt>
<pdfrwt beam="1">  1        5 0.73782596E-01 0.13072626E+03</pdfrwt>
<pdfrwt beam="2">  1       -5 0.98830756E-02 0.13072626E+03</pdfrwt>
<totfact> 0.94618034E+01</totfact>
</mgrwt>
</event>
<event>
 8    1  0.1821556E-007  0.1588760E+03  0.7546771E-02  0.1189972E+00
          5   -1    0    0  501    0  0.00000000000E+00  0.00000000000E+00  0.15699747052E+03  0.15706780622E+03  0.47000000000E+01 0. -1.
         -5   -1    0    0    0  501 -0.00000000000E+00 -0.00000000000E+00 -0.17091419951E+03  0.17097881037E+03  0.47000000000E+01 0. -1.
         25    2    1    2    0    0  0.58512041191E+02 -0.78691097852E+02 -0.47169350802E+02  0.16573031066E+03  0.12500256146E+03 0.  0.
         25    2    1    2    0    0 -0.58512041191E+02  0.78691097852E+02  0.33252621812E+02  0.16231630593E+03  0.12499959387E+03 0.  0.
          5    1    3    3  502    0 -0.66824088023E+01  0.24001346431E+02  0.14566798058E+02  0.29240397117E+02  0.47000000000E+01 0. -1.
         -5    1    3    3    0  502  0.65194449993E+02 -0.10269244428E+03 -0.61736148860E+02  0.13648991354E+03  0.47000000000E+01 0. -1.
          5    1    4    4  503    0 -0.86508363735E+02  0.13624535428E+02  0.22248271200E+02  0.90478729727E+02  0.47000000000E+01 0. -1.
         -5    1    4    4    0  503  0.27996322544E+02  0.65066562424E+02  0.11004350612E+02  0.71837576198E+02  0.47000000000E+01 0. -1.
<mgrwt>
<rscale>  0 0.15887543E+03</rscale>
<asrwt>0</asrwt>
<pdfrwt beam="1">  1        5 0.24163838E-01 0.15887602E+03</pdfrwt>
<pdfrwt beam="2">  1       -5 0.26304873E-01 0.15887602E+03</pdfrwt>
<totfact> 0.17029664E+02</totfact>
</mgrwt>
</event>
<event>
 8    1  0.1821556E-007  0.1462714E+03  0.7546771E-02  0.1205136E+00
          5   -1    0    0  501    0  0.00000000000E+00  0.00000000000E+00  0.65960033096E+02  0.66127270971E+02  0.47000000000E+01 0.  1.
         -5   -1    0    0    0  501 -0.00000000000E+00 -0.00000000000E+00 -0.32376212936E+03  0.32379624212E+03  0.47000000000E+01 0.  1.
         25    2    1    2    0    0 -0.74445924157E+02  0.14991736968E+02 -0.13068184409E+03  0.19614556082E+03  0.12501355468E+03 0.  0.
         25    2    1    2    0    0  0.74445924157E+02 -0.14991736968E+02 -0.12712025217E+03  0.19377795226E+03  0.12499355372E+03 0.  0.
          5    1    3    3  502    0 -0.23597308437E+02  0.18622689631E+02  0.20395969524E+02  0.36629538727E+02  0.47000000000E+01 0.  1.
         -5    1    3    3    0  502 -0.50848615720E+02 -0.36309526623E+01 -0.15107781362E+03  0.15951602210E+03  0.47000000000E+01 0.  1.
          5    1    4    4  503    0 -0.15080173387E+02  0.38216990770E+02 -0.28102339184E+02  0.49997814757E+02  0.47000000000E+01 0. -1.
         -5    1    4    4    0  503  0.89526097545E+02 -0.53208727738E+02 -0.99017912986E+02  0.14378013751E+03  0.47000000000E+01 0. -1.
<mgrwt>
<rscale>  0 0.14626717E+03</rscale>
<asrwt>0</asrwt>
<pdfrwt beam="1">  1        5 0.10163186E-01 0.14627145E+03</pdfrwt>
<pdfrwt beam="2">  1       -5 0.49825046E-01 0.14627145E+03</pdfrwt>
<totfact> 0.22130070E+02</totfact>
</mgrwt>
</event>
<event>
 8    1  0.1821556E-007  0.1299012E+03  0.7546771E-02  0.1227604E+00
         -5   -1    0    0    0  501 -0.00000000000E+00  0.00000000000E+00  0.22550873232E+03  0.22555770515E+03  0.47000000000E+01 0.  1.
          5   -1    0    0  501    0  0.00000000000E+00 -0.00000000000E+00 -0.83879057169E+02  0.84010631658E+02  0.47000000000E+01 0.  1.
         25    2    1    2    0    0  0.35230489783E+02 -0.27924255379E+01  0.12197531701E+03  0.17819174566E+03  0.12500134084E+03 0.  0.
         25    2    1    2    0    0 -0.35230489783E+02  0.27924255379E+01  0.19654358146E+02  0.13137659115E+03  0.12499811942E+03 0.  0.
          5    1    4    4  502    0 -0.65897842242E+02  0.68712912681E+01 -0.29842507231E+02  0.72817618017E+02  0.47000000000E+01 0.  1.
         -5    1    4    4    0  502  0.30667352459E+02 -0.40788657302E+01  0.49496865377E+02  0.58558973135E+02  0.47000000000E+01 0.  1.
          5    1    3    3  503    0  0.61683208116E+02 -0.19415974528E+02  0.14865787291E+02  0.66519770461E+02  0.47000000000E+01 0.  1.
         -5    1    3    3    0  503 -0.26452718333E+02  0.16623548990E+02  0.10710952972E+03  0.11167197520E+03  0.47000000000E+01 0.  1.
<mgrwt>
<rscale>  0 0.12990042E+03</rscale>
<asrwt>0</asrwt>
<pdfrwt beam="2">  1        5 0.12918359E-01 0.12990119E+03</pdfrwt>
<pdfrwt beam="1">  1       -5 0.34707539E-01 0.12990119E+03</pdfrwt>
<totfact> 0.29285655E+02</totfact>
</mgrwt>
</event>
<event>
 8    1  0.1821556E-007  0.1565701E+03  0.7546771E-02  0.1192625E+00
         -5   -1    0    0    0  501 -0.00000000000E+00  0.00000000000E+00  0.11759985076E+03  0.11769373348E+03  0.47000000000E+01 0. -1.
          5   -1    0    0  501    0  0.00000000000E+00 -0.00000000000E+00 -0.20861636595E+03  0.20866930330E+03  0.47000000000E+01 0. -1.
         25    2    1    2    0    0 -0.52082908430E+02 -0.78589936491E+02 -0.38666590091E+02  0.16127401631E+03  0.12500078271E+03 0.  0.
         25    2    1    2    0    0  0.52082908430E+02  0.78589936491E+02 -0.52349925092E+02  0.16508902047E+03  0.12499945022E+03 0.  0.
          5    1    3    3  502    0 -0.73124754726E+02 -0.16522111782E+01 -0.18991400581E+01  0.73318867207E+02  0.47000000000E+01 0. -1.
         -5    1    3    3    0  502  0.21041846296E+02 -0.76937725312E+02 -0.36767450033E+02  0.87955149103E+02  0.47000000000E+01 0. -1.
          5    1    4    4  503    0  0.35702184279E+02  0.12717750127E+02 -0.82314525780E+02  0.90742262948E+02  0.47000000000E+01 0.  1.
         -5    1    4    4    0  503  0.16380724151E+02  0.65872186364E+02  0.29964600687E+02  0.74346757525E+02  0.47000000000E+01 0.  1.
<mgrwt>
<rscale>  0 0.15656986E+03</rscale>
<asrwt>0</asrwt>
<pdfrwt beam="2">  1        5 0.32106119E-01 0.15657012E+03</pdfrwt>
<pdfrwt beam="1">  1       -5 0.18103579E-01 0.15657012E+03</pdfrwt>
<totfact> 0.19744232E+02</totfact>
</mgrwt>
</event>
<event>
 8    1  0.1821556E-007  0.1336161E+03  0.7546771E-02  0.1222189E+00
          5   -1    0    0  501    0  0.00000000000E+00  0.00000000000E+00  0.11265383291E+03  0.11275183399E+03  0.47000000000E+01 0. -1.
         -5   -1    0    0    0  501 -0.00000000000E+00 -0.00000000000E+00 -0.15841013427E+03  0.15847984301E+03  0.47000000000E+01 0. -1.
         25    2    1    2    0    0 -0.41663396610E+02 -0.22157815430E+02 -0.18835706331E+02  0.13493717970E+03  0.12500580479E+03 0.  0.
         25    2    1    2    0    0  0.41663396610E+02  0.22157815430E+02 -0.26920595033E+02  0.13629449730E+03  0.12499865661E+03 0.  0.
          5    1    4    4  502    0 -0.26754266256E+02  0.45740948118E+02  0.11200265459E+02  0.54365071912E+02  0.47000000000E+01 0. -1.
         -5    1    4    4    0  502  0.68417662866E+02 -0.23583132688E+02 -0.38120860492E+02  0.81929425386E+02  0.47000000000E+01 0. -1.
          5    1    3    3  503    0  0.97563653927E+01 -0.38307232083E+02  0.39009191472E+02  0.55735426031E+02  0.47000000000E+01 0. -1.
         -5    1    3    3    0  503 -0.51419762003E+02  0.16149416653E+02 -0.57844897803E+02  0.79201753671E+02  0.47000000000E+01 0. -1.
<mgrwt>
<rscale>  0 0.13361441E+03</rscale>
<asrwt>0</asrwt>
<pdfrwt beam="1">  1        5 0.17344260E-01 0.13361609E+03</pdfrwt>
<pdfrwt beam="2">  1       -5 0.24383691E-01 0.13361609E+03</pdfrwt>
<totfact> 0.34601683E+02</totfact>
</mgrwt>
</event>
<event>
 8    1  0.1821556E-007  0.1283515E+03  0.7546771E-02  0.1229925E+00
         -5   -1    0    0    0  501 -0.00000000000E+00  0.00000000000E+00  0.78674642133E+03  0.78676046004E+03  0.47000000000E+01 0.  1.
          5   -1    0    0  501    0  0.00000000000E+00 -0.00000000000E+00 -0.20957757070E+02  0.21478304901E+02  0.47000000000E+01 0.  1.
         25    2    1    2    0    0 -0.26810917386E+02 -0.11381092905E+02  0.43042855453E+03  0.44915589077E+03  0.12499567630E+03 0.  0.
         25    2    1    2    0    0  0.26810917386E+02  0.11381092905E+02  0.33536010973E+03  0.35908287417E+03  0.12500301098E+03 0.  0.
          5    1    3    3  502    0 -0.10163213341E+02 -0.66438644134E+02  0.18087434261E+03  0.19301554899E+03  0.47000000000E+01 0. -1.
         -5    1    3    3    0  502 -0.16647704046E+02  0.55057551229E+02  0.24955421193E+03  0.25614034178E+03  0.47000000000E+01 0. -1.
          5    1    4    4  503    0  0.65778105429E+02  0.39629287168E+02  0.24209707373E+03  0.25402819266E+03  0.47000000000E+01 0. -1.
         -5    1    4    4    0  503 -0.38967188043E+02 -0.28248194263E+02  0.93263035999E+02  0.10505468151E+03  0.47000000000E+01 0. -1.
<mgrwt>
<rscale>  0 0.12834971E+03</rscale>
<asrwt>0</asrwt>
<pdfrwt beam="2">  1        5 0.32653925E-02 0.12835150E+03</pdfrwt>
<pdfrwt beam="1">  1       -5 0.12107903E+00 0.12835150E+03</pdfrwt>
<totfact> 0.18306573E+02</totfact>
</mgrwt>
</event>
<event>
 8    1  0.1821556E-007  0.1297351E+03  0.7546771E-02  0.1227851E+00
         -5   -1    0    0    0  501 -0.00000000000E+00  0.00000000000E+00  0.14575015997E+04  0.14575091777E+04  0.47000000000E+01 0. -1.
          5   -1    0    0  501    0  0.00000000000E+00 -0.00000000000E+00 -0.11203518737E+02  0.12149437521E+02  0.47000000000E+01 0. -1.
         25    2    1    2    0    0 -0.34591807437E+00 -0.34717006257E+02  0.80255606056E+03  0.81297376394E+03  0.12499888135E+03 0.  0.
         25    2    1    2    0    0  0.34591807437E+00  0.34717006257E+02  0.64374202036E+03  0.65668485125E+03  0.12500325956E+03 0.  0.
          5    1    3    3  502    0 -0.54158237479E+02 -0.56460971166E+01  0.56455815141E+03  0.56719748715E+03  0.47000000000E+01 0. -1.
         -5    1    3    3    0  502  0.53812319405E+02 -0.29070909140E+02  0.23799790915E+03  0.24577627680E+03  0.47000000000E+01 0. -1.
          5    1    4    4  503    0 -0.19748944395E+02  0.53984390862E+02  0.13061893321E+03  0.14278561193E+03  0.47000000000E+01 0.  1.
         -5    1    4    4    0  503  0.20094862469E+02 -0.19267384605E+02  0.51312308715E+03  0.51389923932E+03  0.47000000000E+01 0.  1.
<mgrwt>
<rscale>  0 0.12973408E+03</rscale>
<asrwt>0</asrwt>
<pdfrwt beam="2">  1        5 0.17969654E-02 0.12973513E+03</pdfrwt>
<pdfrwt beam="1">  1       -5 0.22430420E+00 0.12973513E+03</pdfrwt>
<totfact> 0.81614303E+01</totfact>
</mgrwt>
</event>
<event>
 8    1  0.1821556E-007  0.1593851E+03  0.7546771E-02  0.1189404E+00
         -5   -1    0    0    0  501 -0.00000000000E+00  0.00000000000E+00  0.22284582119E+03  0.22289537909E+03  0.47000000000E+01 0. -1.
          5   -1    0    0  501    0  0.00000000000E+00 -0.00000000000E+00 -0.11443502686E+03  0.11453150384E+03  0.47000000000E+01 0. -1.
         25    2    1    2    0    0 -0.87454186207E+02  0.46013797685E+02  0.66178099210E+02  0.17254142828E+03  0.12500199757E+03 0.  0.
         25    2    1    2    0    0  0.87454186207E+02 -0.46013797685E+02  0.42232695115E+02  0.16488545465E+03  0.12505242243E+03 0.  0.
          5    1    3    3  502    0 -0.24638783280E+02  0.39478537042E+02  0.92740129721E+02  0.10386744528E+03  0.47000000000E+01 0. -1.
         -5    1    3    3    0  502 -0.62815402927E+02  0.65352606427E+01 -0.26562030511E+02  0.68673983002E+02  0.47000000000E+01 0. -1.
          5    1    4    4  503    0  0.20293449748E+02 -0.61422254319E+02  0.65332168345E+02  0.92059218164E+02  0.47000000000E+01 0.  1.
         -5    1    4    4    0  503  0.67160736459E+02  0.15408456634E+02 -0.23099473230E+02  0.72826236489E+02  0.47000000000E+01 0.  1.
<mgrwt>
<rscale>  0 0.15937522E+03</rscale>
<asrwt>0</asrwt>
<pdfrwt beam="2">  1        5 0.17616623E-01 0.15938511E+03</pdfrwt>
<pdfrwt beam="1">  1       -5 0.34295205E-01 0.15938511E+03</pdfrwt>
<totfact> 0.18310254E+02</totfact>
</mgrwt>
</event>
<event>
 8    1  0.1821556E-007  0.1380817E+03  0.7546771E-02  0.1215934E+00
         -5   -1    0    0    0  501 -0.00000000000E+00  0.00000000000E+00  0.19352729245E+03  0.19358435609E+03  0.47000000000E+01 0.  1.
          5   -1    0    0  501    0  0.00000000000E+00 -0.00000000000E+00 -0.11356801337E+03  0.11366522626E+03  0.47000000000E+01 0.  1.
         25    2    1    2    0    0  0.39556798618E+02  0.43334631089E+02  0.96096902996E+02  0.16822809617E+03  0.12499378788E+03 0.  0.
         25    2    1    2    0    0 -0.39556798618E+02 -0.43334631089E+02 -0.16137623924E+02  0.13902148618E+03  0.12499568050E+03 0.  0.
          5    1    3    3  502    0  0.36314351854E+02 -0.28093790798E+02  0.83595110733E+02  0.95489401352E+02  0.47000000000E+01 0. -1.
         -5    1    3    3    0  502  0.32424467637E+01  0.71428421887E+02  0.12501792263E+02  0.72738694820E+02  0.47000000000E+01 0. -1.
          5    1    4    4  503    0 -0.92936713628E+01 -0.52606649859E+02 -0.62711435788E+02  0.82514520634E+02  0.47000000000E+01 0.  1.
         -5    1    4    4    0  503 -0.30263127255E+02  0.92720187699E+01  0.46573811865E+02  0.56506965543E+02  0.47000000000E+01 0.  1.
<mgrwt>
<rscale>  0 0.13808125E+03</rscale>
<asrwt>0</asrwt>
<pdfrwt beam="2">  1        5 0.17483870E-01 0.13808168E+03</pdfrwt>
<pdfrwt beam="1">  1       -5 0.29785297E-01 0.13808168E+03</pdfrwt>
<totfact> 0.23415066E+02</totfact>
</mgrwt>
</event>
<event>
 8    1  0.1821556E-007  0.1298720E+03  0.7546771E-02  0.1227651E+00
          5   -1    0    0  501    0  0.00000000000E+00  0.00000000000E+00  0.20323695963E+03  0.20329129780E+03  0.47000000000E+01 0. -1.
         -5   -1    0    0    0  501 -0.00000000000E+00 -0.00000000000E+00 -0.94048163357E+02  0.94165529950E+02  0.47000000000E+01 0. -1.
         25    2    1    2    0    0  0.22085894174E+00 -0.35182376691E+02  0.33174310416E+01  0.12989946082E+03  0.12500006466E+03 0.  0.
         25    2    1    2    0    0 -0.22085894174E+00  0.35182376691E+02  0.10587136523E+03  0.16755736693E+03  0.12501550635E+03 0.  0.
          5    1    4    4  502    0  0.40872896750E+02  0.27366050344E+02 -0.43188183220E+01  0.49600772089E+02  0.47000000000E+01 0.  1.
         -5    1    4    4    0  502 -0.41093755691E+02  0.78163263468E+01  0.11019018355E+03  0.11795659484E+03  0.47000000000E+01 0.  1.
          5    1    3    3  503    0 -0.51390834962E+02  0.15887487217E+02  0.15387514278E+02  0.56145309366E+02  0.47000000000E+01 0.  1.
         -5    1    3    3    0  503  0.51611693904E+02 -0.51069863908E+02 -0.12070083237E+02  0.73754151453E+02  0.47000000000E+01 0.  1.
<mgrwt>
<rscale>  0 0.12986824E+03</rscale>
<asrwt>0</asrwt>
<pdfrwt beam="1">  1        5 0.31280432E-01 0.12987196E+03</pdfrwt>
<pdfrwt beam="2">  1       -5 0.14482156E-01 0.12987196E+03</pdfrwt>
<totfact> 0.29330391E+02</totfact>
</mgrwt>
</event>
<event>
 8    1  0.1821556E-007  0.2181832E+03  0.7546771E-02  0.1135246E+00
          5   -1    0    0  501    0  0.00000000000E+00  0.00000000000E+00  0.17567122887E+04  0.17567185760E+04  0.47000000000E+01 0. -1.
         -5   -1    0    0    0  501 -0.00000000000E+00 -0.00000000000E+00 -0.37896545583E+02  0.38186884753E+02  0.47000000000E+01 0. -1.
         25    2    1    2    0    0 -0.98418108014E+02  0.14930250606E+03  0.37795315313E+03  0.43640865220E+03  0.12500625366E+03 0.  0.
         25    2    1    2    0    0  0.98418108014E+02 -0.14930250606E+03  0.13408625900E+04  0.13584968086E+04  0.12499492521E+03 0.  0.
          5    1    3    3  502    0 -0.12678682627E+03  0.10273020520E+03  0.29096506468E+03  0.33363326159E+03  0.47000000000E+01 0. -1.
         -5    1    3    3    0  502  0.28368718255E+02  0.46572300854E+02  0.86988088450E+02  0.10277539061E+03  0.47000000000E+01 0. -1.
          5    1    4    4  503    0  0.96866212532E+02 -0.12430528588E+03  0.71768452982E+03  0.73479795969E+03  0.47000000000E+01 0.  1.
         -5    1    4    4    0  503  0.15518954813E+01 -0.24997220176E+02  0.62317806016E+03  0.62369884886E+03  0.47000000000E+01 0.  1.
<mgrwt>
<rscale>  0 0.21818162E+03</rscale>
<asrwt>0</asrwt>
<pdfrwt beam="1">  1        5 0.27028631E+00 0.21818324E+03</pdfrwt>
<pdfrwt beam="2">  1       -5 0.58530539E-02 0.21818324E+03</pdfrwt>
<totfact> 0.68327290E+00</totfact>
</mgrwt>
</event>
<event>
 8    1  0.1821556E-007  0.2105974E+03  0.7546771E-02  0.1141095E+00
          5   -1    0    0  501    0  0.00000000000E+00  0.00000000000E+00  0.34362382922E+03  0.34365597043E+03  0.47000000000E+01 0. -1.
         -5   -1    0    0    0  501 -0.00000000000E+00 -0.00000000000E+00 -0.13166237566E+03  0.13174623776E+03  0.47000000000E+01 0. -1.
         25    2    1    2    0    0  0.14529490704E+03 -0.87254971003E+02  0.13986100583E+03  0.25280454654E+03  0.12499999130E+03 0.  0.
         25    2    1    2    0    0 -0.14529490704E+03  0.87254971003E+02  0.72100447739E+02  0.22259766164E+03  0.12500881740E+03 0.  0.
          5    1    4    4  502    0 -0.39587444530E+02 -0.12044527916E+02  0.65149418001E+02  0.77322526363E+02  0.47000000000E+01 0.  1.
         -5    1    4    4    0  502 -0.10570746251E+03  0.99299498919E+02  0.69510297381E+01  0.14527513528E+03  0.47000000000E+01 0.  1.
          5    1    3    3  503    0  0.10885227925E+03 -0.89870566378E+02  0.40641240004E+02  0.14696713166E+03  0.47000000000E+01 0. -1.
         -5    1    3    3    0  503  0.36442627793E+02  0.26155953748E+01  0.99219765825E+02  0.10583741489E+03  0.47000000000E+01 0. -1.
<mgrwt>
<rscale>  0 0.21059604E+03</rscale>
<asrwt>0</asrwt>
<pdfrwt beam="1">  1        5 0.52874128E-01 0.21059735E+03</pdfrwt>
<pdfrwt beam="2">  1       -5 0.20264673E-01 0.21059735E+03</pdfrwt>
<totfact> 0.62147211E+01</totfact>
</mgrwt>
</event>
<event>
 8    1  0.1821556E-007  0.1344169E+03  0.7546771E-02  0.1221048E+00
         -5   -1    0    0    0  501 -0.00000000000E+00  0.00000000000E+00  0.38866853536E+03  0.38869695185E+03  0.47000000000E+01 0.  1.
          5   -1    0    0  501    0  0.00000000000E+00 -0.00000000000E+00 -0.61885377643E+02  0.62063596142E+02  0.47000000000E+01 0.  1.
         25    2    1    2    0    0 -0.31679035809E+02 -0.37918581527E+02  0.27615730200E+03  0.30713314287E+03  0.12500612730E+03 0.  0.
         25    2    1    2    0    0  0.31679035809E+02  0.37918581527E+02  0.50625855711E+02  0.14362740513E+03  0.12499789639E+03 0.  0.
          5    1    4    4  502    0 -0.12096765043E+02  0.66260409899E+02 -0.44095130494E+01  0.67663191247E+02  0.47000000000E+01 0.  1.
         -5    1    4    4    0  502  0.43775800852E+02 -0.28341828372E+02  0.55035368760E+02  0.75964213879E+02  0.47000000000E+01 0.  1.
          5    1    3    3  503    0 -0.40246562554E+02  0.15162178789E+02  0.23581132075E+03  0.23974725537E+03  0.47000000000E+01 0.  1.
         -5    1    3    3    0  503  0.85675267455E+01 -0.53080760316E+02  0.40345981252E+02  0.67385887495E+02  0.47000000000E+01 0.  1.
<mgrwt>
<rscale>  0 0.13441502E+03</rscale>
<asrwt>0</asrwt>
<pdfrwt beam="2">  1        5 0.95367220E-02 0.13441693E+03</pdfrwt>
<pdfrwt beam="1">  1       -5 0.59811056E-01 0.13441693E+03</pdfrwt>
<totfact> 0.16225635E+02</totfact>
</mgrwt>
</event>
<event>
 8    1  0.1821556E-007  0.1339968E+03  0.7546771E-02  0.1221643E+00
          5   -1    0    0  501    0  0.00000000000E+00  0.00000000000E+00  0.79092064443E+03  0.79093460905E+03  0.47000000000E+01 0.  1.
         -5   -1    0    0    0  501 -0.00000000000E+00 -0.00000000000E+00 -0.22515758085E+02  0.23001073065E+02  0.47000000000E+01 0.  1.
         25    2    1    2    0    0  0.12258149513E+02 -0.46678059825E+02  0.36144500736E+03  0.38548364479E+03  0.12500417417E+03 0.  0.
         25    2    1    2    0    0 -0.12258149513E+02  0.46678059825E+02  0.40695987899E+03  0.42845203732E+03  0.12500280668E+03 0.  0.
          5    1    4    4  502    0 -0.56853646547E+01  0.89218270566E+02  0.24651975861E+03  0.26227143298E+03  0.47000000000E+01 0.  1.
         -5    1    4    4    0  502 -0.65727848587E+01 -0.42540210741E+02  0.16044012038E+03  0.16618060434E+03  0.47000000000E+01 0.  1.
          5    1    3    3  503    0  0.25162170969E+02 -0.42456842456E+02  0.36681159990E+03  0.37014667112E+03  0.47000000000E+01 0.  1.
         -5    1    3    3    0  503 -0.12904021455E+02 -0.42212173692E+01 -0.53665925457E+01  0.15336973670E+02  0.47000000000E+01 0.  1.
<mgrwt>
<rscale>  0 0.13399650E+03</rscale>
<asrwt>0</asrwt>
<pdfrwt beam="1">  1        5 0.12171849E+00 0.13399682E+03</pdfrwt>
<pdfrwt beam="2">  1       -5 0.35023693E-02 0.13399682E+03</pdfrwt>
<totfact> 0.16356808E+02</totfact>
</mgrwt>
</event>
<event>
 8    1  0.1821556E-007  0.1261629E+03  0.7546771E-02  0.1233270E+00
          5   -1    0    0  501    0  0.00000000000E+00  0.00000000000E+00  0.45939150883E+02  0.46178951740E+02  0.47000000000E+01 0. -1.
         -5   -1    0    0    0  501 -0.00000000000E+00 -0.00000000000E+00 -0.34554933818E+03  0.34558130030E+03  0.47000000000E+01 0. -1.
         25    2    1    2    0    0  0.16646932302E+02 -0.31918577988E+01 -0.15532367306E+03  0.20010624609E+03  0.12501903055E+03 0.  0.
         25    2    1    2    0    0 -0.16646932302E+02  0.31918577988E+01 -0.14428651424E+03  0.19165400595E+03  0.12500140597E+03 0.  0.
          5    1    4    4  502    0  0.28496138589E+02 -0.36018806221E+02 -0.14031494339E+02  0.48253053266E+02  0.47000000000E+01 0.  1.
         -5    1    4    4    0  502 -0.45143070892E+02  0.39210664020E+02 -0.13025501990E+03  0.14340095269E+03  0.47000000000E+01 0.  1.
          5    1    3    3  503    0 -0.12296064847E+02  0.57269606404E+02 -0.78143847157E+02  0.97772960868E+02  0.47000000000E+01 0. -1.
         -5    1    3    3    0  503  0.28942997150E+02 -0.60461464202E+02 -0.77179825901E+02  0.10233328522E+03  0.47000000000E+01 0. -1.
<mgrwt>
<rscale>  0 0.12615849E+03</rscale>
<asrwt>0</asrwt>
<pdfrwt beam="1">  1        5 0.70884667E-02 0.12616286E+03</pdfrwt>
<pdfrwt beam="2">  1       -5 0.53182340E-01 0.12616286E+03</pdfrwt>
<totfact> 0.34035184E+02</totfact>
</mgrwt>
</event>
<event>
 8    1  0.1821556E-007  0.1922153E+03  0.7546771E-02  0.1156479E+00
          5   -1    0    0  501    0  0.00000000000E+00  0.00000000000E+00  0.85138508991E+02  0.85268140083E+02  0.47000000000E+01 0. -1.
         -5   -1    0    0    0  501 -0.00000000000E+00 -0.00000000000E+00 -0.59471106719E+03  0.59472963895E+03  0.47000000000E+01 0. -1.
         25    2    1    2    0    0  0.11764720701E+03  0.86490894939E+02 -0.43179188328E+03  0.47264168626E+03  0.12499757158E+03 0.  0.
         25    2    1    2    0    0 -0.11764720701E+03 -0.86490894939E+02 -0.77780674921E+02  0.20735609277E+03  0.12500070237E+03 0.  0.
          5    1    4    4  502    0  0.95484709163E+01 -0.38155221684E+02 -0.57320839016E+02  0.69676128079E+02  0.47000000000E+01 0. -1.
         -5    1    4    4    0  502 -0.12719567792E+03 -0.48335673255E+02 -0.20459835905E+02  0.13767996469E+03  0.47000000000E+01 0. -1.
          5    1    3    3  503    0 -0.11850528658E+01 -0.88295474799E+01  0.40980092044E+01  0.10874232774E+02  0.47000000000E+01 0.  1.
         -5    1    3    3    0  503  0.11883225987E+03  0.95320442419E+02 -0.43588989248E+03  0.46176745349E+03  0.47000000000E+01 0.  1.
<mgrwt>
<rscale>  0 0.19221478E+03</rscale>
<asrwt>0</asrwt>
<pdfrwt beam="1">  1        5 0.13109633E-01 0.19221529E+03</pdfrwt>
<pdfrwt beam="2">  1       -5 0.91505408E-01 0.19221529E+03</pdfrwt>
<totfact> 0.38917661E+01</totfact>
</mgrwt>
</event>
<event>
 8    1  0.1821556E-007  0.1252382E+03  0.7546771E-02  0.1234698E+00
         -5   -1    0    0    0  501 -0.00000000000E+00  0.00000000000E+00  0.67684376478E+03  0.67686008297E+03  0.47000000000E+01 0. -1.
          5   -1    0    0  501    0  0.00000000000E+00 -0.00000000000E+00 -0.23795273747E+02  0.24255000571E+02  0.47000000000E+01 0. -1.
         25    2    1    2    0    0  0.77203006751E+01  0.12576258176E+00  0.39317420110E+03  0.41263852963E+03  0.12499993948E+03 0.  0.
         25    2    1    2    0    0 -0.77203006751E+01 -0.12576258176E+00  0.25987428994E+03  0.28847655391E+03  0.12499782689E+03 0.  0.
          5    1    4    4  502    0 -0.34112964774E+01 -0.12955880536E+02 -0.10540257638E+02  0.17682726464E+02  0.47000000000E+01 0.  1.
         -5    1    4    4    0  502 -0.43090041977E+01  0.12830117954E+02  0.27041454757E+03  0.27079382745E+03  0.47000000000E+01 0.  1.
          5    1    3    3  503    0  0.49566584980E+02 -0.38801078428E+02  0.26164985297E+03  0.26915628470E+03  0.47000000000E+01 0.  1.
         -5    1    3    3    0  503 -0.41846284305E+02  0.38926841009E+02  0.13152434813E+03  0.14348224494E+03  0.47000000000E+01 0.  1.
<mgrwt>
<rscale>  0 0.12523766E+03</rscale>
<asrwt>0</asrwt>
<pdfrwt beam="2">  1        5 0.36974308E-02 0.12523819E+03</pdfrwt>
<pdfrwt beam="1">  1       -5 0.10416641E+00 0.12523819E+03</pdfrwt>
<totfact> 0.21590121E+02</totfact>
</mgrwt>
</event>
<event>
 8    1  0.1821556E-007  0.1338313E+03  0.7546771E-02  0.1221879E+00
          5   -1    0    0  501    0  0.00000000000E+00  0.00000000000E+00  0.10279147385E+04  0.10279254835E+04  0.47000000000E+01 0.  1.
         -5   -1    0    0    0  501 -0.00000000000E+00 -0.00000000000E+00 -0.17149062413E+02  0.17781460616E+02  0.47000000000E+01 0.  1.
         25    2    1    2    0    0  0.46617646149E+02  0.10594557252E+02  0.53383545007E+03  0.55035544549E+03  0.12500151618E+03 0.  0.
         25    2    1    2    0    0 -0.46617646149E+02 -0.10594557252E+02  0.47693022606E+03  0.49535149868E+03  0.12500086852E+03 0.  0.
          5    1    3    3  502    0  0.43973498833E+02 -0.48796702963E+02  0.37407205699E+03  0.37982467092E+03  0.47000000000E+01 0.  1.
         -5    1    3    3    0  502  0.26441473154E+01  0.59391260214E+02  0.15976339309E+03  0.17053077457E+03  0.47000000000E+01 0.  1.
          5    1    4    4  503    0  0.11018741433E+02  0.13860534173E+02  0.37626645010E+03  0.37671216936E+03  0.47000000000E+01 0.  1.
         -5    1    4    4    0  503 -0.57636387582E+02 -0.24455091425E+02  0.10066377596E+03  0.11863932932E+03  0.47000000000E+01 0.  1.
<mgrwt>
<rscale>  0 0.13383119E+03</rscale>
<asrwt>0</asrwt>
<pdfrwt beam="1">  1        5 0.15819023E+00 0.13383134E+03</pdfrwt>
<pdfrwt beam="2">  1       -5 0.26877894E-02 0.13383134E+03</pdfrwt>
<totfact> 0.12490394E+02</totfact>
</mgrwt>
</event>
<event>
 8    1  0.1821556E-007  0.1460895E+03  0.7546771E-02  0.1205362E+00
         -5   -1    0    0    0  501 -0.00000000000E+00  0.00000000000E+00  0.46990042321E+02  0.47224507169E+02  0.47000000000E+01 0. -1.
          5   -1    0    0  501    0  0.00000000000E+00 -0.00000000000E+00 -0.64474711998E+03  0.64476425050E+03  0.47000000000E+01 0. -1.
         25    2    1    2    0    0 -0.72648052602E+02  0.20930367739E+02 -0.11013406030E+03  0.18295207654E+03  0.12500452485E+03 0.  0.
         25    2    1    2    0    0  0.72648052602E+02 -0.20930367739E+02 -0.48762301736E+03  0.50903668112E+03  0.12500526322E+03 0.  0.
          5    1    3    3  502    0 -0.14688935568E+01  0.57910311314E+02 -0.18306713758E+02  0.60934288979E+02  0.47000000000E+01 0.  1.
         -5    1    3    3    0  502 -0.71179159045E+02 -0.36979943575E+02 -0.91827346540E+02  0.12201778756E+03  0.47000000000E+01 0.  1.
          5    1    4    4  503    0  0.10336793447E+03 -0.36534073832E+02 -0.33552005714E+03  0.35300916018E+03  0.47000000000E+01 0.  1.
         -5    1    4    4    0  503 -0.30719881863E+02  0.15603706093E+02 -0.15210296021E+03  0.15602752094E+03  0.47000000000E+01 0.  1.
<mgrwt>
<rscale>  0 0.14608932E+03</rscale>
<asrwt>0</asrwt>
<pdfrwt beam="2">  1        5 0.99211212E-01 0.14608948E+03</pdfrwt>
<pdfrwt beam="1">  1       -5 0.72485912E-02 0.14608948E+03</pdfrwt>
<totfact> 0.83424754E+01</totfact>
</mgrwt>
</event>
<event>
 8    1  0.1821556E-007  0.1916852E+03  0.7546771E-02  0.1156952E+00
          5   -1    0    0  501    0  0.00000000000E+00  0.00000000000E+00  0.77943418604E+03  0.77944835645E+03  0.47000000000E+01 0. -1.
         -5   -1    0    0    0  501 -0.00000000000E+00 -0.00000000000E+00 -0.47306515351E+02  0.47539419377E+02  0.47000000000E+01 0. -1.
         25    2    1    2    0    0  0.14515369375E+03 -0.66352885654E+01  0.33322429395E+03  0.38441899742E+03  0.12500365448E+03 0.  0.
         25    2    1    2    0    0 -0.14515369375E+03  0.66352885654E+01  0.39890337674E+03  0.44256877841E+03  0.12501838978E+03 0.  0.
          5    1    4    4  502    0 -0.70730448136E+02 -0.28223691350E+02  0.31845936069E+03  0.32747187278E+03  0.47000000000E+01 0.  1.
         -5    1    4    4    0  502 -0.74423245615E+02  0.34858979915E+02  0.80444016053E+02  0.11509690564E+03  0.47000000000E+01 0.  1.
          5    1    3    3  503    0  0.12824327314E+03  0.39568605535E+02  0.28646576943E+03  0.31638068637E+03  0.47000000000E+01 0.  1.
         -5    1    3    3    0  503  0.16910420606E+02 -0.46203894101E+02  0.46758524520E+02  0.68038311049E+02  0.47000000000E+01 0.  1.
<mgrwt>
<rscale>  0 0.19168281E+03</rscale>
<asrwt>0</asrwt>
<pdfrwt beam="1">  1        5 0.11993196E+00 0.19168521E+03</pdfrwt>
<pdfrwt beam="2">  1       -5 0.72969310E-02 0.19168521E+03</pdfrwt>
<totfact> 0.55535122E+01</totfact>
</mgrwt>
</event>
<event>
 8    1  0.1821556E-007  0.1303868E+03  0.7546771E-02  0.1226889E+00
          5   -1    0    0  501    0  0.00000000000E+00  0.00000000000E+00  0.90005202074E+02  0.90127833661E+02  0.47000000000E+01 0. -1.
         -5   -1    0    0    0  501 -0.00000000000E+00 -0.00000000000E+00 -0.23121153023E+03  0.23125929541E+03  0.47000000000E+01 0. -1.
         25    2    1    2    0    0 -0.27189819307E+02  0.25150126431E+02 -0.13957284519E+03  0.19099007062E+03  0.12499925130E+03 0.  0.
         25    2    1    2    0    0  0.27189819307E+02 -0.25150126431E+02 -0.16334829675E+01  0.13039705845E+03  0.12501563683E+03 0.  0.
          5    1    4    4  502    0  0.21436346398E+02 -0.75674453998E+02 -0.67112702478E+01  0.79077626944E+02  0.47000000000E+01 0.  1.
         -5    1    4    4    0  502  0.57534729095E+01  0.50524327566E+02  0.50777872802E+01  0.51319431507E+02  0.47000000000E+01 0.  1.
          5    1    3    3  503    0 -0.30195280376E+02 -0.47820195852E+02 -0.68772980630E+02  0.89164673235E+02  0.47000000000E+01 0.  1.
         -5    1    3    3    0  503  0.30054610687E+01  0.72970322283E+02 -0.70799864561E+02  0.10182539738E+03  0.47000000000E+01 0.  1.
<mgrwt>
<rscale>  0 0.13038290E+03</rscale>
<asrwt>0</asrwt>
<pdfrwt beam="1">  1        5 0.13860062E-01 0.13038683E+03</pdfrwt>
<pdfrwt beam="2">  1       -5 0.35584112E-01 0.13038683E+03</pdfrwt>
<totfact> 0.24596515E+02</totfact>
</mgrwt>
</event>
<event>
 8    1  0.1821556E-007  0.1377754E+03  0.7546771E-02  0.1216356E+00
          5   -1    0    0  501    0  0.00000000000E+00  0.00000000000E+00  0.27990811405E+03  0.27994757064E+03  0.47000000000E+01 0. -1.
         -5   -1    0    0    0  501 -0.00000000000E+00 -0.00000000000E+00 -0.70056495893E+02  0.70213977361E+02  0.47000000000E+01 0. -1.
         25    2    1    2    0    0  0.53908025578E+02  0.21200710955E+02  0.72766345513E+02  0.15580507137E+03  0.12499893543E+03 0.  0.
         25    2    1    2    0    0 -0.53908025578E+02 -0.21200710955E+02  0.13708527264E+03  0.19435647664E+03  0.12500609052E+03 0.  0.
          5    1    4    4  502    0 -0.49118266938E+02 -0.66780023824E+02  0.53082620315E+02  0.98549633731E+02  0.47000000000E+01 0.  1.
         -5    1    4    4    0  502 -0.47897586407E+01  0.45579312869E+02  0.84002652327E+02  0.95806842905E+02  0.47000000000E+01 0.  1.
          5    1    3    3  503    0 -0.25120400370E+02  0.39492070310E+02  0.55471406226E+02  0.72731183414E+02  0.47000000000E+01 0. -1.
         -5    1    3    3    0  503  0.79028425949E+02 -0.18291359355E+02  0.17294939287E+02  0.83073887955E+02  0.47000000000E+01 0. -1.
<mgrwt>
<rscale>  0 0.13777380E+03</rscale>
<asrwt>0</asrwt>
<pdfrwt beam="1">  1        5 0.43077935E-01 0.13777543E+03</pdfrwt>
<pdfrwt beam="2">  1       -5 0.10793072E-01 0.13777543E+03</pdfrwt>
<totfact> 0.26475122E+02</totfact>
</mgrwt>
</event>
<event>
 8    1  0.1821556E-007  0.1282071E+03  0.7546771E-02  0.1230143E+00
          5   -1    0    0  501    0  0.00000000000E+00  0.00000000000E+00  0.66888821440E+02  0.67053742876E+02  0.47000000000E+01 0.  1.
         -5   -1    0    0    0  501 -0.00000000000E+00 -0.00000000000E+00 -0.28425390977E+03  0.28429276322E+03  0.47000000000E+01 0.  1.
         25    2    1    2    0    0 -0.14374254210E+02 -0.24596003085E+02 -0.17374343881E+03  0.21592158291E+03  0.12499505944E+03 0.  0.
         25    2    1    2    0    0  0.14374254210E+02  0.24596003085E+02 -0.43621649521E+02  0.13542492319E+03  0.12500191584E+03 0.  0.
          5    1    3    3  502    0 -0.34662573024E+02  0.76065586387E+01  0.21829927880E+01  0.35863758315E+02  0.47000000000E+01 0. -1.
         -5    1    3    3    0  502  0.20288318814E+02 -0.32202561724E+02 -0.17592643160E+03  0.18005782459E+03  0.47000000000E+01 0. -1.
          5    1    4    4  503    0 -0.18958648061E+02  0.98433668464E+01  0.39158159742E+02  0.44852800153E+02  0.47000000000E+01 0. -1.
         -5    1    4    4    0  503  0.33332902271E+02  0.14752636239E+02 -0.82779809264E+02  0.90572123038E+02  0.47000000000E+01 0. -1.
<mgrwt>
<rscale>  0 0.12820543E+03</rscale>
<asrwt>0</asrwt>
<pdfrwt beam="1">  1        5 0.10306263E-01 0.12820710E+03</pdfrwt>
<pdfrwt beam="2">  1       -5 0.43747045E-01 0.12820710E+03</pdfrwt>
<totfact> 0.27110543E+02</totfact>
</mgrwt>
</event>
<event>
 8    1  0.1821556E-007  0.1272922E+03  0.7546771E-02  0.1231534E+00
         -5   -1    0    0    0  501 -0.00000000000E+00  0.00000000000E+00  0.14390759165E+02  0.15138822588E+02  0.47000000000E+01 0.  1.
          5   -1    0    0  501    0  0.00000000000E+00 -0.00000000000E+00 -0.12505399101E+04  0.12505487422E+04  0.47000000000E+01 0.  1.
         25    2    1    2    0    0  0.34540340992E+01  0.23763145262E+02 -0.39607888680E+03  0.41602801908E+03  0.12499684264E+03 0.  0.
         25    2    1    2    0    0 -0.34540340992E+01 -0.23763145262E+02 -0.84007026409E+03  0.84965954572E+03  0.12500671018E+03 0.  0.
          5    1    3    3  502    0 -0.35685382931E+02 -0.35284394685E+02 -0.22915767006E+03  0.23463538269E+03  0.47000000000E+01 0. -1.
         -5    1    3    3    0  502  0.39139417030E+02  0.59047539947E+02 -0.16692121673E+03  0.18139263638E+03  0.47000000000E+01 0. -1.
          5    1    4    4  503    0  0.46275749018E+02 -0.22208318170E+02 -0.16788957749E+03  0.17562361621E+03  0.47000000000E+01 0. -1.
         -5    1    4    4    0  503 -0.49729783117E+02 -0.15548270922E+01 -0.67218068661E+03  0.67403592951E+03  0.47000000000E+01 0. -1.
<mgrwt>
<rscale>  0 0.12728974E+03</rscale>
<asrwt>0</asrwt>
<pdfrwt beam="2">  1        5 0.19244890E+00 0.12729216E+03</pdfrwt>
<pdfrwt beam="1">  1       -5 0.22721867E-02 0.12729216E+03</pdfrwt>
<totfact> 0.91039477E+01</totfact>
</mgrwt>
</event>
<event>
 8    1  0.1821556E-007  0.1294988E+03  0.7546771E-02  0.1228207E+00
         -5   -1    0    0    0  501 -0.00000000000E+00  0.00000000000E+00  0.56632545856E+02  0.56827240388E+02  0.47000000000E+01 0.  1.
          5   -1    0    0  501    0  0.00000000000E+00 -0.00000000000E+00 -0.31399408429E+03  0.31402925814E+03  0.47000000000E+01 0.  1.
         25    2    1    2    0    0 -0.15916003883E+01  0.33757141545E+02 -0.83536677536E+02  0.15410487792E+03  0.12501143591E+03 0.  0.
         25    2    1    2    0    0  0.15916003883E+01 -0.33757141545E+02 -0.17382486090E+03  0.21675162061E+03  0.12499641985E+03 0.  0.
          5    1    4    4  502    0  0.28044287770E+02 -0.74081786954E+02 -0.12426764824E+03  0.14744196022E+03  0.47000000000E+01 0. -1.
         -5    1    4    4    0  502 -0.26452687381E+02  0.40324645409E+02 -0.49557212661E+02  0.69309660393E+02  0.47000000000E+01 0. -1.
          5    1    3    3  503    0  0.20440916648E+01  0.14391979866E+02  0.32712495045E+02  0.36104081864E+02  0.47000000000E+01 0. -1.
         -5    1    3    3    0  503 -0.36356920531E+01  0.19365161679E+02 -0.11624917258E+03  0.11800079605E+03  0.47000000000E+01 0. -1.
<mgrwt>
<rscale>  0 0.12949517E+03</rscale>
<asrwt>0</asrwt>
<pdfrwt beam="2">  1        5 0.48324463E-01 0.12949879E+03</pdfrwt>
<pdfrwt beam="1">  1       -5 0.87303817E-02 0.12949879E+03</pdfrwt>
<totfact> 0.29482788E+02</totfact>
</mgrwt>
</event>
<event>
 8    1  0.1821556E-007  0.1319648E+03  0.7546771E-02  0.1224572E+00
         -5   -1    0    0    0  501 -0.00000000000E+00  0.00000000000E+00  0.45948345434E+02  0.46188098555E+02  0.47000000000E+01 0. -1.
          5   -1    0    0  501    0  0.00000000000E+00 -0.00000000000E+00 -0.37791574080E+03  0.37794496576E+03  0.47000000000E+01 0. -1.
         25    2    1    2    0    0 -0.14494034733E+01 -0.42276246309E+02 -0.16148264467E+03  0.20854581641E+03  0.12500132495E+03 0.  0.
         25    2    1    2    0    0  0.14494034733E+01  0.42276246309E+02 -0.17048475069E+03  0.21558724791E+03  0.12499371772E+03 0.  0.
          5    1    3    3  502    0 -0.14807967542E+02  0.26953880391E+02 -0.12540251057E+03  0.12920397528E+03  0.47000000000E+01 0.  1.
         -5    1    3    3    0  502  0.13358564069E+02 -0.69230126700E+02 -0.36080134099E+02  0.79341841128E+02  0.47000000000E+01 0.  1.
          5    1    4    4  503    0 -0.11652281119E+02  0.14049697623E+02 -0.18132403576E+03  0.18230103018E+03  0.47000000000E+01 0. -1.
         -5    1    4    4    0  503  0.13101684592E+02  0.28226548686E+02  0.10839285069E+02  0.33286217729E+02  0.47000000000E+01 0. -1.
<mgrwt>
<rscale>  0 0.13196302E+03</rscale>
<asrwt>0</asrwt>
<pdfrwt beam="2">  1        5 0.58161572E-01 0.13196482E+03</pdfrwt>
<pdfrwt beam="1">  1       -5 0.70896671E-02 0.13196482E+03</pdfrwt>
<totfact> 0.28517508E+02</totfact>
</mgrwt>
</event>
<event>
 8    1  0.1821556E-007  0.1319975E+03  0.7546771E-02  0.1224526E+00
          5   -1    0    0  501    0  0.00000000000E+00  0.00000000000E+00  0.39089453421E+03  0.39092278890E+03  0.47000000000E+01 0. -1.
         -5   -1    0    0    0  501 -0.00000000000E+00 -0.00000000000E+00 -0.50201937038E+02  0.50421468467E+02  0.47000000000E+01 0. -1.
         25    2    1    2    0    0 -0.32232433345E+02 -0.27548151538E+02  0.95612601410E+02  0.16297842655E+03  0.12498946979E+03 0.  0.
         25    2    1    2    0    0  0.32232433345E+02  0.27548151538E+02  0.24507999577E+03  0.27836583082E+03  0.12500200410E+03 0.  0.
          5    1    4    4  502    0  0.28603753703E+02  0.46994360094E+01 -0.26761628154E+01  0.29487476530E+02  0.47000000000E+01 0.  1.
         -5    1    4    4    0  502  0.36286796421E+01  0.22848715529E+02  0.24775615858E+03  0.24887835429E+03  0.47000000000E+01 0.  1.
          5    1    3    3  503    0 -0.19429157462E+02 -0.36786519688E+02  0.12360261130E+03  0.13050071153E+03  0.47000000000E+01 0.  1.
         -5    1    3    3    0  503 -0.12803275883E+02  0.92383681497E+01 -0.27990009885E+02  0.32477715018E+02  0.47000000000E+01 0.  1.
<mgrwt>
<rscale>  0 0.13199450E+03</rscale>
<asrwt>0</asrwt>
<pdfrwt beam="1">  1        5 0.60156680E-01 0.13199747E+03</pdfrwt>
<pdfrwt beam="2">  1       -5 0.77424355E-02 0.13199747E+03</pdfrwt>
<totfact> 0.22805028E+02</totfact>
</mgrwt>
</event>
<event>
 8    1  0.1821556E-007  0.1429017E+03  0.7546771E-02  0.1209477E+00
          5   -1    0    0  501    0  0.00000000000E+00  0.00000000000E+00  0.65594819498E+02  0.65762986132E+02  0.47000000000E+01 0.  1.
         -5   -1    0    0    0  501 -0.00000000000E+00 -0.00000000000E+00 -0.57944271622E+03  0.57946177733E+03  0.47000000000E+01 0.  1.
         25    2    1    2    0    0 -0.47582601837E+02  0.50314142313E+02 -0.47658055546E+03  0.49754352064E+03  0.12499964870E+03 0.  0.
         25    2    1    2    0    0  0.47582601837E+02 -0.50314142313E+02 -0.37267341263E+02  0.14768124282E+03  0.12500111136E+03 0.  0.
          5    1    4    4  502    0  0.36157775118E+01 -0.27631296062E+01  0.43533845306E+02  0.44022658023E+02  0.47000000000E+01 0.  1.
         -5    1    4    4    0  502  0.43966824325E+02 -0.47551012707E+02 -0.80801186569E+02  0.10365858479E+03  0.47000000000E+01 0.  1.
          5    1    3    3  503    0 -0.72301933023E+02  0.57289810788E+02 -0.45312722935E+03  0.46244574591E+03  0.47000000000E+01 0.  1.
         -5    1    3    3    0  503  0.24719331187E+02 -0.69756684750E+01 -0.23453326116E+02  0.35097774729E+02  0.47000000000E+01 0.  1.
<mgrwt>
<rscale>  0 0.14290138E+03</rscale>
<asrwt>0</asrwt>
<pdfrwt beam="1">  1        5 0.10105913E-01 0.14290170E+03</pdfrwt>
<pdfrwt beam="2">  1       -5 0.89159432E-01 0.14290170E+03</pdfrwt>
<totfact> 0.60339799E+01</totfact>
</mgrwt>
</event>
<event>
 8    1  0.1821556E-007  0.1525036E+03  0.7546771E-02  0.1197430E+00
          5   -1    0    0  501    0  0.00000000000E+00  0.00000000000E+00  0.34447715014E+03  0.34450921174E+03  0.47000000000E+01 0. -1.
         -5   -1    0    0    0  501 -0.00000000000E+00 -0.00000000000E+00 -0.68693428897E+02  0.68854028013E+02  0.47000000000E+01 0. -1.
         25    2    1    2    0    0  0.86891419212E+02 -0.90993692819E+01  0.10954565038E+03  0.18777007197E+03  0.12499773261E+03 0.  0.
         25    2    1    2    0    0 -0.86891419212E+02  0.90993692819E+01  0.16623807087E+03  0.22559316778E+03  0.12499705552E+03 0.  0.
          5    1    3    3  502    0 -0.25356844883E+02 -0.19726046386E+02  0.51469512819E+02  0.60854640236E+02  0.47000000000E+01 0. -1.
         -5    1    3    3    0  502  0.11224826409E+03  0.10626677104E+02  0.58076137557E+02  0.12691543173E+03  0.47000000000E+01 0. -1.
          5    1    4    4  503    0 -0.69184977514E+02  0.21172100577E+02  0.16633066056E+02  0.74387954958E+02  0.47000000000E+01 0. -1.
         -5    1    4    4    0  503 -0.17706441699E+02 -0.12072731295E+02  0.14960500482E+03  0.15120521282E+03  0.47000000000E+01 0. -1.
<mgrwt>
<rscale>  0 0.15250347E+03</rscale>
<asrwt>0</asrwt>
<pdfrwt beam="1">  1        5 0.53011306E-01 0.15250361E+03</pdfrwt>
<pdfrwt beam="2">  1       -5 0.10583040E-01 0.15250361E+03</pdfrwt>
<totfact> 0.18311029E+02</totfact>
</mgrwt>
</event>
<event>
 8    1  0.1821556E-007  0.1345309E+03  0.7546771E-02  0.1220913E+00
         -5   -1    0    0    0  501 -0.00000000000E+00  0.00000000000E+00  0.76498755084E+02  0.76643000524E+02  0.47000000000E+01 0. -1.
          5   -1    0    0  501    0  0.00000000000E+00 -0.00000000000E+00 -0.23840260266E+03  0.23844892735E+03  0.47000000000E+01 0. -1.
         25    2    1    2    0    0 -0.43648332259E+02  0.23393475932E+02 -0.65287318652E+02  0.14946188383E+03  0.12499595640E+03 0.  0.
         25    2    1    2    0    0  0.43648332259E+02 -0.23393475932E+02 -0.96616528923E+02  0.16563004404E+03  0.12508447627E+03 0.  0.
          5    1    3    3  502    0 -0.14305637085E+02  0.73075946264E+01  0.37605694947E+02  0.41162245858E+02  0.47000000000E+01 0.  1.
         -5    1    3    3    0  502 -0.29342695174E+02  0.16085881306E+02 -0.10289301360E+03  0.10829963797E+03  0.47000000000E+01 0.  1.
          5    1    4    4  503    0  0.20324735768E+02 -0.60049924473E+02 -0.10342707628E+03  0.12140155856E+03  0.47000000000E+01 0. -1.
         -5    1    4    4    0  503  0.23323596491E+02  0.36656448541E+02  0.68105473559E+01  0.44228485484E+02  0.47000000000E+01 0. -1.
<mgrwt>
<rscale>  0 0.13451030E+03</rscale>
<asrwt>0</asrwt>
<pdfrwt beam="2">  1        5 0.36691982E-01 0.13453088E+03</pdfrwt>
<pdfrwt beam="1">  1       -5 0.11783699E-01 0.13453088E+03</pdfrwt>
<totfact> 0.31220501E+02</totfact>
</mgrwt>
</event>
<event>
 8    1  0.1821556E-007  0.1474952E+03  0.7546771E-02  0.1203590E+00
          5   -1    0    0  501    0  0.00000000000E+00  0.00000000000E+00  0.12351240657E+03  0.12360179844E+03  0.47000000000E+01 0.  1.
         -5   -1    0    0    0  501 -0.00000000000E+00 -0.00000000000E+00 -0.17686870256E+03  0.17693113900E+03  0.47000000000E+01 0.  1.
         25    2    1    2    0    0  0.71314613315E+02 -0.32249244537E+02 -0.37602497664E+02  0.15221291666E+03  0.12501614425E+03 0.  0.
         25    2    1    2    0    0 -0.71314613315E+02  0.32249244537E+02 -0.15753798329E+02  0.14832002077E+03  0.12499943421E+03 0.  0.
          5    1    3    3  502    0  0.53919226014E+01  0.20476552441E+02 -0.60791646369E+02  0.64545149294E+02  0.47000000000E+01 0.  1.
         -5    1    3    3    0  502  0.65922690713E+02 -0.52725796978E+02  0.23189148704E+02  0.87667767369E+02  0.47000000000E+01 0.  1.
          5    1    4    4  503    0  0.90962193510E+01 -0.38397221730E+02  0.16642308180E+01  0.39773703716E+02  0.47000000000E+01 0.  1.
         -5    1    4    4    0  503 -0.80410832666E+02  0.70646466268E+02 -0.17418029147E+02  0.10854631705E+03  0.47000000000E+01 0.  1.
<mgrwt>
<rscale>  0 0.14749163E+03</rscale>
<asrwt>0</asrwt>
<pdfrwt beam="1">  1        5 0.19013588E-01 0.14749517E+03</pdfrwt>
<pdfrwt beam="2">  1       -5 0.27222249E-01 0.14749517E+03</pdfrwt>
<totfact> 0.24434565E+02</totfact>
</mgrwt>
</event>
<event>
 8    1  0.1821556E-007  0.1253580E+03  0.7546771E-02  0.1234512E+00
         -5   -1    0    0    0  501 -0.00000000000E+00  0.00000000000E+00  0.14634806102E+03  0.14642351233E+03  0.47000000000E+01 0. -1.
          5   -1    0    0  501    0  0.00000000000E+00 -0.00000000000E+00 -0.11447937379E+03  0.11457581343E+03  0.47000000000E+01 0. -1.
         25    2    1    2    0    0  0.93009362306E+01 -0.13686855850E+01  0.48769768122E+02  0.13451070422E+03  0.12500503410E+03 0.  0.
         25    2    1    2    0    0 -0.93009362306E+01  0.13686855850E+01 -0.16901080895E+02  0.12648862155E+03  0.12500137652E+03 0.  0.
          5    1    3    3  502    0 -0.37048125478E+02  0.45606226251E+02  0.27255110601E+02  0.64941685597E+02  0.47000000000E+01 0.  1.
         -5    1    3    3    0  502  0.46349061709E+02 -0.46974911836E+02  0.21514657521E+02  0.69569018619E+02  0.47000000000E+01 0.  1.
          5    1    4    4  503    0 -0.34784367533E+01 -0.58135165221E+02 -0.29121702244E+02  0.65283692444E+02  0.47000000000E+01 0.  1.
         -5    1    4    4    0  503 -0.58224994773E+01  0.59503850806E+02  0.12220621349E+02  0.61204929108E+02  0.47000000000E+01 0.  1.
<mgrwt>
<rscale>  0 0.12535713E+03</rscale>
<asrwt>0</asrwt>
<pdfrwt beam="2">  1        5 0.17625434E-01 0.12535804E+03</pdfrwt>
<pdfrwt beam="1">  1       -5 0.22528309E-01 0.12535804E+03</pdfrwt>
<totfact> 0.38141361E+02</totfact>
</mgrwt>
</event>
<event>
 8    1  0.1821556E-007  0.1277384E+03  0.7546771E-02  0.1230851E+00
          5   -1    0    0  501    0  0.00000000000E+00  0.00000000000E+00  0.15500343205E+03  0.15507467217E+03  0.47000000000E+01 0.  1.
         -5   -1    0    0    0  501 -0.00000000000E+00 -0.00000000000E+00 -0.11235675187E+03  0.11245501185E+03  0.47000000000E+01 0.  1.
         25    2    1    2    0    0 -0.21915324727E+02  0.14572798159E+02 -0.12599013657E+02  0.12835649538E+03  0.12499602737E+03 0.  0.
         25    2    1    2    0    0  0.21915324727E+02 -0.14572798159E+02  0.55245693838E+02  0.13917318864E+03  0.12499776735E+03 0.  0.
          5    1    3    3  502    0  0.91832448467E+00  0.35022928264E+02  0.48395992904E+02  0.59930884802E+02  0.47000000000E+01 0.  1.
         -5    1    3    3    0  502 -0.22833649211E+02 -0.20450130105E+02 -0.60995006561E+02  0.68425610578E+02  0.47000000000E+01 0.  1.
          5    1    4    4  503    0 -0.25338990072E+02 -0.21003465510E+02 -0.27770503388E+02  0.43318596927E+02  0.47000000000E+01 0.  1.
         -5    1    4    4    0  503  0.47254314799E+02  0.64306673517E+01  0.83016197227E+02  0.95854591709E+02  0.47000000000E+01 0.  1.
<mgrwt>
<rscale>  0 0.12773794E+03</rscale>
<asrwt>0</asrwt>
<pdfrwt beam="1">  1        5 0.23859720E-01 0.12773836E+03</pdfrwt>
<pdfrwt beam="2">  1       -5 0.17298693E-01 0.12773836E+03</pdfrwt>
<totfact> 0.35650543E+02</totfact>
</mgrwt>
</event>
<event>
 8    1  0.1821556E-007  0.1269536E+03  0.7546771E-02  0.1232048E+00
          5   -1    0    0  501    0  0.00000000000E+00  0.00000000000E+00  0.78200694740E+01  0.91237868551E+01  0.47000000000E+01 0. -1.
         -5   -1    0    0    0  501 -0.00000000000E+00 -0.00000000000E+00 -0.22214712240E+04  0.22214761959E+04  0.47000000000E+01 0. -1.
         25    2    1    2    0    0  0.50845658679E+01 -0.21570338017E+02 -0.15302562470E+04  0.15355133966E+04  0.12500430955E+03 0.  0.
         25    2    1    2    0    0 -0.50845658679E+01  0.21570338017E+02 -0.68339490752E+03  0.69508658616E+03  0.12500252135E+03 0.  0.
          5    1    4    4  502    0  0.11357570424E+02  0.26128596224E+02 -0.67479041789E+03  0.67540794786E+03  0.47000000000E+01 0. -1.
         -5    1    4    4    0  502 -0.16442136292E+02 -0.45582582074E+01 -0.86044896250E+01  0.19678638302E+02  0.47000000000E+01 0. -1.
          5    1    3    3  503    0  0.47395198157E+02 -0.77266343372E+01 -0.13028399267E+04  0.13037330901E+04  0.47000000000E+01 0.  1.
         -5    1    3    3    0  503 -0.42310632289E+02 -0.13843703679E+02 -0.22741632026E+03  0.23178030645E+03  0.47000000000E+01 0.  1.
<mgrwt>
<rscale>  0 0.12695313E+03</rscale>
<asrwt>0</asrwt>
<pdfrwt beam="1">  1        5 0.13037578E-02 0.12695357E+03</pdfrwt>
<pdfrwt beam="2">  1       -5 0.34186501E+00 0.12695357E+03</pdfrwt>
<totfact> 0.24087095E+01</totfact>
</mgrwt>
</event>
<event>
 8    1  0.1821556E-007  0.1368325E+03  0.7546771E-02  0.1217656E+00
          5   -1    0    0  501    0  0.00000000000E+00  0.00000000000E+00  0.68025952496E+03  0.68027576122E+03  0.47000000000E+01 0.  1.
         -5   -1    0    0    0  501 -0.00000000000E+00 -0.00000000000E+00 -0.28067532345E+02  0.28458326935E+02  0.47000000000E+01 0.  1.
         25    2    1    2    0    0  0.14232400592E+02 -0.53817451354E+02  0.26814264139E+03  0.30103684339E+03  0.12499530251E+03 0.  0.
         25    2    1    2    0    0 -0.14232400592E+02  0.53817451354E+02  0.38404935122E+03  0.40769724476E+03  0.12499703962E+03 0.  0.
          5    1    3    3  502    0 -0.11595968905E+02  0.66233549066E+01 -0.85949259023E+01  0.16561946635E+02  0.47000000000E+01 0. -1.
         -5    1    3    3    0  502  0.25828369497E+02 -0.60440806260E+02  0.27673756729E+03  0.28447489676E+03  0.47000000000E+01 0. -1.
          5    1    4    4  503    0 -0.30013412396E+02  0.25479558055E+02  0.36986644248E+03  0.37198560198E+03  0.47000000000E+01 0. -1.
         -5    1    4    4    0  503  0.15781011804E+02  0.28337893299E+02  0.14182908741E+02  0.35711642787E+02  0.47000000000E+01 0. -1.
<mgrwt>
<rscale>  0 0.13683213E+03</rscale>
<asrwt>0</asrwt>
<pdfrwt beam="1">  1        5 0.10468660E+00 0.13683252E+03</pdfrwt>
<pdfrwt beam="2">  1       -5 0.43493927E-02 0.13683252E+03</pdfrwt>
<totfact> 0.16847581E+02</totfact>
</mgrwt>
</event>
<event>
 8    1  0.1821556E-007  0.1345582E+03  0.7546771E-02  0.1220845E+00
          5   -1    0    0  501    0  0.00000000000E+00  0.00000000000E+00  0.62527056447E+02  0.62703451164E+02  0.47000000000E+01 0. -1.
         -5   -1    0    0    0  501 -0.00000000000E+00 -0.00000000000E+00 -0.28939222025E+03  0.28943038393E+03  0.47000000000E+01 0. -1.
         25    2    1    2    0    0 -0.12547171497E+01 -0.49798710464E+02 -0.12021661663E+03  0.18043819361E+03  0.12499768366E+03 0.  0.
         25    2    1    2    0    0  0.12547171497E+01  0.49798710464E+02 -0.10664854717E+03  0.17169564148E+03  0.12499597918E+03 0.  0.
          5    1    3    3  502    0 -0.15672234044E+02 -0.48568532891E+02 -0.14363904262E+03  0.15250831411E+03  0.47000000000E+01 0. -1.
         -5    1    3    3    0  502  0.14417516895E+02 -0.12301775738E+01  0.23422425986E+02  0.27929879508E+02  0.47000000000E+01 0. -1.
          5    1    4    4  503    0 -0.26681617238E+02  0.81378359808E+02 -0.44993415799E+02  0.96854755220E+02  0.47000000000E+01 0.  1.
         -5    1    4    4    0  503  0.27936334388E+02 -0.31579649343E+02 -0.61655131371E+02  0.74840886260E+02  0.47000000000E+01 0.  1.
<mgrwt>
<rscale>  0 0.13455780E+03</rscale>
<asrwt>0</asrwt>
<pdfrwt beam="1">  1        5 0.96360518E-02 0.13455819E+03</pdfrwt>
<pdfrwt beam="2">  1       -5 0.44538384E-01 0.13455819E+03</pdfrwt>
<totfact> 0.29879267E+02</totfact>
</mgrwt>
</event>
<event>
 8    1  0.1821556E-007  0.1503805E+03  0.7546771E-02  0.1200009E+00
         -5   -1    0    0    0  501 -0.00000000000E+00  0.00000000000E+00  0.95680736549E+02  0.95796102982E+02  0.47000000000E+01 0. -1.
          5   -1    0    0  501    0  0.00000000000E+00 -0.00000000000E+00 -0.23690411834E+03  0.23695073599E+03  0.47000000000E+01 0. -1.
         25    2    1    2    0    0  0.60481565865E+02  0.57726650900E+02 -0.60658067303E+02  0.16214473342E+03  0.12498450869E+03 0.  0.
         25    2    1    2    0    0 -0.60481565865E+02 -0.57726650900E+02 -0.80565314492E+02  0.17060210556E+03  0.12499568988E+03 0.  0.
          5    1    3    3  502    0  0.71282541130E+02 -0.16062688732E+02 -0.15525224333E+02  0.74848735659E+02  0.47000000000E+01 0.  1.
         -5    1    3    3    0  502 -0.10800975264E+02  0.73789339632E+02 -0.45132842970E+02  0.87295997758E+02  0.47000000000E+01 0.  1.
          5    1    4    4  503    0 -0.41723496017E+02 -0.83656428247E+02 -0.11459892390E+02  0.94300939765E+02  0.47000000000E+01 0. -1.
         -5    1    4    4    0  503 -0.18758069849E+02  0.25929777347E+02 -0.69105422102E+02  0.76301165794E+02  0.47000000000E+01 0. -1.
<mgrwt>
<rscale>  0 0.15037822E+03</rscale>
<asrwt>0</asrwt>
<pdfrwt beam="2">  1        5 0.36459248E-01 0.15038055E+03</pdfrwt>
<pdfrwt beam="1">  1       -5 0.14732574E-01 0.15038055E+03</pdfrwt>
<totfact> 0.22020065E+02</totfact>
</mgrwt>
</event>
<event>
 8    1  0.1821556E-007  0.1722124E+03  0.7546771E-02  0.1175560E+00
          5   -1    0    0  501    0  0.00000000000E+00  0.00000000000E+00  0.21794376722E+04  0.21794427400E+04  0.47000000000E+01 0.  1.
         -5   -1    0    0    0  501 -0.00000000000E+00 -0.00000000000E+00 -0.14070625444E+02  0.14834840761E+02  0.47000000000E+01 0.  1.
         25    2    1    2    0    0  0.11791275802E+03  0.11327462593E+02  0.81663045760E+03  0.83459115711E+03  0.12500146133E+03 0.  0.
         25    2    1    2    0    0 -0.11791275802E+03 -0.11327462593E+02  0.13487365891E+04  0.13596864236E+04  0.12500021543E+03 0.  0.
          5    1    4    4  502    0 -0.53497862418E+02  0.34814842509E+02  0.99932593765E+03  0.10013733141E+04  0.47000000000E+01 0.  1.
         -5    1    4    4    0  502 -0.64414895603E+02 -0.46142305102E+02  0.34941065146E+03  0.35831310951E+03  0.47000000000E+01 0.  1.
          5    1    3    3  503    0  0.73147999729E+02  0.63700134254E+02  0.58062299883E+03  0.58868794258E+03  0.47000000000E+01 0.  1.
         -5    1    3    3    0  503  0.44764758291E+02 -0.52372671661E+02  0.23600745877E+03  0.24590321454E+03  0.47000000000E+01 0.  1.
<mgrwt>
<rscale>  0 0.17221213E+03</rscale>
<asrwt>0</asrwt>
<pdfrwt beam="1">  1        5 0.33535717E+00 0.17221236E+03</pdfrwt>
<pdfrwt beam="2">  1       -5 0.22238879E-02 0.17221236E+03</pdfrwt>
<totfact> 0.12222110E+01</totfact>
</mgrwt>
</event>
<event>
 8    1  0.1821556E-007  0.1431258E+03  0.7546771E-02  0.1209185E+00
          5   -1    0    0  501    0  0.00000000000E+00  0.00000000000E+00  0.18258231054E+02  0.18853461254E+02  0.47000000000E+01 0.  1.
         -5   -1    0    0    0  501 -0.00000000000E+00 -0.00000000000E+00 -0.11040621080E+04  0.11040721119E+04  0.47000000000E+01 0.  1.
         25    2    1    2    0    0  0.20620703892E+02 -0.66613777070E+02 -0.52855274320E+03  0.54758756370E+03  0.12498611465E+03 0.  0.
         25    2    1    2    0    0 -0.20620703892E+02  0.66613777070E+02 -0.55725113375E+03  0.57533800947E+03  0.12498956098E+03 0.  0.
          5    1    3    3  502    0  0.70412404682E+02 -0.43576131427E+02 -0.24271988613E+03  0.25649916001E+03  0.47000000000E+01 0. -1.
         -5    1    3    3    0  502 -0.49791700791E+02 -0.23037645643E+02 -0.28583285707E+03  0.29108840369E+03  0.47000000000E+01 0. -1.
          5    1    4    4  503    0 -0.20004534193E+02  0.24134432197E+02 -0.51240792725E+03  0.51338740355E+03  0.47000000000E+01 0. -1.
         -5    1    4    4    0  503 -0.61616969907E+00  0.42479344873E+02 -0.44843206491E+02  0.61950605924E+02  0.47000000000E+01 0. -1.
<mgrwt>
<rscale>  0 0.14312506E+03</rscale>
<asrwt>0</asrwt>
<pdfrwt beam="1">  1        5 0.28555160E-02 0.14312582E+03</pdfrwt>
<pdfrwt beam="2">  1       -5 0.16990221E+00 0.14312582E+03</pdfrwt>
<totfact> 0.94511649E+01</totfact>
</mgrwt>
</event>
<event>
 8    1  0.1821556E-007  0.1460674E+03  0.7546771E-02  0.1205394E+00
          5   -1    0    0  501    0  0.00000000000E+00  0.00000000000E+00  0.68086011053E+03  0.68087633247E+03  0.47000000000E+01 0. -1.
         -5   -1    0    0    0  501 -0.00000000000E+00 -0.00000000000E+00 -0.44129586855E+02  0.44379166689E+02  0.47000000000E+01 0. -1.
         25    2    1    2    0    0  0.29290459844E+02  0.69670806090E+02  0.12232741049E+03  0.19051608036E+03  0.12498171570E+03 0.  0.
         25    2    1    2    0    0 -0.29290459844E+02 -0.69670806090E+02  0.51440311319E+03  0.53473941880E+03  0.12499492348E+03 0.  0.
          5    1    4    4  502    0 -0.33676587595E+02 -0.10398977325E+03  0.35137414071E+03  0.36801339956E+03  0.47000000000E+01 0.  1.
         -5    1    4    4    0  502  0.43861277510E+01  0.34318967165E+02  0.16302897248E+03  0.16672601924E+03  0.47000000000E+01 0.  1.
          5    1    3    3  503    0  0.13452355293E+02  0.97127502699E+02  0.47374323191E+02  0.10900061533E+03  0.47000000000E+01 0.  1.
         -5    1    3    3    0  503  0.15838104550E+02 -0.27456696609E+02  0.74953087294E+02  0.81515465032E+02  0.47000000000E+01 0.  1.
<mgrwt>
<rscale>  0 0.14606457E+03</rscale>
<asrwt>0</asrwt>
<pdfrwt beam="1">  1        5 0.10476815E+00 0.14606739E+03</pdfrwt>
<pdfrwt beam="2">  1       -5 0.68096140E-02 0.14606739E+03</pdfrwt>
<totfact> 0.81160614E+01</totfact>
</mgrwt>
</event>
<event>
 8    1  0.1821556E-007  0.1580871E+03  0.7546771E-02  0.1190873E+00
         -5   -1    0    0    0  501 -0.00000000000E+00  0.00000000000E+00  0.14818191906E+03  0.14825643708E+03  0.47000000000E+01 0.  1.
          5   -1    0    0  501    0  0.00000000000E+00 -0.00000000000E+00 -0.32735153449E+03  0.32738527324E+03  0.47000000000E+01 0.  1.
         25    2    1    2    0    0  0.51320010687E+02  0.82055633102E+02  0.76049348303E+02  0.17542801785E+03  0.12499846259E+03 0.  0.
         25    2    1    2    0    0 -0.51320010687E+02 -0.82055633102E+02 -0.25521896374E+03  0.30021369247E+03  0.12499868509E+03 0.  0.
          5    1    4    4  502    0  0.15608831878E+02 -0.67498796459E+02 -0.20122926304E+03  0.21287327089E+03  0.47000000000E+01 0.  1.
         -5    1    4    4    0  502 -0.66928842566E+02 -0.14556836643E+02 -0.53989700693E+02  0.87340421576E+02  0.47000000000E+01 0.  1.
          5    1    3    3  503    0  0.82882916882E+02  0.77061605837E+02  0.26578788626E+02  0.11634685647E+03  0.47000000000E+01 0. -1.
         -5    1    3    3    0  503 -0.31562906194E+02  0.49940272651E+01  0.49470559677E+02  0.59081161384E+02  0.47000000000E+01 0. -1.
<mgrwt>
<rscale>  0 0.15808709E+03</rscale>
<asrwt>0</asrwt>
<pdfrwt beam="2">  1        5 0.50370102E-01 0.15808713E+03</pdfrwt>
<pdfrwt beam="1">  1       -5 0.22805546E-01 0.15808713E+03</pdfrwt>
<totfact> 0.50954666E+01</totfact>
</mgrwt>
</event>
<event>
 8    1  0.1821556E-007  0.1289576E+03  0.7546771E-02  0.1229011E+00
          5   -1    0    0  501    0  0.00000000000E+00  0.00000000000E+00  0.34791942169E+02  0.35107965477E+02  0.47000000000E+01 0. -1.
         -5   -1    0    0    0  501 -0.00000000000E+00 -0.00000000000E+00 -0.56950227184E+03  0.56952166564E+03  0.47000000000E+01 0. -1.
         25    2    1    2    0    0  0.29839934725E+02  0.10732531389E+02 -0.39014546698E+03  0.41090544442E+03  0.12499675961E+03 0.  0.
         25    2    1    2    0    0 -0.29839934725E+02 -0.10732531389E+02 -0.14456486269E+03  0.19372418669E+03  0.12499780819E+03 0.  0.
          5    1    3    3  502    0 -0.29629704457E+02 -0.30876648237E+02 -0.24279194618E+03  0.24657920821E+03  0.47000000000E+01 0. -1.
         -5    1    3    3    0  502  0.59469639181E+02  0.41609179626E+02 -0.14735352081E+03  0.16432623621E+03  0.47000000000E+01 0. -1.
          5    1    4    4  503    0  0.92679289483E+01  0.52913190460E+02 -0.65691305766E+02  0.84989045676E+02  0.47000000000E+01 0.  1.
         -5    1    4    4    0  503 -0.39107863673E+02 -0.63645721849E+02 -0.78873556920E+02  0.10873514102E+03  0.47000000000E+01 0.  1.
<mgrwt>
<rscale>  0 0.12895734E+03</rscale>
<asrwt>0</asrwt>
<pdfrwt beam="1">  1        5 0.53784082E-02 0.12895759E+03</pdfrwt>
<pdfrwt beam="2">  1       -5 0.87641529E-01 0.12895759E+03</pdfrwt>
<totfact> 0.17815624E+02</totfact>
</mgrwt>
</event>
<event>
 8    1  0.1821556E-007  0.1336338E+03  0.7546771E-02  0.1222164E+00
          5   -1    0    0  501    0  0.00000000000E+00  0.00000000000E+00  0.16571478234E+03  0.16578141960E+03  0.47000000000E+01 0.  1.
         -5   -1    0    0    0  501 -0.00000000000E+00 -0.00000000000E+00 -0.11856810640E+03  0.11866122305E+03  0.47000000000E+01 0.  1.
         25    2    1    2    0    0  0.42914380085E+02 -0.19736226653E+02 -0.19618694372E+02  0.13506621094E+03  0.12500730182E+03 0.  0.
         25    2    1    2    0    0 -0.42914380085E+02  0.19736226653E+02  0.66765370306E+02  0.14937643171E+03  0.12499816406E+03 0.  0.
          5    1    4    4  502    0 -0.56369909176E+02 -0.57326820340E+01  0.93739914709E+02  0.10963435554E+03  0.47000000000E+01 0.  1.
         -5    1    4    4    0  502  0.13455529091E+02  0.25468908687E+02 -0.26974544403E+02  0.39742076174E+02  0.47000000000E+01 0.  1.
          5    1    3    3  503    0  0.70520073178E+02 -0.11394824078E+02  0.29889873933E+02  0.77578458999E+02  0.47000000000E+01 0.  1.
         -5    1    3    3    0  503 -0.27605693093E+02 -0.83414025752E+01 -0.49508568305E+02  0.57487751945E+02  0.47000000000E+01 0.  1.
<mgrwt>
<rscale>  0 0.13363165E+03</rscale>
<asrwt>0</asrwt>
<pdfrwt beam="1">  1        5 0.25506871E-01 0.13363378E+03</pdfrwt>
<pdfrwt beam="2">  1       -5 0.18253536E-01 0.13363378E+03</pdfrwt>
<totfact> 0.28894973E+02</totfact>
</mgrwt>
</event>
<event>
 8    1  0.1821556E-007  0.1312159E+03  0.7546771E-02  0.1225663E+00
          5   -1    0    0  501    0  0.00000000000E+00  0.00000000000E+00  0.14203884115E+03  0.14211658030E+03  0.47000000000E+01 0. -1.
         -5   -1    0    0    0  501 -0.00000000000E+00 -0.00000000000E+00 -0.14390568072E+03  0.14398241192E+03  0.47000000000E+01 0. -1.
         25    2    1    2    0    0 -0.34936347024E+02  0.19292022924E+02 -0.57898070445E+02  0.14342066345E+03  0.12499827860E+03 0.  0.
         25    2    1    2    0    0  0.34936347024E+02 -0.19292022924E+02  0.56031230880E+02  0.14267832877E+03  0.12499950470E+03 0.  0.
          5    1    4    4  502    0  0.35781718662E+02  0.20035953705E+02 -0.27930446266E+02  0.49839448833E+02  0.47000000000E+01 0. -1.
         -5    1    4    4    0  502 -0.84537163836E+00 -0.39327976629E+02  0.83961677147E+02  0.92838879938E+02  0.47000000000E+01 0. -1.
          5    1    3    3  503    0 -0.64777233141E+02 -0.30729524706E+02 -0.23415830293E+02  0.75569734222E+02  0.47000000000E+01 0.  1.
         -5    1    3    3    0  503  0.29840886117E+02  0.50021547630E+02 -0.34482240152E+02  0.67850929230E+02  0.47000000000E+01 0.  1.
<mgrwt>
<rscale>  0 0.13121559E+03</rscale>
<asrwt>0</asrwt>
<pdfrwt beam="1">  1        5 0.21864012E-01 0.13121588E+03</pdfrwt>
<pdfrwt beam="2">  1       -5 0.22151218E-01 0.13121588E+03</pdfrwt>
<totfact> 0.26817451E+02</totfact>
</mgrwt>
</event>
<event>
 8    1  0.1821556E-007  0.1293537E+03  0.7546771E-02  0.1228422E+00
          5   -1    0    0  501    0  0.00000000000E+00  0.00000000000E+00  0.15926994398E+03  0.15933927656E+03  0.47000000000E+01 0. -1.
         -5   -1    0    0    0  501 -0.00000000000E+00 -0.00000000000E+00 -0.11118785362E+03  0.11128714568E+03  0.47000000000E+01 0. -1.
         25    2    1    2    0    0  0.32194669027E+02  0.83296634163E+01 -0.81014266758E+01  0.12960719095E+03  0.12500604316E+03 0.  0.
         25    2    1    2    0    0 -0.32194669027E+02 -0.83296634163E+01  0.56183517029E+02  0.14101923128E+03  0.12499582393E+03 0.  0.
          5    1    4    4  502    0 -0.56705122175E+02 -0.42312359901E+02  0.66932377326E+02  0.97508152561E+02  0.47000000000E+01 0.  1.
         -5    1    4    4    0  502  0.24510453147E+02  0.33982696485E+02 -0.10748860297E+02  0.43511078722E+02  0.47000000000E+01 0.  1.
          5    1    3    3  503    0  0.59899812558E+02  0.47312554399E+02 -0.22008714690E+02  0.79579764203E+02  0.47000000000E+01 0.  1.
         -5    1    3    3    0  503 -0.27705143530E+02 -0.38982890983E+02  0.13907288014E+02  0.50027426751E+02  0.47000000000E+01 0.  1.
<mgrwt>
<rscale>  0 0.12935127E+03</rscale>
<asrwt>0</asrwt>
<pdfrwt beam="1">  1        5 0.24516039E-01 0.12935374E+03</pdfrwt>
<pdfrwt beam="2">  1       -5 0.17118795E-01 0.12935374E+03</pdfrwt>
<totfact> 0.34668751E+02</totfact>
</mgrwt>
</event>
<event>
 8    1  0.1821556E-007  0.1904170E+03  0.7546771E-02  0.1158086E+00
         -5   -1    0    0    0  501 -0.00000000000E+00  0.00000000000E+00  0.12340007968E+04  0.12340097473E+04  0.47000000000E+01 0. -1.
          5   -1    0    0  501    0  0.00000000000E+00 -0.00000000000E+00 -0.31279535792E+02  0.31630671181E+02  0.47000000000E+01 0. -1.
         25    2    1    2    0    0 -0.13983779963E+03 -0.32849177149E+02  0.76411591862E+03  0.78748446915E+03  0.12499989365E+03 0.  0.
         25    2    1    2    0    0  0.13983779963E+03  0.32849177149E+02  0.43860534238E+03  0.47815594936E+03  0.12499914758E+03 0.  0.
          5    1    3    3  502    0  0.21085992582E+02 -0.11406134412E+02  0.58079072052E+02  0.63007837574E+02  0.47000000000E+01 0. -1.
         -5    1    3    3    0  502 -0.16092379221E+03 -0.21443042737E+02  0.70603684657E+03  0.72447663158E+03  0.47000000000E+01 0. -1.
          5    1    4    4  503    0  0.89002360493E+02  0.58783080226E+02  0.38566829933E+03  0.40017370953E+03  0.47000000000E+01 0.  1.
         -5    1    4    4    0  503  0.50835439138E+02 -0.25933903077E+02  0.52937043059E+02  0.77982239830E+02  0.47000000000E+01 0.  1.
<mgrwt>
<rscale>  0 0.19041693E+03</rscale>
<asrwt>0</asrwt>
<pdfrwt beam="2">  1        5 0.48399346E-02 0.19041705E+03</pdfrwt>
<pdfrwt beam="1">  1       -5 0.18987400E+00 0.19041705E+03</pdfrwt>
<totfact> 0.30937392E+01</totfact>
</mgrwt>
</event>
<event>
 8    1  0.1821556E-007  0.1282030E+03  0.7546771E-02  0.1230152E+00
         -5   -1    0    0    0  501 -0.00000000000E+00  0.00000000000E+00  0.26746816741E+02  0.27156623608E+02  0.47000000000E+01 0.  1.
          5   -1    0    0  501    0  0.00000000000E+00 -0.00000000000E+00 -0.63023380273E+03  0.63025132772E+03  0.47000000000E+01 0.  1.
         25    2    1    2    0    0  0.22285776497E+02 -0.17651050966E+02 -0.24193772297E+03  0.27380628575E+03  0.12501121903E+03 0.  0.
         25    2    1    2    0    0 -0.22285776497E+02  0.17651050966E+02 -0.36154926301E+03  0.38360166558E+03  0.12499661123E+03 0.  0.
          5    1    3    3  502    0  0.11123082626E+02  0.23883786322E+02  0.12577631747E+01  0.26792353095E+02  0.47000000000E+01 0. -1.
         -5    1    3    3    0  502  0.11162693871E+02 -0.41534837288E+02 -0.24319548615E+03  0.24701393265E+03  0.47000000000E+01 0. -1.
          5    1    4    4  503    0 -0.64748623574E+01  0.52027972604E+02 -0.32982875598E+03  0.33400289228E+03  0.47000000000E+01 0. -1.
         -5    1    4    4    0  503 -0.15810914139E+02 -0.34376921639E+02 -0.31720507031E+02  0.49598773308E+02  0.47000000000E+01 0. -1.
<mgrwt>
<rscale>  0 0.12819948E+03</rscale>
<asrwt>0</asrwt>
<pdfrwt beam="2">  1        5 0.96991907E-01 0.12820304E+03</pdfrwt>
<pdfrwt beam="1">  1       -5 0.41477671E-02 0.12820304E+03</pdfrwt>
<totfact> 0.21461686E+02</totfact>
</mgrwt>
</event>
<event>
 8    1  0.1821556E-007  0.1551564E+03  0.7546771E-02  0.1194277E+00
          5   -1    0    0  501    0  0.00000000000E+00  0.00000000000E+00  0.50164596937E+03  0.50166798640E+03  0.47000000000E+01 0. -1.
         -5   -1    0    0    0  501 -0.00000000000E+00 -0.00000000000E+00 -0.53707156118E+02  0.53912416179E+02  0.47000000000E+01 0. -1.
         25    2    1    2    0    0 -0.30454972060E+02 -0.86717075866E+02  0.13243456686E+03  0.20398912054E+03  0.12500116091E+03 0.  0.
         25    2    1    2    0    0  0.30454972060E+02  0.86717075866E+02  0.31550424639E+03  0.35159128204E+03  0.12500457412E+03 0.  0.
          5    1    4    4  502    0 -0.30926554400E+02 -0.14511032194E+02  0.98338062572E+02  0.10420885938E+03  0.47000000000E+01 0. -1.
         -5    1    4    4    0  502  0.61381526460E+02  0.10122810806E+03  0.21716618381E+03  0.24738242267E+03  0.47000000000E+01 0. -1.
          5    1    3    3  503    0 -0.62866955331E+02 -0.61953497942E+01  0.31384941243E+02  0.70694702549E+02  0.47000000000E+01 0. -1.
         -5    1    3    3    0  503  0.32411983271E+02 -0.80521726072E+02  0.10104962562E+03  0.13329441799E+03  0.47000000000E+01 0. -1.
<mgrwt>
<rscale>  0 0.15515569E+03</rscale>
<asrwt>0</asrwt>
<pdfrwt beam="1">  1        5 0.77193789E-01 0.15515637E+03</pdfrwt>
<pdfrwt beam="2">  1       -5 0.82801219E-02 0.15515637E+03</pdfrwt>
<totfact> 0.12246981E+02</totfact>
</mgrwt>
</event>
<event>
 8    1  0.1821556E-007  0.1364306E+03  0.7546771E-02  0.1218215E+00
         -5   -1    0    0    0  501 -0.00000000000E+00  0.00000000000E+00  0.16045077201E+03  0.16051959457E+03  0.47000000000E+01 0. -1.
          5   -1    0    0  501    0  0.00000000000E+00 -0.00000000000E+00 -0.12388088371E+03  0.12397000988E+03  0.47000000000E+01 0. -1.
         25    2    1    2    0    0  0.52308689337E+02  0.15884378890E+02  0.54447062418E+02  0.14689276957E+03  0.12499796268E+03 0.  0.
         25    2    1    2    0    0 -0.52308689337E+02 -0.15884378890E+02 -0.17877174118E+02  0.13759683487E+03  0.12499913256E+03 0.  0.
          5    1    3    3  502    0 -0.25033744745E+02 -0.11461933678E+02  0.58287187853E+02  0.64633973786E+02  0.47000000000E+01 0.  1.
         -5    1    3    3    0  502  0.77342434082E+02  0.27346312568E+02 -0.38401254354E+01  0.82258795786E+02  0.47000000000E+01 0.  1.
          5    1    4    4  503    0 -0.87226166909E+02 -0.36610740666E+02 -0.54428036009E+01  0.94870778624E+02  0.47000000000E+01 0. -1.
         -5    1    4    4    0  503  0.34917477572E+02  0.20726361776E+02 -0.12434370517E+02  0.42726056249E+02  0.47000000000E+01 0. -1.
<mgrwt>
<rscale>  0 0.13643028E+03</rscale>
<asrwt>0</asrwt>
<pdfrwt beam="2">  1        5 0.19070747E-01 0.13643055E+03</pdfrwt>
<pdfrwt beam="1">  1       -5 0.24696884E-01 0.13643055E+03</pdfrwt>
<totfact> 0.28546668E+02</totfact>
</mgrwt>
</event>
<event>
 8    1  0.1821556E-007  0.2621875E+03  0.7546771E-02  0.1105836E+00
         -5   -1    0    0    0  501 -0.00000000000E+00  0.00000000000E+00  0.50130415662E+03  0.50132618867E+03  0.47000000000E+01 0.  1.
          5   -1    0    0  501    0  0.00000000000E+00 -0.00000000000E+00 -0.14824388868E+03  0.14831837556E+03  0.47000000000E+01 0.  1.
         25    2    1    2    0    0  0.50985930998E+02 -0.22476010268E+03  0.26571332574E+03  0.37329058754E+03  0.12500248939E+03 0.  0.
         25    2    1    2    0    0 -0.50985930998E+02  0.22476010268E+03  0.87346942201E+02  0.27635397669E+03  0.12500145281E+03 0.  0.
          5    1    3    3  502    0 -0.14972823102E+02 -0.16938881019E+03  0.13733817447E+03  0.21863352582E+03  0.47000000000E+01 0. -1.
         -5    1    3    3    0  502  0.65958754100E+02 -0.55371292492E+02  0.12837515127E+03  0.15465706172E+03  0.47000000000E+01 0. -1.
          5    1    4    4  503    0 -0.10653877135E+02  0.22093803101E+03  0.70237311271E+02  0.23212601866E+03  0.47000000000E+01 0.  1.
         -5    1    4    4    0  503 -0.40332053862E+02  0.38220716633E+01  0.17109630930E+02  0.44227958025E+02  0.47000000000E+01 0.  1.
<mgrwt>
<rscale>  0 0.26218739E+03</rscale>
<asrwt>0</asrwt>
<pdfrwt beam="2">  1        5 0.22814177E-01 0.26218751E+03</pdfrwt>
<pdfrwt beam="1">  1       -5 0.77131141E-01 0.26218751E+03</pdfrwt>
<totfact> 0.22456711E+01</totfact>
</mgrwt>
</event>
<event>
 8    1  0.1821556E-007  0.1531231E+03  0.7546771E-02  0.1196688E+00
         -5   -1    0    0    0  501 -0.00000000000E+00  0.00000000000E+00  0.79273633043E+03  0.79275026306E+03  0.47000000000E+01 0.  1.
          5   -1    0    0  501    0  0.00000000000E+00 -0.00000000000E+00 -0.34103048008E+02  0.34425395908E+02  0.47000000000E+01 0.  1.
         25    2    1    2    0    0  0.31231337242E+02  0.82735978733E+02  0.53249629402E+03  0.55407382176E+03  0.12499943286E+03 0.  0.
         25    2    1    2    0    0 -0.31231337242E+02 -0.82735978733E+02  0.22613698840E+03  0.27310183721E+03  0.12500414937E+03 0.  0.
          5    1    3    3  502    0  0.43045264374E+02 -0.12143035545E+02  0.28827168516E+03  0.29175846613E+03  0.47000000000E+01 0.  1.
         -5    1    3    3    0  502 -0.11813927132E+02  0.94879014278E+02  0.24422460886E+03  0.26231535563E+03  0.47000000000E+01 0.  1.
          5    1    4    4  503    0 -0.63875004534E+02 -0.83123199851E+00  0.10880219370E+03  0.12625654243E+03  0.47000000000E+01 0.  1.
         -5    1    4    4    0  503  0.32643667292E+02 -0.81904746734E+02  0.11733479470E+03  0.14684529478E+03  0.47000000000E+01 0.  1.
<mgrwt>
<rscale>  0 0.15312211E+03</rscale>
<asrwt>0</asrwt>
<pdfrwt beam="2">  1        5 0.52724900E-02 0.15312307E+03</pdfrwt>
<pdfrwt beam="1">  1       -5 0.12198531E+00 0.15312307E+03</pdfrwt>
<totfact> 0.86441768E+01</totfact>
</mgrwt>
</event>
<event>
 8    1  0.1821556E-007  0.1478656E+03  0.7546771E-02  0.1203123E+00
         -5   -1    0    0    0  501 -0.00000000000E+00  0.00000000000E+00  0.11247820357E+03  0.11257635754E+03  0.47000000000E+01 0. -1.
          5   -1    0    0  501    0  0.00000000000E+00 -0.00000000000E+00 -0.20637626932E+03  0.20642978114E+03  0.47000000000E+01 0. -1.
         25    2    1    2    0    0 -0.23607767241E+02 -0.75367402443E+02 -0.81612800202E+01  0.14808209708E+03  0.12499651579E+03 0.  0.
         25    2    1    2    0    0  0.23607767241E+02  0.75367402443E+02 -0.85736785738E+02  0.17092404160E+03  0.12500663799E+03 0.  0.
          5    1    3    3  502    0 -0.30969123688E+02 -0.10862273667E+03 -0.10995088931E+02  0.11358242612E+03  0.47000000000E+01 0.  1.
         -5    1    3    3    0  502  0.73613564465E+01  0.33255334225E+02  0.28338089107E+01  0.34499670956E+02  0.47000000000E+01 0.  1.
          5    1    4    4  503    0 -0.22966766424E+02  0.11099708356E+01  0.21853079821E+02  0.32067919997E+02  0.47000000000E+01 0.  1.
         -5    1    4    4    0  503  0.46574533666E+02  0.74257431607E+02 -0.10758986556E+03  0.13885612160E+03  0.47000000000E+01 0.  1.
<mgrwt>
<rscale>  0 0.14786345E+03</rscale>
<asrwt>0</asrwt>
<pdfrwt beam="2">  1        5 0.31761862E-01 0.14786559E+03</pdfrwt>
<pdfrwt beam="1">  1       -5 0.17316006E-01 0.14786559E+03</pdfrwt>
<totfact> 0.21486743E+02</totfact>
</mgrwt>
</event>
<event>
 8    1  0.1821556E-007  0.1263046E+03  0.7546771E-02  0.1233045E+00
         -5   -1    0    0    0  501 -0.00000000000E+00  0.00000000000E+00  0.15819188259E+03  0.15826168745E+03  0.47000000000E+01 0. -1.
          5   -1    0    0  501    0  0.00000000000E+00 -0.00000000000E+00 -0.10081499239E+03  0.10092449004E+03  0.47000000000E+01 0. -1.
         25    2    1    2    0    0  0.14035881052E+02  0.11415736957E+02  0.33112674468E+02  0.13057199195E+03  0.12500108346E+03 0.  0.
         25    2    1    2    0    0 -0.14035881052E+02 -0.11415736957E+02  0.24264215728E+02  0.12861418555E+03  0.12500212619E+03 0.  0.
          5    1    4    4  502    0  0.36177209505E+02 -0.29922602371E+02  0.50257388095E+02  0.68935097580E+02  0.47000000000E+01 0.  1.
         -5    1    4    4    0  502 -0.50213090557E+02  0.18506865414E+02 -0.25993172367E+02  0.59679087965E+02  0.47000000000E+01 0.  1.
          5    1    3    3  503    0 -0.33801900984E+02  0.38124304653E+02 -0.19221829514E+02  0.54658941128E+02  0.47000000000E+01 0.  1.
         -5    1    3    3    0  503  0.47837782036E+02 -0.26708567696E+02  0.52334503982E+02  0.75913050825E+02  0.47000000000E+01 0.  1.
<mgrwt>
<rscale>  0 0.12630436E+03</rscale>
<asrwt>0</asrwt>
<pdfrwt beam="2">  1        5 0.15523791E-01 0.12630462E+03</pdfrwt>
<pdfrwt beam="1">  1       -5 0.24351005E-01 0.12630462E+03</pdfrwt>
<totfact> 0.41603829E+02</totfact>
</mgrwt>
</event>
<event>
 8    1  0.1821556E-007  0.1370014E+03  0.7546771E-02  0.1217423E+00
         -5   -1    0    0    0  501 -0.00000000000E+00  0.00000000000E+00  0.31265592178E+03  0.31269124616E+03  0.47000000000E+01 0.  1.
          5   -1    0    0  501    0  0.00000000000E+00 -0.00000000000E+00 -0.60877606587E+02  0.61058766641E+02  0.47000000000E+01 0.  1.
         25    2    1    2    0    0  0.25718807662E+02  0.49818576588E+02  0.10224461511E+03  0.17094537344E+03  0.12500004697E+03 0.  0.
         25    2    1    2    0    0 -0.25718807662E+02 -0.49818576588E+02  0.14953370008E+03  0.20280463936E+03  0.12500418650E+03 0.  0.
          5    1    4    4  502    0  0.12207886616E+02 -0.83441315307E+02  0.77700325222E+02  0.11476461186E+03  0.47000000000E+01 0. -1.
         -5    1    4    4    0  502 -0.37926694277E+02  0.33622738719E+02  0.71833374859E+02  0.88040027496E+02  0.47000000000E+01 0. -1.
          5    1    3    3  503    0  0.24254500320E+02 -0.24292942632E+02  0.88989759969E+02  0.95497095385E+02  0.47000000000E+01 0.  1.
         -5    1    3    3    0  503  0.14643073412E+01  0.74111519220E+02  0.13254855142E+02  0.75448278058E+02  0.47000000000E+01 0.  1.
<mgrwt>
<rscale>  0 0.13700049E+03</rscale>
<asrwt>0</asrwt>
<pdfrwt beam="2">  1        5 0.93824384E-02 0.13700144E+03</pdfrwt>
<pdfrwt beam="1">  1       -5 0.48117563E-01 0.13700144E+03</pdfrwt>
<totfact> 0.26787353E+02</totfact>
</mgrwt>
</event>
<event>
 8    1  0.1821556E-007  0.1905810E+03  0.7546771E-02  0.1157941E+00
          5   -1    0    0  501    0  0.00000000000E+00  0.00000000000E+00  0.10288290777E+03  0.10299020687E+03  0.47000000000E+01 0.  1.
         -5   -1    0    0    0  501 -0.00000000000E+00 -0.00000000000E+00 -0.35392129765E+03  0.35395250378E+03  0.47000000000E+01 0.  1.
         25    2    1    2    0    0 -0.12733550569E+03  0.66944350589E+02 -0.11214229799E+03  0.22111808014E+03  0.12498573231E+03 0.  0.
         25    2    1    2    0    0  0.12733550569E+03 -0.66944350589E+02 -0.13889609189E+03  0.23582463050E+03  0.12500101968E+03 0.  0.
          5    1    4    4  502    0  0.85244792233E+02  0.22069689909E+01 -0.12818607365E+03  0.15403020740E+03  0.47000000000E+01 0.  1.
         -5    1    4    4    0  502  0.42090713460E+02 -0.69151319580E+02 -0.10710018242E+02  0.81794423098E+02  0.47000000000E+01 0.  1.
          5    1    3    3  503    0  0.23657462816E+02  0.19776654552E+02 -0.27830092934E+02  0.41801862217E+02  0.47000000000E+01 0. -1.
         -5    1    3    3    0  503 -0.15099296851E+03  0.47167696037E+02 -0.84312205058E+02  0.17931621792E+03  0.47000000000E+01 0. -1.
<mgrwt>
<rscale>  0 0.19057853E+03</rscale>
<asrwt>0</asrwt>
<pdfrwt beam="1">  1        5 0.15838794E-01 0.19058104E+03</pdfrwt>
<pdfrwt beam="2">  1       -5 0.54460084E-01 0.19058104E+03</pdfrwt>
<totfact> 0.89692898E+01</totfact>
</mgrwt>
</event>
<event>
 8    1  0.1821556E-007  0.1353012E+03  0.7546771E-02  0.1219798E+00
          5   -1    0    0  501    0  0.00000000000E+00  0.00000000000E+00  0.27647665353E+03  0.27651659977E+03  0.47000000000E+01 0. -1.
         -5   -1    0    0    0  501 -0.00000000000E+00 -0.00000000000E+00 -0.70583032014E+02  0.70739341305E+02  0.47000000000E+01 0. -1.
         25    2    1    2    0    0 -0.30774823615E+02 -0.41614910345E+02  0.59159083982E+02  0.14766929070E+03  0.12501012625E+03 0.  0.
         25    2    1    2    0    0  0.30774823615E+02  0.41614910345E+02  0.14673453753E+03  0.19958665038E+03  0.12499966389E+03 0.  0.
          5    1    4    4  502    0 -0.16517128057E+02  0.71196970146E+02  0.11162885939E+03  0.13350998586E+03  0.47000000000E+01 0.  1.
         -5    1    4    4    0  502  0.47291951672E+02 -0.29582059801E+02  0.35105678147E+02  0.66076664514E+02  0.47000000000E+01 0.  1.
          5    1    3    3  503    0 -0.43951526282E+02  0.31190239006E+02  0.21392659417E+01  0.54140873012E+02  0.47000000000E+01 0.  1.
         -5    1    3    3    0  503  0.13176702666E+02 -0.72805149351E+02  0.57019818040E+02  0.93528417684E+02  0.47000000000E+01 0.  1.
<mgrwt>
<rscale>  0 0.13529881E+03</rscale>
<asrwt>0</asrwt>
<pdfrwt beam="1">  1        5 0.42549966E-01 0.13530123E+03</pdfrwt>
<pdfrwt beam="2">  1       -5 0.10874025E-01 0.13530123E+03</pdfrwt>
<totfact> 0.26639626E+02</totfact>
</mgrwt>
</event>
<event>
 8    1  0.1821556E-007  0.1510060E+03  0.7546771E-02  0.1199243E+00
         -5   -1    0    0    0  501 -0.00000000000E+00  0.00000000000E+00  0.18002429191E+03  0.18008563429E+03  0.47000000000E+01 0.  1.
          5   -1    0    0  501    0  0.00000000000E+00 -0.00000000000E+00 -0.15210326149E+03  0.15217585931E+03  0.47000000000E+01 0.  1.
         25    2    1    2    0    0 -0.84656972472E+02 -0.32247697265E+01  0.82039875296E+02  0.17185054821E+03  0.12499947062E+03 0.  0.
         25    2    1    2    0    0  0.84656972472E+02  0.32247697265E+01 -0.54118844879E+02  0.16041094539E+03  0.12500247958E+03 0.  0.
          5    1    4    4  502    0 -0.19030960547E+02 -0.16974669952E+01  0.23544626912E+02  0.30683844446E+02  0.47000000000E+01 0.  1.
         -5    1    4    4    0  502  0.10368793302E+03  0.49222367216E+01 -0.77663471792E+02  0.12972710094E+03  0.47000000000E+01 0.  1.
          5    1    3    3  503    0 -0.17696907137E+02  0.35447256631E+02 -0.19277642240E+02  0.44310337566E+02  0.47000000000E+01 0.  1.
         -5    1    3    3    0  503 -0.66960065335E+02 -0.38672026358E+02  0.10131751754E+03  0.12754021065E+03  0.47000000000E+01 0.  1.
<mgrwt>
<rscale>  0 0.15100541E+03</rscale>
<asrwt>0</asrwt>
<pdfrwt beam="2">  1        5 0.23410805E-01 0.15100603E+03</pdfrwt>
<pdfrwt beam="1">  1       -5 0.27706348E-01 0.15100603E+03</pdfrwt>
<totfact> 0.16090736E+02</totfact>
</mgrwt>
</event>
<event>
 8    1  0.1821556E-007  0.1356666E+03  0.7546771E-02  0.1219283E+00
          5   -1    0    0  501    0  0.00000000000E+00  0.00000000000E+00  0.56685070224E+03  0.56687018675E+03  0.47000000000E+01 0.  1.
         -5   -1    0    0    0  501 -0.00000000000E+00 -0.00000000000E+00 -0.32439834535E+02  0.32778542747E+02  0.47000000000E+01 0.  1.
         25    2    1    2    0    0 -0.10213033207E+02  0.51739305112E+02  0.24616624966E+03  0.28107315314E+03  0.12499213256E+03 0.  0.
         25    2    1    2    0    0  0.10213033207E+02 -0.51739305112E+02  0.28824461804E+03  0.31857557636E+03  0.12499670509E+03 0.  0.
          5    1    4    4  502    0  0.48725912617E+02  0.20802541628E+02  0.10458501714E+03  0.11733318418E+03  0.47000000000E+01 0. -1.
         -5    1    4    4    0  502 -0.38512879410E+02 -0.72541846740E+02  0.18365960090E+03  0.20124239218E+03  0.47000000000E+01 0. -1.
          5    1    3    3  503    0  0.26917128178E+02  0.27923856495E+02  0.23086471286E+03  0.23414713151E+03  0.47000000000E+01 0. -1.
         -5    1    3    3    0  503 -0.37130161385E+02  0.23815448617E+02  0.15301536802E+02  0.46926021628E+02  0.47000000000E+01 0. -1.
<mgrwt>
<rscale>  0 0.13566559E+03</rscale>
<asrwt>0</asrwt>
<pdfrwt beam="1">  1        5 0.87235351E-01 0.13566664E+03</pdfrwt>
<pdfrwt beam="2">  1       -5 0.50182972E-02 0.13566664E+03</pdfrwt>
<totfact> 0.20566716E+02</totfact>
</mgrwt>
</event>
<event>
 8    1  0.1821556E-007  0.1288511E+03  0.7546771E-02  0.1229172E+00
         -5   -1    0    0    0  501 -0.00000000000E+00  0.00000000000E+00  0.49717813921E+02  0.49939473576E+02  0.47000000000E+01 0. -1.
          5   -1    0    0  501    0  0.00000000000E+00 -0.00000000000E+00 -0.36443042503E+03  0.36446073134E+03  0.47000000000E+01 0. -1.
         25    2    1    2    0    0 -0.11748374716E+02 -0.28953999879E+02 -0.96479532378E+02  0.16096866051E+03  0.12500500422E+03 0.  0.
         25    2    1    2    0    0  0.11748374716E+02  0.28953999879E+02 -0.21823307873E+03  0.25343154441E+03  0.12500205050E+03 0.  0.
          5    1    4    4  502    0 -0.12078082186E+02  0.68564033118E+02 -0.73164350793E+02  0.10110400058E+03  0.47000000000E+01 0. -1.
         -5    1    4    4    0  502  0.23826456902E+02 -0.39610033240E+02 -0.14506872794E+03  0.15232754383E+03  0.47000000000E+01 0. -1.
          5    1    3    3  503    0 -0.34412850733E+02 -0.52231781750E+02 -0.10906141724E+03  0.12581290097E+03  0.47000000000E+01 0. -1.
         -5    1    3    3    0  503  0.22664476017E+02  0.23277781871E+02  0.12581884862E+02  0.35155759538E+02  0.47000000000E+01 0. -1.
<mgrwt>
<rscale>  0 0.12885040E+03</rscale>
<asrwt>0</asrwt>
<pdfrwt beam="2">  1        5 0.56085600E-01 0.12885111E+03</pdfrwt>
<pdfrwt beam="1">  1       -5 0.76682767E-02 0.12885111E+03</pdfrwt>
<totfact> 0.26763854E+02</totfact>
</mgrwt>
</event>
<event>
 8    1  0.1821556E-007  0.1743347E+03  0.7546771E-02  0.1173404E+00
          5   -1    0    0  501    0  0.00000000000E+00  0.00000000000E+00  0.71110768196E+03  0.71112321389E+03  0.47000000000E+01 0. -1.
         -5   -1    0    0    0  501 -0.00000000000E+00 -0.00000000000E+00 -0.44047819828E+02  0.44297860350E+02  0.47000000000E+01 0. -1.
         25    2    1    2    0    0  0.11860829541E+03 -0.26431813105E+02  0.26505002174E+03  0.31723788834E+03  0.12498718050E+03 0.  0.
         25    2    1    2    0    0 -0.11860829541E+03  0.26431813105E+02  0.40200984038E+03  0.43818318590E+03  0.12500409657E+03 0.  0.
          5    1    4    4  502    0 -0.42152747588E+02  0.70769841374E+02  0.23675869537E+03  0.25072294352E+03  0.47000000000E+01 0. -1.
         -5    1    4    4    0  502 -0.76455547820E+02 -0.44338028270E+02  0.16525114502E+03  0.18746024238E+03  0.47000000000E+01 0. -1.
          5    1    3    3  503    0  0.86450935529E+02 -0.34872882073E+01  0.26354853810E+03  0.27742719291E+03  0.47000000000E+01 0. -1.
         -5    1    3    3    0  503  0.32157359879E+02 -0.22944524897E+02  0.15014836419E+01  0.39810695425E+02  0.47000000000E+01 0. -1.
<mgrwt>
<rscale>  0 0.17433168E+03</rscale>
<asrwt>0</asrwt>
<pdfrwt beam="1">  1        5 0.10942160E+00 0.17433471E+03</pdfrwt>
<pdfrwt beam="2">  1       -5 0.67970168E-02 0.17433471E+03</pdfrwt>
<totfact> 0.77001046E+01</totfact>
</mgrwt>
</event>
<event>
 8    1  0.1821556E-007  0.1655863E+03  0.7546771E-02  0.1182532E+00
          5   -1    0    0  501    0  0.00000000000E+00  0.00000000000E+00  0.45604885834E+02  0.45846435106E+02  0.47000000000E+01 0.  1.
         -5   -1    0    0    0  501 -0.00000000000E+00 -0.00000000000E+00 -0.65479861682E+03  0.65481548438E+03  0.47000000000E+01 0.  1.
         25    2    1    2    0    0 -0.10467663518E+03  0.28968686107E+02 -0.40650188280E+03  0.43893151659E+03  0.12498285007E+03 0.  0.
         25    2    1    2    0    0  0.10467663518E+03 -0.28968686107E+02 -0.20269184818E+03  0.26173040289E+03  0.12498974258E+03 0.  0.
          5    1    4    4  502    0  0.45080251565E+02 -0.49598275845E+02 -0.18384985792E+03  0.19574237739E+03  0.47000000000E+01 0.  1.
         -5    1    4    4    0  502  0.59596383619E+02  0.20629589738E+02 -0.18841990264E+02  0.65988025507E+02  0.47000000000E+01 0.  1.
          5    1    3    3  503    0 -0.11481162839E+03  0.61228964884E+02 -0.29846565961E+03  0.32562944603E+03  0.47000000000E+01 0. -1.
         -5    1    3    3    0  503  0.10134993201E+02 -0.32260278777E+02 -0.10803622319E+03  0.11330207056E+03  0.47000000000E+01 0. -1.
<mgrwt>
<rscale>  0 0.16558499E+03</rscale>
<asrwt>0</asrwt>
<pdfrwt beam="1">  1        5 0.70360150E-02 0.16558629E+03</pdfrwt>
<pdfrwt beam="2">  1       -5 0.10075812E+00 0.16558629E+03</pdfrwt>
<totfact> 0.87773292E+01</totfact>
</mgrwt>
</event>
<event>
 8    1  0.1821556E-007  0.1483959E+03  0.7546771E-02  0.1202460E+00
          5   -1    0    0  501    0  0.00000000000E+00  0.00000000000E+00  0.43935424417E+03  0.43937938262E+03  0.47000000000E+01 0.  1.
         -5   -1    0    0    0  501 -0.00000000000E+00 -0.00000000000E+00 -0.50025086656E+02  0.50245390783E+02  0.47000000000E+01 0.  1.
         25    2    1    2    0    0 -0.73042591928E+02  0.32553925248E+02  0.20175178928E+03  0.25044983015E+03  0.12500541851E+03 0.  0.
         25    2    1    2    0    0  0.73042591928E+02 -0.32553925248E+02  0.18757736824E+03  0.23917494326E+03  0.12499762447E+03 0.  0.
          5    1    4    4  502    0 -0.30595115324E+02 -0.25461020412E+02  0.80434840527E+02  0.89867559290E+02  0.47000000000E+01 0.  1.
         -5    1    4    4    0  502  0.10363770725E+03 -0.70929048361E+01  0.10714252771E+03  0.14930738397E+03  0.47000000000E+01 0.  1.
          5    1    3    3  503    0 -0.43397042119E+02 -0.58999939363E+00 -0.15068596910E+00  0.43655057785E+02  0.47000000000E+01 0.  1.
         -5    1    3    3    0  503 -0.29645549809E+02  0.33143924641E+02  0.20190247525E+03  0.20679477236E+03  0.47000000000E+01 0.  1.
<mgrwt>
<rscale>  0 0.14839422E+03</rscale>
<asrwt>0</asrwt>
<pdfrwt beam="1">  1        5 0.67611842E-01 0.14839587E+03</pdfrwt>
<pdfrwt beam="2">  1       -5 0.77150473E-02 0.14839587E+03</pdfrwt>
<totfact> 0.18419262E+02</totfact>
</mgrwt>
</event>
<event>
 8    1  0.1821556E-007  0.1331779E+03  0.7546771E-02  0.1222838E+00
         -5   -1    0    0    0  501 -0.00000000000E+00  0.00000000000E+00  0.15800063810E+03  0.15807052742E+03  0.47000000000E+01 0.  1.
          5   -1    0    0  501    0  0.00000000000E+00 -0.00000000000E+00 -0.11282688612E+03  0.11292473703E+03  0.47000000000E+01 0.  1.
         25    2    1    2    0    0 -0.34690493803E+02  0.29836355052E+02  0.33781890128E+02  0.13739563864E+03  0.12507080784E+03 0.  0.
         25    2    1    2    0    0  0.34690493803E+02 -0.29836355052E+02  0.11391861849E+02  0.13359962581E+03  0.12500178821E+03 0.  0.
          5    1    3    3  502    0 -0.21367211252E+02 -0.34782431918E+02  0.54342031142E+02  0.68128713738E+02  0.47000000000E+01 0. -1.
         -5    1    3    3    0  502 -0.13323282551E+02  0.64618786970E+02 -0.20560141014E+02  0.69266924906E+02  0.47000000000E+01 0. -1.
          5    1    4    4  503    0  0.45906699766E+02 -0.23551879948E+02 -0.49219523119E+02  0.71461651174E+02  0.47000000000E+01 0. -1.
         -5    1    4    4    0  503 -0.11216205962E+02 -0.62844751035E+01  0.60611384968E+02  0.62137974631E+02  0.47000000000E+01 0. -1.
<mgrwt>
<rscale>  0 0.13316166E+03</rscale>
<asrwt>0</asrwt>
<pdfrwt beam="2">  1        5 0.17370886E-01 0.13317787E+03</pdfrwt>
<pdfrwt beam="1">  1       -5 0.24320694E-01 0.13317787E+03</pdfrwt>
<totfact> 0.34635618E+02</totfact>
</mgrwt>
</event>
<event>
 8    1  0.1821556E-007  0.1346428E+03  0.7546771E-02  0.1220727E+00
         -5   -1    0    0    0  501 -0.00000000000E+00  0.00000000000E+00  0.16144689090E+03  0.16151528901E+03  0.47000000000E+01 0. -1.
          5   -1    0    0  501    0  0.00000000000E+00 -0.00000000000E+00 -0.11677988751E+03  0.11687442888E+03  0.47000000000E+01 0. -1.
         25    2    1    2    0    0  0.38975984066E+02 -0.31367293667E+02  0.50053610106E+02  0.14364557947E+03  0.12500261666E+03 0.  0.
         25    2    1    2    0    0 -0.38975984066E+02  0.31367293667E+02 -0.53866067091E+01  0.13474413842E+03  0.12499573137E+03 0.  0.
          5    1    3    3  502    0  0.32571192015E+02  0.44463198586E+02  0.36315659508E+02  0.66172318255E+02  0.47000000000E+01 0.  1.
         -5    1    3    3    0  502  0.64047920512E+01 -0.75830492253E+02  0.13737950598E+02  0.77473261215E+02  0.47000000000E+01 0.  1.
          5    1    4    4  503    0 -0.78908398902E+02 -0.54665198725E+01 -0.10702589471E+02  0.79956573702E+02  0.47000000000E+01 0.  1.
         -5    1    4    4    0  503  0.39932414836E+02  0.36833813540E+02  0.53159827616E+01  0.54787564713E+02  0.47000000000E+01 0.  1.
<mgrwt>
<rscale>  0 0.13464122E+03</rscale>
<asrwt>0</asrwt>
<pdfrwt beam="2">  1        5 0.17978670E-01 0.13464282E+03</pdfrwt>
<pdfrwt beam="1">  1       -5 0.24850517E-01 0.13464282E+03</pdfrwt>
<totfact> 0.31318645E+02</totfact>
</mgrwt>
</event>
<event>
 8    1  0.1821556E-007  0.1370436E+03  0.7546771E-02  0.1217363E+00
          5   -1    0    0  501    0  0.00000000000E+00  0.00000000000E+00  0.15860774588E+03  0.15867736780E+03  0.47000000000E+01 0. -1.
         -5   -1    0    0    0  501 -0.00000000000E+00 -0.00000000000E+00 -0.11828088868E+03  0.11837423126E+03  0.47000000000E+01 0. -1.
         25    2    1    2    0    0 -0.51766533957E+02 -0.21811930160E+02  0.21581816846E+02  0.13873258021E+03  0.12500167862E+03 0.  0.
         25    2    1    2    0    0  0.51766533957E+02  0.21811930160E+02  0.18745040355E+02  0.13831901885E+03  0.12500096041E+03 0.  0.
          5    1    3    3  502    0 -0.84953045477E+02 -0.89131216619E+01 -0.15687831553E+02  0.86975063854E+02  0.47000000000E+01 0. -1.
         -5    1    3    3    0  502  0.33186511520E+02 -0.12898808498E+02  0.37269648399E+02  0.51757516355E+02  0.47000000000E+01 0. -1.
          5    1    4    4  503    0  0.10319768461E+02  0.59834367665E+02  0.45341687795E+02  0.75925014502E+02  0.47000000000E+01 0.  1.
         -5    1    4    4    0  503  0.41446765496E+02 -0.38022437505E+02 -0.26596647440E+02  0.62394004351E+02  0.47000000000E+01 0.  1.
<mgrwt>
<rscale>  0 0.13704346E+03</rscale>
<asrwt>0</asrwt>
<pdfrwt beam="1">  1        5 0.24413727E-01 0.13704362E+03</pdfrwt>
<pdfrwt beam="2">  1       -5 0.18209596E-01 0.13704362E+03</pdfrwt>
<totfact> 0.31838000E+02</totfact>
</mgrwt>
</event>
<event>
 8    1  0.1821556E-007  0.1313456E+03  0.7546771E-02  0.1225474E+00
         -5   -1    0    0    0  501 -0.00000000000E+00  0.00000000000E+00  0.27311376791E+02  0.27712836416E+02  0.47000000000E+01 0.  1.
          5   -1    0    0  501    0  0.00000000000E+00 -0.00000000000E+00 -0.65345099072E+03  0.65346789307E+03  0.47000000000E+01 0.  1.
         25    2    1    2    0    0 -0.39934406878E+02 -0.55160238229E+01 -0.24409316940E+03  0.27718790023E+03  0.12500589312E+03 0.  0.
         25    2    1    2    0    0  0.39934406878E+02  0.55160238229E+01 -0.38204644453E+03  0.40399282925E+03  0.12500214774E+03 0.  0.
          5    1    4    4  502    0  0.48867955553E+02  0.15407766081E+02 -0.50334883299E+02  0.71980322396E+02  0.47000000000E+01 0.  1.
         -5    1    4    4    0  502 -0.89335486749E+01 -0.98917422582E+01 -0.33171156123E+03  0.33201250686E+03  0.47000000000E+01 0.  1.
          5    1    3    3  503    0 -0.23317472067E+02 -0.42026304037E+02 -0.24952607073E+02  0.54356575815E+02  0.47000000000E+01 0. -1.
         -5    1    3    3    0  503 -0.16616934811E+02  0.36510280214E+02 -0.21914056233E+03  0.22283132442E+03  0.47000000000E+01 0. -1.
<mgrwt>
<rscale>  0 0.13134467E+03</rscale>
<asrwt>0</asrwt>
<pdfrwt beam="2">  1        5 0.10056309E+00 0.13134556E+03</pdfrwt>
<pdfrwt beam="1">  1       -5 0.42339325E-02 0.13134556E+03</pdfrwt>
<totfact> 0.19172201E+02</totfact>
</mgrwt>
</event>
<event>
 8    1  0.1821556E-007  0.1285749E+03  0.7546771E-02  0.1229590E+00
          5   -1    0    0  501    0  0.00000000000E+00  0.00000000000E+00  0.41805212232E+02  0.42068584119E+02  0.47000000000E+01 0. -1.
         -5   -1    0    0    0  501 -0.00000000000E+00 -0.00000000000E+00 -0.39435255746E+03  0.39438056440E+03  0.47000000000E+01 0. -1.
         25    2    1    2    0    0 -0.52344909488E+01  0.29629811169E+02 -0.18374175019E+03  0.22425386916E+03  0.12499376570E+03 0.  0.
         25    2    1    2    0    0  0.52344909488E+01 -0.29629811169E+02 -0.16880559504E+03  0.21219527936E+03  0.12500472815E+03 0.  0.
          5    1    3    3  502    0 -0.63778943433E+02  0.19232852069E+02 -0.11721239744E+03  0.13490178775E+03  0.47000000000E+01 0. -1.
         -5    1    3    3    0  502  0.58544452484E+02  0.10396959101E+02 -0.66529352752E+02  0.89352081413E+02  0.47000000000E+01 0. -1.
          5    1    4    4  503    0 -0.18394779500E+02 -0.42656131099E+02 -0.59678824698E+01  0.47070362803E+02  0.47000000000E+01 0.  1.
         -5    1    4    4    0  503  0.23629270449E+02  0.13026319929E+02 -0.16283771257E+03  0.16512491656E+03  0.47000000000E+01 0.  1.
<mgrwt>
<rscale>  0 0.12857225E+03</rscale>
<asrwt>0</asrwt>
<pdfrwt beam="1">  1        5 0.64539852E-02 0.12857491E+03</pdfrwt>
<pdfrwt beam="2">  1       -5 0.60692035E-01 0.12857491E+03</pdfrwt>
<totfact> 0.30179895E+02</totfact>
</mgrwt>
</event>
<event>
 8    1  0.1821556E-007  0.1694719E+03  0.7546771E-02  0.1178403E+00
         -5   -1    0    0    0  501 -0.00000000000E+00  0.00000000000E+00  0.84055887419E+02  0.84187185544E+02  0.47000000000E+01 0.  1.
          5   -1    0    0  501    0  0.00000000000E+00 -0.00000000000E+00 -0.42595075808E+03  0.42597668752E+03  0.47000000000E+01 0.  1.
         25    2    1    2    0    0  0.62125800999E+02  0.96090740831E+02 -0.57211223154E+02  0.17885511559E+03  0.12499193052E+03 0.  0.
         25    2    1    2    0    0 -0.62125800999E+02 -0.96090740831E+02 -0.28468364751E+03  0.33130875747E+03  0.12501067153E+03 0.  0.
          5    1    4    4  502    0 -0.91893024685E+02 -0.48861954449E+02 -0.23237503232E+03  0.25466068449E+03  0.47000000000E+01 0.  1.
         -5    1    4    4    0  502  0.29767223685E+02 -0.47228786383E+02 -0.52308615181E+02  0.76648072978E+02  0.47000000000E+01 0.  1.
          5    1    3    3  503    0  0.48321530438E+02  0.52324629712E+01  0.25533115012E+02  0.55103347764E+02  0.47000000000E+01 0.  1.
         -5    1    3    3    0  503  0.13804270562E+02  0.90858277860E+02 -0.82744338166E+02  0.12375176783E+03  0.47000000000E+01 0.  1.
<mgrwt>
<rscale>  0 0.16946841E+03</rscale>
<asrwt>0</asrwt>
<pdfrwt beam="2">  1        5 0.65542979E-01 0.16947187E+03</pdfrwt>
<pdfrwt beam="1">  1       -5 0.12943770E-01 0.16947187E+03</pdfrwt>
<totfact> 0.83175683E+01</totfact>
</mgrwt>
</event>
<event>
 8    1  0.1821556E-007  0.1292546E+03  0.7546771E-02  0.1228569E+00
         -5   -1    0    0    0  501 -0.00000000000E+00  0.00000000000E+00  0.24290671973E+04  0.24290717443E+04  0.47000000000E+01 0.  1.
          5   -1    0    0  501    0  0.00000000000E+00 -0.00000000000E+00 -0.61833902110E+01  0.77668728908E+01  0.47000000000E+01 0.  1.
         25    2    1    2    0    0 -0.15833536290E+02 -0.28795896552E+02  0.13589742273E+04  0.13651072141E+04  0.12500740417E+03 0.  0.
         25    2    1    2    0    0  0.15833536290E+02  0.28795896552E+02  0.10639095798E+04  0.10717314030E+04  0.12499880723E+03 0.  0.
          5    1    3    3  502    0  0.28581943559E+02  0.15053982600E+02  0.10124152200E+04  0.10129413693E+04  0.47000000000E+01 0. -1.
         -5    1    3    3    0  502 -0.44415479849E+02 -0.43849879152E+02  0.34655900731E+03  0.35216584487E+03  0.47000000000E+01 0. -1.
          5    1    4    4  503    0 -0.76517823707E+01 -0.38860783861E+02  0.15702486701E+03  0.16201113898E+03  0.47000000000E+01 0.  1.
         -5    1    4    4    0  503  0.23485318661E+02  0.67656680413E+02  0.90688471276E+03  0.90972026406E+03  0.47000000000E+01 0.  1.
<mgrwt>
<rscale>  0 0.12925254E+03</rscale>
<asrwt>0</asrwt>
<pdfrwt beam="2">  1        5 0.10734465E-02 0.12925462E+03</pdfrwt>
<pdfrwt beam="1">  1       -5 0.37382494E+00 0.12925462E+03</pdfrwt>
<totfact> 0.20078410E+01</totfact>
</mgrwt>
</event>
<event>
 8    1  0.1821556E-007  0.1596234E+03  0.7546771E-02  0.1189123E+00
         -5   -1    0    0    0  501 -0.00000000000E+00  0.00000000000E+00  0.46487646648E+02  0.46724632593E+02  0.47000000000E+01 0.  1.
          5   -1    0    0  501    0  0.00000000000E+00 -0.00000000000E+00 -0.68539545167E+03  0.68541156627E+03  0.47000000000E+01 0.  1.
         25    2    1    2    0    0 -0.80253558566E+02  0.58430310171E+02 -0.15466427594E+03  0.22226228014E+03  0.12499899245E+03 0.  0.
         25    2    1    2    0    0  0.80253558566E+02 -0.58430310171E+02 -0.48424352908E+03  0.50987391872E+03  0.12499953088E+03 0.  0.
          5    1    3    3  502    0  0.10979875166E+02 -0.55233139076E+01  0.14543158235E+02  0.19612702685E+02  0.47000000000E+01 0. -1.
         -5    1    3    3    0  502 -0.91233433732E+02  0.63953624079E+02 -0.16920743418E+03  0.20264957746E+03  0.47000000000E+01 0. -1.
          5    1    4    4  503    0  0.46433111319E+02 -0.90790197150E+02 -0.23477211763E+03  0.25600572443E+03  0.47000000000E+01 0.  1.
         -5    1    4    4    0  503  0.33820447247E+02  0.32359886979E+02 -0.24947141146E+03  0.25386819429E+03  0.47000000000E+01 0.  1.
<mgrwt>
<rscale>  0 0.15962326E+03</rscale>
<asrwt>0</asrwt>
<pdfrwt beam="2">  1        5 0.10546492E+00 0.15962336E+03</pdfrwt>
<pdfrwt beam="1">  1       -5 0.71714154E-02 0.15962336E+03</pdfrwt>
<totfact> 0.75119428E+01</totfact>
</mgrwt>
</event>
<event>
 8    1  0.1821556E-007  0.1423904E+03  0.7546771E-02  0.1210149E+00
          5   -1    0    0  501    0  0.00000000000E+00  0.00000000000E+00  0.17735672404E+03  0.17741898873E+03  0.47000000000E+01 0. -1.
         -5   -1    0    0    0  501 -0.00000000000E+00 -0.00000000000E+00 -0.13339216701E+03  0.13347494229E+03  0.47000000000E+01 0. -1.
         25    2    1    2    0    0  0.55074490482E+02 -0.40204786818E+02 -0.36970348971E+02  0.14710909101E+03  0.12499861427E+03 0.  0.
         25    2    1    2    0    0 -0.55074490482E+02  0.40204786818E+02  0.80934905999E+02  0.16378484001E+03  0.12500156169E+03 0.  0.
          5    1    3    3  502    0  0.23165873165E+02  0.45053193272E+02 -0.82875639564E+01  0.51548245556E+02  0.47000000000E+01 0. -1.
         -5    1    3    3    0  502  0.31908617317E+02 -0.85257980090E+02 -0.28682785015E+02  0.95560845456E+02  0.47000000000E+01 0. -1.
          5    1    4    4  503    0 -0.53008898828E+02  0.21336710066E+02  0.11272160289E+03  0.12646520592E+03  0.47000000000E+01 0.  1.
         -5    1    4    4    0  503 -0.20655916540E+01  0.18868076751E+02 -0.31786696891E+02  0.37319634088E+02  0.47000000000E+01 0.  1.
<mgrwt>
<rscale>  0 0.14238971E+03</rscale>
<asrwt>0</asrwt>
<pdfrwt beam="1">  1        5 0.27296807E-01 0.14239036E+03</pdfrwt>
<pdfrwt beam="2">  1       -5 0.20533029E-01 0.14239036E+03</pdfrwt>
<totfact> 0.20811262E+02</totfact>
</mgrwt>
</event>
<event>
 8    1  0.1821556E-007  0.1289956E+03  0.7546771E-02  0.1228959E+00
         -5   -1    0    0    0  501 -0.00000000000E+00  0.00000000000E+00  0.14082657863E+04  0.14082736292E+04  0.47000000000E+01 0.  1.
          5   -1    0    0  501    0  0.00000000000E+00 -0.00000000000E+00 -0.13012552050E+02  0.13835335588E+02  0.47000000000E+01 0.  1.
         25    2    1    2    0    0 -0.78176220929E+01 -0.30898387397E+02  0.94432755131E+03  0.95309527031E+03  0.12498097682E+03 0.  0.
         25    2    1    2    0    0  0.78176220929E+01  0.30898387397E+02  0.45092568293E+03  0.46901369453E+03  0.12499619421E+03 0.  0.
          5    1    4    4  502    0  0.29942610601E+02 -0.28991781679E+02  0.62000267699E+02  0.74854569194E+02  0.47000000000E+01 0.  1.
         -5    1    4    4    0  502 -0.22124988508E+02  0.59890169076E+02  0.38892541523E+03  0.39415912533E+03  0.47000000000E+01 0.  1.
          5    1    3    3  503    0  0.68168957957E+01 -0.73840112860E+02  0.39868621318E+03  0.40555100655E+03  0.47000000000E+01 0.  1.
         -5    1    3    3    0  503 -0.14634517889E+02  0.42941725463E+02  0.54564133812E+03  0.54754426375E+03  0.47000000000E+01 0.  1.
<mgrwt>
<rscale>  0 0.12899195E+03</rscale>
<asrwt>0</asrwt>
<pdfrwt beam="2">  1        5 0.20658267E-02 0.12899564E+03</pdfrwt>
<pdfrwt beam="1">  1       -5 0.21672003E+00 0.12899564E+03</pdfrwt>
<totfact> 0.73208172E+01</totfact>
</mgrwt>
</event>
<event>
 8    1  0.1821556E-007  0.1799176E+03  0.7546771E-02  0.1167884E+00
         -5   -1    0    0    0  501 -0.00000000000E+00  0.00000000000E+00  0.12869845125E+03  0.12878424342E+03  0.47000000000E+01 0. -1.
          5   -1    0    0  501    0  0.00000000000E+00 -0.00000000000E+00 -0.25848204030E+03  0.25852476701E+03  0.47000000000E+01 0. -1.
         25    2    1    2    0    0  0.10652239522E+03  0.73459989475E+02 -0.32674663703E+02  0.18285735907E+03  0.12500315749E+03 0.  0.
         25    2    1    2    0    0 -0.10652239522E+03 -0.73459989475E+02 -0.97108925347E+02  0.20445165135E+03  0.12500777424E+03 0.  0.
          5    1    3    3  502    0 -0.19833656082E+02 -0.45098423263E+01 -0.27092015553E+02  0.34202045233E+02  0.47000000000E+01 0.  1.
         -5    1    3    3    0  502  0.12635605131E+03  0.77969831802E+02 -0.55826481500E+01  0.14865531384E+03  0.47000000000E+01 0.  1.
          5    1    4    4  503    0 -0.80321991435E+02 -0.10740492469E+03 -0.87656787482E+02  0.16029111812E+03  0.47000000000E+01 0. -1.
         -5    1    4    4    0  503 -0.26200403789E+02  0.33944935214E+02 -0.94521378646E+01  0.44160533235E+02  0.47000000000E+01 0. -1.
<mgrwt>
<rscale>  0 0.17991677E+03</rscale>
<asrwt>0</asrwt>
<pdfrwt beam="2">  1        5 0.39776354E-01 0.17991758E+03</pdfrwt>
<pdfrwt beam="1">  1       -5 0.19809648E-01 0.17991758E+03</pdfrwt>
<totfact> 0.11303013E+02</totfact>
</mgrwt>
</event>
<event>
 8    1  0.1821556E-007  0.1385497E+03  0.7546771E-02  0.1215294E+00
         -5   -1    0    0    0  501 -0.00000000000E+00  0.00000000000E+00  0.73034368545E+02  0.73185442465E+02  0.47000000000E+01 0.  1.
          5   -1    0    0  501    0  0.00000000000E+00 -0.00000000000E+00 -0.28144049463E+03  0.28147973642E+03  0.47000000000E+01 0.  1.
         25    2    1    2    0    0 -0.50967846683E+02  0.31188731652E+02 -0.58083700750E+02  0.15023231822E+03  0.12500229904E+03 0.  0.
         25    2    1    2    0    0  0.50967846683E+02 -0.31188731652E+02 -0.15032242534E+03  0.20443286067E+03  0.12500201833E+03 0.  0.
          5    1    4    4  502    0  0.27135019912E+02 -0.67978293826E+02 -0.14163528493E+03  0.15949922154E+03  0.47000000000E+01 0. -1.
         -5    1    4    4    0  502  0.23832826771E+02  0.36789562174E+02 -0.86871404086E+01  0.44933639129E+02  0.47000000000E+01 0. -1.
          5    1    3    3  503    0 -0.50578570031E+02 -0.27139007277E+02  0.12104341906E+02  0.58850000470E+02  0.47000000000E+01 0.  1.
         -5    1    3    3    0  503 -0.38927665167E+00  0.58327738929E+02 -0.70188042656E+02  0.91382317746E+02  0.47000000000E+01 0.  1.
<mgrwt>
<rscale>  0 0.13854969E+03</rscale>
<asrwt>0</asrwt>
<pdfrwt beam="2">  1        5 0.43313177E-01 0.13854975E+03</pdfrwt>
<pdfrwt beam="1">  1       -5 0.11250696E-01 0.13854975E+03</pdfrwt>
<totfact> 0.24380130E+02</totfact>
</mgrwt>
</event>
<event>
 8    1  0.1821556E-007  0.1287914E+03  0.7546771E-02  0.1229261E+00
          5   -1    0    0  501    0  0.00000000000E+00  0.00000000000E+00  0.28890537874E+02  0.29270346405E+02  0.47000000000E+01 0.  1.
         -5   -1    0    0    0  501 -0.00000000000E+00 -0.00000000000E+00 -0.57632479214E+03  0.57634395636E+03  0.47000000000E+01 0.  1.
         25    2    1    2    0    0  0.23800504817E+02  0.19920832927E+02 -0.30545693185E+03  0.33149836004E+03  0.12499568744E+03 0.  0.
         25    2    1    2    0    0 -0.23800504817E+02 -0.19920832927E+02 -0.24197732241E+03  0.27411594273E+03  0.12499288732E+03 0.  0.
          5    1    4    4  502    0  0.49916632418E+02  0.27258354434E+01 -0.76724768946E+02  0.91694495694E+02  0.47000000000E+01 0. -1.
         -5    1    4    4    0  502 -0.73717137234E+02 -0.22646668370E+02 -0.16525255347E+03  0.18242144704E+03  0.47000000000E+01 0. -1.
          5    1    3    3  503    0 -0.29098913038E+02 -0.32886816343E+02 -0.57652401387E+02  0.72623541740E+02  0.47000000000E+01 0. -1.
         -5    1    3    3    0  503  0.52899417855E+02  0.52807649269E+02 -0.24780453046E+03  0.25887481830E+03  0.47000000000E+01 0. -1.
<mgrwt>
<rscale>  0 0.12879072E+03</rscale>
<asrwt>0</asrwt>
<pdfrwt beam="1">  1        5 0.44753888E-02 0.12879140E+03</pdfrwt>
<pdfrwt beam="2">  1       -5 0.88696034E-01 0.12879140E+03</pdfrwt>
<totfact> 0.23477522E+02</totfact>
</mgrwt>
</event>
<event>
 8    1  0.1821556E-007  0.1334391E+03  0.7546771E-02  0.1222442E+00
         -5   -1    0    0    0  501 -0.00000000000E+00  0.00000000000E+00  0.11515604433E+03  0.11525191775E+03  0.47000000000E+01 0.  1.
          5   -1    0    0  501    0  0.00000000000E+00 -0.00000000000E+00 -0.18644786469E+03  0.18650709436E+03  0.47000000000E+01 0.  1.
         25    2    1    2    0    0 -0.31231831041E+02  0.34711812514E+02  0.26857110290E+02  0.13611503652E+03  0.12500264635E+03 0.  0.
         25    2    1    2    0    0  0.31231831041E+02 -0.34711812514E+02 -0.98148930651E+02  0.16564397560E+03  0.12499750744E+03 0.  0.
          5    1    4    4  502    0 -0.99622271797E+01 -0.73820811391E+02 -0.68914605611E+02  0.10158775040E+03  0.47000000000E+01 0.  1.
         -5    1    4    4    0  502  0.41194058220E+02  0.39108998877E+02 -0.29234325040E+02  0.64056225196E+02  0.47000000000E+01 0.  1.
          5    1    3    3  503    0 -0.95148762836E+01  0.69878882779E+02  0.51783814524E+02  0.87619886874E+02  0.47000000000E+01 0.  1.
         -5    1    3    3    0  503 -0.21716954757E+02 -0.35167070264E+02 -0.24926704234E+02  0.48495149643E+02  0.47000000000E+01 0.  1.
<mgrwt>
<rscale>  0 0.13343792E+03</rscale>
<asrwt>0</asrwt>
<pdfrwt beam="2">  1        5 0.28696218E-01 0.13343912E+03</pdfrwt>
<pdfrwt beam="1">  1       -5 0.17728245E-01 0.13343912E+03</pdfrwt>
<totfact> 0.24265984E+02</totfact>
</mgrwt>
</event>
<event>
 8    1  0.1821556E-007  0.1290490E+03  0.7546771E-02  0.1228874E+00
          5   -1    0    0  501    0  0.00000000000E+00  0.00000000000E+00  0.63388156705E+02  0.63562161782E+02  0.47000000000E+01 0.  1.
         -5   -1    0    0    0  501 -0.00000000000E+00 -0.00000000000E+00 -0.28541582134E+03  0.28545451664E+03  0.47000000000E+01 0.  1.
         25    2    1    2    0    0  0.42764738260E+01  0.31800101763E+02 -0.16080095560E+03  0.20617989528E+03  0.12499466866E+03 0.  0.
         25    2    1    2    0    0 -0.42764738260E+01 -0.31800101763E+02 -0.61226709035E+02  0.14283678314E+03  0.12499640803E+03 0.  0.
          5    1    4    4  502    0 -0.57095517147E+02 -0.21813183627E+02 -0.64236878417E+02  0.88792902909E+02  0.47000000000E+01 0. -1.
         -5    1    4    4    0  502  0.52819043321E+02 -0.99869181359E+01  0.30101693828E+01  0.54043880236E+02  0.47000000000E+01 0. -1.
          5    1    3    3  503    0  0.55590101509E+02 -0.14894355972E+02 -0.56223247634E+02  0.80593081589E+02  0.47000000000E+01 0.  1.
         -5    1    3    3    0  503 -0.51313627683E+02  0.46694457734E+02 -0.10457770797E+03  0.12558681369E+03  0.47000000000E+01 0.  1.
<mgrwt>
<rscale>  0 0.12904855E+03</rscale>
<asrwt>0</asrwt>
<pdfrwt beam="1">  1        5 0.97683858E-02 0.12904897E+03</pdfrwt>
<pdfrwt beam="2">  1       -5 0.43926487E-01 0.12904897E+03</pdfrwt>
<totfact> 0.29585126E+02</totfact>
</mgrwt>
</event>
<event>
 8    1  0.1821556E-007  0.1966785E+03  0.7546771E-02  0.1152573E+00
         -5   -1    0    0    0  501 -0.00000000000E+00  0.00000000000E+00  0.23905732056E+03  0.23910351841E+03  0.47000000000E+01 0.  1.
          5   -1    0    0  501    0  0.00000000000E+00 -0.00000000000E+00 -0.19458300835E+03  0.19463976248E+03  0.47000000000E+01 0.  1.
         25    2    1    2    0    0 -0.18266945324E+02 -0.15074166712E+03  0.11134868923E+03  0.22600641754E+03  0.12499455461E+03 0.  0.
         25    2    1    2    0    0  0.18266945324E+02  0.15074166712E+03 -0.66874377015E+02  0.20773686334E+03  0.12500276234E+03 0.  0.
          5    1    3    3  502    0 -0.11531684361E+01 -0.15299181066E+03  0.48359158493E+02  0.16052576783E+03  0.47000000000E+01 0. -1.
         -5    1    3    3    0  502 -0.17113776888E+02  0.22501435441E+01  0.62989530733E+02  0.65480649717E+02  0.47000000000E+01 0. -1.
          5    1    4    4  503    0  0.28922731417E+02  0.17072984843E+03 -0.55093057026E+02  0.18177607233E+03  0.47000000000E+01 0.  1.
         -5    1    4    4    0  503 -0.10655786093E+02 -0.19988181314E+02 -0.11781319989E+02  0.25960791016E+02  0.47000000000E+01 0.  1.
<mgrwt>
<rscale>  0 0.19667717E+03</rscale>
<asrwt>0</asrwt>
<pdfrwt beam="2">  1        5 0.29943767E-01 0.19667847E+03</pdfrwt>
<pdfrwt beam="1">  1       -5 0.36785969E-01 0.19667847E+03</pdfrwt>
<totfact> 0.61466027E+01</totfact>
</mgrwt>
</event>
<event>
 8    1  0.1821556E-007  0.1680666E+03  0.7546771E-02  0.1179881E+00
         -5   -1    0    0    0  501 -0.00000000000E+00  0.00000000000E+00  0.12344588485E+03  0.12353532485E+03  0.47000000000E+01 0. -1.
          5   -1    0    0  501    0  0.00000000000E+00 -0.00000000000E+00 -0.29177848421E+03  0.29181633581E+03  0.47000000000E+01 0. -1.
         25    2    1    2    0    0  0.32183704906E+02 -0.10762656454E+03  0.12439211996E+02  0.16852633970E+03  0.12500849940E+03 0.  0.
         25    2    1    2    0    0 -0.32183704906E+02  0.10762656454E+03 -0.18077181135E+03  0.24682532096E+03  0.12500009212E+03 0.  0.
          5    1    4    4  502    0  0.11599432827E+02 -0.23064274056E+02 -0.51502522561E+02  0.57802313187E+02  0.47000000000E+01 0. -1.
         -5    1    4    4    0  502 -0.43783137733E+02  0.13069083859E+03 -0.12926928879E+03  0.18902300777E+03  0.47000000000E+01 0. -1.
          5    1    3    3  503    0  0.30541047806E+02 -0.13581115427E+03  0.13107817264E+02  0.13989757002E+03  0.47000000000E+01 0.  1.
         -5    1    3    3    0  503  0.16426571001E+01  0.28184589729E+02 -0.66860526807E+00  0.28628769682E+02  0.47000000000E+01 0.  1.
<mgrwt>
<rscale>  0 0.16806507E+03</rscale>
<asrwt>0</asrwt>
<pdfrwt beam="2">  1        5 0.44898789E-01 0.16806663E+03</pdfrwt>
<pdfrwt beam="1">  1       -5 0.19001466E-01 0.16806663E+03</pdfrwt>
<totfact> 0.93178745E+01</totfact>
</mgrwt>
</event>
<event>
 8    1  0.1821556E-007  0.1631715E+03  0.7546771E-02  0.1185162E+00
         -5   -1    0    0    0  501 -0.00000000000E+00  0.00000000000E+00  0.21553683239E+03  0.21558807044E+03  0.47000000000E+01 0. -1.
          5   -1    0    0  501    0  0.00000000000E+00 -0.00000000000E+00 -0.12663802642E+03  0.12672521350E+03  0.47000000000E+01 0. -1.
         25    2    1    2    0    0  0.10457364949E+03 -0.80069922242E+01  0.71732978396E+02  0.17824296912E+03  0.12500070303E+03 0.  0.
         25    2    1    2    0    0 -0.10457364949E+03  0.80069922242E+01  0.17165827569E+02  0.16407031482E+03  0.12499856989E+03 0.  0.
          5    1    4    4  502    0 -0.78325783268E+02  0.11565511972E+01  0.69570865879E+02  0.10487354916E+03  0.47000000000E+01 0. -1.
         -5    1    4    4    0  502 -0.26247866225E+02  0.68504410269E+01 -0.52405038310E+02  0.59196765654E+02  0.47000000000E+01 0. -1.
          5    1    3    3  503    0  0.13168539533E+03  0.39925173823E+01  0.66914857307E+02  0.14784002051E+03  0.47000000000E+01 0.  1.
         -5    1    3    3    0  503 -0.27111745835E+02 -0.11999509606E+02  0.48181210897E+01  0.30402948604E+02  0.47000000000E+01 0.  1.
<mgrwt>
<rscale>  0 0.16317108E+03</rscale>
<asrwt>0</asrwt>
<pdfrwt beam="2">  1        5 0.19493421E-01 0.16317149E+03</pdfrwt>
<pdfrwt beam="1">  1       -5 0.33170161E-01 0.16317149E+03</pdfrwt>
<totfact> 0.16339220E+02</totfact>
</mgrwt>
</event>
<event>
 8    1  0.1821556E-007  0.1595569E+03  0.7546771E-02  0.1189200E+00
         -5   -1    0    0    0  501 -0.00000000000E+00  0.00000000000E+00  0.57856127170E+02  0.58046717832E+02  0.47000000000E+01 0. -1.
          5   -1    0    0  501    0  0.00000000000E+00 -0.00000000000E+00 -0.47766268238E+03  0.47768580483E+03  0.47000000000E+01 0. -1.
         25    2    1    2    0    0 -0.57287334684E+02  0.80925052811E+02 -0.13378946222E+03  0.20822043525E+03  0.12500170625E+03 0.  0.
         25    2    1    2    0    0  0.57287334684E+02 -0.80925052811E+02 -0.28601709300E+03  0.32751208742E+03  0.12501074767E+03 0.  0.
          5    1    3    3  502    0  0.29292272372E+02  0.46529321597E+02 -0.15002321093E+02  0.57185440692E+02  0.47000000000E+01 0.  1.
         -5    1    3    3    0  502 -0.86579607056E+02  0.34395731215E+02 -0.11878714112E+03  0.15103499455E+03  0.47000000000E+01 0.  1.
          5    1    4    4  503    0  0.32455336693E+02  0.26478573567E+02 -0.12818506551E+03  0.13493689176E+03  0.47000000000E+01 0. -1.
         -5    1    4    4    0  503  0.24831997992E+02 -0.10740362638E+03 -0.15783202749E+03  0.19257519566E+03  0.47000000000E+01 0. -1.
<mgrwt>
<rscale>  0 0.15955508E+03</rscale>
<asrwt>0</asrwt>
<pdfrwt beam="2">  1        5 0.73503003E-01 0.15955685E+03</pdfrwt>
<pdfrwt beam="1">  1       -5 0.89173824E-02 0.15955685E+03</pdfrwt>
<totfact> 0.12161382E+02</totfact>
</mgrwt>
</event>
<event>
 8    1  0.1821556E-007  0.2027227E+03  0.7546771E-02  0.1147462E+00
         -5   -1    0    0    0  501 -0.00000000000E+00  0.00000000000E+00  0.56415156140E+03  0.56417113913E+03  0.47000000000E+01 0.  1.
          5   -1    0    0  501    0  0.00000000000E+00 -0.00000000000E+00 -0.12944002410E+03  0.12952532508E+03  0.47000000000E+01 0.  1.
         25    2    1    2    0    0  0.15055064336E+03  0.52968248413E+02  0.44677412663E+03  0.49061517272E+03  0.12499998367E+03 0.  0.
         25    2    1    2    0    0 -0.15055064336E+03 -0.52968248413E+02 -0.12062589330E+02  0.20308129149E+03  0.12500149334E+03 0.  0.
          5    1    3    3  502    0  0.12291262658E+03 -0.15435198999E+02  0.22563912649E+03  0.25745070313E+03  0.47000000000E+01 0. -1.
         -5    1    3    3    0  502  0.27638016783E+02  0.68403447412E+02  0.22113500015E+03  0.23316446959E+03  0.47000000000E+01 0. -1.
          5    1    4    4  503    0 -0.13360041896E+03  0.13107060758E+02 -0.65738137957E+01  0.13448483935E+03  0.47000000000E+01 0.  1.
         -5    1    4    4    0  503 -0.16950224399E+02 -0.66075309171E+02 -0.54887755341E+01  0.68596452139E+02  0.47000000000E+01 0.  1.
<mgrwt>
<rscale>  0 0.20272250E+03</rscale>
<asrwt>0</asrwt>
<pdfrwt beam="2">  1        5 0.19921918E-01 0.20272273E+03</pdfrwt>
<pdfrwt beam="1">  1       -5 0.86800615E-01 0.20272273E+03</pdfrwt>
<totfact> 0.20740895E+01</totfact>
</mgrwt>
</event>
<event>
 8    1  0.1821556E-007  0.1550040E+03  0.7546771E-02  0.1194456E+00
         -5   -1    0    0    0  501 -0.00000000000E+00  0.00000000000E+00  0.12331492807E+03  0.12340446299E+03  0.47000000000E+01 0.  1.
          5   -1    0    0  501    0  0.00000000000E+00 -0.00000000000E+00 -0.22690216763E+03  0.22695083978E+03  0.47000000000E+01 0.  1.
         25    2    1    2    0    0  0.37263557846E+02  0.83733270611E+02  0.14236803437E+02  0.15565361253E+03  0.12500210867E+03 0.  0.
         25    2    1    2    0    0 -0.37263557846E+02 -0.83733270611E+02 -0.11782404299E+03  0.19470169024E+03  0.12500563876E+03 0.  0.
          5    1    3    3  502    0  0.65929643745E+02 -0.27055310667E+00  0.72780964076E+01  0.66497006027E+02  0.47000000000E+01 0. -1.
         -5    1    3    3    0  502 -0.28666085899E+02  0.84003823718E+02  0.69587070294E+01  0.89156606505E+02  0.47000000000E+01 0. -1.
          5    1    4    4  503    0 -0.22467580431E+02 -0.37110258025E+02  0.20278414255E+02  0.48117226706E+02  0.47000000000E+01 0. -1.
         -5    1    4    4    0  503 -0.14795977415E+02 -0.46623012586E+02 -0.13810245725E+03  0.14658446353E+03  0.47000000000E+01 0. -1.
<mgrwt>
<rscale>  0 0.15500330E+03</rscale>
<asrwt>0</asrwt>
<pdfrwt beam="2">  1        5 0.34918657E-01 0.15500401E+03</pdfrwt>
<pdfrwt beam="1">  1       -5 0.18982159E-01 0.15500401E+03</pdfrwt>
<totfact> 0.15241677E+02</totfact>
</mgrwt>
</event>
<event>
 8    1  0.1821556E-007  0.1282037E+03  0.7546771E-02  0.1230146E+00
          5   -1    0    0  501    0  0.00000000000E+00  0.00000000000E+00  0.89850171082E+02  0.89973013974E+02  0.47000000000E+01 0.  1.
         -5   -1    0    0    0  501 -0.00000000000E+00 -0.00000000000E+00 -0.20179705495E+03  0.20185178074E+03  0.47000000000E+01 0.  1.
         25    2    1    2    0    0  0.22875758378E+02  0.17097994983E+02 -0.10089803610E+03  0.16314587798E+03  0.12498208696E+03 0.  0.
         25    2    1    2    0    0 -0.22875758378E+02 -0.17097994983E+02 -0.11048847773E+02  0.12867891673E+03  0.12498217801E+03 0.  0.
          5    1    3    3  502    0  0.62278403728E+02 -0.93208556037E+00 -0.10193168294E+03  0.11954759028E+03  0.47000000000E+01 0.  1.
         -5    1    3    3    0  502 -0.39402645349E+02  0.18030080543E+02  0.10336468438E+01  0.43598287704E+02  0.47000000000E+01 0.  1.
          5    1    4    4  503    0 -0.73659203798E+02 -0.19417350456E+02  0.56029972657E+00  0.76322445838E+02  0.47000000000E+01 0. -1.
         -5    1    4    4    0  503  0.50783445420E+02  0.23193554737E+01 -0.11609147500E+02  0.52356470892E+02  0.47000000000E+01 0. -1.
<mgrwt>
<rscale>  0 0.12820367E+03</rscale>
<asrwt>0</asrwt>
<pdfrwt beam="1">  1        5 0.13836762E-01 0.12820369E+03</pdfrwt>
<pdfrwt beam="2">  1       -5 0.31059360E-01 0.12820369E+03</pdfrwt>
<totfact> 0.32131861E+02</totfact>
</mgrwt>
</event>
<event>
 8    1  0.1821556E-007  0.1448230E+03  0.7546771E-02  0.1206985E+00
          5   -1    0    0  501    0  0.00000000000E+00  0.00000000000E+00  0.68045352766E+02  0.68207477839E+02  0.47000000000E+01 0. -1.
         -5   -1    0    0    0  501 -0.00000000000E+00 -0.00000000000E+00 -0.30831102311E+03  0.30834684524E+03  0.47000000000E+01 0. -1.
         25    2    1    2    0    0  0.53184048795E+02 -0.50196375206E+02 -0.11156149636E+03  0.18280585304E+03  0.12499517313E+03 0.  0.
         25    2    1    2    0    0 -0.53184048795E+02  0.50196375206E+02 -0.12870417398E+03  0.19374847004E+03  0.12500194443E+03 0.  0.
          5    1    4    4  502    0 -0.19713816296E+02  0.37845069270E+01  0.23389524497E+02  0.31178789294E+02  0.47000000000E+01 0.  1.
         -5    1    4    4    0  502 -0.33470232499E+02  0.46411868279E+02 -0.15209369848E+03  0.16256968075E+03  0.47000000000E+01 0.  1.
          5    1    3    3  503    0  0.61168316890E+02 -0.12963366264E+02 -0.12685181953E+03  0.14150295394E+03  0.47000000000E+01 0.  1.
         -5    1    3    3    0  503 -0.79842680945E+01 -0.37233008941E+02  0.15290323165E+02  0.41302899103E+02  0.47000000000E+01 0.  1.
<mgrwt>
<rscale>  0 0.14482155E+03</rscale>
<asrwt>0</asrwt>
<pdfrwt beam="1">  1        5 0.10483743E-01 0.14482301E+03</pdfrwt>
<pdfrwt beam="2">  1       -5 0.47447691E-01 0.14482301E+03</pdfrwt>
<totfact> 0.23161449E+02</totfact>
</mgrwt>
</event>
<event>
 8    1  0.1821556E-007  0.1287231E+03  0.7546771E-02  0.1229366E+00
          5   -1    0    0  501    0  0.00000000000E+00  0.00000000000E+00  0.14487513833E+03  0.14495135635E+03  0.47000000000E+01 0.  1.
         -5   -1    0    0    0  501 -0.00000000000E+00 -0.00000000000E+00 -0.11445977674E+03  0.11455623288E+03  0.47000000000E+01 0.  1.
         25    2    1    2    0    0  0.17115059416E+02 -0.25487905968E+02  0.21258573934E+02  0.13046667478E+03  0.12500827034E+03 0.  0.
         25    2    1    2    0    0 -0.17115059416E+02  0.25487905968E+02  0.91567876645E+01  0.12904091444E+03  0.12500060892E+03 0.  0.
          5    1    4    4  502    0 -0.99051224926E+01  0.70265812401E+02  0.32066994860E+02  0.78011396625E+02  0.47000000000E+01 0.  1.
         -5    1    4    4    0  502 -0.72099369238E+01 -0.44777906433E+02 -0.22910207196E+02  0.51029517818E+02  0.47000000000E+01 0.  1.
          5    1    3    3  503    0 -0.12919646076E+02 -0.40858814365E+02  0.63157057258E+02  0.76467403824E+02  0.47000000000E+01 0.  1.
         -5    1    3    3    0  503  0.30034705493E+02  0.15370908398E+02 -0.41898483325E+02  0.53999270957E+02  0.47000000000E+01 0.  1.
<mgrwt>
<rscale>  0 0.12872120E+03</rscale>
<asrwt>0</asrwt>
<pdfrwt beam="1">  1        5 0.22301765E-01 0.12872306E+03</pdfrwt>
<pdfrwt beam="2">  1       -5 0.17622479E-01 0.12872306E+03</pdfrwt>
<totfact> 0.39271986E+02</totfact>
</mgrwt>
</event>
<event>
 8    1  0.1821556E-007  0.1325818E+03  0.7546771E-02  0.1223676E+00
         -5   -1    0    0    0  501 -0.00000000000E+00  0.00000000000E+00  0.59698486697E+03  0.59700336799E+03  0.47000000000E+01 0.  1.
          5   -1    0    0  501    0  0.00000000000E+00 -0.00000000000E+00 -0.29245442982E+02  0.29620701126E+02  0.47000000000E+01 0.  1.
         25    2    1    2    0    0  0.40680407493E+02 -0.17211242967E+02  0.28929120259E+03  0.31822526992E+03  0.12500720012E+03 0.  0.
         25    2    1    2    0    0 -0.40680407493E+02  0.17211242967E+02  0.27844822140E+03  0.30839879920E+03  0.12500113962E+03 0.  0.
          5    1    3    3  502    0  0.74167287297E+02 -0.45759667598E+02  0.17227902657E+03  0.19312401891E+03  0.47000000000E+01 0.  1.
         -5    1    3    3    0  502 -0.33486879804E+02  0.28548424632E+02  0.11701217602E+03  0.12510125101E+03  0.47000000000E+01 0.  1.
          5    1    4    4  503    0 -0.61162337356E+02  0.49198442323E+02  0.10733210051E+03  0.13305483095E+03  0.47000000000E+01 0. -1.
         -5    1    4    4    0  503  0.20481929863E+02 -0.31987199356E+02  0.17111612089E+03  0.17534396825E+03  0.47000000000E+01 0. -1.
<mgrwt>
<rscale>  0 0.13258033E+03</rscale>
<asrwt>0</asrwt>
<pdfrwt beam="2">  1        5 0.45295882E-02 0.13258176E+03</pdfrwt>
<pdfrwt beam="1">  1       -5 0.91874112E-01 0.13258176E+03</pdfrwt>
<totfact> 0.21391219E+02</totfact>
</mgrwt>
</event>
<event>
 8    1  0.1821556E-007  0.1348962E+03  0.7546771E-02  0.1220386E+00
          5   -1    0    0  501    0  0.00000000000E+00  0.00000000000E+00  0.48586753367E+02  0.48813549377E+02  0.47000000000E+01 0.  1.
         -5   -1    0    0    0  501 -0.00000000000E+00 -0.00000000000E+00 -0.37545793796E+03  0.37548735421E+03  0.47000000000E+01 0.  1.
         25    2    1    2    0    0  0.48735172724E+02  0.14036059583E+02 -0.17971397472E+03  0.22470893189E+03  0.12499945332E+03 0.  0.
         25    2    1    2    0    0 -0.48735172724E+02 -0.14036059583E+02 -0.14715720987E+03  0.19959197170E+03  0.12493831567E+03 0.  0.
          5    1    3    3  502    0 -0.89177583989E+01 -0.24101491099E+02 -0.14477427117E+03  0.14711250076E+03  0.47000000000E+01 0. -1.
         -5    1    3    3    0  502  0.57652931123E+02  0.38137550683E+02 -0.34939703552E+02  0.77596431126E+02  0.47000000000E+01 0. -1.
          5    1    4    4  503    0  0.35312177501E+02  0.23179404320E+02 -0.52800268740E+02  0.67780476861E+02  0.47000000000E+01 0.  1.
         -5    1    4    4    0  503 -0.84047350225E+02 -0.37215463904E+02 -0.94356941128E+02  0.13181149484E+03  0.47000000000E+01 0.  1.
<mgrwt>
<rscale>  0 0.13488206E+03</rscale>
<asrwt>0</asrwt>
<pdfrwt beam="1">  1        5 0.74945940E-02 0.13489622E+03</pdfrwt>
<pdfrwt beam="2">  1       -5 0.57782466E-01 0.13489622E+03</pdfrwt>
<totfact> 0.26516592E+02</totfact>
</mgrwt>
</event>
<event>
 8    1  0.1821556E-007  0.1265322E+03  0.7546771E-02  0.1232696E+00
         -5   -1    0    0    0  501 -0.00000000000E+00  0.00000000000E+00  0.54114115713E+02  0.54317837949E+02  0.47000000000E+01 0. -1.
          5   -1    0    0  501    0  0.00000000000E+00 -0.00000000000E+00 -0.34455590744E+03  0.34458796171E+03  0.47000000000E+01 0. -1.
         25    2    1    2    0    0 -0.17600256973E+02  0.86793050550E+01 -0.69665804381E+02  0.14444276799E+03  0.12500115817E+03 0.  0.
         25    2    1    2    0    0  0.17600256973E+02 -0.86793050550E+01 -0.22077598735E+03  0.25446303166E+03  0.12499719401E+03 0.  0.
          5    1    3    3  502    0 -0.44169202630E+02 -0.45414917140E+02 -0.50102804250E+02  0.80906205903E+02  0.47000000000E+01 0. -1.
         -5    1    3    3    0  502  0.26568945657E+02  0.54094222195E+02 -0.19563000131E+02  0.63536562091E+02  0.47000000000E+01 0. -1.
          5    1    4    4  503    0  0.69376086837E+02 -0.67420440229E+01 -0.91571609220E+02  0.11517788936E+03  0.47000000000E+01 0. -1.
         -5    1    4    4    0  503 -0.51775829864E+02 -0.19372610320E+01 -0.12920437813E+03  0.13928514230E+03  0.47000000000E+01 0. -1.
<mgrwt>
<rscale>  0 0.12653119E+03</rscale>
<asrwt>0</asrwt>
<pdfrwt beam="2">  1        5 0.53026736E-01 0.12653217E+03</pdfrwt>
<pdfrwt beam="1">  1       -5 0.83433854E-02 0.12653217E+03</pdfrwt>
<totfact> 0.25957690E+02</totfact>
</mgrwt>
</event>
<event>
 8    1  0.1821556E-007  0.1375657E+03  0.7546771E-02  0.1216645E+00
         -5   -1    0    0    0  501 -0.00000000000E+00  0.00000000000E+00  0.10497905311E+03  0.10508421191E+03  0.47000000000E+01 0. -1.
          5   -1    0    0  501    0  0.00000000000E+00 -0.00000000000E+00 -0.23281758713E+03  0.23286502287E+03  0.47000000000E+01 0. -1.
         25    2    1    2    0    0 -0.57396263213E+02 -0.19280190635E+01  0.16510660382E+02  0.13855293142E+03  0.12500505833E+03 0.  0.
         25    2    1    2    0    0  0.57396263213E+02  0.19280190635E+01 -0.14434919440E+03  0.19939630336E+03  0.12499659028E+03 0.  0.
          5    1    4    4  502    0  0.69238263221E+02 -0.42497368560E+02 -0.12530489021E+03  0.14941006974E+03  0.47000000000E+01 0. -1.
         -5    1    4    4    0  502 -0.11842000007E+02  0.44425387624E+02 -0.19044304185E+02  0.49986233621E+02  0.47000000000E+01 0. -1.
          5    1    3    3  503    0 -0.65345423368E+02  0.49597508368E+02  0.24163672364E+02  0.85649928508E+02  0.47000000000E+01 0.  1.
         -5    1    3    3    0  503  0.79491601544E+01 -0.51525527431E+02 -0.76530119815E+01  0.52903002907E+02  0.47000000000E+01 0.  1.
<mgrwt>
<rscale>  0 0.13756374E+03</rscale>
<asrwt>0</asrwt>
<pdfrwt beam="2">  1        5 0.35829828E-01 0.13756567E+03</pdfrwt>
<pdfrwt beam="1">  1       -5 0.16162362E-01 0.13756567E+03</pdfrwt>
<totfact> 0.18712154E+02</totfact>
</mgrwt>
</event>
<event>
 8    1  0.1821556E-007  0.1280214E+03  0.7546771E-02  0.1230445E+00
          5   -1    0    0  501    0  0.00000000000E+00  0.00000000000E+00  0.44558703877E+03  0.44561182561E+03  0.47000000000E+01 0. -1.
         -5   -1    0    0    0  501 -0.00000000000E+00 -0.00000000000E+00 -0.41751068161E+02  0.42014779455E+02  0.47000000000E+01 0. -1.
         25    2    1    2    0    0 -0.22907819227E+02 -0.15473501313E+02  0.11644951352E+03  0.17301499692E+03  0.12493799477E+03 0.  0.
         25    2    1    2    0    0  0.22907819227E+02  0.15473501313E+02  0.28738645709E+03  0.31461160814E+03  0.12500116332E+03 0.  0.
          5    1    4    4  502    0 -0.12266500536E+02 -0.44287808922E+02  0.53836079297E+02  0.70938638897E+02  0.47000000000E+01 0.  1.
         -5    1    4    4    0  502  0.35174319763E+02  0.59761310235E+02  0.23355037779E+03  0.24367296924E+03  0.47000000000E+01 0.  1.
          5    1    3    3  503    0  0.11434320209E+02  0.48925390041E+02  0.70300238165E+02  0.86536991833E+02  0.47000000000E+01 0.  1.
         -5    1    3    3    0  503 -0.34342139436E+02 -0.64398891355E+02  0.46149275356E+02  0.86478005092E+02  0.47000000000E+01 0.  1.
<mgrwt>
<rscale>  0 0.12800601E+03</rscale>
<asrwt>0</asrwt>
<pdfrwt beam="1">  1        5 0.68574043E-01 0.12802144E+03</pdfrwt>
<pdfrwt beam="2">  1       -5 0.64454336E-02 0.12802144E+03</pdfrwt>
<totfact> 0.23044317E+02</totfact>
</mgrwt>
</event>
<event>
 8    1  0.1821556E-007  0.1755841E+03  0.7546771E-02  0.1172147E+00
          5   -1    0    0  501    0  0.00000000000E+00  0.00000000000E+00  0.10490108513E+03  0.10500632201E+03  0.47000000000E+01 0.  1.
         -5   -1    0    0    0  501 -0.00000000000E+00 -0.00000000000E+00 -0.31264221404E+03  0.31267753996E+03  0.47000000000E+01 0.  1.
         25    2    1    2    0    0 -0.75745490767E+02  0.97290691313E+02 -0.15537649056E+03  0.23445768494E+03  0.12500277685E+03 0.  0.
         25    2    1    2    0    0  0.75745490767E+02 -0.97290691313E+02 -0.52364638349E+02  0.18322617703E+03  0.12500767422E+03 0.  0.
          5    1    3    3  502    0  0.33078452508E+02  0.41199391807E+02 -0.48464445252E+02  0.71850305212E+02  0.47000000000E+01 0.  1.
         -5    1    3    3    0  502 -0.10882394327E+03  0.56091299506E+02 -0.10691204530E+03  0.16260737973E+03  0.47000000000E+01 0.  1.
          5    1    4    4  503    0  0.32704320582E+02 -0.98646967244E+02 -0.80527159598E+02  0.13155801064E+03  0.47000000000E+01 0. -1.
         -5    1    4    4    0  503  0.43041170185E+02  0.13562759313E+01  0.28162521249E+02  0.51668166393E+02  0.47000000000E+01 0. -1.
<mgrwt>
<rscale>  0 0.17558323E+03</rscale>
<asrwt>0</asrwt>
<pdfrwt beam="1">  1        5 0.16149441E-01 0.17558410E+03</pdfrwt>
<pdfrwt beam="2">  1       -5 0.48109614E-01 0.17558410E+03</pdfrwt>
<totfact> 0.11020890E+02</totfact>
</mgrwt>
</event>
<event>
 8    1  0.1821556E-007  0.1896179E+03  0.7546771E-02  0.1158807E+00
          5   -1    0    0  501    0  0.00000000000E+00  0.00000000000E+00  0.18438667538E+02  0.19028254271E+02  0.47000000000E+01 0.  1.
         -5   -1    0    0    0  501 -0.00000000000E+00 -0.00000000000E+00 -0.19709403495E+04  0.19709459534E+04  0.47000000000E+01 0.  1.
         25    2    1    2    0    0  0.81513281073E+02 -0.11698040706E+03 -0.11382486749E+04  0.11539345733E+04  0.12500449226E+03 0.  0.
         25    2    1    2    0    0 -0.81513281073E+02  0.11698040706E+03 -0.81425300706E+03  0.83603963431E+03  0.12500192002E+03 0.  0.
          5    1    3    3  502    0  0.61967034553E+02 -0.87362942329E+02 -0.37981004670E+03  0.39465169281E+03  0.47000000000E+01 0.  1.
         -5    1    3    3    0  502  0.19546246521E+02 -0.29617464727E+02 -0.75843862817E+03  0.75928288053E+03  0.47000000000E+01 0.  1.
          5    1    4    4  503    0  0.32675726836E+02  0.23636078125E+02 -0.22188849011E+03  0.22557251463E+03  0.47000000000E+01 0.  1.
         -5    1    4    4    0  503 -0.11418900791E+03  0.93344328931E+02 -0.59236451695E+03  0.61046711968E+03  0.47000000000E+01 0.  1.
<mgrwt>
<rscale>  0 0.18961749E+03</rscale>
<asrwt>0</asrwt>
<pdfrwt beam="1">  1        5 0.28825035E-02 0.18961792E+03</pdfrwt>
<pdfrwt beam="2">  1       -5 0.30326721E+00 0.18961792E+03</pdfrwt>
<totfact> 0.13225899E+01</totfact>
</mgrwt>
</event>
<event>
 8    1  0.1821556E-007  0.1331643E+03  0.7546771E-02  0.1222835E+00
          5   -1    0    0  501    0  0.00000000000E+00  0.00000000000E+00  0.26424893441E+02  0.26839616118E+02  0.47000000000E+01 0. -1.
         -5   -1    0    0    0  501 -0.00000000000E+00 -0.00000000000E+00 -0.66939159790E+03  0.66940809775E+03  0.47000000000E+01 0. -1.
         25    2    1    2    0    0 -0.43851239480E+02  0.13577995417E+02 -0.34831699706E+03  0.37290410186E+03  0.12500178231E+03 0.  0.
         25    2    1    2    0    0  0.43851239480E+02 -0.13577995417E+02 -0.29464970739E+03  0.32334361201E+03  0.12500139277E+03 0.  0.
          5    1    4    4  502    0  0.18483846975E+02  0.21870337501E+02 -0.27283463634E+03  0.27437345544E+03  0.47000000000E+01 0.  1.
         -5    1    4    4    0  502  0.25367392505E+02 -0.35448332918E+02 -0.21815071049E+02  0.48970156565E+02  0.47000000000E+01 0.  1.
          5    1    3    3  503    0 -0.87379030043E+02  0.32160019920E+01 -0.21269927980E+03  0.23001850184E+03  0.47000000000E+01 0. -1.
         -5    1    3    3    0  503  0.43527790563E+02  0.10361993425E+02 -0.13561771726E+03  0.14288560002E+03  0.47000000000E+01 0. -1.
<mgrwt>
<rscale>  0 0.13316424E+03</rscale>
<asrwt>0</asrwt>
<pdfrwt beam="1">  1        5 0.40985397E-02 0.13316433E+03</pdfrwt>
<pdfrwt beam="2">  1       -5 0.10301648E+00 0.13316433E+03</pdfrwt>
<totfact> 0.19154134E+02</totfact>
</mgrwt>
</event>
<event>
 8    1  0.1821556E-007  0.1432589E+03  0.7546771E-02  0.1209010E+00
         -5   -1    0    0    0  501 -0.00000000000E+00  0.00000000000E+00  0.18364442108E+03  0.18370455463E+03  0.47000000000E+01 0.  1.
          5   -1    0    0  501    0  0.00000000000E+00 -0.00000000000E+00 -0.13282134861E+03  0.13290447941E+03  0.47000000000E+01 0.  1.
         25    2    1    2    0    0  0.59574025887E+02 -0.36727240569E+02 -0.37790024714E+02  0.14815905315E+03  0.12500025720E+03 0.  0.
         25    2    1    2    0    0 -0.59574025887E+02  0.36727240569E+02  0.88613097181E+02  0.16844998089E+03  0.12500064124E+03 0.  0.
          5    1    4    4  502    0 -0.83337465522E+02  0.53426536189E+02  0.96146433927E+02  0.13807879883E+03  0.47000000000E+01 0.  1.
         -5    1    4    4    0  502  0.23763439635E+02 -0.16699295620E+02 -0.75333367455E+01  0.30371182065E+02  0.47000000000E+01 0.  1.
          5    1    3    3  503    0  0.59920625641E+02  0.36208980132E+02 -0.18842809818E+02  0.72654752778E+02  0.47000000000E+01 0.  1.
         -5    1    3    3    0  503 -0.34659975455E+00 -0.72936220702E+02 -0.18947214896E+02  0.75504300367E+02  0.47000000000E+01 0.  1.
<mgrwt>
<rscale>  0 0.14325883E+03</rscale>
<asrwt>0</asrwt>
<pdfrwt beam="2">  1        5 0.20445074E-01 0.14325891E+03</pdfrwt>
<pdfrwt beam="1">  1       -5 0.28264008E-01 0.14325891E+03</pdfrwt>
<totfact> 0.19646035E+02</totfact>
</mgrwt>
</event>
<event>
 8    1  0.1821556E-007  0.1277579E+03  0.7546771E-02  0.1230822E+00
         -5   -1    0    0    0  501 -0.00000000000E+00  0.00000000000E+00  0.53585503161E+03  0.53587564313E+03  0.47000000000E+01 0. -1.
          5   -1    0    0  501    0  0.00000000000E+00 -0.00000000000E+00 -0.33546082988E+02  0.33873731472E+02  0.47000000000E+01 0. -1.
         25    2    1    2    0    0  0.72285888339E+01  0.25384922105E+02  0.33987385927E+03  0.36309207679E+03  0.12499987698E+03 0.  0.
         25    2    1    2    0    0 -0.72285888339E+01 -0.25384922105E+02  0.16243508935E+03  0.20665729781E+03  0.12500173487E+03 0.  0.
          5    1    4    4  502    0 -0.38194187354E+01  0.88194154497E+01 -0.19070075658E+02  0.21866134408E+02  0.47000000000E+01 0. -1.
         -5    1    4    4    0  502 -0.34091700986E+01 -0.34204337555E+02  0.18150516501E+03  0.18479116340E+03  0.47000000000E+01 0. -1.
          5    1    3    3  503    0 -0.28699061529E+02  0.63029511548E+02  0.24656997732E+03  0.25615463918E+03  0.47000000000E+01 0.  1.
         -5    1    3    3    0  503  0.35927650363E+02 -0.37644589443E+02  0.93303881951E+02  0.10693743761E+03  0.47000000000E+01 0.  1.
<mgrwt>
<rscale>  0 0.12775744E+03</rscale>
<asrwt>0</asrwt>
<pdfrwt beam="2">  1        5 0.51877250E-02 0.12775790E+03</pdfrwt>
<pdfrwt beam="1">  1       -5 0.82466027E-01 0.12775790E+03</pdfrwt>
<totfact> 0.21741901E+02</totfact>
</mgrwt>
</event>
<event>
 8    1  0.1821556E-007  0.1320199E+03  0.7546771E-02  0.1224490E+00
         -5   -1    0    0    0  501 -0.00000000000E+00  0.00000000000E+00  0.34126583416E+03  0.34129819743E+03  0.47000000000E+01 0.  1.
          5   -1    0    0  501    0  0.00000000000E+00 -0.00000000000E+00 -0.51004212469E+02  0.51220305442E+02  0.47000000000E+01 0.  1.
         25    2    1    2    0    0 -0.33244278400E+02  0.26412311720E+02  0.13755637335E+03  0.19065939838E+03  0.12500583220E+03 0.  0.
         25    2    1    2    0    0  0.33244278400E+02 -0.26412311720E+02  0.15270524835E+03  0.20185910449E+03  0.12500165174E+03 0.  0.
          5    1    4    4  502    0  0.19688337917E+02 -0.14062312732E+02  0.17262679231E+03  0.17437740310E+03  0.47000000000E+01 0. -1.
         -5    1    4    4    0  502  0.13555940483E+02 -0.12349998988E+02 -0.19921543963E+02  0.27481701389E+02  0.47000000000E+01 0. -1.
          5    1    3    3  503    0 -0.29438947326E+02 -0.22916114993E+02 -0.66002666802E+01  0.38176608890E+02  0.47000000000E+01 0. -1.
         -5    1    3    3    0  503 -0.38053310737E+01  0.49328426713E+02  0.14415664003E+03  0.15248278949E+03  0.47000000000E+01 0. -1.
<mgrwt>
<rscale>  0 0.13201890E+03</rscale>
<asrwt>0</asrwt>
<pdfrwt beam="2">  1        5 0.78659141E-02 0.13201989E+03</pdfrwt>
<pdfrwt beam="1">  1       -5 0.52521547E-01 0.13201989E+03</pdfrwt>
<totfact> 0.29764143E+02</totfact>
</mgrwt>
</event>
<event>
 8    1  0.1821556E-007  0.1440876E+03  0.7546771E-02  0.1207932E+00
         -5   -1    0    0    0  501 -0.00000000000E+00  0.00000000000E+00  0.54762077039E+02  0.54963397653E+02  0.47000000000E+01 0.  1.
          5   -1    0    0  501    0  0.00000000000E+00 -0.00000000000E+00 -0.38761449940E+03  0.38764299316E+03  0.47000000000E+01 0.  1.
         25    2    1    2    0    0  0.54044493302E+02  0.47059817294E+02 -0.13195592953E+03  0.19538048887E+03  0.12500293770E+03 0.  0.
         25    2    1    2    0    0 -0.54044493302E+02 -0.47059817294E+02 -0.20089649283E+03  0.24722590194E+03  0.12500324835E+03 0.  0.
          5    1    4    4  502    0 -0.24531903060E+02 -0.82540202412E+02 -0.17244801498E+03  0.19280847272E+03  0.47000000000E+01 0.  1.
         -5    1    4    4    0  502 -0.29512590242E+02  0.35480385118E+02 -0.28448477852E+02  0.54417429221E+02  0.47000000000E+01 0.  1.
          5    1    3    3  503    0  0.25991821032E+02  0.86240813801E+02 -0.58852584837E+02  0.10769758339E+03  0.47000000000E+01 0.  1.
         -5    1    3    3    0  503  0.28052672270E+02 -0.39180996507E+02 -0.73103344690E+02  0.87682905481E+02  0.47000000000E+01 0.  1.
<mgrwt>
<rscale>  0 0.14408756E+03</rscale>
<asrwt>0</asrwt>
<pdfrwt beam="2">  1        5 0.59650676E-01 0.14408763E+03</pdfrwt>
<pdfrwt beam="1">  1       -5 0.84426132E-02 0.14408763E+03</pdfrwt>
<totfact> 0.20621197E+02</totfact>
</mgrwt>
</event>
<event>
 8    1  0.1821556E-007  0.1611966E+03  0.7546771E-02  0.1187353E+00
          5   -1    0    0  501    0  0.00000000000E+00  0.00000000000E+00  0.57372513826E+02  0.57564705703E+02  0.47000000000E+01 0. -1.
         -5   -1    0    0    0  501 -0.00000000000E+00 -0.00000000000E+00 -0.57082131858E+03  0.57084066757E+03  0.47000000000E+01 0. -1.
         25    2    1    2    0    0 -0.15315243221E+02  0.10062300430E+03 -0.40008515345E+03  0.43133768816E+03  0.12499810216E+03 0.  0.
         25    2    1    2    0    0  0.15315243221E+02 -0.10062300430E+03 -0.11336365131E+03  0.19706768512E+03  0.12499923764E+03 0.  0.
          5    1    3    3  502    0  0.25371244009E+02  0.46747488291E+02 -0.44906504307E+02  0.69768988908E+02  0.47000000000E+01 0. -1.
         -5    1    3    3    0  502 -0.40686487231E+02  0.53875516010E+02 -0.35517864914E+03  0.36156869925E+03  0.47000000000E+01 0. -1.
          5    1    4    4  503    0  0.60177969707E+02 -0.64392150701E+02 -0.25507455105E+02  0.91871961860E+02  0.47000000000E+01 0. -1.
         -5    1    4    4    0  503 -0.44862726486E+02 -0.36230853600E+02 -0.87856196203E+02  0.10519572326E+03  0.47000000000E+01 0. -1.
<mgrwt>
<rscale>  0 0.16119641E+03</rscale>
<asrwt>0</asrwt>
<pdfrwt beam="1">  1        5 0.88428134E-02 0.16119663E+03</pdfrwt>
<pdfrwt beam="2">  1       -5 0.87834933E-01 0.16119663E+03</pdfrwt>
<totfact> 0.81823653E+01</totfact>
</mgrwt>
</event>
<event>
 8    1  0.1821556E-007  0.1545101E+03  0.7546771E-02  0.1195050E+00
          5   -1    0    0  501    0  0.00000000000E+00  0.00000000000E+00  0.19944037317E+03  0.19949574545E+03  0.47000000000E+01 0. -1.
         -5   -1    0    0    0  501 -0.00000000000E+00 -0.00000000000E+00 -0.11998488332E+03  0.12007690130E+03  0.47000000000E+01 0. -1.
         25    2    1    2    0    0  0.22999892988E+02  0.87847202406E+02  0.49317160109E+02  0.16215063057E+03  0.12495806763E+03 0.  0.
         25    2    1    2    0    0 -0.22999892988E+02 -0.87847202406E+02  0.30138329742E+02  0.15742201617E+03  0.12500898451E+03 0.  0.
          5    1    3    3  502    0  0.37540059053E+02  0.91130312235E+02  0.80451961117E+02  0.12731299183E+03  0.47000000000E+01 0. -1.
         -5    1    3    3    0  502 -0.14540166064E+02 -0.32831098288E+01 -0.31134801008E+02  0.34837638742E+02  0.47000000000E+01 0. -1.
          5    1    4    4  503    0 -0.68895749928E+02 -0.64592186670E+02  0.43461843106E+02  0.10406630936E+03  0.47000000000E+01 0. -1.
         -5    1    4    4    0  503  0.45895856939E+02 -0.23255015736E+02 -0.13323513364E+02  0.53355706812E+02  0.47000000000E+01 0. -1.
<mgrwt>
<rscale>  0 0.15449980E+03</rscale>
<asrwt>0</asrwt>
<pdfrwt beam="1">  1        5 0.30694472E-01 0.15451010E+03</pdfrwt>
<pdfrwt beam="2">  1       -5 0.18470551E-01 0.15451010E+03</pdfrwt>
<totfact> 0.20704423E+02</totfact>
</mgrwt>
</event>
<event>
 8    1  0.1821556E-007  0.1448743E+03  0.7546771E-02  0.1206918E+00
          5   -1    0    0  501    0  0.00000000000E+00  0.00000000000E+00  0.52853898295E+03  0.52855987976E+03  0.47000000000E+01 0.  1.
         -5   -1    0    0    0  501 -0.00000000000E+00 -0.00000000000E+00 -0.50112011185E+02  0.50331934843E+02  0.47000000000E+01 0.  1.
         25    2    1    2    0    0 -0.59079209987E+02  0.43276997655E+02  0.10668114320E+03  0.17991504032E+03  0.12500121535E+03 0.  0.
         25    2    1    2    0    0  0.59079209987E+02 -0.43276997655E+02  0.37174582856E+03  0.39897677429E+03  0.12499701511E+03 0.  0.
          5    1    3    3  502    0  0.67827329032E+01 -0.32536647688E+02  0.33391940710E+00  0.33568443673E+02  0.47000000000E+01 0. -1.
         -5    1    3    3    0  502 -0.65861942890E+02  0.75813645343E+02  0.10634722379E+03  0.14634659665E+03  0.47000000000E+01 0. -1.
          5    1    4    4  503    0  0.95241355812E+01 -0.49979232472E+02  0.32923109500E+03  0.33317238294E+03  0.47000000000E+01 0.  1.
         -5    1    4    4    0  503  0.49555074405E+02  0.67022348175E+01  0.42514733561E+02  0.65804391348E+02  0.47000000000E+01 0.  1.
<mgrwt>
<rscale>  0 0.14487337E+03</rscale>
<asrwt>0</asrwt>
<pdfrwt beam="1">  1        5 0.81332208E-01 0.14487427E+03</pdfrwt>
<pdfrwt beam="2">  1       -5 0.77280654E-02 0.14487427E+03</pdfrwt>
<totfact> 0.11955457E+02</totfact>
</mgrwt>
</event>
<event>
 8    1  0.1821556E-007  0.2008339E+03  0.7546771E-02  0.1149038E+00
         -5   -1    0    0    0  501 -0.00000000000E+00  0.00000000000E+00  0.46875945368E+03  0.46878301528E+03  0.47000000000E+01 0.  1.
          5   -1    0    0  501    0  0.00000000000E+00 -0.00000000000E+00 -0.91272783746E+02  0.91393714514E+02  0.47000000000E+01 0.  1.
         25    2    1    2    0    0 -0.80035944587E+02  0.13528625831E+03  0.25630718137E+03  0.32561884268E+03  0.12500454140E+03 0.  0.
         25    2    1    2    0    0  0.80035944587E+02 -0.13528625831E+03  0.12117948856E+03  0.23455788711E+03  0.12499923938E+03 0.  0.
          5    1    3    3  502    0 -0.15492367646E+02  0.43687499895E+02  0.18935258106E+03  0.19500025912E+03  0.47000000000E+01 0. -1.
         -5    1    3    3    0  502 -0.64543576941E+02  0.91598758416E+02  0.66954600309E+02  0.13061858356E+03  0.47000000000E+01 0. -1.
          5    1    4    4  503    0  0.72327820440E+02 -0.10471324832E+03  0.20548145228E+02  0.12899803973E+03  0.47000000000E+01 0.  1.
         -5    1    4    4    0  503  0.77081241468E+01 -0.30573009993E+02  0.10063134333E+03  0.10555984738E+03  0.47000000000E+01 0.  1.
<mgrwt>
<rscale>  0 0.20083309E+03</rscale>
<asrwt>0</asrwt>
<pdfrwt beam="2">  1        5 0.14053082E-01 0.20083391E+03</pdfrwt>
<pdfrwt beam="1">  1       -5 0.72127953E-01 0.20083391E+03</pdfrwt>
<totfact> 0.60578758E+01</totfact>
</mgrwt>
</event>
<event>
 8    1  0.1821556E-007  0.1266728E+03  0.7546771E-02  0.1232481E+00
         -5   -1    0    0    0  501 -0.00000000000E+00  0.00000000000E+00  0.32534136158E+03  0.32537530876E+03  0.47000000000E+01 0.  1.
          5   -1    0    0  501    0  0.00000000000E+00 -0.00000000000E+00 -0.50641739171E+02  0.50859372255E+02  0.47000000000E+01 0.  1.
         25    2    1    2    0    0  0.18453311074E+02 -0.89739115407E+01  0.16935107570E+03  0.21147938699E+03  0.12499075368E+03 0.  0.
         25    2    1    2    0    0 -0.18453311074E+02  0.89739115407E+01  0.10534854670E+03  0.16475529402E+03  0.12499973935E+03 0.  0.
          5    1    4    4  502    0 -0.57193596007E+02 -0.34986368905E+02  0.64662962090E+02  0.93265975037E+02  0.47000000000E+01 0.  1.
         -5    1    4    4    0  502  0.38740284933E+02  0.43960280446E+02  0.40685584614E+02  0.71489318985E+02  0.47000000000E+01 0.  1.
          5    1    3    3  503    0 -0.28161120171E+02 -0.34304883109E+02  0.14716332040E+03  0.15378233502E+03  0.47000000000E+01 0.  1.
         -5    1    3    3    0  503  0.46614431245E+02  0.25330971568E+02  0.22187755301E+02  0.57697051971E+02  0.47000000000E+01 0.  1.
<mgrwt>
<rscale>  0 0.12667055E+03</rscale>
<asrwt>0</asrwt>
<pdfrwt beam="2">  1        5 0.78103890E-02 0.12667277E+03</pdfrwt>
<pdfrwt beam="1">  1       -5 0.50071870E-01 0.12667277E+03</pdfrwt>
<totfact> 0.32848633E+02</totfact>
</mgrwt>
</event>
<event>
 8    1  0.1821556E-007  0.1345272E+03  0.7546771E-02  0.1220903E+00
          5   -1    0    0  501    0  0.00000000000E+00  0.00000000000E+00  0.29257024907E+02  0.29632136379E+02  0.47000000000E+01 0. -1.
         -5   -1    0    0    0  501 -0.00000000000E+00 -0.00000000000E+00 -0.62554381314E+03  0.62556146953E+03  0.47000000000E+01 0. -1.
         25    2    1    2    0    0 -0.14312517656E+02 -0.47504835055E+02 -0.25382790584E+03  0.28727367466E+03  0.12504399566E+03 0.  0.
         25    2    1    2    0    0  0.14312517656E+02  0.47504835055E+02 -0.34245888239E+03  0.36791993125E+03  0.12500172866E+03 0.  0.
          5    1    4    4  502    0  0.34095986236E+02 -0.30104811989E+02 -0.67766172272E+02  0.81750719181E+02  0.47000000000E+01 0.  1.
         -5    1    4    4    0  502 -0.19783468580E+02  0.77609647044E+02 -0.27469271012E+03  0.28616921207E+03  0.47000000000E+01 0.  1.
          5    1    3    3  503    0 -0.27238193256E+02 -0.74203259726E+01 -0.24142801426E+03  0.24311840012E+03  0.47000000000E+01 0.  1.
         -5    1    3    3    0  503  0.12925675601E+02 -0.40084509083E+02 -0.12399891586E+02  0.44155274537E+02  0.47000000000E+01 0.  1.
<mgrwt>
<rscale>  0 0.13451734E+03</rscale>
<asrwt>0</asrwt>
<pdfrwt beam="1">  1        5 0.45312941E-02 0.13452717E+03</pdfrwt>
<pdfrwt beam="2">  1       -5 0.96267713E-01 0.13452717E+03</pdfrwt>
<totfact> 0.19208974E+02</totfact>
</mgrwt>
</event>
<event>
 8    1  0.1821556E-007  0.1849626E+03  0.7546771E-02  0.1163098E+00
         -5   -1    0    0    0  501 -0.00000000000E+00  0.00000000000E+00  0.18758186961E+04  0.18758245842E+04  0.47000000000E+01 0. -1.
          5   -1    0    0  501    0  0.00000000000E+00 -0.00000000000E+00 -0.21366085423E+02  0.21876919488E+02  0.47000000000E+01 0. -1.
         25    2    1    2    0    0  0.43457188907E+02  0.12921776139E+03  0.13032865660E+04  0.13163460871E+04  0.12500156271E+03 0.  0.
         25    2    1    2    0    0 -0.43457188907E+02 -0.12921776139E+03  0.55116604472E+03  0.58135541666E+03  0.12491739069E+03 0.  0.
          5    1    4    4  502    0 -0.20968042369E+02 -0.23513928759E+01  0.28280287348E+03  0.28362782497E+03  0.47000000000E+01 0.  1.
         -5    1    4    4    0  502 -0.22489146538E+02 -0.12686636852E+03  0.26836317125E+03  0.29772759169E+03  0.47000000000E+01 0.  1.
          5    1    3    3  503    0  0.79290676031E+02  0.10101506068E+03  0.72954182475E+03  0.74077285172E+03  0.47000000000E+01 0.  1.
         -5    1    3    3    0  503 -0.35833487124E+02  0.28202700712E+02  0.57374474124E+03  0.57557323533E+03  0.47000000000E+01 0.  1.
<mgrwt>
<rscale>  0 0.18494834E+03</rscale>
<asrwt>0</asrwt>
<pdfrwt beam="2">  1        5 0.33268373E-02 0.18496256E+03</pdfrwt>
<pdfrwt beam="1">  1       -5 0.28862729E+00 0.18496256E+03</pdfrwt>
<totfact> 0.12927900E+01</totfact>
</mgrwt>
</event>
<event>
 8    1  0.1821556E-007  0.1259522E+03  0.7546771E-02  0.1233600E+00
         -5   -1    0    0    0  501 -0.00000000000E+00  0.00000000000E+00  0.16658688575E+02  0.17309012249E+02  0.47000000000E+01 0. -1.
          5   -1    0    0  501    0  0.00000000000E+00 -0.00000000000E+00 -0.93627273211E+03  0.93628452881E+03  0.47000000000E+01 0. -1.
         25    2    1    2    0    0  0.12605331236E+02  0.87959659994E+01 -0.43240971346E+03  0.45037191640E+03  0.12498175625E+03 0.  0.
         25    2    1    2    0    0 -0.12605331236E+02 -0.87959659994E+01 -0.48720433008E+03  0.50322162466E+03  0.12501072309E+03 0.  0.
          5    1    4    4  502    0  0.26539851523E+02 -0.16753070531E+01 -0.18328719915E+02  0.32637437803E+02  0.47000000000E+01 0. -1.
         -5    1    4    4    0  502 -0.39145182759E+02 -0.71206589463E+01 -0.46887561016E+03  0.47058418686E+03  0.47000000000E+01 0. -1.
          5    1    3    3  503    0  0.30393432289E+01  0.38369532493E+02 -0.36615990081E+02  0.53331785650E+02  0.47000000000E+01 0.  1.
         -5    1    3    3    0  503  0.95659880068E+01 -0.29573566493E+02 -0.39579372338E+03  0.39704013075E+03  0.47000000000E+01 0.  1.
<mgrwt>
<rscale>  0 0.12594496E+03</rscale>
<asrwt>0</asrwt>
<pdfrwt beam="2">  1        5 0.14409285E+00 0.12595215E+03</pdfrwt>
<pdfrwt beam="1">  1       -5 0.26138082E-02 0.12595215E+03</pdfrwt>
<totfact> 0.16518671E+02</totfact>
</mgrwt>
</event>
<event>
 8    1  0.1821556E-007  0.1254286E+03  0.7546771E-02  0.1234402E+00
          5   -1    0    0  501    0  0.00000000000E+00  0.00000000000E+00  0.53393656727E+02  0.53600117339E+02  0.47000000000E+01 0.  1.
         -5   -1    0    0    0  501 -0.00000000000E+00 -0.00000000000E+00 -0.30502900841E+03  0.30506521594E+03  0.47000000000E+01 0.  1.
         25    2    1    2    0    0 -0.86723313786E+01 -0.55476136527E+01 -0.16014192551E+03  0.20341526050E+03  0.12500538609E+03 0.  0.
         25    2    1    2    0    0  0.86723313786E+01  0.55476136527E+01 -0.91493426180E+02  0.15525007277E+03  0.12500221083E+03 0.  0.
          5    1    3    3  502    0 -0.31697868102E+02 -0.34618943136E+02 -0.93913577802E+01  0.48098998607E+02  0.47000000000E+01 0. -1.
         -5    1    3    3    0  502  0.23025536723E+02  0.29071329483E+02 -0.15075056773E+03  0.15531626189E+03  0.47000000000E+01 0. -1.
          5    1    4    4  503    0  0.25470464230E+02  0.20359214779E+02 -0.11666751431E+03  0.12122970375E+03  0.47000000000E+01 0. -1.
         -5    1    4    4    0  503 -0.16798132852E+02 -0.14811601127E+02  0.25174088133E+02  0.34020369025E+02  0.47000000000E+01 0. -1.
<mgrwt>
<rscale>  0 0.12542780E+03</rscale>
<asrwt>0</asrwt>
<pdfrwt beam="1">  1        5 0.82330757E-02 0.12542859E+03</pdfrwt>
<pdfrwt beam="2">  1       -5 0.46946206E-01 0.12542859E+03</pdfrwt>
<totfact> 0.34251534E+02</totfact>
</mgrwt>
</event>
<event>
 8    1  0.1821556E-007  0.1355901E+03  0.7546771E-02  0.1219398E+00
         -5   -1    0    0    0  501 -0.00000000000E+00  0.00000000000E+00  0.11518771519E+04  0.11518867405E+04  0.47000000000E+01 0.  1.
          5   -1    0    0  501    0  0.00000000000E+00 -0.00000000000E+00 -0.17158553142E+02  0.17790613984E+02  0.47000000000E+01 0.  1.
         25    2    1    2    0    0  0.51348234842E+02  0.10706149627E+02  0.74011906901E+03  0.75243227703E+03  0.12500732918E+03 0.  0.
         25    2    1    2    0    0 -0.51348234842E+02 -0.10706149627E+02  0.39459952974E+03  0.41724507750E+03  0.12503360734E+03 0.  0.
          5    1    4    4  502    0 -0.49626896006E+02  0.44258131412E+02  0.12112556484E+03  0.13825738122E+03  0.47000000000E+01 0. -1.
         -5    1    4    4    0  502 -0.17213388362E+01 -0.54964281040E+02  0.27347396490E+03  0.27898769628E+03  0.47000000000E+01 0. -1.
          5    1    3    3  503    0  0.67831805864E+02  0.32027882407E+02  0.69909208785E+03  0.70312074100E+03  0.47000000000E+01 0.  1.
         -5    1    3    3    0  503 -0.16483571023E+02 -0.21321732780E+02  0.41026981160E+02  0.49311536029E+02  0.47000000000E+01 0.  1.
<mgrwt>
<rscale>  0 0.13558401E+03</rscale>
<asrwt>0</asrwt>
<pdfrwt beam="2">  1        5 0.26891340E-02 0.13559007E+03</pdfrwt>
<pdfrwt beam="1">  1       -5 0.17726129E+00 0.13559007E+03</pdfrwt>
<totfact> 0.90586263E+01</totfact>
</mgrwt>
</event>
<event>
 8    1  0.1821556E-007  0.1448090E+03  0.7546771E-02  0.1207001E+00
         -5   -1    0    0    0  501 -0.00000000000E+00  0.00000000000E+00  0.59648097491E+01  0.75940078577E+01  0.47000000000E+01 0. -1.
          5   -1    0    0  501    0  0.00000000000E+00 -0.00000000000E+00 -0.31008792403E+04  0.31008828021E+04  0.47000000000E+01 0. -1.
         25    2    1    2    0    0 -0.40871904579E+02  0.60619940486E+02 -0.16329682547E+04  0.16393763982E+04  0.12499745781E+03 0.  0.
         25    2    1    2    0    0  0.40871904579E+02 -0.60619940486E+02 -0.14619461758E+04  0.14691004118E+04  0.12499643652E+03 0.  0.
          5    1    3    3  502    0 -0.11167325275E+02 -0.14681549346E+02 -0.11096789020E+04  0.11098421566E+04  0.47000000000E+01 0.  1.
         -5    1    3    3    0  502 -0.29704579303E+02  0.75301489832E+02 -0.52328935271E+03  0.52953424163E+03  0.47000000000E+01 0.  1.
          5    1    4    4  503    0  0.81548175811E+02 -0.58355782067E+02 -0.87907780863E+03  0.88479115383E+03  0.47000000000E+01 0.  1.
         -5    1    4    4    0  503 -0.40676271233E+02 -0.22641584197E+01 -0.58286836718E+03  0.58430925794E+03  0.47000000000E+01 0.  1.
<mgrwt>
<rscale>  0 0.14480881E+03</rscale>
<asrwt>0</asrwt>
<pdfrwt beam="2">  1        5 0.47718281E+00 0.14480903E+03</pdfrwt>
<pdfrwt beam="1">  1       -5 0.10432624E-02 0.14480903E+03</pdfrwt>
<totfact> 0.38149355E+00</totfact>
</mgrwt>
</event>
<event>
 8    1  0.1821556E-007  0.1563590E+03  0.7546771E-02  0.1192871E+00
         -5   -1    0    0    0  501 -0.00000000000E+00  0.00000000000E+00  0.23127333693E+03  0.23132108935E+03  0.47000000000E+01 0.  1.
          5   -1    0    0  501    0  0.00000000000E+00 -0.00000000000E+00 -0.10572725993E+03  0.10583167528E+03  0.47000000000E+01 0.  1.
         25    2    1    2    0    0 -0.27220206612E+02 -0.89895911040E+02  0.68658451127E+02  0.17076662081E+03  0.12500016560E+03 0.  0.
         25    2    1    2    0    0  0.27220206612E+02  0.89895911040E+02  0.56887625872E+02  0.16638614382E+03  0.12500372958E+03 0.  0.
          5    1    3    3  502    0 -0.63149634895E+02 -0.72426412784E+01  0.13996190988E+02  0.65255770643E+02  0.47000000000E+01 0. -1.
         -5    1    3    3    0  502  0.35929428283E+02 -0.82653269761E+02  0.54662260139E+02  0.10551085016E+03  0.47000000000E+01 0. -1.
          5    1    4    4  503    0  0.64347705388E+02  0.66416162956E+02  0.74480476776E+02  0.11883250949E+03  0.47000000000E+01 0. -1.
         -5    1    4    4    0  503 -0.37127498776E+02  0.23479748084E+02 -0.17592850904E+02  0.47553634334E+02  0.47000000000E+01 0. -1.
<mgrwt>
<rscale>  0 0.15635832E+03</rscale>
<asrwt>0</asrwt>
<pdfrwt beam="2">  1        5 0.16277438E-01 0.15635903E+03</pdfrwt>
<pdfrwt beam="1">  1       -5 0.35592219E-01 0.15635903E+03</pdfrwt>
<totfact> 0.19528507E+02</totfact>
</mgrwt>
</event>
<event>
 8    1  0.1821556E-007  0.1365483E+03  0.7546771E-02  0.1218051E+00
          5   -1    0    0  501    0  0.00000000000E+00  0.00000000000E+00  0.51432459142E+03  0.51434606573E+03  0.47000000000E+01 0.  1.
         -5   -1    0    0    0  501 -0.00000000000E+00 -0.00000000000E+00 -0.51155359161E+02  0.51370816334E+02  0.47000000000E+01 0.  1.
         25    2    1    2    0    0  0.19753386417E+02  0.51280560044E+02  0.78439600266E+02  0.15747444808E+03  0.12500215516E+03 0.  0.
         25    2    1    2    0    0 -0.19753386417E+02 -0.51280560044E+02  0.38472963199E+03  0.40824243399E+03  0.12500041225E+03 0.  0.
          5    1    4    4  502    0 -0.52200932777E+02 -0.62474320805E+02  0.34928710232E+03  0.35868028659E+03  0.47000000000E+01 0. -1.
         -5    1    4    4    0  502  0.32447546361E+02  0.11193760761E+02  0.35442529671E+02  0.49562147394E+02  0.47000000000E+01 0. -1.
          5    1    3    3  503    0  0.45395733139E+02 -0.17252874902E+02 -0.17412742220E+01  0.48821678745E+02  0.47000000000E+01 0.  1.
         -5    1    3    3    0  503 -0.25642346722E+02  0.68533434946E+02  0.80180874488E+02  0.10865276934E+03  0.47000000000E+01 0.  1.
<mgrwt>
<rscale>  0 0.13654787E+03</rscale>
<asrwt>0</asrwt>
<pdfrwt beam="1">  1        5 0.79145087E-01 0.13654827E+03</pdfrwt>
<pdfrwt beam="2">  1       -5 0.78882806E-02 0.13654827E+03</pdfrwt>
<totfact> 0.12063430E+02</totfact>
</mgrwt>
</event>
<event>
 8    1  0.1821556E-007  0.1346596E+03  0.7546771E-02  0.1220702E+00
         -5   -1    0    0    0  501 -0.00000000000E+00  0.00000000000E+00  0.38399709822E+02  0.38686272945E+02  0.47000000000E+01 0. -1.
          5   -1    0    0  501    0  0.00000000000E+00 -0.00000000000E+00 -0.48136779722E+03  0.48139074170E+03  0.47000000000E+01 0. -1.
         25    2    1    2    0    0 -0.41194610487E+02  0.28458961883E+02 -0.18181865824E+03  0.22625355046E+03  0.12500294463E+03 0.  0.
         25    2    1    2    0    0  0.41194610487E+02 -0.28458961883E+02 -0.26114942915E+03  0.29382346419E+03  0.12500518115E+03 0.  0.
          5    1    3    3  502    0  0.13463431062E+02 -0.22167840654E+02 -0.13628871948E+03  0.13881420025E+03  0.47000000000E+01 0. -1.
         -5    1    3    3    0  502 -0.54658041549E+02  0.50626802537E+02 -0.45529938766E+02  0.87439350210E+02  0.47000000000E+01 0. -1.
          5    1    4    4  503    0  0.43928919725E+02  0.32333548851E+02 -0.20026381183E+03  0.20761236163E+03  0.47000000000E+01 0.  1.
         -5    1    4    4    0  503 -0.27343092380E+01 -0.60792510734E+02 -0.60885617319E+02  0.86211102560E+02  0.47000000000E+01 0.  1.
<mgrwt>
<rscale>  0 0.13465907E+03</rscale>
<asrwt>0</asrwt>
<pdfrwt beam="2">  1        5 0.74080388E-01 0.13465958E+03</pdfrwt>
<pdfrwt beam="1">  1       -5 0.59314563E-02 0.13465958E+03</pdfrwt>
<totfact> 0.22657796E+02</totfact>
</mgrwt>
</event>
<event>
 8    1  0.1821556E-007  0.1286395E+03  0.7546771E-02  0.1229493E+00
         -5   -1    0    0    0  501 -0.00000000000E+00  0.00000000000E+00  0.29515444560E+03  0.29519186432E+03  0.47000000000E+01 0.  1.
          5   -1    0    0  501    0  0.00000000000E+00 -0.00000000000E+00 -0.55922207711E+02  0.56119366668E+02  0.47000000000E+01 0.  1.
         25    2    1    2    0    0 -0.23162000427E+02 -0.19626059836E+02  0.12006758227E+03  0.17595922815E+03  0.12499506059E+03 0.  0.
         25    2    1    2    0    0  0.23162000427E+02  0.19626059836E+02  0.11916465562E+03  0.17535200283E+03  0.12500579690E+03 0.  0.
          5    1    3    3  502    0 -0.50032735768E+02 -0.33144296199E+02  0.90898492606E+01  0.60881313870E+02  0.47000000000E+01 0.  1.
         -5    1    3    3    0  502  0.26870735341E+02  0.13518236362E+02  0.11097773301E+03  0.11507791428E+03  0.47000000000E+01 0.  1.
          5    1    4    4  503    0  0.24778026664E+02 -0.10482633134E+02  0.13720856420E+03  0.13990037988E+03  0.47000000000E+01 0.  1.
         -5    1    4    4    0  503 -0.16160262374E+01  0.30108692970E+02 -0.18043908572E+02  0.35451622949E+02  0.47000000000E+01 0.  1.
<mgrwt>
<rscale>  0 0.12863685E+03</rscale>
<asrwt>0</asrwt>
<pdfrwt beam="2">  1        5 0.86214608E-02 0.12863946E+03</pdfrwt>
<pdfrwt beam="1">  1       -5 0.45426422E-01 0.12863946E+03</pdfrwt>
<totfact> 0.34210426E+02</totfact>
</mgrwt>
</event>
<event>
 8    1  0.1821556E-007  0.1444721E+03  0.7546771E-02  0.1207439E+00
          5   -1    0    0  501    0  0.00000000000E+00  0.00000000000E+00  0.12554283651E+03  0.12563078365E+03  0.47000000000E+01 0. -1.
         -5   -1    0    0    0  501 -0.00000000000E+00 -0.00000000000E+00 -0.19917930434E+03  0.19923474917E+03  0.47000000000E+01 0. -1.
         25    2    1    2    0    0  0.59315528467E+02 -0.41588193862E+02 -0.10302865849E+03  0.17744605247E+03  0.12499714910E+03 0.  0.
         25    2    1    2    0    0 -0.59315528467E+02  0.41588193862E+02  0.29392190664E+02  0.14741948034E+03  0.12498276892E+03 0.  0.
          5    1    4    4  502    0 -0.62301781399E+02 -0.16254223860E+02 -0.23637622497E+02  0.68749828772E+02  0.47000000000E+01 0. -1.
         -5    1    4    4    0  502  0.29862529328E+01  0.57842417722E+02  0.53029813161E+02  0.78669651571E+02  0.47000000000E+01 0. -1.
          5    1    3    3  503    0  0.75705456877E+02 -0.68570917974E+02 -0.46063655571E+02  0.11214828290E+03  0.47000000000E+01 0.  1.
         -5    1    3    3    0  503 -0.16389928410E+02  0.26982724112E+02 -0.56965002920E+02  0.65297769574E+02  0.47000000000E+01 0.  1.
<mgrwt>
<rscale>  0 0.14446902E+03</rscale>
<asrwt>0</asrwt>
<pdfrwt beam="1">  1        5 0.19325313E-01 0.14447213E+03</pdfrwt>
<pdfrwt beam="2">  1       -5 0.30654000E-01 0.14447213E+03</pdfrwt>
<totfact> 0.18667625E+02</totfact>
</mgrwt>
</event>
<event>
 8    1  0.1821556E-007  0.1977445E+03  0.7546771E-02  0.1151662E+00
         -5   -1    0    0    0  501 -0.00000000000E+00  0.00000000000E+00  0.91870474320E+03  0.91871676549E+03  0.47000000000E+01 0.  1.
          5   -1    0    0  501    0  0.00000000000E+00 -0.00000000000E+00 -0.42477427583E+02  0.42736657029E+02  0.47000000000E+01 0.  1.
         25    2    1    2    0    0  0.12482803422E+03 -0.88859290452E+02  0.41975820994E+03  0.46400412459E+03  0.12499944479E+03 0.  0.
         25    2    1    2    0    0 -0.12482803422E+03  0.88859290452E+02  0.45646910568E+03  0.49744929793E+03  0.12495498364E+03 0.  0.
          5    1    3    3  502    0 -0.30203577509E+01 -0.18368295750E+02  0.19505121661E+03  0.19599383651E+03  0.47000000000E+01 0. -1.
         -5    1    3    3    0  502  0.12784839197E+03 -0.70490994702E+02  0.22470699333E+03  0.26801028808E+03  0.47000000000E+01 0. -1.
          5    1    4    4  503    0 -0.55166380305E+02  0.96865372495E+02  0.17660490589E+03  0.20889617682E+03  0.47000000000E+01 0.  1.
         -5    1    4    4    0  503 -0.69661653918E+02 -0.80060820436E+01  0.27986419979E+03  0.28855312111E+03  0.47000000000E+01 0.  1.
<mgrwt>
<rscale>  0 0.19773744E+03</rscale>
<asrwt>0</asrwt>
<pdfrwt beam="2">  1        5 0.65558545E-02 0.19774446E+03</pdfrwt>
<pdfrwt beam="1">  1       -5 0.14136005E+00 0.19774446E+03</pdfrwt>
<totfact> 0.43598641E+01</totfact>
</mgrwt>
</event>
<event>
 8    1  0.1821556E-007  0.1683687E+03  0.7546771E-02  0.1179572E+00
         -5   -1    0    0    0  501 -0.00000000000E+00  0.00000000000E+00  0.34066901183E+03  0.34070143178E+03  0.47000000000E+01 0. -1.
          5   -1    0    0  501    0  0.00000000000E+00 -0.00000000000E+00 -0.88974336323E+02  0.89098386765E+02  0.47000000000E+01 0. -1.
         25    2    1    2    0    0 -0.10501926646E+03 -0.41124445378E+02  0.18109290124E+03  0.24727038590E+03  0.12501095362E+03 0.  0.
         25    2    1    2    0    0  0.10501926646E+03  0.41124445378E+02  0.70601774261E+02  0.18252943265E+03  0.12494845705E+03 0.  0.
          5    1    4    4  502    0  0.35536140640E+02 -0.15111562758E+02 -0.29070420813E+02  0.48562907520E+02  0.47000000000E+01 0.  1.
         -5    1    4    4    0  502  0.69483125820E+02  0.56236008136E+02  0.99672195073E+02  0.13396652513E+03  0.47000000000E+01 0.  1.
          5    1    3    3  503    0 -0.91206195464E+02  0.26516745244E+02  0.13084646705E+03  0.16175473968E+03  0.47000000000E+01 0.  1.
         -5    1    3    3    0  503 -0.13813070995E+02 -0.67641190622E+02  0.50246434197E+02  0.85515646221E+02  0.47000000000E+01 0.  1.
<mgrwt>
<rscale>  0 0.16835706E+03</rscale>
<asrwt>0</asrwt>
<pdfrwt beam="2">  1        5 0.13700396E-01 0.16836866E+03</pdfrwt>
<pdfrwt beam="1">  1       -5 0.52422653E-01 0.16836866E+03</pdfrwt>
<totfact> 0.12221504E+02</totfact>
</mgrwt>
</event>
<event>
 8    1  0.1821556E-007  0.1355073E+03  0.7546771E-02  0.1219506E+00
          5   -1    0    0  501    0  0.00000000000E+00  0.00000000000E+00  0.15687400791E+02  0.16376340970E+02  0.47000000000E+01 0.  1.
         -5   -1    0    0    0  501 -0.00000000000E+00 -0.00000000000E+00 -0.12269996022E+04  0.12270086038E+04  0.47000000000E+01 0.  1.
         25    2    1    2    0    0 -0.47309543920E+02  0.22332140666E+02 -0.76666774275E+03  0.77855099774E+03  0.12500124345E+03 0.  0.
         25    2    1    2    0    0  0.47309543920E+02 -0.22332140666E+02 -0.44464445867E+03  0.46483394703E+03  0.12499994495E+03 0.  0.
          5    1    4    4  502    0  0.28775970695E+02  0.44015536248E+02 -0.29931339629E+03  0.30393424144E+03  0.47000000000E+01 0.  1.
         -5    1    4    4    0  502  0.18533573225E+02 -0.66347676914E+02 -0.14533106237E+03  0.16089970559E+03  0.47000000000E+01 0.  1.
          5    1    3    3  503    0  0.33971543681E+01 -0.40771819018E+02 -0.44183327235E+03  0.44374836612E+03  0.47000000000E+01 0. -1.
         -5    1    3    3    0  503 -0.50706698288E+02  0.63103959684E+02 -0.32483447040E+03  0.33480263162E+03  0.47000000000E+01 0. -1.
<mgrwt>
<rscale>  0 0.13550700E+03</rscale>
<asrwt>0</asrwt>
<pdfrwt beam="1">  1        5 0.24671351E-02 0.13550730E+03</pdfrwt>
<pdfrwt beam="2">  1       -5 0.18882278E+00 0.13550730E+03</pdfrwt>
<totfact> 0.86205655E+01</totfact>
</mgrwt>
</event>
<event>
 8    1  0.1821556E-007  0.2533801E+03  0.7546771E-02  0.1111188E+00
          5   -1    0    0  501    0  0.00000000000E+00  0.00000000000E+00  0.22149023576E+03  0.22154009691E+03  0.47000000000E+01 0. -1.
         -5   -1    0    0    0  501 -0.00000000000E+00 -0.00000000000E+00 -0.28983061684E+03  0.28986872281E+03  0.47000000000E+01 0. -1.
         25    2    1    2    0    0 -0.90501744803E+02  0.20095816365E+03 -0.38320707396E+02  0.25625660575E+03  0.12499688806E+03 0.  0.
         25    2    1    2    0    0  0.90501744803E+02 -0.20095816365E+03 -0.30019673688E+02  0.25515221397E+03  0.12500688835E+03 0.  0.
          5    1    4    4  502    0  0.24503428330E+02  0.13603957190E+02  0.12914857325E+01  0.28447207008E+02  0.47000000000E+01 0.  1.
         -5    1    4    4    0  502  0.65998316473E+02 -0.21456212084E+03 -0.31311159421E+02  0.22670500696E+03  0.47000000000E+01 0.  1.
          5    1    3    3  503    0 -0.34590661852E+02  0.72942276403E+02 -0.76549641614E+02  0.11135091919E+03  0.47000000000E+01 0.  1.
         -5    1    3    3    0  503 -0.55911082951E+02  0.12801588724E+03  0.38228934217E+02  0.14490568655E+03  0.47000000000E+01 0.  1.
<mgrwt>
<rscale>  0 0.25337886E+03</rscale>
<asrwt>0</asrwt>
<pdfrwt beam="1">  1        5 0.34082188E-01 0.25338009E+03</pdfrwt>
<pdfrwt beam="2">  1       -5 0.44596092E-01 0.25338009E+03</pdfrwt>
<totfact> 0.33947867E+01</totfact>
</mgrwt>
</event>
<event>
 8    1  0.1821556E-007  0.1307404E+03  0.7546771E-02  0.1226362E+00
         -5   -1    0    0    0  501 -0.00000000000E+00  0.00000000000E+00  0.32179375446E+04  0.32179409769E+04  0.47000000000E+01 0.  1.
          5   -1    0    0  501    0  0.00000000000E+00 -0.00000000000E+00 -0.42708942781E+01  0.63506328767E+01  0.47000000000E+01 0.  1.
         25    2    1    2    0    0 -0.74947791971E+01  0.37548427207E+02  0.16414725080E+04  0.16466707859E+04  0.12500650537E+03 0.  0.
         25    2    1    2    0    0  0.74947791971E+01 -0.37548427207E+02  0.15721941423E+04  0.15776208239E+04  0.12500794722E+03 0.  0.
          5    1    3    3  502    0  0.57286945783E+02  0.61567294688E+01  0.64144381649E+03  0.64404344511E+03  0.47000000000E+01 0. -1.
         -5    1    3    3    0  502 -0.64781724980E+02  0.31391697738E+02  0.10000286916E+04  0.10026273408E+04  0.47000000000E+01 0. -1.
          5    1    4    4  503    0 -0.26887278899E+02  0.12170330278E+01  0.13115495136E+04  0.13118340686E+04  0.47000000000E+01 0.  1.
         -5    1    4    4    0  503  0.34382058096E+02 -0.38765460235E+02  0.26064462863E+03  0.26578675524E+03  0.47000000000E+01 0.  1.
<mgrwt>
<rscale>  0 0.13074002E+03</rscale>
<asrwt>0</asrwt>
<pdfrwt beam="2">  1        5 0.81730169E-03 0.13074036E+03</pdfrwt>
<pdfrwt beam="1">  1       -5 0.49522930E+00 0.13074036E+03</pdfrwt>
<totfact> 0.39360205E+00</totfact>
</mgrwt>
</event>
<event>
 8    1  0.1821556E-007  0.1496583E+03  0.7546771E-02  0.1200901E+00
          5   -1    0    0  501    0  0.00000000000E+00  0.00000000000E+00  0.27958282771E+03  0.27962233021E+03  0.47000000000E+01 0. -1.
         -5   -1    0    0    0  501 -0.00000000000E+00 -0.00000000000E+00 -0.80290305451E+02  0.80427751115E+02  0.47000000000E+01 0. -1.
         25    2    1    2    0    0  0.66503723191E+02  0.48460046656E+02  0.11078395093E+03  0.18620068952E+03  0.12500596656E+03 0.  0.
         25    2    1    2    0    0 -0.66503723191E+02 -0.48460046656E+02  0.88508571335E+02  0.17384939180E+03  0.12497488752E+03 0.  0.
          5    1    4    4  502    0  0.10474290296E+02 -0.89698743514E+01  0.85941226329E+02  0.87167389465E+02  0.47000000000E+01 0. -1.
         -5    1    4    4    0  502 -0.76978013486E+02 -0.39490172304E+02  0.25673450059E+01  0.86682002338E+02  0.47000000000E+01 0. -1.
          5    1    3    3  503    0 -0.36419493699E+02  0.19034268379E+02  0.20896875185E+02  0.46340611633E+02  0.47000000000E+01 0.  1.
         -5    1    3    3    0  503  0.10292321689E+03  0.29425778276E+02  0.89887075744E+02  0.13986007789E+03  0.47000000000E+01 0.  1.
<mgrwt>
<rscale>  0 0.14965183E+03</rscale>
<asrwt>0</asrwt>
<pdfrwt beam="1">  1        5 0.43026355E-01 0.14965832E+03</pdfrwt>
<pdfrwt beam="2">  1       -5 0.12365966E-01 0.14965832E+03</pdfrwt>
<totfact> 0.21453624E+02</totfact>
</mgrwt>
</event>
<event>
 8    1  0.1821556E-007  0.1286322E+03  0.7546771E-02  0.1229507E+00
          5   -1    0    0  501    0  0.00000000000E+00  0.00000000000E+00  0.38512862005E+02  0.38798589405E+02  0.47000000000E+01 0.  1.
         -5   -1    0    0    0  501 -0.00000000000E+00 -0.00000000000E+00 -0.42771140919E+03  0.42773723190E+03  0.47000000000E+01 0.  1.
         25    2    1    2    0    0  0.27196568381E+02  0.13306337439E+02 -0.19659159421E+03  0.23493508335E+03  0.12501810480E+03 0.  0.
         25    2    1    2    0    0 -0.27196568381E+02 -0.13306337439E+02 -0.19260695297E+03  0.23160073795E+03  0.12499900615E+03 0.  0.
          5    1    3    3  502    0  0.11984636987E+02 -0.34600493325E+02 -0.55459204506E+01  0.37331928636E+02  0.47000000000E+01 0.  1.
         -5    1    3    3    0  502  0.15211931394E+02  0.47906830765E+02 -0.19104567376E+03  0.19760315471E+03  0.47000000000E+01 0.  1.
          5    1    4    4  503    0 -0.45322594498E+01 -0.65850384327E+02 -0.13457955776E+03  0.14996853623E+03  0.47000000000E+01 0. -1.
         -5    1    4    4    0  503 -0.22664308931E+02  0.52544046888E+02 -0.58027395216E+02  0.81632201724E+02  0.47000000000E+01 0. -1.
<mgrwt>
<rscale>  0 0.12862754E+03</rscale>
<asrwt>0</asrwt>
<pdfrwt beam="1">  1        5 0.59490214E-02 0.12863218E+03</pdfrwt>
<pdfrwt beam="2">  1       -5 0.65825717E-01 0.12863218E+03</pdfrwt>
<totfact> 0.28939672E+02</totfact>
</mgrwt>
</event>
<event>
 8    1  0.1821556E-007  0.1461668E+03  0.7546771E-02  0.1205265E+00
          5   -1    0    0  501    0  0.00000000000E+00  0.00000000000E+00  0.45993369908E+02  0.46232889543E+02  0.47000000000E+01 0. -1.
         -5   -1    0    0    0  501 -0.00000000000E+00 -0.00000000000E+00 -0.55007829007E+03  0.55009836867E+03  0.47000000000E+01 0. -1.
         25    2    1    2    0    0 -0.41330879829E+02  0.63490396699E+02 -0.37061065541E+03  0.39839158568E+03  0.12499730210E+03 0.  0.
         25    2    1    2    0    0  0.41330879829E+02 -0.63490396699E+02 -0.13347426475E+03  0.19793967253E+03  0.12500185003E+03 0.  0.
          5    1    3    3  502    0 -0.31760181045E+01 -0.11502476797E+02  0.47581160695E+01  0.13679317673E+02  0.47000000000E+01 0.  1.
         -5    1    3    3    0  502 -0.38154861725E+02  0.74992873496E+02 -0.37536877148E+03  0.38471226800E+03  0.47000000000E+01 0.  1.
          5    1    4    4  503    0  0.65957598035E+02 -0.64236533787E+02 -0.14380126709E+03  0.17081461129E+03  0.47000000000E+01 0.  1.
         -5    1    4    4    0  503 -0.24626718205E+02  0.74613708777E+00  0.10327002344E+02  0.27125061245E+02  0.47000000000E+01 0.  1.
<mgrwt>
<rscale>  0 0.14616583E+03</rscale>
<asrwt>0</asrwt>
<pdfrwt beam="1">  1        5 0.70958725E-02 0.14616680E+03</pdfrwt>
<pdfrwt beam="2">  1       -5 0.84647394E-01 0.14616680E+03</pdfrwt>
<totfact> 0.12634683E+02</totfact>
</mgrwt>
</event>
<event>
 8    1  0.1821556E-007  0.1569921E+03  0.7546771E-02  0.1192138E+00
         -5   -1    0    0    0  501 -0.00000000000E+00  0.00000000000E+00  0.11092964740E+04  0.11093064308E+04  0.47000000000E+01 0. -1.
          5   -1    0    0  501    0  0.00000000000E+00 -0.00000000000E+00 -0.23862966774E+02  0.24321414088E+02  0.47000000000E+01 0. -1.
         25    2    1    2    0    0 -0.92718979277E+02  0.20561532229E+02  0.70123856718E+03  0.71859500660E+03  0.12499467862E+03 0.  0.
         25    2    1    2    0    0  0.92718979277E+02 -0.20561532229E+02  0.38419494009E+03  0.41503283824E+03  0.12500767620E+03 0.  0.
          5    1    3    3  502    0 -0.85589258466E+02 -0.11405835279E+02  0.66038555549E+03  0.66602311231E+03  0.47000000000E+01 0.  1.
         -5    1    3    3    0  502 -0.71297208107E+01  0.31967367507E+02  0.40853011690E+02  0.52571894282E+02  0.47000000000E+01 0.  1.
          5    1    4    4  503    0  0.77905559589E+02  0.43706744495E+02  0.19285424333E+03  0.21258975728E+03  0.47000000000E+01 0.  1.
         -5    1    4    4    0  503  0.14813419687E+02 -0.64268276724E+02  0.19134069676E+03  0.20244308097E+03  0.47000000000E+01 0.  1.
<mgrwt>
<rscale>  0 0.15698947E+03</rscale>
<asrwt>0</asrwt>
<pdfrwt beam="2">  1        5 0.37072568E-02 0.15699205E+03</pdfrwt>
<pdfrwt beam="1">  1       -5 0.17069703E+00 0.15699205E+03</pdfrwt>
<totfact> 0.62702406E+01</totfact>
</mgrwt>
</event>
<event>
 8    1  0.1821556E-007  0.1508321E+03  0.7546771E-02  0.1199456E+00
         -5   -1    0    0    0  501 -0.00000000000E+00  0.00000000000E+00  0.96851727769E+02  0.96965701008E+02  0.47000000000E+01 0.  1.
          5   -1    0    0  501    0  0.00000000000E+00 -0.00000000000E+00 -0.23570386351E+03  0.23575071850E+03  0.47000000000E+01 0.  1.
         25    2    1    2    0    0  0.66007810881E+02 -0.52588158433E+02 -0.58120956887E+02  0.16164270164E+03  0.12501108695E+03 0.  0.
         25    2    1    2    0    0 -0.66007810881E+02  0.52588158433E+02 -0.80731178853E+02  0.17107371787E+03  0.12500459272E+03 0.  0.
          5    1    4    4  502    0 -0.78738617749E+02 -0.15609929550E+02 -0.52476632773E+02  0.96017325586E+02  0.47000000000E+01 0.  1.
         -5    1    4    4    0  502  0.12730806867E+02  0.68198087983E+02 -0.28254546079E+02  0.75056392281E+02  0.47000000000E+01 0.  1.
          5    1    3    3  503    0  0.75507209995E+02  0.18566930865E+02 -0.20946531046E+02  0.80665462534E+02  0.47000000000E+01 0. -1.
         -5    1    3    3    0  503 -0.94993991141E+01 -0.71155089298E+02 -0.37174425841E+02  0.80977239105E+02  0.47000000000E+01 0. -1.
<mgrwt>
<rscale>  0 0.15083074E+03</rscale>
<asrwt>0</asrwt>
<pdfrwt beam="2">  1        5 0.36274504E-01 0.15083208E+03</pdfrwt>
<pdfrwt beam="1">  1       -5 0.14912637E-01 0.15083208E+03</pdfrwt>
<totfact> 0.21784570E+02</totfact>
</mgrwt>
</event>
<event>
 8    1  0.1821556E-007  0.1507892E+03  0.7546771E-02  0.1199511E+00
         -5   -1    0    0    0  501 -0.00000000000E+00  0.00000000000E+00  0.33035784547E+02  0.33368444085E+02  0.47000000000E+01 0.  1.
          5   -1    0    0  501    0  0.00000000000E+00 -0.00000000000E+00 -0.87387983697E+03  0.87389247592E+03  0.47000000000E+01 0.  1.
         25    2    1    2    0    0  0.38285237353E+02  0.75139174161E+02 -0.20922320482E+03  0.25789023762E+03  0.12498548048E+03 0.  0.
         25    2    1    2    0    0 -0.38285237353E+02 -0.75139174161E+02 -0.63162084760E+03  0.64937068238E+03  0.12500293243E+03 0.  0.
          5    1    3    3  502    0 -0.36976310233E+02  0.54440820501E+02 -0.58898248528E+02  0.88442886288E+02  0.47000000000E+01 0.  1.
         -5    1    3    3    0  502  0.75261547586E+02  0.20698353660E+02 -0.15032495629E+03  0.16944735133E+03  0.47000000000E+01 0.  1.
          5    1    4    4  503    0 -0.49758023222E+02 -0.84843118532E+02 -0.62428157957E+03  0.63199983879E+03  0.47000000000E+01 0.  1.
         -5    1    4    4    0  503  0.11472785869E+02  0.97039443707E+01 -0.73392680347E+01  0.17370843596E+02  0.47000000000E+01 0.  1.
<mgrwt>
<rscale>  0 0.15078560E+03</rscale>
<asrwt>0</asrwt>
<pdfrwt beam="2">  1        5 0.13446960E+00 0.15078922E+03</pdfrwt>
<pdfrwt beam="1">  1       -5 0.51089905E-02 0.15078922E+03</pdfrwt>
<totfact> 0.70389432E+01</totfact>
</mgrwt>
</event>
<event>
 8    1  0.1821556E-007  0.1321460E+03  0.7546771E-02  0.1224309E+00
         -5   -1    0    0    0  501 -0.00000000000E+00  0.00000000000E+00  0.43645863350E+03  0.43648393871E+03  0.47000000000E+01 0.  1.
          5   -1    0    0  501    0  0.00000000000E+00 -0.00000000000E+00 -0.42833342701E+02  0.43090431037E+02  0.47000000000E+01 0.  1.
         25    2    1    2    0    0  0.13817379981E+02  0.40545685920E+02  0.25995358547E+03  0.29160977695E+03  0.12500209110E+03 0.  0.
         25    2    1    2    0    0 -0.13817379981E+02 -0.40545685920E+02  0.13367170533E+03  0.18796459280E+03  0.12501076236E+03 0.  0.
          5    1    4    4  502    0  0.91331127041E+01  0.43574162250E+02  0.42720727823E+02  0.61881111409E+02  0.47000000000E+01 0.  1.
         -5    1    4    4    0  502 -0.22950492685E+02 -0.84119848170E+02  0.90950977503E+02  0.12608348139E+03  0.47000000000E+01 0.  1.
          5    1    3    3  503    0 -0.45692167622E+01  0.59787123703E+02  0.45389470823E+02  0.75350328228E+02  0.47000000000E+01 0. -1.
         -5    1    3    3    0  503  0.18386596743E+02 -0.19241437783E+02  0.21456411465E+03  0.21625944872E+03  0.47000000000E+01 0. -1.
<mgrwt>
<rscale>  0 0.13214394E+03</rscale>
<asrwt>0</asrwt>
<pdfrwt beam="2">  1        5 0.66114677E-02 0.13214599E+03</pdfrwt>
<pdfrwt beam="1">  1       -5 0.67169204E-01 0.13214599E+03</pdfrwt>
<totfact> 0.23384921E+02</totfact>
</mgrwt>
</event>
<event>
 8    1  0.1821556E-007  0.1356499E+03  0.7546771E-02  0.1219318E+00
          5   -1    0    0  501    0  0.00000000000E+00  0.00000000000E+00  0.21732450783E+02  0.22234869396E+02  0.47000000000E+01 0.  1.
         -5   -1    0    0    0  501 -0.00000000000E+00 -0.00000000000E+00 -0.84111223824E+03  0.84112536956E+03  0.47000000000E+01 0.  1.
         25    2    1    2    0    0  0.75304994748E-02  0.52594350884E+02 -0.44232617235E+03  0.46264795669E+03  0.12499809311E+03 0.  0.
         25    2    1    2    0    0 -0.75304994748E-02 -0.52594350884E+02 -0.37705361511E+03  0.40071228227E+03  0.12503894870E+03 0.  0.
          5    1    4    4  502    0 -0.20978458661E+02 -0.88345070978E+02 -0.21626336522E+03  0.23459940415E+03  0.47000000000E+01 0. -1.
         -5    1    4    4    0  502  0.20970928161E+02  0.35750720093E+02 -0.16079024989E+03  0.16611287811E+03  0.47000000000E+01 0. -1.
          5    1    3    3  503    0 -0.55841416980E+02  0.48211193868E+02 -0.31336113474E+03  0.32196253482E+03  0.47000000000E+01 0.  1.
         -5    1    3    3    0  503  0.55848947479E+02  0.43831570167E+01 -0.12896503761E+03  0.14068542186E+03  0.47000000000E+01 0.  1.
<mgrwt>
<rscale>  0 0.13564052E+03</rscale>
<asrwt>0</asrwt>
<pdfrwt beam="1">  1        5 0.33831123E-02 0.13564993E+03</pdfrwt>
<pdfrwt beam="2">  1       -5 0.12944152E+00 0.13564993E+03</pdfrwt>
<totfact> 0.14823667E+02</totfact>
</mgrwt>
</event>
<event>
 8    1  0.1821556E-007  0.1391938E+03  0.7546771E-02  0.1214418E+00
          5   -1    0    0  501    0  0.00000000000E+00  0.00000000000E+00  0.59432484113E+03  0.59434342495E+03  0.47000000000E+01 0. -1.
         -5   -1    0    0    0  501 -0.00000000000E+00 -0.00000000000E+00 -0.32567432420E+02  0.32904827221E+02  0.47000000000E+01 0. -1.
         25    2    1    2    0    0 -0.59018613055E+02 -0.16323566129E+02  0.25925279217E+03  0.29425657072E+03  0.12500105466E+03 0.  0.
         25    2    1    2    0    0  0.59018613055E+02  0.16323566129E+02  0.30250461654E+03  0.33299168145E+03  0.12499904556E+03 0.  0.
          5    1    3    3  502    0 -0.50767786616E+02 -0.55633884353E+02  0.23563641263E+03  0.24742495065E+03  0.47000000000E+01 0. -1.
         -5    1    3    3    0  502 -0.82508264388E+01  0.39310318224E+02  0.23616379537E+02  0.46831620068E+02  0.47000000000E+01 0. -1.
          5    1    4    4  503    0  0.11333910238E+02  0.65515760869E+02  0.18808318864E+03  0.19954485283E+03  0.47000000000E+01 0. -1.
         -5    1    4    4    0  503  0.47684702817E+02 -0.49192194739E+02  0.11442142790E+03  0.13344682862E+03  0.47000000000E+01 0. -1.
<mgrwt>
<rscale>  0 0.13919337E+03</rscale>
<asrwt>0</asrwt>
<pdfrwt beam="1">  1        5 0.91461971E-01 0.13919382E+03</pdfrwt>
<pdfrwt beam="2">  1       -5 0.50377574E-02 0.13919382E+03</pdfrwt>
<totfact> 0.18424600E+02</totfact>
</mgrwt>
</event>
<event>
 8    1  0.1821556E-007  0.1489721E+03  0.7546771E-02  0.1201759E+00
          5   -1    0    0  501    0  0.00000000000E+00  0.00000000000E+00  0.40701013829E+03  0.40703727431E+03  0.47000000000E+01 0. -1.
         -5   -1    0    0    0  501 -0.00000000000E+00 -0.00000000000E+00 -0.72455002508E+02  0.72607281924E+02  0.47000000000E+01 0. -1.
         25    2    1    2    0    0 -0.77974782949E+02  0.21688996893E+02  0.47671529236E+02  0.15641373433E+03  0.12506878997E+03 0.  0.
         25    2    1    2    0    0  0.77974782949E+02 -0.21688996893E+02  0.28688360655E+03  0.32323082190E+03  0.12500192462E+03 0.  0.
          5    1    4    4  502    0  0.54944219481E+02  0.44370699787E+02  0.91724708577E+02  0.11585826866E+03  0.47000000000E+01 0. -1.
         -5    1    4    4    0  502  0.23030563467E+02 -0.66059696681E+02  0.19515889797E+03  0.20737255324E+03  0.47000000000E+01 0. -1.
          5    1    3    3  503    0 -0.31447804825E+02  0.50609647654E+02  0.74270648758E+02  0.95333730290E+02  0.47000000000E+01 0.  1.
         -5    1    3    3    0  503 -0.46526978123E+02 -0.28920650761E+02 -0.26599119522E+02  0.61080004036E+02  0.47000000000E+01 0.  1.
<mgrwt>
<rscale>  0 0.14895805E+03</rscale>
<asrwt>0</asrwt>
<pdfrwt beam="1">  1        5 0.62630745E-01 0.14897208E+03</pdfrwt>
<pdfrwt beam="2">  1       -5 0.11160725E-01 0.14897208E+03</pdfrwt>
<totfact> 0.11512942E+02</totfact>
</mgrwt>
</event>
<event>
 8    1  0.1821556E-007  0.1535829E+03  0.7546771E-02  0.1196139E+00
          5   -1    0    0  501    0  0.00000000000E+00  0.00000000000E+00  0.31464044564E+02  0.31813143515E+02  0.47000000000E+01 0. -1.
         -5   -1    0    0    0  501 -0.00000000000E+00 -0.00000000000E+00 -0.79682813758E+03  0.79684199867E+03  0.47000000000E+01 0. -1.
         25    2    1    2    0    0 -0.58118862455E+02  0.67704044406E+02 -0.48815843887E+03  0.51174713347E+03  0.12499930949E+03 0.  0.
         25    2    1    2    0    0  0.58118862455E+02 -0.67704044406E+02 -0.27720565416E+03  0.31690800872E+03  0.12500428590E+03 0.  0.
          5    1    3    3  502    0  0.11116056200E+02 -0.30755645101E+02 -0.98304764945E+02  0.10370821193E+03  0.47000000000E+01 0. -1.
         -5    1    3    3    0  502 -0.69234918655E+02  0.98459689507E+02 -0.38985367392E+03  0.40803892154E+03  0.47000000000E+01 0. -1.
          5    1    4    4  503    0  0.78299987915E+02 -0.72245130525E+02 -0.12982489237E+03  0.16800845119E+03  0.47000000000E+01 0. -1.
         -5    1    4    4    0  503 -0.20181125460E+02  0.45410861184E+01 -0.14738076179E+03  0.14889955753E+03  0.47000000000E+01 0. -1.
<mgrwt>
<rscale>  0 0.15358190E+03</rscale>
<asrwt>0</asrwt>
<pdfrwt beam="1">  1        5 0.48685429E-02 0.15358291E+03</pdfrwt>
<pdfrwt beam="2">  1       -5 0.12261685E+00 0.15358291E+03</pdfrwt>
<totfact> 0.97500762E+01</totfact>
</mgrwt>
</event>
<event>
 8    1  0.1821556E-007  0.1283126E+03  0.7546771E-02  0.1229984E+00
          5   -1    0    0  501    0  0.00000000000E+00  0.00000000000E+00  0.46864912849E+02  0.47100000599E+02  0.47000000000E+01 0.  1.
         -5   -1    0    0    0  501 -0.00000000000E+00 -0.00000000000E+00 -0.35186756534E+03  0.35189895359E+03  0.47000000000E+01 0.  1.
         25    2    1    2    0    0  0.10294054807E+02  0.27046009322E+02 -0.16639811947E+03  0.21011977748E+03  0.12499813014E+03 0.  0.
         25    2    1    2    0    0 -0.10294054807E+02 -0.27046009322E+02 -0.13860453302E+03  0.18887917671E+03  0.12500669037E+03 0.  0.
          5    1    4    4  502    0 -0.47105216051E+02 -0.42044643922E+02 -0.24382902622E+02  0.67847397902E+02  0.47000000000E+01 0.  1.
         -5    1    4    4    0  502  0.36811161244E+02  0.14998634601E+02 -0.11422163039E+03  0.12103177881E+03  0.47000000000E+01 0.  1.
          5    1    3    3  503    0 -0.29495669531E+02 -0.31142311116E+02 -0.19986124307E+02  0.47553898132E+02  0.47000000000E+01 0.  1.
         -5    1    3    3    0  503  0.39789724339E+02  0.58188320438E+02 -0.14641199517E+03  0.16256587934E+03  0.47000000000E+01 0.  1.
<mgrwt>
<rscale>  0 0.12831053E+03</rscale>
<asrwt>0</asrwt>
<pdfrwt beam="1">  1        5 0.72304850E-02 0.12831261E+03</pdfrwt>
<pdfrwt beam="2">  1       -5 0.54153968E-01 0.12831261E+03</pdfrwt>
<totfact> 0.31852254E+02</totfact>
</mgrwt>
</event>
<event>
 8    1  0.1821556E-007  0.1728253E+03  0.7546771E-02  0.1174935E+00
         -5   -1    0    0    0  501 -0.00000000000E+00  0.00000000000E+00  0.85516142355E+03  0.85517433914E+03  0.47000000000E+01 0. -1.
          5   -1    0    0  501    0  0.00000000000E+00 -0.00000000000E+00 -0.35182848946E+02  0.35495392094E+02  0.47000000000E+01 0. -1.
         25    2    1    2    0    0 -0.56919751011E+02  0.10489440761E+03  0.45889142109E+03  0.49035419635E+03  0.12499282670E+03 0.  0.
         25    2    1    2    0    0  0.56919751011E+02 -0.10489440761E+03  0.36108715352E+03  0.40031553489E+03  0.12500360089E+03 0.  0.
          5    1    3    3  502    0 -0.92378033003E+02  0.49233271631E+02  0.31523179230E+03  0.33219089225E+03  0.47000000000E+01 0. -1.
         -5    1    3    3    0  502  0.35458281992E+02  0.55661135978E+02  0.14365962878E+03  0.15816330410E+03  0.47000000000E+01 0. -1.
          5    1    4    4  503    0 -0.38035002102E+02 -0.22591337485E+02  0.66452887690E+02  0.79969407880E+02  0.47000000000E+01 0.  1.
         -5    1    4    4    0  503  0.94954753112E+02 -0.82303070123E+02  0.29463426583E+03  0.32034612701E+03  0.47000000000E+01 0.  1.
<mgrwt>
<rscale>  0 0.17282338E+03</rscale>
<asrwt>0</asrwt>
<pdfrwt beam="2">  1        5 0.54377817E-02 0.17282533E+03</pdfrwt>
<pdfrwt beam="1">  1       -5 0.13158832E+00 0.17282533E+03</pdfrwt>
<totfact> 0.69811736E+01</totfact>
</mgrwt>
</event>
<event>
 8    1  0.1821556E-007  0.1340899E+03  0.7546771E-02  0.1221515E+00
          5   -1    0    0  501    0  0.00000000000E+00  0.00000000000E+00  0.84575276144E+03  0.84576582071E+03  0.47000000000E+01 0.  1.
         -5   -1    0    0    0  501 -0.00000000000E+00 -0.00000000000E+00 -0.21667982831E+02  0.22171862348E+02  0.47000000000E+01 0.  1.
         25    2    1    2    0    0  0.52610358961E+01 -0.48237204941E+02  0.33587526785E+03  0.36165216467E+03  0.12500234485E+03 0.  0.
         25    2    1    2    0    0 -0.52610358961E+01  0.48237204941E+02  0.48820951075E+03  0.50628551838E+03  0.12498797260E+03 0.  0.
          5    1    3    3  502    0  0.36690708339E+02  0.27745989091E+02  0.75237005895E+02  0.88310503594E+02  0.47000000000E+01 0. -1.
         -5    1    3    3    0  502 -0.31429672443E+02 -0.75983194032E+02  0.26063826196E+03  0.27334166108E+03  0.47000000000E+01 0. -1.
          5    1    4    4  503    0  0.11623574830E+02  0.58687221805E+02  0.93838451451E+02  0.11138690437E+03  0.47000000000E+01 0. -1.
         -5    1    4    4    0  503 -0.16884610726E+02 -0.10450016863E+02  0.39437105930E+03  0.39489861401E+03  0.47000000000E+01 0. -1.
<mgrwt>
<rscale>  0 0.13408652E+03</rscale>
<asrwt>0</asrwt>
<pdfrwt beam="1">  1        5 0.13015556E+00 0.13408987E+03</pdfrwt>
<pdfrwt beam="2">  1       -5 0.33733007E-02 0.13408987E+03</pdfrwt>
<totfact> 0.14628086E+02</totfact>
</mgrwt>
</event>
<event>
 8    1  0.1821556E-007  0.3482393E+03  0.7546771E-02  0.1063340E+00
         -5   -1    0    0    0  501 -0.00000000000E+00  0.00000000000E+00  0.11263548542E+04  0.11263646601E+04  0.47000000000E+01 0.  1.
          5   -1    0    0  501    0  0.00000000000E+00 -0.00000000000E+00 -0.11067643905E+03  0.11077618951E+03  0.47000000000E+01 0.  1.
         25    2    1    2    0    0 -0.27066375895E+03  0.17996141686E+03  0.40483886851E+03  0.53400818067E+03  0.12500098243E+03 0.  0.
         25    2    1    2    0    0  0.27066375895E+03 -0.17996141686E+03  0.61083954664E+03  0.70313266896E+03  0.12500246580E+03 0.  0.
          5    1    4    4  502    0  0.27309576108E+03 -0.16932271930E+03  0.61194946153E+03  0.69119874960E+03  0.47000000000E+01 0.  1.
         -5    1    4    4    0  502 -0.24320021346E+01 -0.10638697559E+02 -0.11099148872E+01  0.11933919356E+02  0.47000000000E+01 0.  1.
          5    1    3    3  503    0 -0.11243727233E+03  0.14464866363E+03  0.18095080124E+03  0.25754739092E+03  0.47000000000E+01 0.  1.
         -5    1    3    3    0  503 -0.15822648662E+03  0.35312753225E+02  0.22388806726E+03  0.27646078975E+03  0.47000000000E+01 0.  1.
<mgrwt>
<rscale>  0 0.34823915E+03</rscale>
<asrwt>0</asrwt>
<pdfrwt beam="2">  1        5 0.17035571E-01 0.34823928E+03</pdfrwt>
<pdfrwt beam="1">  1       -5 0.17329379E+00 0.34823928E+03</pdfrwt>
<totfact> 0.50340287E+00</totfact>
</mgrwt>
</event>
<event>
 8    1  0.1821556E-007  0.1369808E+03  0.7546771E-02  0.1217455E+00
          5   -1    0    0  501    0  0.00000000000E+00  0.00000000000E+00  0.15636956252E+03  0.15644018052E+03  0.47000000000E+01 0. -1.
         -5   -1    0    0    0  501 -0.00000000000E+00 -0.00000000000E+00 -0.12026639392E+03  0.12035819668E+03  0.47000000000E+01 0. -1.
         25    2    1    2    0    0  0.15923192780E+02  0.53712424082E+02  0.98265348447E+01  0.13733281280E+03  0.12500067246E+03 0.  0.
         25    2    1    2    0    0 -0.15923192780E+02 -0.53712424082E+02  0.26276633751E+02  0.13946556440E+03  0.12498643768E+03 0.  0.
          5    1    4    4  502    0 -0.29233176745E+02 -0.49128894824E+02 -0.41040993579E+02  0.70531412032E+02  0.47000000000E+01 0.  1.
         -5    1    4    4    0  502  0.13309983964E+02 -0.45835292575E+01  0.67317627331E+02  0.68934152370E+02  0.47000000000E+01 0.  1.
          5    1    3    3  503    0  0.66040641541E+02  0.85531788911E+01  0.18191134418E+02  0.69191983464E+02  0.47000000000E+01 0.  1.
         -5    1    3    3    0  503 -0.50117448761E+02  0.45159245191E+02 -0.83645995737E+01  0.68140829335E+02  0.47000000000E+01 0.  1.
<mgrwt>
<rscale>  0 0.13697756E+03</rscale>
<asrwt>0</asrwt>
<pdfrwt beam="1">  1        5 0.24069350E-01 0.13698080E+03</pdfrwt>
<pdfrwt beam="2">  1       -5 0.18515016E-01 0.13698080E+03</pdfrwt>
<totfact> 0.31717789E+02</totfact>
</mgrwt>
</event>
<event>
 8    1  0.1821556E-007  0.1785563E+03  0.7546771E-02  0.1169208E+00
          5   -1    0    0  501    0  0.00000000000E+00  0.00000000000E+00  0.39867767726E+02  0.40143852624E+02  0.47000000000E+01 0.  1.
         -5   -1    0    0    0  501 -0.00000000000E+00 -0.00000000000E+00 -0.92914707192E+03  0.92915895909E+03  0.47000000000E+01 0.  1.
         25    2    1    2    0    0 -0.10706960622E+03 -0.69223153731E+02 -0.62762073692E+03  0.65252595861E+03  0.12500636647E+03 0.  0.
         25    2    1    2    0    0  0.10706960622E+03  0.69223153731E+02 -0.26165856727E+03  0.31677685310E+03  0.12500649281E+03 0.  0.
          5    1    3    3  502    0 -0.70290320672E+02  0.26751808742E+02 -0.24644950684E+03  0.25771270414E+03  0.47000000000E+01 0. -1.
         -5    1    3    3    0  502 -0.36779285552E+02 -0.95974962474E+02 -0.38117123008E+03  0.39481325448E+03  0.47000000000E+01 0. -1.
          5    1    4    4  503    0  0.71481723311E+02  0.51823749875E+02 -0.26238229958E+03  0.27687885248E+03  0.47000000000E+01 0. -1.
         -5    1    4    4    0  503  0.35587882913E+02  0.17399403856E+02  0.72373231280E+00  0.39898000617E+02  0.47000000000E+01 0. -1.
<mgrwt>
<rscale>  0 0.17855632E+03</rscale>
<asrwt>0</asrwt>
<pdfrwt beam="1">  1        5 0.61556551E-02 0.17855635E+03</pdfrwt>
<pdfrwt beam="2">  1       -5 0.14296784E+00 0.17855635E+03</pdfrwt>
<totfact> 0.45823535E+01</totfact>
</mgrwt>
</event>
<event>
 8    1  0.1821556E-007  0.1347215E+03  0.7546771E-02  0.1220621E+00
         -5   -1    0    0    0  501 -0.00000000000E+00  0.00000000000E+00  0.30174091616E+03  0.30177751819E+03  0.47000000000E+01 0. -1.
          5   -1    0    0  501    0  0.00000000000E+00 -0.00000000000E+00 -0.76249829701E+02  0.76394545155E+02  0.47000000000E+01 0. -1.
         25    2    1    2    0    0 -0.50045461980E+02  0.44134202982E+01  0.19988979790E+03  0.24103960759E+03  0.12498053680E+03 0.  0.
         25    2    1    2    0    0  0.50045461980E+02 -0.44134202982E+01  0.25601288558E+02  0.13713245576E+03  0.12500343156E+03 0.  0.
          5    1    4    4  502    0 -0.82177565930E+01  0.51788372993E+02  0.20220627516E+01  0.52685347474E+02  0.47000000000E+01 0. -1.
         -5    1    4    4    0  502  0.58263218573E+02 -0.56201793291E+02  0.23579225807E+02  0.84447108283E+02  0.47000000000E+01 0. -1.
          5    1    3    3  503    0  0.84209954387E+01  0.17175479465E+02  0.17492057394E+03  0.17602615558E+03  0.47000000000E+01 0. -1.
         -5    1    3    3    0  503 -0.58466457419E+02 -0.12762059167E+02  0.24969223958E+02  0.65013452010E+02  0.47000000000E+01 0. -1.
<mgrwt>
<rscale>  0 0.13471620E+03</rscale>
<asrwt>0</asrwt>
<pdfrwt beam="2">  1        5 0.11744691E-01 0.13472151E+03</pdfrwt>
<pdfrwt beam="1">  1       -5 0.46435627E-01 0.13472151E+03</pdfrwt>
<totfact> 0.19366744E+02</totfact>
</mgrwt>
</event>
<event>
 8    1  0.1821556E-007  0.1930417E+03  0.7546771E-02  0.1155747E+00
         -5   -1    0    0    0  501 -0.00000000000E+00  0.00000000000E+00  0.48783440766E+02  0.49009326592E+02  0.47000000000E+01 0.  1.
          5   -1    0    0  501    0  0.00000000000E+00 -0.00000000000E+00 -0.88963797366E+03  0.88965038873E+03  0.47000000000E+01 0.  1.
         25    2    1    2    0    0 -0.12739503015E+03  0.73542434545E+02 -0.24259388293E+03  0.31002725736E+03  0.12500849924E+03 0.  0.
         25    2    1    2    0    0  0.12739503015E+03 -0.73542434545E+02 -0.59826064996E+03  0.62863245797E+03  0.12499991416E+03 0.  0.
          5    1    3    3  502    0 -0.48262442246E+02 -0.27520693266E+02 -0.34752499744E+02  0.65699909649E+02  0.47000000000E+01 0.  1.
         -5    1    3    3    0  502 -0.79132587900E+02  0.10106312781E+03 -0.20784138319E+03  0.24432734771E+03  0.47000000000E+01 0.  1.
          5    1    4    4  503    0  0.13771216893E+03 -0.23721909511E+02 -0.47639004111E+03  0.49648457350E+03  0.47000000000E+01 0.  1.
         -5    1    4    4    0  503 -0.10317138780E+02 -0.49820525034E+02 -0.12187060885E+03  0.13214788446E+03  0.47000000000E+01 0.  1.
<mgrwt>
<rscale>  0 0.19304034E+03</rscale>
<asrwt>0</asrwt>
<pdfrwt beam="2">  1        5 0.13688570E+00 0.19304173E+03</pdfrwt>
<pdfrwt beam="1">  1       -5 0.75234762E-02 0.19304173E+03</pdfrwt>
<totfact> 0.37354981E+01</totfact>
</mgrwt>
</event>
<event>
 8    1  0.1821556E-007  0.2616320E+03  0.7546771E-02  0.1106167E+00
         -5   -1    0    0    0  501 -0.00000000000E+00  0.00000000000E+00  0.90703387643E+02  0.90825076548E+02  0.47000000000E+01 0.  1.
          5   -1    0    0  501    0  0.00000000000E+00 -0.00000000000E+00 -0.75685417424E+03  0.75686876740E+03  0.47000000000E+01 0.  1.
         25    2    1    2    0    0 -0.22955506209E+03  0.11382921153E+02 -0.35894318536E+03  0.44417508264E+03  0.12500478510E+03 0.  0.
         25    2    1    2    0    0  0.22955506209E+03 -0.11382921153E+02 -0.30720760124E+03  0.40351876131E+03  0.12500313215E+03 0.  0.
          5    1    4    4  502    0  0.10816893953E+03 -0.39205031893E+02 -0.22918650933E+03  0.25648801154E+03  0.47000000000E+01 0. -1.
         -5    1    4    4    0  502  0.12138612255E+03  0.27822110741E+02 -0.78021091906E+02  0.14703074977E+03  0.47000000000E+01 0. -1.
          5    1    3    3  503    0 -0.16206778509E+03 -0.34821744683E+02 -0.30157231167E+03  0.34416052945E+03  0.47000000000E+01 0. -1.
         -5    1    3    3    0  503 -0.67487276994E+02  0.46204665835E+02 -0.57370873692E+02  0.10001455319E+03  0.47000000000E+01 0. -1.
<mgrwt>
<rscale>  0 0.26163178E+03</rscale>
<asrwt>0</asrwt>
<pdfrwt beam="2">  1        5 0.11644958E+00 0.26163198E+03</pdfrwt>
<pdfrwt beam="1">  1       -5 0.13964851E-01 0.26163198E+03</pdfrwt>
<totfact> 0.20529611E+01</totfact>
</mgrwt>
</event>
<event>
 8    1  0.1821556E-007  0.1406046E+03  0.7546771E-02  0.1212519E+00
         -5   -1    0    0    0  501 -0.00000000000E+00  0.00000000000E+00  0.11773375256E+02  0.12676843649E+02  0.47000000000E+01 0. -1.
          5   -1    0    0  501    0  0.00000000000E+00 -0.00000000000E+00 -0.17069563069E+04  0.17069627775E+04  0.47000000000E+01 0. -1.
         25    2    1    2    0    0  0.61078677504E+02 -0.20346437617E+02 -0.64937414718E+03  0.66442131574E+03  0.12499727762E+03 0.  0.
         25    2    1    2    0    0 -0.61078677504E+02  0.20346437617E+02 -0.10458087845E+04  0.10552183054E+04  0.12500030391E+03 0.  0.
          5    1    3    3  502    0  0.19683638836E+02  0.34632624537E+02 -0.47807464060E+03  0.47975443333E+03  0.47000000000E+01 0.  1.
         -5    1    3    3    0  502  0.41395038669E+02 -0.54979062155E+02 -0.17129950658E+03  0.18466688241E+03  0.47000000000E+01 0.  1.
          5    1    4    4  503    0 -0.75291764923E+02 -0.25194959951E+02 -0.41248967082E+03  0.42008743662E+03  0.47000000000E+01 0. -1.
         -5    1    4    4    0  503  0.14213087418E+02  0.45541397568E+02 -0.63331911364E+03  0.63513086876E+03  0.47000000000E+01 0. -1.
<mgrwt>
<rscale>  0 0.14060394E+03</rscale>
<asrwt>0</asrwt>
<pdfrwt beam="2">  1        5 0.26267847E+00 0.14060462E+03</pdfrwt>
<pdfrwt beam="1">  1       -5 0.18812852E-02 0.14060462E+03</pdfrwt>
<totfact> 0.44251794E+01</totfact>
</mgrwt>
</event>
<event>
 8    1  0.1821556E-007  0.1491987E+03  0.7546771E-02  0.1201462E+00
         -5   -1    0    0    0  501 -0.00000000000E+00  0.00000000000E+00  0.67613155124E+02  0.67776314047E+02  0.47000000000E+01 0.  1.
          5   -1    0    0  501    0  0.00000000000E+00 -0.00000000000E+00 -0.39667755024E+03  0.39670539303E+03  0.47000000000E+01 0.  1.
         25    2    1    2    0    0 -0.67736399746E+02  0.45245338727E+02 -0.68378708145E+02  0.16411977627E+03  0.12499717081E+03 0.  0.
         25    2    1    2    0    0  0.67736399746E+02 -0.45245338727E+02 -0.26068568697E+03  0.30036193081E+03  0.12499960625E+03 0.  0.
          5    1    3    3  502    0 -0.92924582964E+02  0.60497860777E+01 -0.71036013059E+02  0.11721682124E+03  0.47000000000E+01 0. -1.
         -5    1    3    3    0  502  0.25188183218E+02  0.39195552649E+02  0.26573049138E+01  0.46902955032E+02  0.47000000000E+01 0. -1.
          5    1    4    4  503    0  0.29170788413E+02 -0.60068574560E+02 -0.44898705591E+02  0.80604914925E+02  0.47000000000E+01 0.  1.
         -5    1    4    4    0  503  0.38565611333E+02  0.14823235834E+02 -0.21578698138E+03  0.21975701588E+03  0.47000000000E+01 0.  1.
<mgrwt>
<rscale>  0 0.14919822E+03</rscale>
<asrwt>0</asrwt>
<pdfrwt beam="2">  1        5 0.61042006E-01 0.14919873E+03</pdfrwt>
<pdfrwt beam="1">  1       -5 0.10416717E-01 0.14919873E+03</pdfrwt>
<totfact> 0.13762033E+02</totfact>
</mgrwt>
</event>
<event>
 8    1  0.1821556E-007  0.1318001E+03  0.7546771E-02  0.1224809E+00
          5   -1    0    0  501    0  0.00000000000E+00  0.00000000000E+00  0.26395029807E+03  0.26399213975E+03  0.47000000000E+01 0.  1.
         -5   -1    0    0    0  501 -0.00000000000E+00 -0.00000000000E+00 -0.70127842127E+02  0.70285163736E+02  0.47000000000E+01 0.  1.
         25    2    1    2    0    0 -0.14240628656E+00 -0.41783729561E+02  0.54885411148E+02  0.14277140202E+03  0.12500145816E+03 0.  0.
         25    2    1    2    0    0  0.14240628656E+00  0.41783729561E+02  0.13893704479E+03  0.19150590147E+03  0.12500043019E+03 0.  0.
          5    1    3    3  502    0 -0.57079994111E+02 -0.47002152936E+02  0.36001259596E+02  0.82374199849E+02  0.47000000000E+01 0.  1.
         -5    1    3    3    0  502  0.56937587824E+02  0.52184233744E+01  0.18884151552E+02  0.60397202167E+02  0.47000000000E+01 0.  1.
          5    1    4    4  503    0 -0.27899599565E+02  0.77885709465E+02  0.69049003938E+02  0.10786299801E+03  0.47000000000E+01 0.  1.
         -5    1    4    4    0  503  0.28042005851E+02 -0.36101979903E+02  0.69888040857E+02  0.83642903464E+02  0.47000000000E+01 0.  1.
<mgrwt>
<rscale>  0 0.13179985E+03</rscale>
<asrwt>0</asrwt>
<pdfrwt beam="1">  1        5 0.40623059E-01 0.13180009E+03</pdfrwt>
<pdfrwt beam="2">  1       -5 0.10804219E-01 0.13180009E+03</pdfrwt>
<totfact> 0.29368289E+02</totfact>
</mgrwt>
</event>
<event>
 8    1  0.1821556E-007  0.1937408E+03  0.7546771E-02  0.1155131E+00
         -5   -1    0    0    0  501 -0.00000000000E+00  0.00000000000E+00  0.18722187475E+03  0.18728085963E+03  0.47000000000E+01 0. -1.
          5   -1    0    0  501    0  0.00000000000E+00 -0.00000000000E+00 -0.20498785367E+03  0.20504172783E+03  0.47000000000E+01 0. -1.
         25    2    1    2    0    0  0.77413132435E+02 -0.12616035580E+03  0.20566349515E+02  0.19482931334E+03  0.12500503252E+03 0.  0.
         25    2    1    2    0    0 -0.77413132435E+02  0.12616035580E+03 -0.38332328433E+02  0.19749327412E+03  0.12499998988E+03 0.  0.
          5    1    3    3  502    0 -0.72944109094E+01 -0.97334966095E+02  0.35545027193E+02  0.10398482107E+03  0.47000000000E+01 0.  1.
         -5    1    3    3    0  502  0.84707543345E+02 -0.28825389708E+02 -0.14978677678E+02  0.90844492273E+02  0.47000000000E+01 0.  1.
          5    1    4    4  503    0 -0.11429408698E+02  0.85273226760E+02  0.32707974041E+02  0.92163203889E+02  0.47000000000E+01 0. -1.
         -5    1    4    4    0  503 -0.65983723737E+02  0.40887129043E+02 -0.71040302475E+02  0.10533007023E+03  0.47000000000E+01 0. -1.
<mgrwt>
<rscale>  0 0.19373996E+03</rscale>
<asrwt>0</asrwt>
<pdfrwt beam="2">  1        5 0.31545274E-01 0.19374077E+03</pdfrwt>
<pdfrwt beam="1">  1       -5 0.28812047E-01 0.19374077E+03</pdfrwt>
<totfact> 0.89949675E+01</totfact>
</mgrwt>
</event>
<event>
 8    1  0.1821556E-007  0.1877523E+03  0.7546771E-02  0.1160505E+00
          5   -1    0    0  501    0  0.00000000000E+00  0.00000000000E+00  0.38671170718E+03  0.38674026745E+03  0.47000000000E+01 0.  1.
         -5   -1    0    0    0  501 -0.00000000000E+00 -0.00000000000E+00 -0.97286031331E+02  0.97399496365E+02  0.47000000000E+01 0.  1.
         25    2    1    2    0    0  0.68601335448E+01  0.13992611849E+03  0.83528088796E+02  0.20549170032E+03  0.12499406872E+03 0.  0.
         25    2    1    2    0    0 -0.68601335448E+01 -0.13992611849E+03  0.20589758705E+03  0.27864806349E+03  0.12499818745E+03 0.  0.
          5    1    3    3  502    0  0.33412886187E+02  0.11268464946E+03  0.10826865692E+03  0.15987008244E+03  0.47000000000E+01 0. -1.
         -5    1    3    3    0  502 -0.26552752642E+02  0.27241469031E+02 -0.24740568120E+02  0.45621617889E+02  0.47000000000E+01 0. -1.
          5    1    4    4  503    0 -0.40843837330E+02 -0.11238837934E+02  0.99296128306E+02  0.10805712204E+03  0.47000000000E+01 0. -1.
         -5    1    4    4    0  503  0.33983703786E+02 -0.12868728056E+03  0.10660145874E+03  0.17059094146E+03  0.47000000000E+01 0. -1.
<mgrwt>
<rscale>  0 0.18775162E+03</rscale>
<asrwt>0</asrwt>
<pdfrwt beam="1">  1        5 0.59505034E-01 0.18775230E+03</pdfrwt>
<pdfrwt beam="2">  1       -5 0.14978007E-01 0.18775230E+03</pdfrwt>
<totfact> 0.81524669E+01</totfact>
</mgrwt>
</event>
<event>
 8    1  0.1821556E-007  0.1470156E+03  0.7546771E-02  0.1204194E+00
         -5   -1    0    0    0  501 -0.00000000000E+00  0.00000000000E+00  0.12146012003E+03  0.12155102121E+03  0.47000000000E+01 0. -1.
          5   -1    0    0  501    0  0.00000000000E+00 -0.00000000000E+00 -0.42250928305E+03  0.42253542368E+03  0.47000000000E+01 0. -1.
         25    2    1    2    0    0 -0.67011528550E+02 -0.38698162498E+02  0.56506167668E+02  0.15748663220E+03  0.12498399737E+03 0.  0.
         25    2    1    2    0    0  0.67011528550E+02  0.38698162498E+02 -0.35755533069E+03  0.38659981269E+03  0.12500203169E+03 0.  0.
          5    1    4    4  502    0  0.96350902935E+02  0.23173091197E+01 -0.27729453560E+03  0.29360384175E+03  0.47000000000E+01 0. -1.
         -5    1    4    4    0  502 -0.29339374385E+02  0.36380853379E+02 -0.80260795086E+02  0.92995970933E+02  0.47000000000E+01 0. -1.
          5    1    3    3  503    0  0.39222958488E+01 -0.55400830106E+02 -0.12381281446E+02  0.57096606829E+02  0.47000000000E+01 0. -1.
         -5    1    3    3    0  503 -0.70933824398E+02  0.16702667608E+02  0.68887449114E+02  0.10039002537E+03  0.47000000000E+01 0. -1.
<mgrwt>
<rscale>  0 0.14701181E+03</rscale>
<asrwt>0</asrwt>
<pdfrwt beam="2">  1        5 0.65010431E-01 0.14701565E+03</pdfrwt>
<pdfrwt beam="1">  1       -5 0.18695176E-01 0.14701565E+03</pdfrwt>
<totfact> 0.41562070E+01</totfact>
</mgrwt>
</event>
<event>
 8    1  0.1821556E-007  0.1431091E+03  0.7546771E-02  0.1209207E+00
         -5   -1    0    0    0  501 -0.00000000000E+00  0.00000000000E+00  0.32511758137E+02  0.32849724765E+02  0.47000000000E+01 0.  1.
          5   -1    0    0  501    0  0.00000000000E+00 -0.00000000000E+00 -0.62786010534E+03  0.62787769659E+03  0.47000000000E+01 0.  1.
         25    2    1    2    0    0 -0.69013882729E+02  0.95355867140E+01 -0.28126323903E+03  0.31557759009E+03  0.12500544916E+03 0.  0.
         25    2    1    2    0    0  0.69013882729E+02 -0.95355867140E+01 -0.31408510818E+03  0.34514983126E+03  0.12500042968E+03 0.  0.
          5    1    3    3  502    0 -0.10494959726E+03  0.12894675809E+02 -0.22364026302E+03  0.24742220570E+03  0.47000000000E+01 0. -1.
         -5    1    3    3    0  502  0.35935714529E+02 -0.33590890946E+01 -0.57622976007E+02  0.68155384396E+02  0.47000000000E+01 0. -1.
          5    1    4    4  503    0  0.32145859446E+02 -0.25734269197E+02 -0.16168718052E+02  0.44487372749E+02  0.47000000000E+01 0.  1.
         -5    1    4    4    0  503  0.36868023283E+02  0.16198682483E+02 -0.29791639013E+03  0.30066245852E+03  0.47000000000E+01 0.  1.
<mgrwt>
<rscale>  0 0.14310797E+03</rscale>
<asrwt>0</asrwt>
<pdfrwt beam="2">  1        5 0.96621204E-01 0.14310907E+03</pdfrwt>
<pdfrwt beam="1">  1       -5 0.50291600E-02 0.14310907E+03</pdfrwt>
<totfact> 0.16347091E+02</totfact>
</mgrwt>
</event>
<event>
 8    1  0.1821556E-007  0.1365018E+03  0.7546771E-02  0.1218125E+00
         -5   -1    0    0    0  501 -0.00000000000E+00  0.00000000000E+00  0.21055516937E+02  0.21573706067E+02  0.47000000000E+01 0. -1.
          5   -1    0    0  501    0  0.00000000000E+00 -0.00000000000E+00 -0.94037882381E+03  0.94039056901E+03  0.47000000000E+01 0. -1.
         25    2    1    2    0    0 -0.53986107075E+02  0.95190039313E+01 -0.33144280888E+03  0.35845094447E+03  0.12501053092E+03 0.  0.
         25    2    1    2    0    0  0.53986107075E+02 -0.95190039313E+01 -0.58788049800E+03  0.60351333061E+03  0.12497899462E+03 0.  0.
          5    1    3    3  502    0  0.31879644953E+02 -0.26575235449E+02 -0.79578713217E+02  0.89874448531E+02  0.47000000000E+01 0. -1.
         -5    1    3    3    0  502 -0.85865752028E+02  0.36094239380E+02 -0.25186409566E+03  0.26857649594E+03  0.47000000000E+01 0. -1.
          5    1    4    4  503    0 -0.31976984436E+02  0.21237602285E+02 -0.10155155984E+03  0.10866633605E+03  0.47000000000E+01 0. -1.
         -5    1    4    4    0  503  0.85963091511E+02 -0.30756606217E+02 -0.48632893816E+03  0.49484699456E+03  0.47000000000E+01 0. -1.
<mgrwt>
<rscale>  0 0.13649459E+03</rscale>
<asrwt>0</asrwt>
<pdfrwt beam="2">  1        5 0.14471440E+00 0.13650181E+03</pdfrwt>
<pdfrwt beam="1">  1       -5 0.32800752E-02 0.13650181E+03</pdfrwt>
<totfact> 0.11627561E+02</totfact>
</mgrwt>
</event>
<event>
 8    1  0.1821556E-007  0.1341579E+03  0.7546771E-02  0.1221417E+00
          5   -1    0    0  501    0  0.00000000000E+00  0.00000000000E+00  0.11245544881E+04  0.11245643097E+04  0.47000000000E+01 0. -1.
         -5   -1    0    0    0  501 -0.00000000000E+00 -0.00000000000E+00 -0.15869991601E+02  0.16551333282E+02  0.47000000000E+01 0. -1.
         25    2    1    2    0    0 -0.32941030328E+02 -0.35893888533E+02  0.48833076850E+03  0.50642116208E+03  0.12498788432E+03 0.  0.
         25    2    1    2    0    0  0.32941030328E+02  0.35893888533E+02  0.62035372797E+03  0.63469448090E+03  0.12499941424E+03 0.  0.
          5    1    3    3  502    0 -0.39690196046E+01 -0.79023782717E+02  0.34211982599E+03  0.35118168615E+03  0.47000000000E+01 0. -1.
         -5    1    3    3    0  502 -0.28972010724E+02  0.43129894185E+02  0.14621094251E+03  0.15523947593E+03  0.47000000000E+01 0. -1.
          5    1    4    4  503    0  0.46603352969E+02  0.40972468573E+02  0.13026435073E+03  0.14436587810E+03  0.47000000000E+01 0.  1.
         -5    1    4    4    0  503 -0.13662322641E+02 -0.50785800401E+01  0.49008937724E+03  0.49032860280E+03  0.47000000000E+01 0.  1.
<mgrwt>
<rscale>  0 0.13415519E+03</rscale>
<asrwt>0</asrwt>
<pdfrwt beam="1">  1        5 0.17306156E+00 0.13415788E+03</pdfrwt>
<pdfrwt beam="2">  1       -5 0.24947034E-02 0.13415788E+03</pdfrwt>
<totfact> 0.10919403E+02</totfact>
</mgrwt>
</event>
<event>
 8    1  0.1821556E-007  0.1286180E+03  0.7546771E-02  0.1229532E+00
         -5   -1    0    0    0  501 -0.00000000000E+00  0.00000000000E+00  0.90543852971E+03  0.90545072813E+03  0.47000000000E+01 0. -1.
          5   -1    0    0  501    0  0.00000000000E+00 -0.00000000000E+00 -0.18488414218E+02  0.19076463516E+02  0.47000000000E+01 0. -1.
         25    2    1    2    0    0 -0.27673362442E+02 -0.12185831616E+02  0.52095719738E+03  0.53659240789E+03  0.12498280370E+03 0.  0.
         25    2    1    2    0    0  0.27673362442E+02  0.12185831616E+02  0.36599291811E+03  0.38793478376E+03  0.12501308277E+03 0.  0.
          5    1    3    3  502    0  0.34608195226E+02 -0.45715223707E+02  0.21976865338E+03  0.22717385383E+03  0.47000000000E+01 0.  1.
         -5    1    3    3    0  502 -0.62281557668E+02  0.33529392090E+02  0.30118854400E+03  0.30941855406E+03  0.47000000000E+01 0.  1.
          5    1    4    4  503    0  0.33305714482E+02 -0.69101517110E+01  0.36587002968E+03  0.36747787612E+03  0.47000000000E+01 0. -1.
         -5    1    4    4    0  503 -0.56323520398E+01  0.19095983327E+02  0.12288842316E+00  0.20456907643E+02  0.47000000000E+01 0. -1.
<mgrwt>
<rscale>  0 0.12861060E+03</rscale>
<asrwt>0</asrwt>
<pdfrwt beam="2">  1        5 0.28905443E-02 0.12861796E+03</pdfrwt>
<pdfrwt beam="1">  1       -5 0.13934441E+00 0.12861796E+03</pdfrwt>
<totfact> 0.15481413E+02</totfact>
</mgrwt>
</event>
<event>
 8    1  0.1821556E-007  0.1303603E+03  0.7546771E-02  0.1226922E+00
         -5   -1    0    0    0  501 -0.00000000000E+00  0.00000000000E+00  0.22754009437E+03  0.22758863009E+03  0.47000000000E+01 0.  1.
          5   -1    0    0  501    0  0.00000000000E+00 -0.00000000000E+00 -0.78846071081E+02  0.78986029935E+02  0.47000000000E+01 0.  1.
         25    2    1    2    0    0  0.16050302601E+02 -0.33332755946E+02  0.11006776027E+03  0.17061215838E+03  0.12499964761E+03 0.  0.
         25    2    1    2    0    0 -0.16050302601E+02  0.33332755946E+02  0.38626263016E+02  0.13596250164E+03  0.12500051530E+03 0.  0.
          5    1    3    3  502    0  0.47591790545E+02  0.14879787338E+02  0.10013233949E+03  0.11195964456E+03  0.47000000000E+01 0. -1.
         -5    1    3    3    0  502 -0.31541487944E+02 -0.48212543284E+02  0.99354207849E+01  0.58652513823E+02  0.47000000000E+01 0. -1.
          5    1    4    4  503    0 -0.28768901135E+02  0.68887476642E+02  0.56674523226E+02  0.93846820370E+02  0.47000000000E+01 0.  1.
         -5    1    4    4    0  503  0.12718598534E+02 -0.35554720696E+02 -0.18048260210E+02  0.42115681272E+02  0.47000000000E+01 0.  1.
<mgrwt>
<rscale>  0 0.13036011E+03</rscale>
<asrwt>0</asrwt>
<pdfrwt beam="2">  1        5 0.12144664E-01 0.13036032E+03</pdfrwt>
<pdfrwt beam="1">  1       -5 0.35020668E-01 0.13036032E+03</pdfrwt>
<totfact> 0.32142377E+02</totfact>
</mgrwt>
</event>
<event>
 8    1  0.1821556E-007  0.1321820E+03  0.7546771E-02  0.1224256E+00
         -5   -1    0    0    0  501 -0.00000000000E+00  0.00000000000E+00  0.20025556203E+02  0.20569708342E+02  0.47000000000E+01 0. -1.
          5   -1    0    0  501    0  0.00000000000E+00 -0.00000000000E+00 -0.13870587044E+04  0.13870666673E+04  0.47000000000E+01 0. -1.
         25    2    1    2    0    0  0.11094520454E+02 -0.41516733899E+02 -0.24984306109E+03  0.28265460931E+03  0.12500138164E+03 0.  0.
         25    2    1    2    0    0 -0.11094520454E+02  0.41516733899E+02 -0.11171900871E+04  0.11249817663E+04  0.12499422468E+03 0.  0.
          5    1    4    4  502    0 -0.33241195121E+02  0.53805460841E+02 -0.26802423649E+03  0.27542528209E+03  0.47000000000E+01 0. -1.
         -5    1    4    4    0  502  0.22146674666E+02 -0.12288726942E+02 -0.84916585063E+03  0.84955648422E+03  0.47000000000E+01 0. -1.
          5    1    3    3  503    0  0.59843238251E+02 -0.46260305184E+02 -0.19372219510E+03  0.20801828736E+03  0.47000000000E+01 0. -1.
         -5    1    3    3    0  503 -0.48748717797E+02  0.47435712847E+01 -0.56120865990E+02  0.74636321954E+02  0.47000000000E+01 0. -1.
<mgrwt>
<rscale>  0 0.13218028E+03</rscale>
<asrwt>0</asrwt>
<pdfrwt beam="2">  1        5 0.21343604E+00 0.13218197E+03</pdfrwt>
<pdfrwt beam="1">  1       -5 0.31233263E-02 0.13218197E+03</pdfrwt>
<totfact> 0.39983255E+01</totfact>
</mgrwt>
</event>
<event>
 8    1  0.1821556E-007  0.1332431E+03  0.7546771E-02  0.1222722E+00
          5   -1    0    0  501    0  0.00000000000E+00  0.00000000000E+00  0.24179492793E+02  0.24632049686E+02  0.47000000000E+01 0.  1.
         -5   -1    0    0    0  501 -0.00000000000E+00 -0.00000000000E+00 -0.74248885062E+03  0.74250372611E+03  0.47000000000E+01 0.  1.
         25    2    1    2    0    0 -0.34817384873E+02 -0.30267578882E+02 -0.41459750348E+03  0.43548227291E+03  0.12500137400E+03 0.  0.
         25    2    1    2    0    0  0.34817384873E+02  0.30267578882E+02 -0.30371185434E+03  0.33165350289E+03  0.12499911556E+03 0.  0.
          5    1    3    3  502    0  0.18428241597E+02  0.10783785453E+02 -0.31176957191E+03  0.31253519176E+03  0.47000000000E+01 0. -1.
         -5    1    3    3    0  502 -0.53245626469E+02 -0.41051364334E+02 -0.10282793157E+03  0.12294708115E+03  0.47000000000E+01 0. -1.
          5    1    4    4  503    0  0.62196007504E+02 -0.68312694168E+01 -0.72677095322E+02  0.96015935010E+02  0.47000000000E+01 0.  1.
         -5    1    4    4    0  503 -0.27378622631E+02  0.37098848298E+02 -0.23103475902E+03  0.23563756788E+03  0.47000000000E+01 0.  1.
<mgrwt>
<rscale>  0 0.13324256E+03</rscale>
<asrwt>0</asrwt>
<pdfrwt beam="1">  1        5 0.37558789E-02 0.13324309E+03</pdfrwt>
<pdfrwt beam="2">  1       -5 0.11426499E+00 0.13324309E+03</pdfrwt>
<totfact> 0.17093781E+02</totfact>
</mgrwt>
</event>
<event>
 8    1  0.1821556E-007  0.1484482E+03  0.7546771E-02  0.1202393E+00
          5   -1    0    0  501    0  0.00000000000E+00  0.00000000000E+00  0.15274566031E+03  0.15281795294E+03  0.47000000000E+01 0.  1.
         -5   -1    0    0    0  501 -0.00000000000E+00 -0.00000000000E+00 -0.15719331266E+03  0.15726356077E+03  0.47000000000E+01 0.  1.
         25    2    1    2    0    0 -0.69317634550E+02 -0.40078161232E+02 -0.46903922778E+02  0.15568140509E+03  0.12500211379E+03 0.  0.
         25    2    1    2    0    0  0.69317634550E+02  0.40078161232E+02  0.42456270419E+02  0.15440010863E+03  0.12500266068E+03 0.  0.
          5    1    4    4  502    0  0.94189571163E+02  0.54985120472E+01  0.55551575781E+02  0.10959003843E+03  0.47000000000E+01 0.  1.
         -5    1    4    4    0  502 -0.24871936613E+02  0.34579649185E+02 -0.13095305362E+02  0.44810070198E+02  0.47000000000E+01 0.  1.
          5    1    3    3  503    0  0.32567027001E+02 -0.22863878816E+02  0.42410688220E+01  0.40291995073E+02  0.47000000000E+01 0.  1.
         -5    1    3    3    0  503 -0.10188466155E+03 -0.17214282416E+02 -0.51144991600E+02  0.11538941002E+03  0.47000000000E+01 0.  1.
<mgrwt>
<rscale>  0 0.14844805E+03</rscale>
<asrwt>0</asrwt>
<pdfrwt beam="1">  1        5 0.23510297E-01 0.14844817E+03</pdfrwt>
<pdfrwt beam="2">  1       -5 0.24194551E-01 0.14844817E+03</pdfrwt>
<totfact> 0.20610699E+02</totfact>
</mgrwt>
</event>
<event>
 8    1  0.1821556E-007  0.1270674E+03  0.7546771E-02  0.1231876E+00
          5   -1    0    0  501    0  0.00000000000E+00  0.00000000000E+00  0.29380075375E+02  0.29753635560E+02  0.47000000000E+01 0.  1.
         -5   -1    0    0    0  501 -0.00000000000E+00 -0.00000000000E+00 -0.60404083579E+03  0.60405912071E+03  0.47000000000E+01 0.  1.
         25    2    1    2    0    0 -0.22814452129E+02  0.10183623438E+01 -0.38581266945E+03  0.40619889642E+03  0.12499836501E+03 0.  0.
         25    2    1    2    0    0  0.22814452129E+02 -0.10183623438E+01 -0.18884809096E+03  0.22761385984E+03  0.12499172550E+03 0.  0.
          5    1    3    3  502    0 -0.68227060318E+02  0.25272925767E+02 -0.26369948142E+03  0.27359305371E+03  0.47000000000E+01 0. -1.
         -5    1    3    3    0  502  0.45412608189E+02 -0.24254563424E+02 -0.12211318803E+03  0.13260584271E+03  0.47000000000E+01 0. -1.
          5    1    4    4  503    0  0.33523822754E+02 -0.22972786401E+02 -0.40069964000E+01  0.41106466976E+02  0.47000000000E+01 0.  1.
         -5    1    4    4    0  503 -0.10709370625E+02  0.21954424057E+02 -0.18484109456E+03  0.18650739287E+03  0.47000000000E+01 0.  1.
<mgrwt>
<rscale>  0 0.12706578E+03</rscale>
<asrwt>0</asrwt>
<pdfrwt beam="1">  1        5 0.45501540E-02 0.12706741E+03</pdfrwt>
<pdfrwt beam="2">  1       -5 0.92959492E-01 0.12706741E+03</pdfrwt>
<totfact> 0.20339401E+02</totfact>
</mgrwt>
</event>
<event>
 8    1  0.1821556E-007  0.1304508E+03  0.7546771E-02  0.1226789E+00
          5   -1    0    0  501    0  0.00000000000E+00  0.00000000000E+00  0.20200330291E+03  0.20205797284E+03  0.47000000000E+01 0.  1.
         -5   -1    0    0    0  501 -0.00000000000E+00 -0.00000000000E+00 -0.94563540263E+02  0.94680267992E+02  0.47000000000E+01 0.  1.
         25    2    1    2    0    0  0.37001427168E+02  0.48081770528E+01  0.44360689428E+01  0.13052620174E+03  0.12500074581E+03 0.  0.
         25    2    1    2    0    0 -0.37001427168E+02 -0.48081770528E+01  0.10300369371E+03  0.16621203909E+03  0.12499782735E+03 0.  0.
          5    1    3    3  502    0 -0.25797833797E+02 -0.43680001389E+02  0.48708564560E+00  0.50948974497E+02  0.47000000000E+01 0.  1.
         -5    1    3    3    0  502  0.62799260964E+02  0.48488178441E+02  0.39489832972E+01  0.79577227241E+02  0.47000000000E+01 0.  1.
          5    1    4    4  503    0 -0.50220031232E+01  0.19454100328E+02 -0.24746898845E+02  0.32220824592E+02  0.47000000000E+01 0.  1.
         -5    1    4    4    0  503 -0.31979424044E+02 -0.24262277381E+02  0.12775059255E+03  0.13399121450E+03  0.47000000000E+01 0.  1.
<mgrwt>
<rscale>  0 0.13045010E+03</rscale>
<asrwt>0</asrwt>
<pdfrwt beam="1">  1        5 0.31090615E-01 0.13045080E+03</pdfrwt>
<pdfrwt beam="2">  1       -5 0.14561422E-01 0.13045080E+03</pdfrwt>
<totfact> 0.29441222E+02</totfact>
</mgrwt>
</event>
<event>
 8    1  0.1821556E-007  0.1274700E+03  0.7546771E-02  0.1231261E+00
          5   -1    0    0  501    0  0.00000000000E+00  0.00000000000E+00  0.54391974556E+03  0.54394005149E+03  0.47000000000E+01 0. -1.
         -5   -1    0    0    0  501 -0.00000000000E+00 -0.00000000000E+00 -0.62654079104E+02  0.62830117208E+02  0.47000000000E+01 0. -1.
         25    2    1    2    0    0  0.14555935006E+02 -0.20232721837E+02  0.21003015152E+02  0.12918215200E+03  0.12500265387E+03 0.  0.
         25    2    1    2    0    0 -0.14555935006E+02  0.20232721837E+02  0.46026265131E+03  0.47758801669E+03  0.12500946854E+03 0.  0.
          5    1    4    4  502    0  0.53646290805E+02  0.13685179734E+02  0.26018664043E+03  0.26605335277E+03  0.47000000000E+01 0.  1.
         -5    1    4    4    0  502 -0.68202225810E+02  0.65475421031E+01  0.20007601088E+03  0.21153466392E+03  0.47000000000E+01 0.  1.
          5    1    3    3  503    0  0.26871552779E+02  0.16244012440E+02  0.63898652424E+02  0.71351776926E+02  0.47000000000E+01 0.  1.
         -5    1    3    3    0  503 -0.12315617773E+02 -0.36476734277E+02 -0.42895637272E+02  0.57830375078E+02  0.47000000000E+01 0.  1.
<mgrwt>
<rscale>  0 0.12746835E+03</rscale>
<asrwt>0</asrwt>
<pdfrwt beam="1">  1        5 0.83695061E-01 0.12747002E+03</pdfrwt>
<pdfrwt beam="2">  1       -5 0.96541928E-02 0.12747002E+03</pdfrwt>
<totfact> 0.73104835E+01</totfact>
</mgrwt>
</event>
<event>
 8    1  0.1821556E-007  0.1274325E+03  0.7546771E-02  0.1231317E+00
         -5   -1    0    0    0  501 -0.00000000000E+00  0.00000000000E+00  0.23096198517E+03  0.23100980194E+03  0.47000000000E+01 0. -1.
          5   -1    0    0  501    0  0.00000000000E+00 -0.00000000000E+00 -0.70531544443E+02  0.70687967586E+02  0.47000000000E+01 0. -1.
         25    2    1    2    0    0 -0.54623651849E+01 -0.24164754795E+02  0.90916301932E+02  0.15654016547E+03  0.12500110656E+03 0.  0.
         25    2    1    2    0    0  0.54623651849E+01  0.24164754795E+02  0.69514138793E+02  0.14515760406E+03  0.12499896686E+03 0.  0.
          5    1    4    4  502    0  0.30493917741E+02  0.67002171834E+02  0.23744171479E+02  0.77492230119E+02  0.47000000000E+01 0. -1.
         -5    1    4    4    0  502 -0.25031552556E+02 -0.42837417040E+02  0.45769967314E+02  0.67665373936E+02  0.47000000000E+01 0. -1.
          5    1    3    3  503    0  0.39148736619E+01  0.39671518403E+02  0.81919506008E+02  0.91225276502E+02  0.47000000000E+01 0.  1.
         -5    1    3    3    0  503 -0.93772388468E+01 -0.63836273198E+02  0.89967959232E+01  0.65314888969E+02  0.47000000000E+01 0.  1.
<mgrwt>
<rscale>  0 0.12743200E+03</rscale>
<asrwt>0</asrwt>
<pdfrwt beam="2">  1        5 0.10866718E-01 0.12743253E+03</pdfrwt>
<pdfrwt beam="1">  1       -5 0.35548323E-01 0.12743253E+03</pdfrwt>
<totfact> 0.37635042E+02</totfact>
</mgrwt>
</event>
<event>
 8    1  0.1821556E-007  0.1296960E+03  0.7546771E-02  0.1227909E+00
         -5   -1    0    0    0  501 -0.00000000000E+00  0.00000000000E+00  0.26971795670E+02  0.27378235181E+02  0.47000000000E+01 0. -1.
          5   -1    0    0  501    0  0.00000000000E+00 -0.00000000000E+00 -0.63159257601E+03  0.63161006331E+03  0.47000000000E+01 0. -1.
         25    2    1    2    0    0  0.34526332307E+02  0.15929463415E+01 -0.25497148209E+03  0.28605976094E+03  0.12500050021E+03 0.  0.
         25    2    1    2    0    0 -0.34526332307E+02 -0.15929463415E+01 -0.34964929825E+03  0.37292853755E+03  0.12500582885E+03 0.  0.
          5    1    3    3  502    0  0.41249187960E+02 -0.25802246217E+02 -0.26107510298E+02  0.55416094334E+02  0.47000000000E+01 0.  1.
         -5    1    3    3    0  502 -0.67228556532E+01  0.27395192559E+02 -0.22886397179E+03  0.23064366661E+03  0.47000000000E+01 0.  1.
          5    1    4    4  503    0  0.44716401778E+02  0.97324080054E+01 -0.88453301987E+02  0.99701318878E+02  0.47000000000E+01 0.  1.
         -5    1    4    4    0  503 -0.79242734085E+02 -0.11325354347E+02 -0.26119599627E+03  0.27322721867E+03  0.47000000000E+01 0.  1.
<mgrwt>
<rscale>  0 0.12969475E+03</rscale>
<asrwt>0</asrwt>
<pdfrwt beam="2">  1        5 0.97200687E-01 0.12969604E+03</pdfrwt>
<pdfrwt beam="1">  1       -5 0.41821173E-02 0.12969604E+03</pdfrwt>
<totfact> 0.21149855E+02</totfact>
</mgrwt>
</event>
<event>
 8    1  0.1821556E-007  0.1283246E+03  0.7546771E-02  0.1229965E+00
          5   -1    0    0  501    0  0.00000000000E+00  0.00000000000E+00  0.32094083735E+03  0.32097524995E+03  0.47000000000E+01 0.  1.
         -5   -1    0    0    0  501 -0.00000000000E+00 -0.00000000000E+00 -0.54082736898E+02  0.54286576890E+02  0.47000000000E+01 0.  1.
         25    2    1    2    0    0  0.28369292215E+02 -0.60802621323E+01  0.89922873071E+02  0.15669082364E+03  0.12499641908E+03 0.  0.
         25    2    1    2    0    0 -0.28369292215E+02  0.60802621323E+01  0.17693522738E+03  0.21857100320E+03  0.12500168968E+03 0.  0.
          5    1    3    3  502    0 -0.31316305063E+02  0.31685088151E+02  0.70083183366E+02  0.83176910045E+02  0.47000000000E+01 0.  1.
         -5    1    3    3    0  502  0.59685597278E+02 -0.37765350283E+02  0.19839689705E+02  0.73513913595E+02  0.47000000000E+01 0.  1.
          5    1    4    4  503    0 -0.65896075575E+02  0.30976929442E+01  0.41862262925E+02  0.78271498868E+02  0.47000000000E+01 0. -1.
         -5    1    4    4    0  503  0.37526783360E+02  0.29825691881E+01  0.13507296446E+03  0.14029950433E+03  0.47000000000E+01 0. -1.
<mgrwt>
<rscale>  0 0.12832334E+03</rscale>
<asrwt>0</asrwt>
<pdfrwt beam="1">  1        5 0.49393841E-01 0.12832462E+03</pdfrwt>
<pdfrwt beam="2">  1       -5 0.83387481E-02 0.12832462E+03</pdfrwt>
<totfact> 0.30365875E+02</totfact>
</mgrwt>
</event>
<event>
 8    1  0.1821556E-007  0.1620669E+03  0.7546771E-02  0.1186384E+00
         -5   -1    0    0    0  501 -0.00000000000E+00  0.00000000000E+00  0.18229057222E+02  0.18825209885E+02  0.47000000000E+01 0.  1.
          5   -1    0    0  501    0  0.00000000000E+00 -0.00000000000E+00 -0.15652329621E+04  0.15652400186E+04  0.47000000000E+01 0.  1.
         25    2    1    2    0    0  0.38226848405E+02 -0.95804208003E+02 -0.52985702489E+03  0.55408857433E+03  0.12500377262E+03 0.  0.
         25    2    1    2    0    0 -0.38226848405E+02  0.95804208003E+02 -0.10171468800E+04  0.10299766541E+04  0.12499757719E+03 0.  0.
          5    1    3    3  502    0  0.48053154183E+02  0.91526206176E+01 -0.99366780084E+02  0.11085451310E+03  0.47000000000E+01 0.  1.
         -5    1    3    3    0  502 -0.98263057784E+01 -0.10495682862E+03 -0.43049024480E+03  0.44323406122E+03  0.47000000000E+01 0.  1.
          5    1    4    4  503    0 -0.40368931838E+02 -0.20554436851E+02 -0.27510949697E+03  0.27885383421E+03  0.47000000000E+01 0.  1.
         -5    1    4    4    0  503  0.21420834333E+01  0.11635864485E+03 -0.74203738306E+03  0.75112281992E+03  0.47000000000E+01 0.  1.
<mgrwt>
<rscale>  0 0.16206571E+03</rscale>
<asrwt>0</asrwt>
<pdfrwt beam="2">  1        5 0.24085137E+00 0.16206690E+03</pdfrwt>
<pdfrwt beam="1">  1       -5 0.28508723E-02 0.16206690E+03</pdfrwt>
<totfact> 0.32485578E+01</totfact>
</mgrwt>
</event>
<event>
 8    1  0.1821556E-007  0.1328815E+03  0.7546771E-02  0.1223244E+00
          5   -1    0    0  501    0  0.00000000000E+00  0.00000000000E+00  0.76347162099E+02  0.76491693409E+02  0.47000000000E+01 0.  1.
         -5   -1    0    0    0  501 -0.00000000000E+00 -0.00000000000E+00 -0.23998928700E+03  0.24003530547E+03  0.47000000000E+01 0.  1.
         25    2    1    2    0    0  0.24990526837E+02 -0.37526244324E+02 -0.11263968737E+03  0.17419874587E+03  0.12499903378E+03 0.  0.
         25    2    1    2    0    0 -0.24990526837E+02  0.37526244324E+02 -0.51002437525E+02  0.14232825301E+03  0.12499334993E+03 0.  0.
          5    1    4    4  502    0  0.47997383148E+02  0.27506557938E+02 -0.38230505379E+02  0.67409354396E+02  0.47000000000E+01 0.  1.
         -5    1    4    4    0  502 -0.72987909985E+02  0.10019686386E+02 -0.12771932146E+02  0.74918898617E+02  0.47000000000E+01 0.  1.
          5    1    3    3  503    0 -0.22997070017E+02  0.13791092935E+02  0.13002555066E+02  0.30169784752E+02  0.47000000000E+01 0.  1.
         -5    1    3    3    0  503  0.47987596854E+02 -0.51317337260E+02 -0.12564224244E+03  0.14402896112E+03  0.47000000000E+01 0.  1.
<mgrwt>
<rscale>  0 0.13288020E+03</rscale>
<asrwt>0</asrwt>
<pdfrwt beam="1">  1        5 0.11760375E-01 0.13288154E+03</pdfrwt>
<pdfrwt beam="2">  1       -5 0.36936086E-01 0.13288154E+03</pdfrwt>
<totfact> 0.30782408E+02</totfact>
</mgrwt>
</event>
<event>
 8    1  0.1821556E-007  0.1345083E+03  0.7546771E-02  0.1220921E+00
          5   -1    0    0  501    0  0.00000000000E+00  0.00000000000E+00  0.27023383786E+03  0.27027470678E+03  0.47000000000E+01 0. -1.
         -5   -1    0    0    0  501 -0.00000000000E+00 -0.00000000000E+00 -0.69407882907E+02  0.69566832683E+02  0.47000000000E+01 0. -1.
         25    2    1    2    0    0  0.47720604139E+02 -0.13707786858E+02  0.67625420891E+02  0.15055126310E+03  0.12500930281E+03 0.  0.
         25    2    1    2    0    0 -0.47720604139E+02  0.13707786858E+02  0.13320053406E+03  0.18929027636E+03  0.12499306769E+03 0.  0.
          5    1    4    4  502    0  0.99785836918E+01 -0.47155740307E+02  0.65196955866E+02  0.81215571356E+02  0.47000000000E+01 0. -1.
         -5    1    4    4    0  502 -0.57699187831E+02  0.60863527164E+02  0.68003578197E+02  0.10807470501E+03  0.47000000000E+01 0. -1.
          5    1    3    3  503    0  0.78272628192E+02  0.15171195274E+02  0.12149245838E+02  0.80786531455E+02  0.47000000000E+01 0. -1.
         -5    1    3    3    0  503 -0.30552024054E+02 -0.28878982132E+02  0.55476175053E+02  0.69764731644E+02  0.47000000000E+01 0. -1.
<mgrwt>
<rscale>  0 0.13450454E+03</rscale>
<asrwt>0</asrwt>
<pdfrwt beam="1">  1        5 0.41589807E-01 0.13450831E+03</pdfrwt>
<pdfrwt beam="2">  1       -5 0.10693507E-01 0.13450831E+03</pdfrwt>
<totfact> 0.28697363E+02</totfact>
</mgrwt>
</event>
<event>
 8    1  0.1821556E-007  0.1365588E+03  0.7546771E-02  0.1218036E+00
         -5   -1    0    0    0  501 -0.00000000000E+00  0.00000000000E+00  0.44692956770E+02  0.44939407927E+02  0.47000000000E+01 0. -1.
          5   -1    0    0  501    0  0.00000000000E+00 -0.00000000000E+00 -0.42005860982E+03  0.42008490295E+03  0.47000000000E+01 0. -1.
         25    2    1    2    0    0 -0.39374082295E+02  0.38373465508E+02 -0.16439909715E+03  0.21371796583E+03  0.12500185824E+03 0.  0.
         25    2    1    2    0    0  0.39374082295E+02 -0.38373465508E+02 -0.21096655590E+03  0.25130634504E+03  0.12500060055E+03 0.  0.
          5    1    3    3  502    0  0.15331766993E+02  0.70013981173E+02 -0.10225536570E+03  0.12496107575E+03  0.47000000000E+01 0. -1.
         -5    1    3    3    0  502 -0.54705849288E+02 -0.31640515665E+02 -0.62143731453E+02  0.88756890081E+02  0.47000000000E+01 0. -1.
          5    1    4    4  503    0  0.10989409424E+02  0.10107419466E+02 -0.19078725921E+03  0.19142830335E+03  0.47000000000E+01 0. -1.
         -5    1    4    4    0  503  0.28384672870E+02 -0.48480884974E+02 -0.20179296693E+02  0.59878041692E+02  0.47000000000E+01 0. -1.
<mgrwt>
<rscale>  0 0.13655851E+03</rscale>
<asrwt>0</asrwt>
<pdfrwt beam="2">  1        5 0.64645379E-01 0.13655880E+03</pdfrwt>
<pdfrwt beam="1">  1       -5 0.68968201E-02 0.13655880E+03</pdfrwt>
<totfact> 0.23972956E+02</totfact>
</mgrwt>
</event>
<event>
 8    1  0.1821556E-007  0.1286760E+03  0.7546771E-02  0.1229436E+00
         -5   -1    0    0    0  501 -0.00000000000E+00  0.00000000000E+00  0.12244763650E+04  0.12244853851E+04  0.47000000000E+01 0. -1.
          5   -1    0    0  501    0  0.00000000000E+00 -0.00000000000E+00 -0.13109595781E+02  0.13926647175E+02  0.47000000000E+01 0. -1.
         25    2    1    2    0    0  0.23957891255E+02  0.18924740332E+02  0.61828962791E+03  0.63153641173E+03  0.12499619596E+03 0.  0.
         25    2    1    2    0    0 -0.23957891255E+02 -0.18924740332E+02  0.59307714130E+03  0.60687562059E+03  0.12500158792E+03 0.  0.
          5    1    4    4  502    0 -0.60753511321E+02 -0.41643804571E+02  0.23900036168E+03  0.25013687949E+03  0.47000000000E+01 0.  1.
         -5    1    4    4    0  502  0.36795620066E+02  0.22719064239E+02  0.35407677962E+03  0.35673874110E+03  0.47000000000E+01 0.  1.
          5    1    3    3  503    0 -0.56493038746E+01 -0.25611151911E+02  0.27421704435E+02  0.38234612730E+02  0.47000000000E+01 0. -1.
         -5    1    3    3    0  503  0.29607195130E+02  0.44535892243E+02  0.59086792348E+03  0.59330179900E+03  0.47000000000E+01 0. -1.
<mgrwt>
<rscale>  0 0.12867473E+03</rscale>
<asrwt>0</asrwt>
<pdfrwt beam="2">  1        5 0.20804042E-02 0.12867604E+03</pdfrwt>
<pdfrwt beam="1">  1       -5 0.18844458E+00 0.12867604E+03</pdfrwt>
<totfact> 0.11197776E+02</totfact>
</mgrwt>
</event>
<event>
 8    1  0.1821556E-007  0.1427598E+03  0.7546771E-02  0.1209663E+00
          5   -1    0    0  501    0  0.00000000000E+00  0.00000000000E+00  0.82085484097E+03  0.82086829635E+03  0.47000000000E+01 0. -1.
         -5   -1    0    0    0  501 -0.00000000000E+00 -0.00000000000E+00 -0.24628285475E+02  0.25072743078E+02  0.47000000000E+01 0. -1.
         25    2    1    2    0    0  0.57941780693E+02 -0.37390320684E+02  0.38200884725E+03  0.40781258639E+03  0.12500024083E+03 0.  0.
         25    2    1    2    0    0 -0.57941780693E+02  0.37390320684E+02  0.41421770825E+03  0.43812845304E+03  0.12499978202E+03 0.  0.
          5    1    4    4  502    0  0.14723294180E+02  0.18952279123E+02  0.90803441536E+01  0.26086527661E+02  0.47000000000E+01 0. -1.
         -5    1    4    4    0  502 -0.72665074873E+02  0.18438041560E+02  0.40513736409E+03  0.41204192538E+03  0.47000000000E+01 0. -1.
          5    1    3    3  503    0 -0.39136091746E+02 -0.16639291523E+02  0.13262887875E+03  0.13935928092E+03  0.47000000000E+01 0. -1.
         -5    1    3    3    0  503  0.97077872439E+02 -0.20751029161E+02  0.24937996850E+03  0.26845330547E+03  0.47000000000E+01 0. -1.
<mgrwt>
<rscale>  0 0.14275965E+03</rscale>
<asrwt>0</asrwt>
<pdfrwt beam="1">  1        5 0.12632057E+00 0.14275975E+03</pdfrwt>
<pdfrwt beam="2">  1       -5 0.38241914E-02 0.14275975E+03</pdfrwt>
<totfact> 0.13143143E+02</totfact>
</mgrwt>
</event>
<event>
 8    1  0.1821556E-007  0.1408668E+03  0.7546771E-02  0.1212170E+00
         -5   -1    0    0    0  501 -0.00000000000E+00  0.00000000000E+00  0.39495691993E+02  0.39774359656E+02  0.47000000000E+01 0.  1.
          5   -1    0    0  501    0  0.00000000000E+00 -0.00000000000E+00 -0.62502570484E+03  0.62504337587E+03  0.47000000000E+01 0.  1.
         25    2    1    2    0    0  0.62796333358E+02 -0.16568862788E+02 -0.14432492069E+03  0.20167046492E+03  0.12499354779E+03 0.  0.
         25    2    1    2    0    0 -0.62796333358E+02  0.16568862788E+02 -0.44120509216E+03  0.46314727061E+03  0.12500221689E+03 0.  0.
          5    1    3    3  502    0  0.70332480290E+02 -0.38476988944E+02 -0.31286026454E+02  0.86186088861E+02  0.47000000000E+01 0.  1.
         -5    1    3    3    0  502 -0.75361469316E+01  0.21908126156E+02 -0.11303889424E+03  0.11548437606E+03  0.47000000000E+01 0.  1.
          5    1    4    4  503    0  0.37375589178E+01  0.83618740197E+01  0.53237290840E+01  0.11589753023E+02  0.47000000000E+01 0. -1.
         -5    1    4    4    0  503 -0.66533892276E+02  0.82069887683E+01 -0.44652882124E+03  0.45155751758E+03  0.47000000000E+01 0. -1.
<mgrwt>
<rscale>  0 0.14086490E+03</rscale>
<asrwt>0</asrwt>
<pdfrwt beam="2">  1        5 0.96180589E-01 0.14086682E+03</pdfrwt>
<pdfrwt beam="1">  1       -5 0.60990560E-02 0.14086682E+03</pdfrwt>
<totfact> 0.11910077E+02</totfact>
</mgrwt>
</event>
<event>
 8    1  0.1821556E-007  0.1468458E+03  0.7546771E-02  0.1204406E+00
         -5   -1    0    0    0  501 -0.00000000000E+00  0.00000000000E+00  0.43802406962E+03  0.43804928441E+03  0.47000000000E+01 0.  1.
          5   -1    0    0  501    0  0.00000000000E+00 -0.00000000000E+00 -0.55842369256E+02  0.56039809101E+02  0.47000000000E+01 0.  1.
         25    2    1    2    0    0 -0.57410242233E+02 -0.51392187458E+02  0.27682630170E+03  0.31335874169E+03  0.12499522724E+03 0.  0.
         25    2    1    2    0    0  0.57410242233E+02  0.51392187458E+02  0.10535539866E+03  0.18073035182E+03  0.12500642862E+03 0.  0.
          5    1    4    4  502    0  0.50881431467E+02 -0.33688436074E+02  0.39553493791E+02  0.72872489077E+02  0.47000000000E+01 0. -1.
         -5    1    4    4    0  502  0.65288107664E+01  0.85080623531E+02  0.65801904871E+02  0.10785786274E+03  0.47000000000E+01 0. -1.
          5    1    3    3  503    0 -0.24008847181E+02  0.41402408374E+02  0.88866408453E+02  0.10104411271E+03  0.47000000000E+01 0. -1.
         -5    1    3    3    0  503 -0.33401395052E+02 -0.92794595832E+02  0.18795989325E+03  0.21231462898E+03  0.47000000000E+01 0. -1.
<mgrwt>
<rscale>  0 0.14684345E+03</rscale>
<asrwt>0</asrwt>
<pdfrwt beam="2">  1        5 0.86082609E-02 0.14684584E+03</pdfrwt>
<pdfrwt beam="1">  1       -5 0.67405446E-01 0.14684584E+03</pdfrwt>
<totfact> 0.15309948E+02</totfact>
</mgrwt>
</event>
<event>
 8    1  0.1821556E-007  0.1686621E+03  0.7546771E-02  0.1179254E+00
          5   -1    0    0  501    0  0.00000000000E+00  0.00000000000E+00  0.26276475788E+02  0.26693504450E+02  0.47000000000E+01 0.  1.
         -5   -1    0    0    0  501 -0.00000000000E+00 -0.00000000000E+00 -0.10751059219E+04  0.10751161952E+04  0.47000000000E+01 0.  1.
         25    2    1    2    0    0  0.97171258373E+02 -0.58092167021E+02 -0.54531111000E+03  0.57079405769E+03  0.12499878513E+03 0.  0.
         25    2    1    2    0    0 -0.97171258373E+02  0.58092167021E+02 -0.50351833608E+03  0.53101564198E+03  0.12501977419E+03 0.  0.
          5    1    4    4  502    0 -0.12417309892E+03  0.29636983592E+02 -0.35321202462E+03  0.37560369225E+03  0.47000000000E+01 0.  1.
         -5    1    4    4    0  502  0.27001840545E+02  0.28455183429E+02 -0.15030631145E+03  0.15541194973E+03  0.47000000000E+01 0.  1.
          5    1    3    3  503    0  0.33457914246E+01 -0.52720646563E+02 -0.35002788986E+03  0.35402298594E+03  0.47000000000E+01 0.  1.
         -5    1    3    3    0  503  0.93825466949E+02 -0.53715204578E+01 -0.19528322014E+03  0.21677107175E+03  0.47000000000E+01 0.  1.
<mgrwt>
<rscale>  0 0.16865819E+03</rscale>
<asrwt>0</asrwt>
<pdfrwt beam="1">  1        5 0.40754050E-02 0.16866208E+03</pdfrwt>
<pdfrwt beam="2">  1       -5 0.16543375E+00 0.16866208E+03</pdfrwt>
<totfact> 0.59882589E+01</totfact>
</mgrwt>
</event>
<event>
 8    1  0.1821556E-007  0.1263805E+03  0.7546771E-02  0.1232932E+00
          5   -1    0    0  501    0  0.00000000000E+00  0.00000000000E+00  0.31633835970E+03  0.31637327292E+03  0.47000000000E+01 0.  1.
         -5   -1    0    0    0  501 -0.00000000000E+00 -0.00000000000E+00 -0.84519659079E+02  0.84650237866E+02  0.47000000000E+01 0.  1.
         25    2    1    2    0    0 -0.12844690987E+02 -0.13335280035E+02 -0.11449922060E+02  0.12688550624E+03  0.12500406073E+03 0.  0.
         25    2    1    2    0    0  0.12844690987E+02  0.13335280035E+02  0.24326862268E+03  0.27413800455E+03  0.12501682677E+03 0.  0.
          5    1    4    4  502    0  0.32307589516E+02 -0.42313473712E+02  0.17895780651E+03  0.18676776196E+03  0.47000000000E+01 0. -1.
         -5    1    4    4    0  502 -0.19462898529E+02  0.55648753747E+02  0.64310816172E+02  0.87370242585E+02  0.47000000000E+01 0. -1.
          5    1    3    3  503    0  0.44486075268E+02 -0.38880524720E+02  0.10571196451E+02  0.60204204916E+02  0.47000000000E+01 0. -1.
         -5    1    3    3    0  503 -0.57330766255E+02  0.25545244685E+02 -0.22021118511E+02  0.66681301321E+02  0.47000000000E+01 0. -1.
<mgrwt>
<rscale>  0 0.12637731E+03</rscale>
<asrwt>0</asrwt>
<pdfrwt beam="1">  1        5 0.48680170E-01 0.12638047E+03</pdfrwt>
<pdfrwt beam="2">  1       -5 0.13015755E-01 0.12638047E+03</pdfrwt>
<totfact> 0.14292878E+02</totfact>
</mgrwt>
</event>
<event>
 8    1  0.1821556E-007  0.1802306E+03  0.7546771E-02  0.1167581E+00
         -5   -1    0    0    0  501 -0.00000000000E+00  0.00000000000E+00  0.16794861372E+03  0.16801436501E+03  0.47000000000E+01 0.  1.
          5   -1    0    0  501    0  0.00000000000E+00 -0.00000000000E+00 -0.19330181742E+03  0.19335894760E+03  0.47000000000E+01 0.  1.
         25    2    1    2    0    0  0.12662692024E+03 -0.28691533673E+02 -0.10450804636E+02  0.18052761488E+03  0.12499367737E+03 0.  0.
         25    2    1    2    0    0 -0.12662692024E+03  0.28691533673E+02 -0.14902399064E+02  0.18084569774E+03  0.12500201542E+03 0.  0.
          5    1    3    3  502    0  0.51510463070E+02  0.75250574681E+01 -0.62990991351E+02  0.81852973599E+02  0.47000000000E+01 0.  1.
         -5    1    3    3    0  502  0.75116457170E+02 -0.36216591141E+02  0.52540186715E+02  0.98674641280E+02  0.47000000000E+01 0.  1.
          5    1    4    4  503    0 -0.14795674010E+03  0.42935618400E+02 -0.11736586382E+02  0.15457846464E+03  0.47000000000E+01 0. -1.
         -5    1    4    4    0  503  0.21329819862E+02 -0.14244084727E+02 -0.31658126821E+01  0.26267233105E+02  0.47000000000E+01 0. -1.
<mgrwt>
<rscale>  0 0.18022920E+03</rscale>
<asrwt>0</asrwt>
<pdfrwt beam="2">  1        5 0.29748193E-01 0.18023064E+03</pdfrwt>
<pdfrwt beam="1">  1       -5 0.25847701E-01 0.18023064E+03</pdfrwt>
<totfact> 0.12223637E+02</totfact>
</mgrwt>
</event>
<event>
 8    1  0.1821556E-007  0.1641621E+03  0.7546771E-02  0.1184082E+00
          5   -1    0    0  501    0  0.00000000000E+00  0.00000000000E+00  0.46346116767E+03  0.46348499861E+03  0.47000000000E+01 0.  1.
         -5   -1    0    0    0  501 -0.00000000000E+00 -0.00000000000E+00 -0.61599975807E+02  0.61779017630E+02  0.47000000000E+01 0.  1.
         25    2    1    2    0    0  0.10586502879E+03 -0.10540017777E+02  0.13771513669E+03  0.21426189300E+03  0.12499681445E+03 0.  0.
         25    2    1    2    0    0 -0.10586502879E+03  0.10540017777E+02  0.26414605518E+03  0.31100212325E+03  0.12502274155E+03 0.  0.
          5    1    4    4  502    0 -0.69811757841E+02 -0.55104977129E+02  0.13926259503E+03  0.16530698839E+03  0.47000000000E+01 0. -1.
         -5    1    4    4    0  502 -0.36053270944E+02  0.65644994906E+02  0.12488346015E+03  0.14569513485E+03  0.47000000000E+01 0. -1.
          5    1    3    3  503    0  0.11785979797E+02 -0.21644881861E+02  0.11367923910E+03  0.11641507477E+03  0.47000000000E+01 0.  1.
         -5    1    3    3    0  503  0.94079048989E+02  0.11104864085E+02  0.24035897590E+02  0.97846818231E+02  0.47000000000E+01 0.  1.
<mgrwt>
<rscale>  0 0.16415712E+03</rscale>
<asrwt>0</asrwt>
<pdfrwt beam="1">  1        5 0.71317321E-01 0.16416206E+03</pdfrwt>
<pdfrwt beam="2">  1       -5 0.94925254E-02 0.16416206E+03</pdfrwt>
<totfact> 0.11784511E+02</totfact>
</mgrwt>
</event>
<event>
 8    1  0.1821556E-007  0.1304618E+03  0.7546771E-02  0.1226779E+00
          5   -1    0    0  501    0  0.00000000000E+00  0.00000000000E+00  0.16348927554E+03  0.16355681953E+03  0.47000000000E+01 0.  1.
         -5   -1    0    0    0  501 -0.00000000000E+00 -0.00000000000E+00 -0.10455757922E+03  0.10466316148E+03  0.47000000000E+01 0.  1.
         25    2    1    2    0    0  0.70088103304E+01  0.36687327928E+02  0.19253416968E+02  0.13185783061E+03  0.12498283872E+03 0.  0.
         25    2    1    2    0    0 -0.70088103304E+01 -0.36687327928E+02  0.39678279353E+02  0.13636215041E+03  0.12500074703E+03 0.  0.
          5    1    3    3  502    0 -0.46110077956E+02  0.19643979626E+02  0.47446571630E+02  0.69175807795E+02  0.47000000000E+01 0. -1.
         -5    1    3    3    0  502  0.53118888287E+02  0.17043348302E+02 -0.28193154662E+02  0.62682022813E+02  0.47000000000E+01 0. -1.
          5    1    4    4  503    0  0.20192566684E+02 -0.73867631634E+02  0.46259995403E+02  0.89589306991E+02  0.47000000000E+01 0. -1.
         -5    1    4    4    0  503 -0.27201377014E+02  0.37180303707E+02 -0.65817160497E+01  0.46772843418E+02  0.47000000000E+01 0. -1.
<mgrwt>
<rscale>  0 0.13045747E+03</rscale>
<asrwt>0</asrwt>
<pdfrwt beam="1">  1        5 0.25165513E-01 0.13046176E+03</pdfrwt>
<pdfrwt beam="2">  1       -5 0.16099099E-01 0.13046176E+03</pdfrwt>
<totfact> 0.37009098E+02</totfact>
</mgrwt>
</event>
<event>
 8    1  0.1821556E-007  0.1255892E+03  0.7546771E-02  0.1234186E+00
          5   -1    0    0  501    0  0.00000000000E+00  0.00000000000E+00  0.46251194724E+02  0.46489386030E+02  0.47000000000E+01 0. -1.
         -5   -1    0    0    0  501 -0.00000000000E+00 -0.00000000000E+00 -0.34770573068E+03  0.34773749460E+03  0.47000000000E+01 0. -1.
         25    2    1    2    0    0 -0.90243380458E+01  0.66700994218E+01 -0.18066542329E+03  0.21997804674E+03  0.12499766787E+03 0.  0.
         25    2    1    2    0    0  0.90243380458E+01 -0.66700994218E+01 -0.12078911267E+03  0.17424883389E+03  0.12508683971E+03 0.  0.
          5    1    4    4  502    0 -0.29160302170E+02 -0.17343830512E+02 -0.12901485794E+03  0.13348428840E+03  0.47000000000E+01 0.  1.
         -5    1    4    4    0  502  0.38184640216E+02  0.10673731090E+02  0.82257452719E+01  0.40764545491E+02  0.47000000000E+01 0.  1.
          5    1    3    3  503    0 -0.55867547684E+02 -0.27526503436E+02 -0.12356682765E+03  0.13845483802E+03  0.47000000000E+01 0.  1.
         -5    1    3    3    0  503  0.46843209638E+02  0.34196602858E+02 -0.57098595644E+02  0.81523208724E+02  0.47000000000E+01 0.  1.
<mgrwt>
<rscale>  0 0.12556699E+03</rscale>
<asrwt>0</asrwt>
<pdfrwt beam="1">  1        5 0.71363344E-02 0.12558920E+03</pdfrwt>
<pdfrwt beam="2">  1       -5 0.53513954E-01 0.12558920E+03</pdfrwt>
<totfact> 0.33148583E+02</totfact>
</mgrwt>
</event>
<event>
 8    1  0.1821556E-007  0.1354925E+03  0.7546771E-02  0.1219532E+00
         -5   -1    0    0    0  501 -0.00000000000E+00  0.00000000000E+00  0.65960536673E+02  0.66127773274E+02  0.47000000000E+01 0. -1.
          5   -1    0    0  501    0  0.00000000000E+00 -0.00000000000E+00 -0.29620964007E+03  0.29624692550E+03  0.47000000000E+01 0. -1.
         25    2    1    2    0    0 -0.42035582039E+00 -0.52228066531E+02 -0.69898882603E+02  0.15244518548E+03  0.12500293259E+03 0.  0.
         25    2    1    2    0    0  0.42035582039E+00  0.52228066531E+02 -0.16035022079E+03  0.20992951329E+03  0.12502103667E+03 0.  0.
          5    1    3    3  502    0  0.41036630673E+02  0.13031916402E+01  0.14811212798E+02  0.43899491910E+02  0.47000000000E+01 0. -1.
         -5    1    3    3    0  502 -0.41456986493E+02 -0.53531258171E+02 -0.84710095401E+02  0.10854569357E+03  0.47000000000E+01 0. -1.
          5    1    4    4  503    0 -0.48986540479E+02  0.66564642018E+02 -0.11115752464E+03  0.13859515864E+03  0.47000000000E+01 0.  1.
         -5    1    4    4    0  503  0.49406896300E+02 -0.14336575487E+02 -0.49192696157E+02  0.71334354654E+02  0.47000000000E+01 0.  1.
<mgrwt>
<rscale>  0 0.13548829E+03</rscale>
<asrwt>0</asrwt>
<pdfrwt beam="2">  1        5 0.45586446E-01 0.13549246E+03</pdfrwt>
<pdfrwt beam="1">  1       -5 0.10163507E-01 0.13549246E+03</pdfrwt>
<totfact> 0.26002411E+02</totfact>
</mgrwt>
</event>
<event>
 8    1  0.1821556E-007  0.1321475E+03  0.7546771E-02  0.1224305E+00
          5   -1    0    0  501    0  0.00000000000E+00  0.00000000000E+00  0.28348208595E+02  0.28735186280E+02  0.47000000000E+01 0. -1.
         -5   -1    0    0    0  501 -0.00000000000E+00 -0.00000000000E+00 -0.62545599994E+03  0.62547365880E+03  0.47000000000E+01 0. -1.
         25    2    1    2    0    0  0.27791338771E+02  0.32647178593E+02 -0.34752645385E+03  0.37180317285E+03  0.12499906575E+03 0.  0.
         25    2    1    2    0    0 -0.27791338771E+02 -0.32647178593E+02 -0.24958133749E+03  0.28240567223E+03  0.12499569153E+03 0.  0.
          5    1    3    3  502    0  0.25746165919E+02  0.56625931447E+02 -0.72323068895E+02  0.95509567406E+02  0.47000000000E+01 0. -1.
         -5    1    3    3    0  502  0.20451728523E+01 -0.23978752854E+02 -0.27520338496E+03  0.27629360545E+03  0.47000000000E+01 0. -1.
          5    1    4    4  503    0  0.56145801478E+01 -0.28063835892E+02  0.14852695897E+01  0.29041322644E+02  0.47000000000E+01 0.  1.
         -5    1    4    4    0  503 -0.33405918919E+02 -0.45833427017E+01 -0.25106660708E+03  0.25336434959E+03  0.47000000000E+01 0.  1.
<mgrwt>
<rscale>  0 0.13214671E+03</rscale>
<asrwt>0</asrwt>
<pdfrwt beam="1">  1        5 0.43923892E-02 0.13214751E+03</pdfrwt>
<pdfrwt beam="2">  1       -5 0.96255116E-01 0.13214751E+03</pdfrwt>
<totfact> 0.20106917E+02</totfact>
</mgrwt>
</event>
<event>
 8    1  0.1821556E-007  0.1865701E+03  0.7546771E-02  0.1161592E+00
         -5   -1    0    0    0  501 -0.00000000000E+00  0.00000000000E+00  0.25150098477E+03  0.25154489727E+03  0.47000000000E+01 0.  1.
          5   -1    0    0  501    0  0.00000000000E+00 -0.00000000000E+00 -0.13978060880E+03  0.13985960316E+03  0.47000000000E+01 0.  1.
         25    2    1    2    0    0 -0.27166428236E+02 -0.13581484201E+03  0.35772094675E+02  0.18996825483E+03  0.12499843580E+03 0.  0.
         25    2    1    2    0    0  0.27166428236E+02  0.13581484201E+03  0.75948281295E+02  0.20143624560E+03  0.12499893390E+03 0.  0.
          5    1    4    4  502    0  0.67667435933E+02  0.11057722579E+03  0.26205653394E+02  0.13234436527E+03  0.47000000000E+01 0. -1.
         -5    1    4    4    0  502 -0.40501007697E+02  0.25237616217E+02  0.49742627901E+02  0.69091880328E+02  0.47000000000E+01 0. -1.
          5    1    3    3  503    0  0.53550647949E+01 -0.11435946152E+03  0.73013195022E+02  0.13586677226E+03  0.47000000000E+01 0. -1.
         -5    1    3    3    0  503 -0.32521493031E+02 -0.21455380491E+02 -0.37241100347E+02  0.54101482567E+02  0.47000000000E+01 0. -1.
<mgrwt>
<rscale>  0 0.18657006E+03</rscale>
<asrwt>0</asrwt>
<pdfrwt beam="2">  1        5 0.21514164E-01 0.18657015E+03</pdfrwt>
<pdfrwt beam="1">  1       -5 0.38701913E-01 0.18657015E+03</pdfrwt>
<totfact> 0.10343610E+02</totfact>
</mgrwt>
</event>
<event>
 8    1  0.1821556E-007  0.1646434E+03  0.7546771E-02  0.1183552E+00
         -5   -1    0    0    0  501 -0.00000000000E+00  0.00000000000E+00  0.18310830496E+03  0.18316861452E+03  0.47000000000E+01 0.  1.
          5   -1    0    0  501    0  0.00000000000E+00 -0.00000000000E+00 -0.15963694516E+03  0.15970611842E+03  0.47000000000E+01 0.  1.
         25    2    1    2    0    0  0.10426018306E+03 -0.24734749248E+02  0.58168175724E+02  0.17461509689E+03  0.12499960722E+03 0.  0.
         25    2    1    2    0    0 -0.10426018306E+03  0.24734749248E+02 -0.34696815921E+02  0.16825963605E+03  0.12500176998E+03 0.  0.
          5    1    4    4  502    0 -0.63334192745E+02  0.60254104870E+02  0.21400764988E+02  0.90121361877E+02  0.47000000000E+01 0.  1.
         -5    1    4    4    0  502 -0.40925990311E+02 -0.35519355623E+02 -0.56097580910E+02  0.78138274173E+02  0.47000000000E+01 0.  1.
          5    1    3    3  503    0  0.61776851423E+02 -0.73687171969E+02  0.51784666935E+02  0.10931569153E+03  0.47000000000E+01 0.  1.
         -5    1    3    3    0  503  0.42483331633E+02  0.48952422721E+02  0.63835087887E+01  0.65299405368E+02  0.47000000000E+01 0.  1.
<mgrwt>
<rscale>  0 0.16464295E+03</rscale>
<asrwt>0</asrwt>
<pdfrwt beam="2">  1        5 0.24569490E-01 0.16464336E+03</pdfrwt>
<pdfrwt beam="1">  1       -5 0.28180469E-01 0.16464336E+03</pdfrwt>
<totfact> 0.14588403E+02</totfact>
</mgrwt>
</event>
<event>
 8    1  0.1821556E-007  0.1739791E+03  0.7546771E-02  0.1173762E+00
         -5   -1    0    0    0  501 -0.00000000000E+00  0.00000000000E+00  0.10470237527E+03  0.10480781167E+03  0.47000000000E+01 0.  1.
          5   -1    0    0  501    0  0.00000000000E+00 -0.00000000000E+00 -0.34479132254E+03  0.34482335492E+03  0.47000000000E+01 0.  1.
         25    2    1    2    0    0 -0.11787023374E+02  0.12043382083E+03 -0.29479816407E+02  0.17645549673E+03  0.12499697449E+03 0.  0.
         25    2    1    2    0    0  0.11787023374E+02 -0.12043382083E+03 -0.21060913087E+03  0.27317566985E+03  0.12500200589E+03 0.  0.
          5    1    3    3  502    0 -0.39070782840E+02  0.10248499737E+03 -0.65317129324E+02  0.12774238976E+03  0.47000000000E+01 0.  1.
         -5    1    3    3    0  502  0.27283759466E+02  0.17948823460E+02  0.35837312917E+02  0.48713106977E+02  0.47000000000E+01 0.  1.
          5    1    4    4  503    0 -0.38191301472E+02 -0.58250296375E+02 -0.16948154228E+03  0.18329690589E+03  0.47000000000E+01 0.  1.
         -5    1    4    4    0  503  0.49978324846E+02 -0.62183524456E+02 -0.41127588585E+02  0.89878763960E+02  0.47000000000E+01 0.  1.
<mgrwt>
<rscale>  0 0.17397823E+03</rscale>
<asrwt>0</asrwt>
<pdfrwt beam="2">  1        5 0.53055393E-01 0.17397914E+03</pdfrwt>
<pdfrwt beam="1">  1       -5 0.16118632E-01 0.17397914E+03</pdfrwt>
<totfact> 0.89521259E+01</totfact>
</mgrwt>
</event>
<event>
 8    1  0.1821556E-007  0.1563314E+03  0.7546771E-02  0.1192925E+00
          5   -1    0    0  501    0  0.00000000000E+00  0.00000000000E+00  0.33442856535E+02  0.33771506529E+02  0.47000000000E+01 0. -1.
         -5   -1    0    0    0  501 -0.00000000000E+00 -0.00000000000E+00 -0.10112232504E+04  0.10112341728E+04  0.47000000000E+01 0. -1.
         25    2    1    2    0    0 -0.48698552819E+02 -0.80119832761E+02 -0.76600649956E+03  0.78178010628E+03  0.12499376214E+03 0.  0.
         25    2    1    2    0    0  0.48698552819E+02  0.80119832761E+02 -0.21177389435E+03  0.26322557304E+03  0.12509509713E+03 0.  0.
          5    1    4    4  502    0  0.25926183487E+02 -0.51877870876E+01  0.65797149177E+01  0.27648919933E+02  0.47000000000E+01 0.  1.
         -5    1    4    4    0  502  0.22772369332E+02  0.85307619848E+02 -0.21835360926E+03  0.23557665310E+03  0.47000000000E+01 0.  1.
          5    1    3    3  503    0 -0.39012969682E+02 -0.38041045718E+02 -0.96930212030E+02  0.11129550291E+03  0.47000000000E+01 0. -1.
         -5    1    3    3    0  503 -0.96855831369E+01 -0.42078787042E+02 -0.66907628753E+03  0.67048460338E+03  0.47000000000E+01 0. -1.
<mgrwt>
<rscale>  0 0.15631117E+03</rscale>
<asrwt>0</asrwt>
<pdfrwt beam="1">  1        5 0.51711766E-02 0.15633144E+03</pdfrwt>
<pdfrwt beam="2">  1       -5 0.15559891E+00 0.15633144E+03</pdfrwt>
<totfact> 0.46979657E+01</totfact>
</mgrwt>
</event>
<event>
 8    1  0.1821556E-007  0.1366056E+03  0.7546771E-02  0.1217973E+00
          5   -1    0    0  501    0  0.00000000000E+00  0.00000000000E+00  0.10603416273E+04  0.10603520437E+04  0.47000000000E+01 0. -1.
         -5   -1    0    0    0  501 -0.00000000000E+00 -0.00000000000E+00 -0.17431783327E+02  0.18054281208E+02  0.47000000000E+01 0. -1.
         25    2    1    2    0    0 -0.52918266996E+02 -0.15318991472E+02  0.47106447755E+03  0.49047203627E+03  0.12500424741E+03 0.  0.
         25    2    1    2    0    0  0.52918266996E+02  0.15318991472E+02  0.57184536643E+03  0.58793428865E+03  0.12499836072E+03 0.  0.
          5    1    4    4  502    0  0.80866957032E+02 -0.27155886982E+02  0.36890959421E+03  0.37867305903E+03  0.47000000000E+01 0. -1.
         -5    1    4    4    0  502 -0.27948690036E+02  0.42474878454E+02  0.20293577222E+03  0.20926122961E+03  0.47000000000E+01 0. -1.
          5    1    3    3  503    0 -0.85544306826E+01  0.40791256275E+02  0.32574245673E+03  0.32843164128E+03  0.47000000000E+01 0. -1.
         -5    1    3    3    0  503 -0.44363836313E+02 -0.56110247747E+02  0.14532202082E+03  0.16204039499E+03  0.47000000000E+01 0. -1.
<mgrwt>
<rscale>  0 0.13660420E+03</rscale>
<asrwt>0</asrwt>
<pdfrwt beam="1">  1        5 0.16317818E+00 0.13660555E+03</pdfrwt>
<pdfrwt beam="2">  1       -5 0.27304983E-02 0.13660555E+03</pdfrwt>
<totfact> 0.11233782E+02</totfact>
</mgrwt>
</event>
<event>
 8    1  0.1821556E-007  0.1564315E+03  0.7546771E-02  0.1192786E+00
         -5   -1    0    0    0  501 -0.00000000000E+00  0.00000000000E+00  0.30938892923E+03  0.30942462658E+03  0.47000000000E+01 0.  1.
          5   -1    0    0  501    0  0.00000000000E+00 -0.00000000000E+00 -0.89936990949E+02  0.90059715417E+02  0.47000000000E+01 0.  1.
         25    2    1    2    0    0 -0.91983900596E+02  0.19611065596E+02  0.17937025703E+03  0.23799948466E+03  0.12499773490E+03 0.  0.
         25    2    1    2    0    0  0.91983900596E+02 -0.19611065596E+02  0.40081681255E+02  0.16148485733E+03  0.12500074445E+03 0.  0.
          5    1    3    3  502    0 -0.71614338471E+02  0.12896000637E+02  0.19685849658E+03  0.20992922137E+03  0.47000000000E+01 0.  1.
         -5    1    3    3    0  502 -0.20369562124E+02  0.67150649590E+01 -0.17488239556E+02  0.28070263292E+02  0.47000000000E+01 0.  1.
          5    1    4    4  503    0  0.41834570158E+02 -0.38458371543E+02 -0.36650326004E+02  0.67782844425E+02  0.47000000000E+01 0.  1.
         -5    1    4    4    0  503  0.50149330438E+02  0.18847305947E+02  0.76732007260E+02  0.93702012907E+02  0.47000000000E+01 0.  1.
<mgrwt>
<rscale>  0 0.15643091E+03</rscale>
<asrwt>0</asrwt>
<pdfrwt beam="2">  1        5 0.13848647E-01 0.15643151E+03</pdfrwt>
<pdfrwt beam="1">  1       -5 0.47610482E-01 0.15643151E+03</pdfrwt>
<totfact> 0.14383015E+02</totfact>
</mgrwt>
</event>
<event>
 8    1  0.1821556E-007  0.1805131E+03  0.7546771E-02  0.1167308E+00
          5   -1    0    0  501    0  0.00000000000E+00  0.00000000000E+00  0.49213339599E+03  0.49215583858E+03  0.47000000000E+01 0. -1.
         -5   -1    0    0    0  501 -0.00000000000E+00 -0.00000000000E+00 -0.66168481827E+02  0.66335194183E+02  0.47000000000E+01 0. -1.
         25    2    1    2    0    0  0.92989077600E+02  0.91170895331E+02  0.22174510464E+03  0.28592782246E+03  0.12499891006E+03 0.  0.
         25    2    1    2    0    0 -0.92989077600E+02 -0.91170895331E+02  0.20421980952E+03  0.27256321030E+03  0.12500348915E+03 0.  0.
          5    1    4    4  502    0 -0.11680406173E+03 -0.91573150004E+02  0.14071805894E+03  0.20457881794E+03  0.47000000000E+01 0. -1.
         -5    1    4    4    0  502  0.23814984128E+02  0.40225467240E+00  0.63501750581E+02  0.67984392361E+02  0.47000000000E+01 0. -1.
          5    1    3    3  503    0  0.45059759778E+00  0.67537136836E+02  0.35209802511E+02  0.76310471647E+02  0.47000000000E+01 0.  1.
         -5    1    3    3    0  503  0.92538480002E+02  0.23633758496E+02  0.18653530213E+03  0.20961735081E+03  0.47000000000E+01 0.  1.
<mgrwt>
<rscale>  0 0.18051229E+03</rscale>
<asrwt>0</asrwt>
<pdfrwt beam="1">  1        5 0.75727381E-01 0.18051308E+03</pdfrwt>
<pdfrwt beam="2">  1       -5 0.10194317E-01 0.18051308E+03</pdfrwt>
<totfact> 0.93240581E+01</totfact>
</mgrwt>
</event>
<event>
 8    1  0.1821556E-007  0.2179756E+03  0.7546771E-02  0.1135403E+00
          5   -1    0    0  501    0  0.00000000000E+00  0.00000000000E+00  0.89121476555E+03  0.89122715866E+03  0.47000000000E+01 0. -1.
         -5   -1    0    0    0  501 -0.00000000000E+00 -0.00000000000E+00 -0.63452397655E+02  0.63626227046E+02  0.47000000000E+01 0. -1.
         25    2    1    2    0    0 -0.66705445541E+02  0.16564257346E+03  0.22221948183E+03  0.31127312099E+03  0.12498951613E+03 0.  0.
         25    2    1    2    0    0  0.66705445541E+02 -0.16564257346E+03  0.60554288607E+03  0.64358026472E+03  0.12500516653E+03 0.  0.
          5    1    4    4  502    0  0.35915187913E+02 -0.14356792822E+03  0.28879549516E+03  0.32454056566E+03  0.47000000000E+01 0.  1.
         -5    1    4    4    0  502  0.30790257628E+02 -0.22074645241E+02  0.31674739090E+03  0.31903969905E+03  0.47000000000E+01 0.  1.
          5    1    3    3  503    0  0.12812703573E+02  0.92608121410E+01 -0.10682579502E+02  0.19650331274E+02  0.47000000000E+01 0.  1.
         -5    1    3    3    0  503 -0.79518149115E+02  0.15638176132E+03  0.23290206133E+03  0.29162278972E+03  0.47000000000E+01 0.  1.
<mgrwt>
<rscale>  0 0.21797337E+03</rscale>
<asrwt>0</asrwt>
<pdfrwt beam="1">  1        5 0.13712429E+00 0.21797562E+03</pdfrwt>
<pdfrwt beam="2">  1       -5 0.97762318E-02 0.21797562E+03</pdfrwt>
<totfact> 0.24290677E+01</totfact>
</mgrwt>
</event>
<event>
 8    1  0.1821556E-007  0.1318744E+03  0.7546771E-02  0.1224702E+00
         -5   -1    0    0    0  501 -0.00000000000E+00  0.00000000000E+00  0.10047177633E+03  0.10058164763E+03  0.47000000000E+01 0.  1.
          5   -1    0    0  501    0  0.00000000000E+00 -0.00000000000E+00 -0.17363081798E+03  0.17369441831E+03  0.47000000000E+01 0.  1.
         25    2    1    2    0    0  0.38158856114E+02  0.17568387911E+02 -0.27381183605E+02  0.13468207559E+03  0.12499914286E+03 0.  0.
         25    2    1    2    0    0 -0.38158856114E+02 -0.17568387911E+02 -0.45777858037E+02  0.13959399035E+03  0.12500449312E+03 0.  0.
          5    1    3    3  502    0  0.34819547264E+02  0.69660679591E+02 -0.26053075991E+02  0.82254871718E+02  0.47000000000E+01 0. -1.
         -5    1    3    3    0  502  0.33393088499E+01 -0.52092291680E+02 -0.13281076135E+01  0.52427203873E+02  0.47000000000E+01 0. -1.
          5    1    4    4  503    0  0.14511134330E+02  0.46142317787E+02 -0.22719609852E+02  0.53646595252E+02  0.47000000000E+01 0. -1.
         -5    1    4    4    0  503 -0.52669990444E+02 -0.63710705698E+02 -0.23058248185E+02  0.85947395093E+02  0.47000000000E+01 0. -1.
<mgrwt>
<rscale>  0 0.13187318E+03</rscale>
<asrwt>0</asrwt>
<pdfrwt beam="2">  1        5 0.26725778E-01 0.13187445E+03</pdfrwt>
<pdfrwt beam="1">  1       -5 0.15470540E-01 0.13187445E+03</pdfrwt>
<totfact> 0.35581829E+02</totfact>
</mgrwt>
</event>
<event>
 8    1  0.1821556E-007  0.1481233E+03  0.7546771E-02  0.1202801E+00
         -5   -1    0    0    0  501 -0.00000000000E+00  0.00000000000E+00  0.22239861596E+03  0.22244827349E+03  0.47000000000E+01 0.  1.
          5   -1    0    0  501    0  0.00000000000E+00 -0.00000000000E+00 -0.11733596600E+03  0.11743005968E+03  0.47000000000E+01 0.  1.
         25    2    1    2    0    0  0.77695515579E+02  0.16616603268E+02  0.12051967123E+03  0.19095945506E+03  0.12501127021E+03 0.  0.
         25    2    1    2    0    0 -0.77695515579E+02 -0.16616603268E+02 -0.15457021265E+02  0.14891887811E+03  0.12500083242E+03 0.  0.
          5    1    3    3  502    0 -0.14816977468E+02  0.45019093940E+02  0.20954980787E+02  0.52033286080E+02  0.47000000000E+01 0. -1.
         -5    1    3    3    0  502  0.92512493046E+02 -0.28402490672E+02  0.99564690441E+02  0.13892616898E+03  0.47000000000E+01 0. -1.
          5    1    4    4  503    0 -0.34526369396E+02 -0.19551638187E+02 -0.69112349316E+02  0.79830718194E+02  0.47000000000E+01 0. -1.
         -5    1    4    4    0  503 -0.43169146183E+02  0.29350349188E+01  0.53655328051E+02  0.69088159914E+02  0.47000000000E+01 0. -1.
<mgrwt>
<rscale>  0 0.14812113E+03</rscale>
<asrwt>0</asrwt>
<pdfrwt beam="2">  1        5 0.18062745E-01 0.14812333E+03</pdfrwt>
<pdfrwt beam="1">  1       -5 0.34226229E-01 0.14812333E+03</pdfrwt>
<totfact> 0.17140375E+02</totfact>
</mgrwt>
</event>
<event>
 8    1  0.1821556E-007  0.1374942E+03  0.7546771E-02  0.1216743E+00
          5   -1    0    0  501    0  0.00000000000E+00  0.00000000000E+00  0.62188806586E+03  0.62190582604E+03  0.47000000000E+01 0. -1.
         -5   -1    0    0    0  501 -0.00000000000E+00 -0.00000000000E+00 -0.31542048307E+02  0.31890293372E+02  0.47000000000E+01 0. -1.
         25    2    1    2    0    0 -0.52778316666E+02  0.22178499771E+02  0.22808072061E+03  0.26631605866E+03  0.12500396563E+03 0.  0.
         25    2    1    2    0    0  0.52778316666E+02 -0.22178499771E+02  0.36226529695E+03  0.38748006075E+03  0.12500886187E+03 0.  0.
          5    1    3    3  502    0 -0.30525213581E+02 -0.26510873881E+02  0.10276222854E+02  0.41979826753E+02  0.47000000000E+01 0. -1.
         -5    1    3    3    0  502 -0.22253103085E+02  0.48689373652E+02  0.21780449776E+03  0.22433623191E+03  0.47000000000E+01 0. -1.
          5    1    4    4  503    0  0.20204162952E+02 -0.32727301522E+02  0.34790265771E+03  0.35005375831E+03  0.47000000000E+01 0.  1.
         -5    1    4    4    0  503  0.32574153714E+02  0.10548801751E+02  0.14362639235E+02  0.37426302440E+02  0.47000000000E+01 0.  1.
<mgrwt>
<rscale>  0 0.13749308E+03</rscale>
<asrwt>0</asrwt>
<pdfrwt beam="1">  1        5 0.95703236E-01 0.13749419E+03</pdfrwt>
<pdfrwt beam="2">  1       -5 0.48807774E-02 0.13749419E+03</pdfrwt>
<totfact> 0.17352897E+02</totfact>
</mgrwt>
</event>
<event>
 8    1  0.1821556E-007  0.1708978E+03  0.7546771E-02  0.1176916E+00
         -5   -1    0    0    0  501 -0.00000000000E+00  0.00000000000E+00  0.39112880808E+03  0.39115704584E+03  0.47000000000E+01 0.  1.
          5   -1    0    0  501    0  0.00000000000E+00 -0.00000000000E+00 -0.83396553162E+02  0.83528887693E+02  0.47000000000E+01 0.  1.
         25    2    1    2    0    0 -0.88789256690E+02  0.75472762794E+02  0.23102437074E+03  0.28736225695E+03  0.12500054726E+03 0.  0.
         25    2    1    2    0    0  0.88789256690E+02 -0.75472762794E+02  0.76707884178E+02  0.18732367658E+03  0.12500556102E+03 0.  0.
          5    1    4    4  502    0  0.75490875169E+02 -0.64809832160E+02  0.11075678084E+03  0.14895751435E+03  0.47000000000E+01 0. -1.
         -5    1    4    4    0  502  0.13298381521E+02 -0.10662930633E+02 -0.34048896663E+02  0.38366162236E+02  0.47000000000E+01 0. -1.
          5    1    3    3  503    0 -0.55422295749E+02  0.95416516114E+02  0.94570670165E+02  0.14540166460E+03  0.47000000000E+01 0. -1.
         -5    1    3    3    0  503 -0.33366960941E+02 -0.19943753320E+02  0.13645370057E+03  0.14196059235E+03  0.47000000000E+01 0. -1.
<mgrwt>
<rscale>  0 0.17089689E+03</rscale>
<asrwt>0</asrwt>
<pdfrwt beam="2">  1        5 0.12842591E-01 0.17089781E+03</pdfrwt>
<pdfrwt beam="1">  1       -5 0.60186014E-01 0.17089781E+03</pdfrwt>
<totfact> 0.10214727E+02</totfact>
</mgrwt>
</event>
<event>
 8    1  0.1821556E-007  0.1427246E+03  0.7546771E-02  0.1209709E+00
         -5   -1    0    0    0  501 -0.00000000000E+00  0.00000000000E+00  0.53709015216E+02  0.53914268199E+02  0.47000000000E+01 0.  1.
          5   -1    0    0  501    0  0.00000000000E+00 -0.00000000000E+00 -0.39644272396E+03  0.39647058325E+03  0.47000000000E+01 0.  1.
         25    2    1    2    0    0 -0.32442233204E+02 -0.60766200721E+02 -0.12324249414E+03  0.18857061272E+03  0.12500053589E+03 0.  0.
         25    2    1    2    0    0  0.32442233204E+02  0.60766200721E+02 -0.21949121460E+03  0.26181423873E+03  0.12500109066E+03 0.  0.
          5    1    3    3  502    0 -0.17678473024E+02  0.32610797874E+02 -0.59691457661E+01  0.37864406077E+02  0.47000000000E+01 0. -1.
         -5    1    3    3    0  502 -0.14763760180E+02 -0.93376998595E+02 -0.11727334837E+03  0.15070620664E+03  0.47000000000E+01 0. -1.
          5    1    4    4  503    0  0.48506043367E+02 -0.18795533979E+02 -0.13407528192E+03  0.14389016493E+03  0.47000000000E+01 0.  1.
         -5    1    4    4    0  503 -0.16063810163E+02  0.79561734700E+02 -0.85415932682E+02  0.11792407380E+03  0.47000000000E+01 0.  1.
<mgrwt>
<rscale>  0 0.14272445E+03</rscale>
<asrwt>0</asrwt>
<pdfrwt beam="2">  1        5 0.61009118E-01 0.14272457E+03</pdfrwt>
<pdfrwt beam="1">  1       -5 0.82808574E-02 0.14272457E+03</pdfrwt>
<totfact> 0.20228772E+02</totfact>
</mgrwt>
</event>
<event>
 8    1  0.1821556E-007  0.1969760E+03  0.7546771E-02  0.1152317E+00
         -5   -1    0    0    0  501 -0.00000000000E+00  0.00000000000E+00  0.40294172961E+03  0.40296913959E+03  0.47000000000E+01 0.  1.
          5   -1    0    0  501    0  0.00000000000E+00 -0.00000000000E+00 -0.96363032645E+02  0.96477583203E+02  0.47000000000E+01 0.  1.
         25    2    1    2    0    0  0.14270444715E+03  0.52985010129E+02  0.16358090141E+03  0.25604345396E+03  0.12501027348E+03 0.  0.
         25    2    1    2    0    0 -0.14270444715E+03 -0.52985010129E+02  0.14299779555E+03  0.24340326883E+03  0.12499924484E+03 0.  0.
          5    1    3    3  502    0  0.22709124404E+01 -0.14212074540E+02  0.75717659386E+02  0.77216539996E+02  0.47000000000E+01 0.  1.
         -5    1    3    3    0  502  0.14043353471E+03  0.67197084669E+02  0.87863242022E+02  0.17882691396E+03  0.47000000000E+01 0.  1.
          5    1    4    4  503    0 -0.58416688521E+02 -0.84655622115E+02  0.99926517447E+02  0.14347990362E+03  0.47000000000E+01 0. -1.
         -5    1    4    4    0  503 -0.84287758626E+02  0.31670611986E+02  0.43071278106E+02  0.99923365213E+02  0.47000000000E+01 0. -1.
<mgrwt>
<rscale>  0 0.19697424E+03</rscale>
<asrwt>0</asrwt>
<pdfrwt beam="2">  1        5 0.14836002E-01 0.19697599E+03</pdfrwt>
<pdfrwt beam="1">  1       -5 0.62001956E-01 0.19697599E+03</pdfrwt>
<totfact> 0.76764159E+01</totfact>
</mgrwt>
</event>
<event>
 8    1  0.1821556E-007  0.1483420E+03  0.7546771E-02  0.1202526E+00
         -5   -1    0    0    0  501 -0.00000000000E+00  0.00000000000E+00  0.10372132140E+04  0.10372238627E+04  0.47000000000E+01 0.  1.
          5   -1    0    0  501    0  0.00000000000E+00 -0.00000000000E+00 -0.40852048164E+02  0.41121525254E+02  0.47000000000E+01 0.  1.
         25    2    1    2    0    0  0.34316744168E+02 -0.72128714272E+02  0.87270888796E+03  0.88522660826E+03  0.12500061792E+03 0.  0.
         25    2    1    2    0    0 -0.34316744168E+02  0.72128714272E+02  0.12365227786E+03  0.19311877966E+03  0.12499914753E+03 0.  0.
          5    1    3    3  502    0 -0.38330499896E+02 -0.47586412739E+01  0.41896091891E+03  0.42076384524E+03  0.47000000000E+01 0. -1.
         -5    1    3    3    0  502  0.72647244064E+02 -0.67370072998E+02  0.45374796906E+03  0.46446276302E+03  0.47000000000E+01 0. -1.
          5    1    4    4  503    0  0.34725284645E+02  0.31916226967E+02  0.98353205334E+02  0.10917844997E+03  0.47000000000E+01 0.  1.
         -5    1    4    4    0  503 -0.69042028813E+02  0.40212487305E+02  0.25299072524E+02  0.83940329690E+02  0.47000000000E+01 0.  1.
<mgrwt>
<rscale>  0 0.14834168E+03</rscale>
<asrwt>0</asrwt>
<pdfrwt beam="2">  1        5 0.63064789E-02 0.14834199E+03</pdfrwt>
<pdfrwt beam="1">  1       -5 0.15959280E+00 0.14834199E+03</pdfrwt>
<totfact> 0.30907935E+01</totfact>
</mgrwt>
</event>
<event>
 8    1  0.1821556E-007  0.1542500E+03  0.7546771E-02  0.1195347E+00
          5   -1    0    0  501    0  0.00000000000E+00  0.00000000000E+00  0.16939827077E+02  0.17579753736E+02  0.47000000000E+01 0.  1.
         -5   -1    0    0    0  501 -0.00000000000E+00 -0.00000000000E+00 -0.14016086511E+04  0.14016165313E+04  0.47000000000E+01 0.  1.
         25    2    1    2    0    0  0.73167109724E+02  0.53063183422E+02 -0.59997658056E+03  0.61948766551E+03  0.12499577239E+03 0.  0.
         25    2    1    2    0    0 -0.73167109724E+02 -0.53063183422E+02 -0.78469224344E+03  0.79970861951E+03  0.12499132701E+03 0.  0.
          5    1    3    3  502    0 -0.17317606831E+02  0.44340548427E+02 -0.35384566682E+03  0.35706418145E+03  0.47000000000E+01 0. -1.
         -5    1    3    3    0  502  0.90484716555E+02  0.87226349948E+01 -0.24613091374E+03  0.26242348406E+03  0.47000000000E+01 0. -1.
          5    1    4    4  503    0 -0.72782450983E+02  0.18652485243E+02 -0.28078053120E+03  0.29069743218E+03  0.47000000000E+01 0.  1.
         -5    1    4    4    0  503 -0.38465874113E+00 -0.71715668665E+02 -0.50391171224E+03  0.50901118733E+03  0.47000000000E+01 0.  1.
<mgrwt>
<rscale>  0 0.15424913E+03</rscale>
<asrwt>0</asrwt>
<pdfrwt beam="1">  1        5 0.26559596E-02 0.15425003E+03</pdfrwt>
<pdfrwt beam="2">  1       -5 0.21568184E+00 0.15425003E+03</pdfrwt>
<totfact> 0.52359364E+01</totfact>
</mgrwt>
</event>
<event>
 8    1  0.1821556E-007  0.3717799E+03  0.7546771E-02  0.1054015E+00
          5   -1    0    0  501    0  0.00000000000E+00  0.00000000000E+00  0.15118373079E+03  0.15125676995E+03  0.47000000000E+01 0. -1.
         -5   -1    0    0    0  501 -0.00000000000E+00 -0.00000000000E+00 -0.20549027463E+04  0.20549081212E+04  0.47000000000E+01 0. -1.
         25    2    1    2    0    0  0.31445677206E+03 -0.15398653734E+03 -0.17737939089E+04  0.18123364320E+04  0.12499438487E+03 0.  0.
         25    2    1    2    0    0 -0.31445677206E+03  0.15398653734E+03 -0.12992510651E+03  0.39382845912E+03  0.12500162694E+03 0.  0.
          5    1    3    3  502    0  0.10285390049E+03  0.10560268515E+02 -0.51999357225E+03  0.53019416189E+03  0.47000000000E+01 0.  1.
         -5    1    3    3    0  502  0.21160287157E+03 -0.16454680585E+03 -0.12538003367E+04  0.12821422701E+04  0.47000000000E+01 0.  1.
          5    1    4    4  503    0 -0.22168384953E+03  0.15488723222E+03 -0.58700217102E+02  0.27676992130E+03  0.47000000000E+01 0.  1.
         -5    1    4    4    0  503 -0.92772922533E+02 -0.90069488510E+00 -0.71224889410E+02  0.11705853783E+03  0.47000000000E+01 0.  1.
<mgrwt>
<rscale>  0 0.37177933E+03</rscale>
<asrwt>0</asrwt>
<pdfrwt beam="1">  1        5 0.23265069E-01 0.37177994E+03</pdfrwt>
<pdfrwt beam="2">  1       -5 0.31614490E+00 0.37177994E+03</pdfrwt>
<totfact> 0.30790631E-01</totfact>
</mgrwt>
</event>
<event>
 8    1  0.1821556E-007  0.1258566E+03  0.7546771E-02  0.1233747E+00
          5   -1    0    0  501    0  0.00000000000E+00  0.00000000000E+00  0.82212740009E+02  0.82346976993E+02  0.47000000000E+01 0. -1.
         -5   -1    0    0    0  501 -0.00000000000E+00 -0.00000000000E+00 -0.19374773866E+03  0.19380473739E+03  0.47000000000E+01 0. -1.
         25    2    1    2    0    0  0.14428657930E+02  0.51328274385E+00 -0.67649786022E+02  0.14286328907E+03  0.12499990475E+03 0.  0.
         25    2    1    2    0    0 -0.14428657930E+02 -0.51328274385E+00 -0.43885212625E+02  0.13328842531E+03  0.12502576857E+03 0.  0.
          5    1    4    4  502    0 -0.33481175575E+01  0.55206742887E+02  0.81530955285E+01  0.56103095441E+02  0.47000000000E+01 0. -1.
         -5    1    4    4    0  502 -0.11080540372E+02 -0.55720025631E+02 -0.52038308153E+02  0.77185329867E+02  0.47000000000E+01 0. -1.
          5    1    3    3  503    0  0.46876494599E+02  0.16282003957E+02  0.15419633308E+02  0.52176282831E+02  0.47000000000E+01 0. -1.
         -5    1    3    3    0  503 -0.32447836669E+02 -0.15768721213E+02 -0.83069419331E+02  0.90687006242E+02  0.47000000000E+01 0. -1.
<mgrwt>
<rscale>  0 0.12585021E+03</rscale>
<asrwt>0</asrwt>
<pdfrwt beam="1">  1        5 0.12662824E-01 0.12585663E+03</pdfrwt>
<pdfrwt beam="2">  1       -5 0.29822055E-01 0.12585663E+03</pdfrwt>
<totfact> 0.40495311E+02</totfact>
</mgrwt>
</event>
<event>
 8    1  0.1821556E-007  0.1319531E+03  0.7546771E-02  0.1224586E+00
          5   -1    0    0  501    0  0.00000000000E+00  0.00000000000E+00  0.43710396464E+02  0.43962356159E+02  0.47000000000E+01 0. -1.
         -5   -1    0    0    0  501 -0.00000000000E+00 -0.00000000000E+00 -0.46204619044E+03  0.46207009436E+03  0.47000000000E+01 0. -1.
         25    2    1    2    0    0 -0.41752322843E+02  0.66613404407E+01 -0.30412435555E+03  0.33151656364E+03  0.12499591358E+03 0.  0.
         25    2    1    2    0    0  0.41752322843E+02 -0.66613404407E+01 -0.11421143843E+03  0.17451588687E+03  0.12499564866E+03 0.  0.
          5    1    4    4  502    0 -0.29132605881E+02 -0.16504107591E+02  0.61896235079E+01  0.34372892400E+02  0.47000000000E+01 0. -1.
         -5    1    4    4    0  502  0.70884928724E+02  0.98427671500E+01 -0.12040106193E+03  0.14014299447E+03  0.47000000000E+01 0. -1.
          5    1    3    3  503    0 -0.22252207821E+02  0.36191430150E+02 -0.28998773172E+03  0.29312105847E+03  0.47000000000E+01 0. -1.
         -5    1    3    3    0  503 -0.19500115022E+02 -0.29530089709E+02 -0.14136623825E+02  0.38395505170E+02  0.47000000000E+01 0. -1.
<mgrwt>
<rscale>  0 0.13195299E+03</rscale>
<asrwt>0</asrwt>
<pdfrwt beam="1">  1        5 0.67458970E-02 0.13195305E+03</pdfrwt>
<pdfrwt beam="2">  1       -5 0.71105246E-01 0.13195305E+03</pdfrwt>
<totfact> 0.19879161E+02</totfact>
</mgrwt>
</event>
<event>
 8    1  0.1821556E-007  0.1490211E+03  0.7546771E-02  0.1201682E+00
          5   -1    0    0  501    0  0.00000000000E+00  0.00000000000E+00  0.37507722216E+03  0.37510666828E+03  0.47000000000E+01 0.  1.
         -5   -1    0    0    0  501 -0.00000000000E+00 -0.00000000000E+00 -0.75765964113E+02  0.75911601998E+02  0.47000000000E+01 0.  1.
         25    2    1    2    0    0  0.52421340280E+01  0.80959130234E+02  0.43968920346E+02  0.15537230816E+03  0.12500170978E+03 0.  0.
         25    2    1    2    0    0 -0.52421340280E+01 -0.80959130234E+02  0.25534233771E+03  0.29564596212E+03  0.12499985902E+03 0.  0.
          5    1    3    3  502    0 -0.29035019614E+02  0.10325777434E+03  0.26052491113E+02  0.11048086992E+03  0.47000000000E+01 0.  1.
         -5    1    3    3    0  502  0.34277153642E+02 -0.22298644101E+02  0.17916429233E+02  0.44891438237E+02  0.47000000000E+01 0.  1.
          5    1    4    4  503    0  0.37924447615E+02  0.13483869140E+02  0.42193433781E+02  0.58501746197E+02  0.47000000000E+01 0. -1.
         -5    1    4    4    0  503 -0.43166581643E+02 -0.94442999374E+02  0.21314890392E+03  0.23714421592E+03  0.47000000000E+01 0. -1.
<mgrwt>
<rscale>  0 0.14902071E+03</rscale>
<asrwt>0</asrwt>
<pdfrwt beam="1">  1        5 0.57717657E-01 0.14902110E+03</pdfrwt>
<pdfrwt beam="2">  1       -5 0.11669770E-01 0.14902110E+03</pdfrwt>
<totfact> 0.12729196E+02</totfact>
</mgrwt>
</event>
<event>
 8    1  0.1821556E-007  0.1287264E+03  0.7546771E-02  0.1229361E+00
         -5   -1    0    0    0  501 -0.00000000000E+00  0.00000000000E+00  0.25484907072E+03  0.25489240641E+03  0.47000000000E+01 0. -1.
          5   -1    0    0  501    0  0.00000000000E+00 -0.00000000000E+00 -0.69910244180E+02  0.70068054356E+02  0.47000000000E+01 0. -1.
         25    2    1    2    0    0  0.24343875973E+02  0.18692328045E+02  0.13597469003E+03  0.18723624097E+03  0.12500506461E+03 0.  0.
         25    2    1    2    0    0 -0.24343875973E+02 -0.18692328045E+02  0.48964136516E+02  0.13772421980E+03  0.12501378576E+03 0.  0.
          5    1    3    3  502    0  0.48718569522E+02 -0.42458055349E+01  0.14429413318E+03  0.15242838564E+03  0.47000000000E+01 0. -1.
         -5    1    3    3    0  502 -0.24374693549E+02  0.22938133580E+02 -0.83194431518E+01  0.34807855321E+02  0.47000000000E+01 0. -1.
          5    1    4    4  503    0 -0.54729530490E+01 -0.45114701064E+02 -0.28328056049E+02  0.53757401599E+02  0.47000000000E+01 0. -1.
         -5    1    4    4    0  503 -0.18870922924E+02  0.26422373019E+02  0.77292192565E+02  0.83966818205E+02  0.47000000000E+01 0. -1.
<mgrwt>
<rscale>  0 0.12872424E+03</rscale>
<asrwt>0</asrwt>
<pdfrwt beam="2">  1        5 0.10770895E-01 0.12872635E+03</pdfrwt>
<pdfrwt beam="1">  1       -5 0.39223021E-01 0.12872635E+03</pdfrwt>
<totfact> 0.31449422E+02</totfact>
</mgrwt>
</event>
<event>
 8    1  0.1821556E-007  0.1438300E+03  0.7546771E-02  0.1208269E+00
          5   -1    0    0  501    0  0.00000000000E+00  0.00000000000E+00  0.91157253437E+02  0.91278337267E+02  0.47000000000E+01 0.  1.
         -5   -1    0    0    0  501 -0.00000000000E+00 -0.00000000000E+00 -0.35301400956E+03  0.35304529588E+03  0.47000000000E+01 0.  1.
         25    2    1    2    0    0  0.45791912944E+02  0.54451664977E+02 -0.26382810453E+03  0.30048685676E+03  0.12500079695E+03 0.  0.
         25    2    1    2    0    0 -0.45791912944E+02 -0.54451664977E+02  0.19713484085E+01  0.14383677639E+03  0.12499299547E+03 0.  0.
          5    1    4    4  502    0 -0.70568996074E+02  0.20161898997E+01  0.28843502349E+02  0.76407367815E+02  0.47000000000E+01 0.  1.
         -5    1    4    4    0  502  0.24777083130E+02 -0.56467854877E+02 -0.26872153941E+02  0.67429408571E+02  0.47000000000E+01 0.  1.
          5    1    3    3  503    0  0.71727703939E+02  0.13048351340E+02 -0.72352394540E+02  0.10282063013E+03  0.47000000000E+01 0.  1.
         -5    1    3    3    0  503 -0.25935790994E+02  0.41403313637E+02 -0.19147570999E+03  0.19766622663E+03  0.47000000000E+01 0.  1.
<mgrwt>
<rscale>  0 0.14382835E+03</rscale>
<asrwt>0</asrwt>
<pdfrwt beam="1">  1        5 0.14035914E-01 0.14383005E+03</pdfrwt>
<pdfrwt beam="2">  1       -5 0.54321568E-01 0.14383005E+03</pdfrwt>
<totfact> 0.10321363E+02</totfact>
</mgrwt>
</event>
<event>
 8    1  0.1821556E-007  0.2161772E+03  0.7546771E-02  0.1136767E+00
          5   -1    0    0  501    0  0.00000000000E+00  0.00000000000E+00  0.17514962386E+03  0.17521267288E+03  0.47000000000E+01 0.  1.
         -5   -1    0    0    0  501 -0.00000000000E+00 -0.00000000000E+00 -0.26926887927E+03  0.26930989462E+03  0.47000000000E+01 0.  1.
         25    2    1    2    0    0  0.17021543671E+03 -0.46177483316E+02 -0.68860861291E+02  0.22687969668E+03  0.12500769452E+03 0.  0.
         25    2    1    2    0    0 -0.17021543671E+03  0.46177483316E+02 -0.25258394116E+02  0.21764287082E+03  0.12499911154E+03 0.  0.
          5    1    4    4  502    0 -0.11937014316E+03 -0.18510499923E+02  0.21655569412E+02  0.12281255380E+03  0.47000000000E+01 0. -1.
         -5    1    4    4    0  502 -0.50845293554E+02  0.64687983239E+02 -0.46913963528E+02  0.94830317020E+02  0.47000000000E+01 0. -1.
          5    1    3    3  503    0  0.87625297218E+02  0.59206742361E+01  0.24915893590E+02  0.91411918531E+02  0.47000000000E+01 0. -1.
         -5    1    3    3    0  503  0.82590139491E+02 -0.52098157553E+02 -0.93776754881E+02  0.13546777815E+03  0.47000000000E+01 0. -1.
<mgrwt>
<rscale>  0 0.21617595E+03</rscale>
<asrwt>0</asrwt>
<pdfrwt beam="1">  1        5 0.26954101E-01 0.21617719E+03</pdfrwt>
<pdfrwt beam="2">  1       -5 0.41433986E-01 0.21617719E+03</pdfrwt>
<totfact> 0.60661860E+01</totfact>
</mgrwt>
</event>
<event>
 8    1  0.1821556E-007  0.1598408E+03  0.7546771E-02  0.1188877E+00
         -5   -1    0    0    0  501 -0.00000000000E+00  0.00000000000E+00  0.11068731405E+03  0.11078705471E+03  0.47000000000E+01 0. -1.
          5   -1    0    0  501    0  0.00000000000E+00 -0.00000000000E+00 -0.23148675688E+03  0.23153446527E+03  0.47000000000E+01 0. -1.
         25    2    1    2    0    0  0.73411058322E+02 -0.67342573911E+02 -0.49760067178E+02  0.16740716538E+03  0.12499955595E+03 0.  0.
         25    2    1    2    0    0 -0.73411058322E+02  0.67342573911E+02 -0.71039375647E+02  0.17491435461E+03  0.12499693121E+03 0.  0.
          5    1    3    3  502    0  0.29636881980E+02 -0.90731168532E+02 -0.64649719198E+02  0.11537835980E+03  0.47000000000E+01 0. -1.
         -5    1    3    3    0  502  0.43774176342E+02  0.23388594621E+02  0.14889652021E+02  0.52028805580E+02  0.47000000000E+01 0. -1.
          5    1    4    4  503    0 -0.16610355665E+02 -0.28495885992E+02  0.12502075465E+02  0.35585268367E+02  0.47000000000E+01 0. -1.
         -5    1    4    4    0  503 -0.56800702656E+02  0.95838459903E+02 -0.83541451112E+02  0.13932908624E+03  0.47000000000E+01 0. -1.
<mgrwt>
<rscale>  0 0.15984033E+03</rscale>
<asrwt>0</asrwt>
<pdfrwt beam="2">  1        5 0.35624689E-01 0.15984084E+03</pdfrwt>
<pdfrwt beam="1">  1       -5 0.17040160E-01 0.15984084E+03</pdfrwt>
<totfact> 0.18051348E+02</totfact>
</mgrwt>
</event>
<event>
 8    1  0.1821556E-007  0.1633177E+03  0.7546771E-02  0.1185001E+00
          5   -1    0    0  501    0  0.00000000000E+00  0.00000000000E+00  0.23108828351E+03  0.23113607415E+03  0.47000000000E+01 0.  1.
         -5   -1    0    0    0  501 -0.00000000000E+00 -0.00000000000E+00 -0.11580095031E+03  0.11589629025E+03  0.47000000000E+01 0.  1.
         25    2    1    2    0    0  0.89138607549E+02  0.55695278430E+02  0.46398814374E+02  0.16978079434E+03  0.12500005103E+03 0.  0.
         25    2    1    2    0    0 -0.89138607549E+02 -0.55695278430E+02  0.68888518820E+02  0.17725157006E+03  0.12499934267E+03 0.  0.
          5    1    3    3  502    0  0.79139219964E+02 -0.23108520842E+02  0.13502386629E+02  0.83674514141E+02  0.47000000000E+01 0. -1.
         -5    1    3    3    0  502  0.99993875843E+01  0.78803799272E+02  0.32896427744E+02  0.86106280202E+02  0.47000000000E+01 0. -1.
          5    1    4    4  503    0 -0.10447710562E+03 -0.81383692332E+02  0.61414129759E+02  0.14605668869E+03  0.47000000000E+01 0. -1.
         -5    1    4    4    0  503  0.15338498070E+02  0.25688413902E+02  0.74743890612E+01  0.31194881370E+02  0.47000000000E+01 0. -1.
<mgrwt>
<rscale>  0 0.16331756E+03</rscale>
<asrwt>0</asrwt>
<pdfrwt beam="1">  1        5 0.35563053E-01 0.16331769E+03</pdfrwt>
<pdfrwt beam="2">  1       -5 0.17826541E-01 0.16331769E+03</pdfrwt>
<totfact> 0.16779404E+02</totfact>
</mgrwt>
</event>
<event>
 8    1  0.1821556E-007  0.1969238E+03  0.7546771E-02  0.1152361E+00
          5   -1    0    0  501    0  0.00000000000E+00  0.00000000000E+00  0.89894039394E+03  0.89895268054E+03  0.47000000000E+01 0. -1.
         -5   -1    0    0    0  501 -0.00000000000E+00 -0.00000000000E+00 -0.43117100070E+02  0.43372506481E+02  0.47000000000E+01 0. -1.
         25    2    1    2    0    0  0.75894650023E+02  0.13188926155E+03  0.45266195631E+03  0.49364141082E+03  0.12499688227E+03 0.  0.
         25    2    1    2    0    0 -0.75894650023E+02 -0.13188926155E+03  0.40316133756E+03  0.44868377620E+03  0.12499316664E+03 0.  0.
          5    1    4    4  502    0  0.27920902553E+01  0.11037110425E+02  0.12919412803E+03  0.12977991483E+03  0.47000000000E+01 0. -1.
         -5    1    4    4    0  502 -0.78686740278E+02 -0.14292637198E+03  0.27396720953E+03  0.31890386137E+03  0.47000000000E+01 0. -1.
          5    1    3    3  503    0 -0.19904958384E+02  0.89302255854E+02  0.22602859420E+03  0.24388955628E+03  0.47000000000E+01 0.  1.
         -5    1    3    3    0  503  0.95799608407E+02  0.42587005696E+02  0.22663336211E+03  0.24975185454E+03  0.47000000000E+01 0.  1.
<mgrwt>
<rscale>  0 0.19692324E+03</rscale>
<asrwt>0</asrwt>
<pdfrwt beam="1">  1        5 0.13831911E+00 0.19692383E+03</pdfrwt>
<pdfrwt beam="2">  1       -5 0.66539918E-02 0.19692383E+03</pdfrwt>
<totfact> 0.45032224E+01</totfact>
</mgrwt>
</event>
<event>
 8    1  0.1821556E-007  0.1633217E+03  0.7546771E-02  0.1184997E+00
          5   -1    0    0  501    0  0.00000000000E+00  0.00000000000E+00  0.35190694220E+03  0.35193832694E+03  0.47000000000E+01 0.  1.
         -5   -1    0    0    0  501 -0.00000000000E+00 -0.00000000000E+00 -0.76822396626E+02  0.76966035518E+02  0.47000000000E+01 0.  1.
         25    2    1    2    0    0  0.10504047490E+03  0.37512452930E+01  0.11153840812E+03  0.19777462032E+03  0.12500564286E+03 0.  0.
         25    2    1    2    0    0 -0.10504047490E+03 -0.37512452930E+01  0.16354613745E+03  0.23112974214E+03  0.12500418160E+03 0.  0.
          5    1    3    3  502    0  0.35007279588E+02 -0.10249642638E+02  0.12017967894E+03  0.12568138298E+03  0.47000000000E+01 0. -1.
         -5    1    3    3    0  502  0.70033195310E+02  0.14000887930E+02 -0.86412708181E+01  0.72093237336E+02  0.47000000000E+01 0. -1.
          5    1    4    4  503    0 -0.56478681801E+01 -0.52036310498E+02  0.57634061452E+02  0.77996481104E+02  0.47000000000E+01 0.  1.
         -5    1    4    4    0  503 -0.99392606718E+02  0.48285065205E+02  0.10591207600E+03  0.15313326103E+03  0.47000000000E+01 0.  1.
<mgrwt>
<rscale>  0 0.16332144E+03</rscale>
<asrwt>0</asrwt>
<pdfrwt beam="1">  1        5 0.54152992E-01 0.16332172E+03</pdfrwt>
<pdfrwt beam="2">  1       -5 0.11832294E-01 0.16332172E+03</pdfrwt>
<totfact> 0.14678365E+02</totfact>
</mgrwt>
</event>
<event>
 8    1  0.1821556E-007  0.1275946E+03  0.7546771E-02  0.1231071E+00
         -5   -1    0    0    0  501 -0.00000000000E+00  0.00000000000E+00  0.11303833605E+03  0.11313600407E+03  0.47000000000E+01 0.  1.
          5   -1    0    0  501    0  0.00000000000E+00 -0.00000000000E+00 -0.20638385513E+03  0.20643736498E+03  0.47000000000E+01 0.  1.
         25    2    1    2    0    0  0.66860778282E+00 -0.25589171836E+02  0.41267028414E+02  0.13410201736E+03  0.12500052270E+03 0.  0.
         25    2    1    2    0    0 -0.66860778282E+00  0.25589171836E+02 -0.13461254750E+03  0.18547135169E+03  0.12499532632E+03 0.  0.
          5    1    4    4  502    0 -0.19962784118E+02 -0.46097702163E+02 -0.73759924849E+02  0.89365135306E+02  0.47000000000E+01 0.  1.
         -5    1    4    4    0  502  0.19294176335E+02  0.71686873999E+02 -0.60852622648E+02  0.96106216382E+02  0.47000000000E+01 0.  1.
          5    1    3    3  503    0 -0.12364050748E+02  0.16288141117E+02 -0.37988891231E+02  0.43398377262E+02  0.47000000000E+01 0. -1.
         -5    1    3    3    0  503  0.13032658531E+02 -0.41877312953E+02  0.79255919645E+02  0.90703640100E+02  0.47000000000E+01 0. -1.
<mgrwt>
<rscale>  0 0.12759333E+03</rscale>
<asrwt>0</asrwt>
<pdfrwt beam="2">  1        5 0.31762991E-01 0.12759461E+03</pdfrwt>
<pdfrwt beam="1">  1       -5 0.17402142E-01 0.12759461E+03</pdfrwt>
<totfact> 0.20247537E+02</totfact>
</mgrwt>
</event>
<event>
 8    1  0.1821556E-007  0.1626896E+03  0.7546771E-02  0.1185694E+00
          5   -1    0    0  501    0  0.00000000000E+00  0.00000000000E+00  0.21811769680E+02  0.22312402304E+02  0.47000000000E+01 0. -1.
         -5   -1    0    0    0  501 -0.00000000000E+00 -0.00000000000E+00 -0.12820286352E+04  0.12820372504E+04  0.47000000000E+01 0. -1.
         25    2    1    2    0    0  0.99501883879E+02 -0.30708995801E+02 -0.79587988657E+03  0.81233780066E+03  0.12499696489E+03 0.  0.
         25    2    1    2    0    0 -0.99501883879E+02  0.30708995801E+02 -0.46433697891E+03  0.49201185202E+03  0.12499266068E+03 0.  0.
          5    1    4    4  502    0 -0.76087582421E+02 -0.26936985823E+02 -0.13950279045E+03  0.16123907699E+03  0.47000000000E+01 0.  1.
         -5    1    4    4    0  502 -0.23414301458E+02  0.57645981624E+02 -0.32483418845E+03  0.33077277503E+03  0.47000000000E+01 0.  1.
          5    1    3    3  503    0  0.10730133399E+03  0.93503236573E+01 -0.39802411112E+03  0.41236669102E+03  0.47000000000E+01 0.  1.
         -5    1    3    3    0  503 -0.77994501077E+01 -0.40059319459E+02 -0.39785577544E+03  0.39997110964E+03  0.47000000000E+01 0.  1.
<mgrwt>
<rscale>  0 0.16268878E+03</rscale>
<asrwt>0</asrwt>
<pdfrwt beam="1">  1        5 0.33948308E-02 0.16268961E+03</pdfrwt>
<pdfrwt beam="2">  1       -5 0.19727429E+00 0.16268961E+03</pdfrwt>
<totfact> 0.47424295E+01</totfact>
</mgrwt>
</event>
<event>
 8    1  0.1821556E-007  0.1782657E+03  0.7546771E-02  0.1169492E+00
          5   -1    0    0  501    0  0.00000000000E+00  0.00000000000E+00  0.41335874396E+03  0.41338546323E+03  0.47000000000E+01 0.  1.
         -5   -1    0    0    0  501 -0.00000000000E+00 -0.00000000000E+00 -0.77441351727E+02  0.77583844693E+02  0.47000000000E+01 0.  1.
         25    2    1    2    0    0  0.25348055747E+02 -0.12454556981E+03  0.19065497282E+03  0.26101312822E+03  0.12499764620E+03 0.  0.
         25    2    1    2    0    0 -0.25348055747E+02  0.12454556981E+03  0.14526241941E+03  0.22995617970E+03  0.12499820478E+03 0.  0.
          5    1    4    4  502    0  0.32853301984E+02  0.10251889081E+03  0.57127702039E+02  0.12196362886E+03  0.47000000000E+01 0.  1.
         -5    1    4    4    0  502 -0.58201357730E+02  0.22026678993E+02  0.88134717376E+02  0.10799255084E+03  0.47000000000E+01 0.  1.
          5    1    3    3  503    0  0.24688962760E+02 -0.88576211269E+02  0.20282517554E+03  0.22274521750E+03  0.47000000000E+01 0.  1.
         -5    1    3    3    0  503  0.65909298667E+00 -0.35969358539E+02 -0.12170202719E+02  0.38267910728E+02  0.47000000000E+01 0.  1.
<mgrwt>
<rscale>  0 0.17826564E+03</rscale>
<asrwt>0</asrwt>
<pdfrwt beam="1">  1        5 0.63606670E-01 0.17826574E+03</pdfrwt>
<pdfrwt beam="2">  1       -5 0.11927070E-01 0.17826574E+03</pdfrwt>
<totfact> 0.10442722E+02</totfact>
</mgrwt>
</event>
<event>
 8    1  0.1821556E-007  0.1580314E+03  0.7546771E-02  0.1190938E+00
         -5   -1    0    0    0  501 -0.00000000000E+00  0.00000000000E+00  0.94172544348E+02  0.94289756119E+02  0.47000000000E+01 0.  1.
          5   -1    0    0  501    0  0.00000000000E+00 -0.00000000000E+00 -0.26597996243E+03  0.26602148488E+03  0.47000000000E+01 0.  1.
         25    2    1    2    0    0 -0.89915928891E+02  0.35567317207E+02 -0.74350442011E+02  0.17464545526E+03  0.12499255376E+03 0.  0.
         25    2    1    2    0    0  0.89915928891E+02 -0.35567317207E+02 -0.97456976075E+02  0.18566578574E+03  0.12499605388E+03 0.  0.
          5    1    4    4  502    0  0.35725365025E+02  0.38309045412E+02 -0.74330115898E+02  0.91054603376E+02  0.47000000000E+01 0. -1.
         -5    1    4    4    0  502  0.54190563866E+02 -0.73876362619E+02 -0.23126860177E+02  0.94611182360E+02  0.47000000000E+01 0. -1.
          5    1    3    3  503    0  0.19379183178E+02 -0.56076273031E+01 -0.51547174157E+02  0.55553572236E+02  0.47000000000E+01 0.  1.
         -5    1    3    3    0  503 -0.10929511207E+03  0.41174944510E+02 -0.22803267853E+02  0.11909188302E+03  0.47000000000E+01 0.  1.
<mgrwt>
<rscale>  0 0.15803070E+03</rscale>
<asrwt>0</asrwt>
<pdfrwt beam="2">  1        5 0.40932204E-01 0.15803140E+03</pdfrwt>
<pdfrwt beam="1">  1       -5 0.14500294E-01 0.15803140E+03</pdfrwt>
<totfact> 0.18193584E+02</totfact>
</mgrwt>
</event>
<event>
 8    1  0.1821556E-007  0.1575791E+03  0.7546771E-02  0.1191459E+00
         -5   -1    0    0    0  501 -0.00000000000E+00  0.00000000000E+00  0.18042409984E+03  0.18048530634E+03  0.47000000000E+01 0.  1.
          5   -1    0    0  501    0  0.00000000000E+00 -0.00000000000E+00 -0.13997458044E+03  0.14005346540E+03  0.47000000000E+01 0.  1.
         25    2    1    2    0    0 -0.83720998974E+02  0.46868404996E+02 -0.10898063311E+01  0.15758281852E+03  0.12500121583E+03 0.  0.
         25    2    1    2    0    0  0.83720998974E+02 -0.46868404996E+02  0.41539325730E+02  0.16295595321E+03  0.12499309600E+03 0.  0.
          5    1    4    4  502    0 -0.25895408774E+02  0.13293441224E+02  0.20887662970E+02  0.36134086947E+02  0.47000000000E+01 0.  1.
         -5    1    4    4    0  502  0.10961640775E+03 -0.60161846220E+02  0.20651662760E+02  0.12682186626E+03  0.47000000000E+01 0.  1.
          5    1    3    3  503    0 -0.49157194146E+02 -0.39935264319E+02 -0.67216557961E+01  0.63863336346E+02  0.47000000000E+01 0. -1.
         -5    1    3    3    0  503 -0.34563804828E+02  0.86803669315E+02  0.56318494649E+01  0.93719482175E+02  0.47000000000E+01 0. -1.
<mgrwt>
<rscale>  0 0.15757744E+03</rscale>
<asrwt>0</asrwt>
<pdfrwt beam="2">  1        5 0.21545327E-01 0.15757905E+03</pdfrwt>
<pdfrwt beam="1">  1       -5 0.27768330E-01 0.15757905E+03</pdfrwt>
<totfact> 0.19013706E+02</totfact>
</mgrwt>
</event>
<event>
 8    1  0.1821556E-007  0.1325579E+03  0.7546771E-02  0.1223709E+00
          5   -1    0    0  501    0  0.00000000000E+00  0.00000000000E+00  0.13183473653E+03  0.13191848906E+03  0.47000000000E+01 0. -1.
         -5   -1    0    0    0  501 -0.00000000000E+00 -0.00000000000E+00 -0.13314135821E+03  0.13322428932E+03  0.47000000000E+01 0. -1.
         25    2    1    2    0    0 -0.18597045507E+02 -0.40005320355E+02  0.11339338349E+01  0.13256238987E+03  0.12500090258E+03 0.  0.
         25    2    1    2    0    0  0.18597045507E+02  0.40005320355E+02 -0.24405555183E+01  0.13258038851E+03  0.12500130938E+03 0.  0.
          5    1    4    4  502    0 -0.76062025926E+01  0.42794427530E+02  0.54377707090E+02  0.69772791071E+02  0.47000000000E+01 0. -1.
         -5    1    4    4    0  502  0.26203248099E+02 -0.27891071746E+01 -0.56818262608E+02  0.62807597435E+02  0.47000000000E+01 0. -1.
          5    1    3    3  503    0  0.10549072638E+02 -0.79076481732E+01 -0.57674446036E+02  0.59348509322E+02  0.47000000000E+01 0.  1.
         -5    1    3    3    0  503 -0.29146118145E+02 -0.32097672182E+02  0.58808379871E+02  0.73213880552E+02  0.47000000000E+01 0.  1.
<mgrwt>
<rscale>  0 0.13255783E+03</rscale>
<asrwt>0</asrwt>
<pdfrwt beam="1">  1        5 0.20295089E-01 0.13255792E+03</pdfrwt>
<pdfrwt beam="2">  1       -5 0.20496108E-01 0.13255792E+03</pdfrwt>
<totfact> 0.35813198E+02</totfact>
</mgrwt>
</event>
<event>
 8    1  0.1821556E-007  0.1364685E+03  0.7546771E-02  0.1218167E+00
          5   -1    0    0  501    0  0.00000000000E+00  0.00000000000E+00  0.29990220692E+03  0.29993903333E+03  0.47000000000E+01 0. -1.
         -5   -1    0    0    0  501 -0.00000000000E+00 -0.00000000000E+00 -0.75668712528E+02  0.75814537232E+02  0.47000000000E+01 0. -1.
         25    2    1    2    0    0  0.52183118083E+02  0.16451505671E+02  0.32266590550E+02  0.14023119920E+03  0.12501970450E+03 0.  0.
         25    2    1    2    0    0 -0.52183118083E+02 -0.16451505671E+02  0.19196690384E+03  0.23552237136E+03  0.12500306152E+03 0.  0.
          5    1    3    3  502    0  0.91036981586E+02  0.87110768381E+01  0.39423501002E+02  0.99699133934E+02  0.47000000000E+01 0. -1.
         -5    1    3    3    0  502 -0.38853863503E+02  0.77404288328E+01 -0.71569104515E+01  0.40532065267E+02  0.47000000000E+01 0. -1.
          5    1    4    4  503    0 -0.25155209247E+02  0.45558365931E+02  0.14195464821E+03  0.15126652441E+03  0.47000000000E+01 0.  1.
         -5    1    4    4    0  503 -0.27027908836E+02 -0.62009871602E+02  0.50012255630E+02  0.84255846951E+02  0.47000000000E+01 0.  1.
<mgrwt>
<rscale>  0 0.13646471E+03</rscale>
<asrwt>0</asrwt>
<pdfrwt beam="1">  1        5 0.46152852E-01 0.13646852E+03</pdfrwt>
<pdfrwt beam="2">  1       -5 0.11655390E-01 0.13646852E+03</pdfrwt>
<totfact> 0.19968313E+02</totfact>
</mgrwt>
</event>
<event>
 8    1  0.1821556E-007  0.1444043E+03  0.7546771E-02  0.1207524E+00
          5   -1    0    0  501    0  0.00000000000E+00  0.00000000000E+00  0.80255404280E+02  0.80392909614E+02  0.47000000000E+01 0. -1.
         -5   -1    0    0    0  501 -0.00000000000E+00 -0.00000000000E+00 -0.25944600526E+03  0.25948857324E+03  0.47000000000E+01 0. -1.
         25    2    1    2    0    0  0.28655057011E+02 -0.66365811924E+02 -0.90387357237E+02  0.17035980505E+03  0.12500822191E+03 0.  0.
         25    2    1    2    0    0 -0.28655057011E+02  0.66365811924E+02 -0.88803243741E+02  0.16952167781E+03  0.12500419938E+03 0.  0.
          5    1    4    4  502    0 -0.16547184758E+02  0.95550886538E+02 -0.96260123717E+02  0.13671826015E+03  0.47000000000E+01 0.  1.
         -5    1    4    4    0  502 -0.12107872254E+02 -0.29185074614E+02  0.74568799763E+01  0.32803417653E+02  0.47000000000E+01 0.  1.
          5    1    3    3  503    0  0.44318773635E+01  0.22183212948E+02 -0.73309415565E+02  0.76864145634E+02  0.47000000000E+01 0.  1.
         -5    1    3    3    0  503  0.24223179648E+02 -0.88549024871E+02 -0.17077941672E+02  0.93495659416E+02  0.47000000000E+01 0.  1.
<mgrwt>
<rscale>  0 0.14440338E+03</rscale>
<asrwt>0</asrwt>
<pdfrwt beam="1">  1        5 0.12360837E-01 0.14440425E+03</pdfrwt>
<pdfrwt beam="2">  1       -5 0.39928622E-01 0.14440425E+03</pdfrwt>
<totfact> 0.24744123E+02</totfact>
</mgrwt>
</event>
<event>
 8    1  0.1821556E-007  0.1307140E+03  0.7546771E-02  0.1226401E+00
          5   -1    0    0  501    0  0.00000000000E+00  0.00000000000E+00  0.16903904946E+03  0.16910437677E+03  0.47000000000E+01 0. -1.
         -5   -1    0    0    0  501 -0.00000000000E+00 -0.00000000000E+00 -0.10093985361E+03  0.10104921597E+03  0.47000000000E+01 0. -1.
         25    2    1    2    0    0 -0.38071224421E+02 -0.33901045581E+01  0.34769487290E+02  0.13525921366E+03  0.12500090678E+03 0.  0.
         25    2    1    2    0    0  0.38071224421E+02  0.33901045581E+01  0.33329708560E+02  0.13489437908E+03  0.12499885238E+03 0.  0.
          5    1    4    4  502    0  0.60420804513E+02  0.45755026745E+02  0.40778401426E+02  0.86192598948E+02  0.47000000000E+01 0.  1.
         -5    1    4    4    0  502 -0.22349580093E+02 -0.42364922187E+02 -0.74486928662E+01  0.48701780128E+02  0.47000000000E+01 0.  1.
          5    1    3    3  503    0  0.44657128413E+02 -0.12722160764E+02  0.60261059223E+01  0.47058648995E+02  0.47000000000E+01 0.  1.
         -5    1    3    3    0  503 -0.82728352834E+02  0.93320562057E+01  0.28743381368E+02  0.88200564670E+02  0.47000000000E+01 0.  1.
<mgrwt>
<rscale>  0 0.13071346E+03</rscale>
<asrwt>0</asrwt>
<pdfrwt beam="1">  1        5 0.26019445E-01 0.13071395E+03</pdfrwt>
<pdfrwt beam="2">  1       -5 0.15542646E-01 0.13071395E+03</pdfrwt>
<totfact> 0.37031504E+02</totfact>
</mgrwt>
</event>
<event>
 8    1  0.1821556E-007  0.1340913E+03  0.7546771E-02  0.1221511E+00
         -5   -1    0    0    0  501 -0.00000000000E+00  0.00000000000E+00  0.19694423378E+02  0.20247476687E+02  0.47000000000E+01 0.  1.
          5   -1    0    0  501    0  0.00000000000E+00 -0.00000000000E+00 -0.10681082827E+04  0.10681186233E+04  0.47000000000E+01 0.  1.
         25    2    1    2    0    0  0.47867126011E+02 -0.79906925093E+01 -0.30820680061E+03  0.33611292435E+03  0.12500141220E+03 0.  0.
         25    2    1    2    0    0 -0.47867126011E+02  0.79906925093E+01 -0.74020705868E+03  0.75225317567E+03  0.12499295048E+03 0.  0.
          5    1    3    3  502    0  0.55178640716E+02 -0.38282454442E+02 -0.29388443490E+03  0.30149689847E+03  0.47000000000E+01 0. -1.
         -5    1    3    3    0  502 -0.73115147050E+01  0.30291761933E+02 -0.14322365716E+02  0.34616025884E+02  0.47000000000E+01 0. -1.
          5    1    4    4  503    0 -0.26675459366E+02  0.65004330112E+02 -0.46988150542E+03  0.47512931104E+03  0.47000000000E+01 0. -1.
         -5    1    4    4    0  503 -0.21191666645E+02 -0.57013637602E+02 -0.27032555326E+03  0.27712386464E+03  0.47000000000E+01 0. -1.
<mgrwt>
<rscale>  0 0.13408929E+03</rscale>
<asrwt>0</asrwt>
<pdfrwt beam="2">  1        5 0.16436764E+00 0.13409126E+03</pdfrwt>
<pdfrwt beam="1">  1       -5 0.30732501E-02 0.13409126E+03</pdfrwt>
<totfact> 0.90446070E+01</totfact>
</mgrwt>
</event>
<event>
 8    1  0.1821556E-007  0.1428129E+03  0.7546771E-02  0.1209594E+00
         -5   -1    0    0    0  501 -0.00000000000E+00  0.00000000000E+00  0.34602248275E+03  0.34605440117E+03  0.47000000000E+01 0. -1.
          5   -1    0    0  501    0  0.00000000000E+00 -0.00000000000E+00 -0.93763898625E+02  0.93881620594E+02  0.47000000000E+01 0. -1.
         25    2    1    2    0    0 -0.58338862912E+02 -0.36950373137E+02  0.26029435964E+03  0.29689842388E+03  0.12500706955E+03 0.  0.
         25    2    1    2    0    0  0.58338862912E+02  0.36950373137E+02 -0.80357755141E+01  0.14303759789E+03  0.12500571075E+03 0.  0.
          5    1    4    4  502    0  0.81849857829E+02  0.46843400496E+02 -0.39420914778E+02  0.10232205001E+03  0.47000000000E+01 0. -1.
         -5    1    4    4    0  502 -0.23510994917E+02 -0.98930273593E+01  0.31385139264E+02  0.40715547877E+02  0.47000000000E+01 0. -1.
          5    1    3    3  503    0 -0.95577072296E+02 -0.37566631864E+02  0.16413275233E+03  0.19366950965E+03  0.47000000000E+01 0. -1.
         -5    1    3    3    0  503  0.37238209384E+02  0.61625872691E+00  0.96161607310E+02  0.10322891423E+03  0.47000000000E+01 0. -1.
<mgrwt>
<rscale>  0 0.14281259E+03</rscale>
<asrwt>0</asrwt>
<pdfrwt beam="2">  1        5 0.14436726E-01 0.14281289E+03</pdfrwt>
<pdfrwt beam="1">  1       -5 0.53245739E-01 0.14281289E+03</pdfrwt>
<totfact> 0.10218077E+02</totfact>
</mgrwt>
</event>
<event>
 8    1  0.1821556E-007  0.1257660E+03  0.7546771E-02  0.1233877E+00
         -5   -1    0    0    0  501 -0.00000000000E+00  0.00000000000E+00  0.11204717985E+03  0.11214571108E+03  0.47000000000E+01 0. -1.
          5   -1    0    0  501    0  0.00000000000E+00 -0.00000000000E+00 -0.15133328553E+03  0.15140625255E+03  0.47000000000E+01 0. -1.
         25    2    1    2    0    0  0.10804335396E+02  0.86989918603E+01  0.14832009154E+02  0.12663757431E+03  0.12499872243E+03 0.  0.
         25    2    1    2    0    0 -0.10804335396E+02 -0.86989918603E+01 -0.54118114835E+02  0.13691438932E+03  0.12499749408E+03 0.  0.
          5    1    4    4  502    0 -0.29014172231E+02 -0.61878220998E+02 -0.21717619196E+02  0.71864326391E+02  0.47000000000E+01 0. -1.
         -5    1    4    4    0  502  0.18209836835E+02  0.53179229137E+02 -0.32400495639E+02  0.65050062928E+02  0.47000000000E+01 0. -1.
          5    1    3    3  503    0  0.21358646287E+02 -0.77956225047E+01  0.66898128676E+02  0.70812520939E+02  0.47000000000E+01 0.  1.
         -5    1    3    3    0  503 -0.10554310891E+02  0.16494614365E+02 -0.52066119521E+02  0.55825053367E+02  0.47000000000E+01 0.  1.
<mgrwt>
<rscale>  0 0.12576569E+03</rscale>
<asrwt>0</asrwt>
<pdfrwt beam="2">  1        5 0.23295236E-01 0.12576600E+03</pdfrwt>
<pdfrwt beam="1">  1       -5 0.17251220E-01 0.12576600E+03</pdfrwt>
<totfact> 0.37282598E+02</totfact>
</mgrwt>
</event>
<event>
 8    1  0.1821556E-007  0.1251740E+03  0.7546771E-02  0.1234803E+00
         -5   -1    0    0    0  501 -0.00000000000E+00  0.00000000000E+00  0.20380075459E+03  0.20385494247E+03  0.47000000000E+01 0. -1.
          5   -1    0    0  501    0  0.00000000000E+00 -0.00000000000E+00 -0.95243954993E+02  0.95359849846E+02  0.47000000000E+01 0. -1.
         25    2    1    2    0    0 -0.34822505459E+01  0.54787891241E+01  0.12016615161E+03  0.17351779910E+03  0.12500551753E+03 0.  0.
         25    2    1    2    0    0  0.34822505459E+01 -0.54787891241E+01 -0.11609352014E+02  0.12569699322E+03  0.12499125510E+03 0.  0.
          5    1    4    4  502    0  0.62641170835E+02  0.12987638861E+01  0.67894596606E+01  0.63196438457E+02  0.47000000000E+01 0.  1.
         -5    1    4    4    0  502 -0.59158920289E+02 -0.67775530102E+01 -0.18398811675E+02  0.62500554762E+02  0.47000000000E+01 0.  1.
          5    1    3    3  503    0  0.31313006753E+02  0.44686212855E+02  0.16404491097E+02  0.57171315704E+02  0.47000000000E+01 0. -1.
         -5    1    3    3    0  503 -0.34795257299E+02 -0.39207423731E+02  0.10376166051E+03  0.11634648340E+03  0.47000000000E+01 0. -1.
<mgrwt>
<rscale>  0 0.12517041E+03</rscale>
<asrwt>0</asrwt>
<pdfrwt beam="2">  1        5 0.14666000E-01 0.12517397E+03</pdfrwt>
<pdfrwt beam="1">  1       -5 0.31367045E-01 0.12517397E+03</pdfrwt>
<totfact> 0.28134428E+02</totfact>
</mgrwt>
</event>
<event>
 8    1  0.1821556E-007  0.1415304E+03  0.7546771E-02  0.1211287E+00
          5   -1    0    0  501    0  0.00000000000E+00  0.00000000000E+00  0.26031950024E+02  0.26452833913E+02  0.47000000000E+01 0.  1.
         -5   -1    0    0    0  501 -0.00000000000E+00 -0.00000000000E+00 -0.76352413615E+03  0.76353860183E+03  0.47000000000E+01 0.  1.
         25    2    1    2    0    0  0.38979131521E+02 -0.53711940617E+02 -0.35682696675E+03  0.38386722923E+03  0.12499688083E+03 0.  0.
         25    2    1    2    0    0 -0.38979131521E+02  0.53711940617E+02 -0.38066521937E+03  0.40612420651E+03  0.12500606631E+03 0.  0.
          5    1    4    4  502    0  0.45077321882E+02  0.26644801899E+02 -0.12538905966E+03  0.13596476271E+03  0.47000000000E+01 0.  1.
         -5    1    4    4    0  502 -0.84056453402E+02  0.27067138719E+02 -0.25527615971E+03  0.27015944380E+03  0.47000000000E+01 0.  1.
          5    1    3    3  503    0 -0.42802896793E+02 -0.13937894139E+01 -0.13422322914E+03  0.14096806682E+03  0.47000000000E+01 0.  1.
         -5    1    3    3    0  503  0.81782028313E+02 -0.52318151203E+02 -0.22260373762E+03  0.24289916241E+03  0.47000000000E+01 0.  1.
<mgrwt>
<rscale>  0 0.14152840E+03</rscale>
<asrwt>0</asrwt>
<pdfrwt beam="1">  1        5 0.40384044E-02 0.14153043E+03</pdfrwt>
<pdfrwt beam="2">  1       -5 0.11749872E+00 0.14153043E+03</pdfrwt>
<totfact> 0.14430997E+02</totfact>
</mgrwt>
</event>
<event>
 8    1  0.1821556E-007  0.2417687E+03  0.7546771E-02  0.1118620E+00
          5   -1    0    0  501    0  0.00000000000E+00  0.00000000000E+00  0.77185180968E+03  0.77186611929E+03  0.47000000000E+01 0.  1.
         -5   -1    0    0    0  501 -0.00000000000E+00 -0.00000000000E+00 -0.81093906226E+02  0.81229992164E+02  0.47000000000E+01 0.  1.
         25    2    1    2    0    0 -0.16769478755E+03 -0.12126848647E+03  0.23488364656E+03  0.33707929610E+03  0.12499814743E+03 0.  0.
         25    2    1    2    0    0  0.16769478755E+03  0.12126848647E+03  0.45587425689E+03  0.51601681535E+03  0.12499771215E+03 0.  0.
          5    1    3    3  502    0 -0.70892224286E+02 -0.26939188263E+02  0.17178700138E+03  0.18784113280E+03  0.47000000000E+01 0. -1.
         -5    1    3    3    0  502 -0.96802563260E+02 -0.94329298205E+02  0.63096645181E+02  0.14923816330E+03  0.47000000000E+01 0. -1.
          5    1    4    4  503    0  0.11318304507E+03  0.71072242225E+02  0.14866871976E+03  0.19996535585E+03  0.47000000000E+01 0.  1.
         -5    1    4    4    0  503  0.54511742478E+02  0.50196244244E+02  0.30720553714E+03  0.31605145950E+03  0.47000000000E+01 0.  1.
<mgrwt>
<rscale>  0 0.24176869E+03</rscale>
<asrwt>0</asrwt>
<pdfrwt beam="1">  1        5 0.11875799E+00 0.24176874E+03</pdfrwt>
<pdfrwt beam="2">  1       -5 0.12487555E-01 0.24176874E+03</pdfrwt>
<totfact> 0.23491905E+01</totfact>
</mgrwt>
</event>
<event>
 8    1  0.1821556E-007  0.1406227E+03  0.7546771E-02  0.1212495E+00
         -5   -1    0    0    0  501 -0.00000000000E+00  0.00000000000E+00  0.21974837457E+02  0.22471837514E+02  0.47000000000E+01 0. -1.
          5   -1    0    0  501    0  0.00000000000E+00 -0.00000000000E+00 -0.13632363094E+04  0.13632444115E+04  0.47000000000E+01 0. -1.
         25    2    1    2    0    0  0.15247119199E+02  0.62584309784E+02 -0.26218240664E+03  0.29751361157E+03  0.12500185695E+03 0.  0.
         25    2    1    2    0    0 -0.15247119199E+02 -0.62584309784E+02 -0.10790790653E+04  0.10882026374E+04  0.12499632124E+03 0.  0.
          5    1    3    3  502    0 -0.36120118965E+02  0.72594886139E+01 -0.16848827651E+02  0.40784018466E+02  0.47000000000E+01 0.  1.
         -5    1    3    3    0  502  0.51367238165E+02  0.55324821170E+02 -0.24533357899E+03  0.25672959310E+03  0.47000000000E+01 0.  1.
          5    1    4    4  503    0 -0.11924412710E+01 -0.68218857510E+02 -0.25621044767E+03  0.26518129257E+03  0.47000000000E+01 0.  1.
         -5    1    4    4    0  503 -0.14054677928E+02  0.56345477259E+01 -0.82286861767E+03  0.82302134483E+03  0.47000000000E+01 0.  1.
<mgrwt>
<rscale>  0 0.14062144E+03</rscale>
<asrwt>0</asrwt>
<pdfrwt beam="2">  1        5 0.20976745E+00 0.14062267E+03</pdfrwt>
<pdfrwt beam="1">  1       -5 0.34195993E-02 0.14062267E+03</pdfrwt>
<totfact> 0.37126571E+01</totfact>
</mgrwt>
</event>
<event>
 8    1  0.1821556E-007  0.1731947E+03  0.7546771E-02  0.1174557E+00
          5   -1    0    0  501    0  0.00000000000E+00  0.00000000000E+00  0.33803227935E+02  0.34128407798E+02  0.47000000000E+01 0. -1.
         -5   -1    0    0    0  501 -0.00000000000E+00 -0.00000000000E+00 -0.14012318836E+04  0.14012397659E+04  0.47000000000E+01 0. -1.
         25    2    1    2    0    0  0.38954690908E+02 -0.11337714144E+03 -0.11202020134E+04  0.11335117867E+04  0.12499830285E+03 0.  0.
         25    2    1    2    0    0 -0.38954690908E+02  0.11337714144E+03 -0.24722664225E+03  0.30185638696E+03  0.12499768626E+03 0.  0.
          5    1    4    4  502    0 -0.15734586473E+02  0.57550618782E+02 -0.14803225217E+02  0.61651248248E+02  0.47000000000E+01 0. -1.
         -5    1    4    4    0  502 -0.23220104435E+02  0.55826522658E+02 -0.23242341703E+03  0.24020513871E+03  0.47000000000E+01 0. -1.
          5    1    3    3  503    0  0.34015940605E+02 -0.13917826752E+03 -0.85090990720E+03  0.86290059366E+03  0.47000000000E+01 0.  1.
         -5    1    3    3    0  503  0.49387503028E+01  0.25801126075E+02 -0.26929210618E+03  0.27061119307E+03  0.47000000000E+01 0.  1.
<mgrwt>
<rscale>  0 0.17319463E+03</rscale>
<asrwt>0</asrwt>
<pdfrwt beam="1">  1        5 0.52261178E-02 0.17319475E+03</pdfrwt>
<pdfrwt beam="2">  1       -5 0.21559971E+00 0.17319475E+03</pdfrwt>
<totfact> 0.17795866E+01</totfact>
</mgrwt>
</event>
<event>
 8    1  0.1821556E-007  0.1279090E+03  0.7546771E-02  0.1230594E+00
          5   -1    0    0  501    0  0.00000000000E+00  0.00000000000E+00  0.25236404322E+02  0.25670335079E+02  0.47000000000E+01 0. -1.
         -5   -1    0    0    0  501 -0.00000000000E+00 -0.00000000000E+00 -0.65812580403E+03  0.65814258633E+03  0.47000000000E+01 0. -1.
         25    2    1    2    0    0 -0.26364589600E+02  0.63409724548E+01 -0.36942894691E+03  0.39094415990E+03  0.12499715928E+03 0.  0.
         25    2    1    2    0    0  0.26364589600E+02 -0.63409724548E+01 -0.26346045280E+03  0.29286876151E+03  0.12500160702E+03 0.  0.
          5    1    4    4  502    0  0.27140529229E+02 -0.47281452671E+02 -0.23847059022E+03  0.24466805368E+03  0.47000000000E+01 0. -1.
         -5    1    4    4    0  502 -0.77593962939E+00  0.40940480216E+02 -0.24989862583E+02  0.48200707822E+02  0.47000000000E+01 0. -1.
          5    1    3    3  503    0 -0.71479993810E+02 -0.71092121244E+01 -0.14878238097E+03  0.16528223528E+03  0.47000000000E+01 0.  1.
         -5    1    3    3    0  503  0.45115404210E+02  0.13450184579E+02 -0.22064656594E+03  0.22566192462E+03  0.47000000000E+01 0.  1.
<mgrwt>
<rscale>  0 0.12790787E+03</rscale>
<asrwt>0</asrwt>
<pdfrwt beam="1">  1        5 0.39171945E-02 0.12790896E+03</pdfrwt>
<pdfrwt beam="2">  1       -5 0.10128478E+00 0.12790896E+03</pdfrwt>
<totfact> 0.21203517E+02</totfact>
</mgrwt>
</event>
<event>
 8    1  0.1821556E-007  0.1403114E+03  0.7546771E-02  0.1212911E+00
         -5   -1    0    0    0  501 -0.00000000000E+00  0.00000000000E+00  0.40901677075E+03  0.40904377365E+03  0.47000000000E+01 0.  1.
          5   -1    0    0  501    0  0.00000000000E+00 -0.00000000000E+00 -0.55267219100E+02  0.55466706294E+02  0.47000000000E+01 0.  1.
         25    2    1    2    0    0  0.63566180266E+02  0.46845088785E+01  0.26097078459E+03  0.29629889725E+03  0.12499872881E+03 0.  0.
         25    2    1    2    0    0 -0.63566180266E+02 -0.46845088785E+01  0.92778767063E+02  0.16821158269E+03  0.12499853213E+03 0.  0.
          5    1    3    3  502    0  0.74816202653E+02 -0.13646514687E+02  0.26335360222E+03  0.27415488568E+03  0.47000000000E+01 0. -1.
         -5    1    3    3    0  502 -0.11250022387E+02  0.18331023566E+02 -0.23828176237E+01  0.22144011572E+02  0.47000000000E+01 0. -1.
          5    1    4    4  503    0  0.26975595670E+02  0.25736269885E+02  0.41161687489E+01  0.37803058005E+02  0.47000000000E+01 0.  1.
         -5    1    4    4    0  503 -0.90541775936E+02 -0.30420778764E+02  0.88662598314E+02  0.13040852468E+03  0.47000000000E+01 0.  1.
<mgrwt>
<rscale>  0 0.14031135E+03</rscale>
<asrwt>0</asrwt>
<pdfrwt beam="2">  1        5 0.85200713E-02 0.14031139E+03</pdfrwt>
<pdfrwt beam="1">  1       -5 0.62943080E-01 0.14031139E+03</pdfrwt>
<totfact> 0.17880284E+02</totfact>
</mgrwt>
</event>
<event>
 8    1  0.1821556E-007  0.1728153E+03  0.7546771E-02  0.1174944E+00
          5   -1    0    0  501    0  0.00000000000E+00  0.00000000000E+00  0.19843822383E+04  0.19843878043E+04  0.47000000000E+01 0.  1.
         -5   -1    0    0    0  501 -0.00000000000E+00 -0.00000000000E+00 -0.15596155721E+02  0.16288955561E+02  0.47000000000E+01 0.  1.
         25    2    1    2    0    0 -0.71802608875E+02 -0.95313398910E+02  0.74700558678E+03  0.76673482765E+03  0.12499876235E+03 0.  0.
         25    2    1    2    0    0  0.71802608875E+02  0.95313398910E+02  0.12217804958E+04  0.12339419322E+04  0.12499941363E+03 0.  0.
          5    1    4    4  502    0  0.43717162879E+02 -0.23960396013E+02  0.33411980904E+03  0.33785119165E+03  0.47000000000E+01 0.  1.
         -5    1    4    4    0  502  0.28085445996E+02  0.11927379492E+03  0.88766068675E+03  0.89609074052E+03  0.47000000000E+01 0.  1.
          5    1    3    3  503    0 -0.74150017162E+02 -0.17258138560E+02  0.19801620332E+03  0.21219937599E+03  0.47000000000E+01 0.  1.
         -5    1    3    3    0  503  0.23474082870E+01 -0.78055260350E+02  0.54898938346E+03  0.55453545166E+03  0.47000000000E+01 0.  1.
<mgrwt>
<rscale>  0 0.17281514E+03</rscale>
<asrwt>0</asrwt>
<pdfrwt beam="1">  1        5 0.30534314E+00 0.17281525E+03</pdfrwt>
<pdfrwt beam="2">  1       -5 0.24531303E-02 0.17281525E+03</pdfrwt>
<totfact> 0.16332399E+01</totfact>
</mgrwt>
</event>
<event>
 8    1  0.1821556E-007  0.1565669E+03  0.7546771E-02  0.1192637E+00
         -5   -1    0    0    0  501 -0.00000000000E+00  0.00000000000E+00  0.47200195780E+03  0.47202535755E+03  0.47000000000E+01 0.  1.
          5   -1    0    0  501    0  0.00000000000E+00 -0.00000000000E+00 -0.55810134371E+02  0.56007687852E+02  0.47000000000E+01 0.  1.
         25    2    1    2    0    0 -0.53153844568E+02 -0.77803440988E+02  0.27879603483E+03  0.31975057085E+03  0.12503796183E+03 0.  0.
         25    2    1    2    0    0  0.53153844568E+02  0.77803440988E+02  0.13739578860E+03  0.20828247455E+03  0.12500111943E+03 0.  0.
          5    1    3    3  502    0  0.22891808314E+02 -0.69531013443E+02  0.90760727044E+02  0.11669702778E+03  0.47000000000E+01 0. -1.
         -5    1    3    3    0  502 -0.76045652881E+02 -0.82724275448E+01  0.18803530779E+03  0.20305354307E+03  0.47000000000E+01 0. -1.
          5    1    4    4  503    0  0.13488046965E+02 -0.34493191352E+02  0.34006030975E+02  0.50499582209E+02  0.47000000000E+01 0.  1.
         -5    1    4    4    0  503  0.39665797602E+02  0.11229663234E+03  0.10338975763E+03  0.15778289234E+03  0.47000000000E+01 0.  1.
<mgrwt>
<rscale>  0 0.15655956E+03</rscale>
<asrwt>0</asrwt>
<pdfrwt beam="2">  1        5 0.86031710E-02 0.15656691E+03</pdfrwt>
<pdfrwt beam="1">  1       -5 0.72632681E-01 0.15656691E+03</pdfrwt>
<totfact> 0.13216983E+02</totfact>
</mgrwt>
</event>
<event>
 8    1  0.1821556E-007  0.1318081E+03  0.7546771E-02  0.1224799E+00
          5   -1    0    0  501    0  0.00000000000E+00  0.00000000000E+00  0.46157435941E+02  0.46396108594E+02  0.47000000000E+01 0. -1.
         -5   -1    0    0    0  501 -0.00000000000E+00 -0.00000000000E+00 -0.95798318645E+03  0.95799471581E+03  0.47000000000E+01 0. -1.
         25    2    1    2    0    0  0.30367300070E+02  0.28727059337E+02 -0.84756546694E+03  0.85775266058E+03  0.12499995656E+03 0.  0.
         25    2    1    2    0    0 -0.30367300070E+02 -0.28727059337E+02 -0.64260283575E+02  0.14663816383E+03  0.12500380072E+03 0.  0.
          5    1    4    4  502    0  0.12786667052E+02 -0.30078825212E+01  0.33685418345E+02  0.36460164847E+02  0.47000000000E+01 0.  1.
         -5    1    4    4    0  502 -0.43153967122E+02 -0.25719176815E+02 -0.97945701920E+02  0.11017799898E+03  0.47000000000E+01 0.  1.
          5    1    3    3  503    0  0.48113938791E+02  0.68928841420E+02 -0.45659076524E+03  0.46428800672E+03  0.47000000000E+01 0.  1.
         -5    1    3    3    0  503 -0.17746638721E+02 -0.40201782084E+02 -0.39097470170E+03  0.39346465386E+03  0.47000000000E+01 0.  1.
<mgrwt>
<rscale>  0 0.13180716E+03</rscale>
<asrwt>0</asrwt>
<pdfrwt beam="1">  1        5 0.71203910E-02 0.13180807E+03</pdfrwt>
<pdfrwt beam="2">  1       -5 0.14740126E+00 0.13180807E+03</pdfrwt>
<totfact> 0.30279221E+01</totfact>
</mgrwt>
</event>
<event>
 8    1  0.1821556E-007  0.2084338E+03  0.7546771E-02  0.1142813E+00
         -5   -1    0    0    0  501 -0.00000000000E+00  0.00000000000E+00  0.15235842986E+03  0.15243090615E+03  0.47000000000E+01 0.  1.
          5   -1    0    0  501    0  0.00000000000E+00 -0.00000000000E+00 -0.38413753783E+03  0.38416628948E+03  0.47000000000E+01 0.  1.
         25    2    1    2    0    0 -0.16008547275E+03 -0.46810663635E+02 -0.25218034677E+03  0.32716902635E+03  0.12500419069E+03 0.  0.
         25    2    1    2    0    0  0.16008547275E+03  0.46810663635E+02  0.20401238799E+02  0.20942816928E+03  0.12500140291E+03 0.  0.
          5    1    3    3  502    0 -0.43907979345E+02 -0.49411795616E+02 -0.17619526326E+03  0.18824531067E+03  0.47000000000E+01 0. -1.
         -5    1    3    3    0  502 -0.11617749340E+03  0.26011319817E+01 -0.75985083510E+02  0.13892371567E+03  0.47000000000E+01 0. -1.
          5    1    4    4  503    0  0.71873396245E+02 -0.40237205176E+02  0.22043296932E+02  0.85397978359E+02  0.47000000000E+01 0. -1.
         -5    1    4    4    0  503  0.88212076503E+02  0.87047868810E+02 -0.16420581330E+01  0.12403019092E+03  0.47000000000E+01 0. -1.
<mgrwt>
<rscale>  0 0.20843337E+03</rscale>
<asrwt>0</asrwt>
<pdfrwt beam="2">  1        5 0.59105869E-01 0.20843379E+03</pdfrwt>
<pdfrwt beam="1">  1       -5 0.23447545E-01 0.20843379E+03</pdfrwt>
<totfact> 0.36861274E+01</totfact>
</mgrwt>
</event>
<event>
 8    1  0.1821556E-007  0.1426067E+03  0.7546771E-02  0.1209864E+00
         -5   -1    0    0    0  501 -0.00000000000E+00  0.00000000000E+00  0.66622161463E+02  0.66787741376E+02  0.47000000000E+01 0. -1.
          5   -1    0    0  501    0  0.00000000000E+00 -0.00000000000E+00 -0.43286233231E+03  0.43288784775E+03  0.47000000000E+01 0. -1.
         25    2    1    2    0    0 -0.68569173945E+02 -0.31344013052E+01 -0.47200899911E+02  0.15021517883E+03  0.12500047565E+03 0.  0.
         25    2    1    2    0    0  0.68569173945E+02  0.31344013052E+01 -0.31903927093E+03  0.34946041029E+03  0.12499986352E+03 0.  0.
          5    1    4    4  502    0 -0.14009351836E+02  0.25581678303E+02 -0.14154061617E+02  0.32758383109E+02  0.47000000000E+01 0.  1.
         -5    1    4    4    0  502  0.82578525781E+02 -0.22447276997E+02 -0.30488520931E+03  0.31670202719E+03  0.47000000000E+01 0.  1.
          5    1    3    3  503    0 -0.63011536750E+02 -0.22789544460E+02 -0.84188708763E+02  0.10770165172E+03  0.47000000000E+01 0. -1.
         -5    1    3    3    0  503 -0.55576371942E+01  0.19655143155E+02  0.36987808852E+02  0.42513527109E+02  0.47000000000E+01 0. -1.
<mgrwt>
<rscale>  0 0.14260658E+03</rscale>
<asrwt>0</asrwt>
<pdfrwt beam="2">  1        5 0.66608903E-01 0.14260671E+03</pdfrwt>
<pdfrwt beam="1">  1       -5 0.10264263E-01 0.14260671E+03</pdfrwt>
<totfact> 0.11471244E+02</totfact>
</mgrwt>
</event>
<event>
 8    1  0.1821556E-007  0.2203280E+03  0.7546771E-02  0.1133639E+00
          5   -1    0    0  501    0  0.00000000000E+00  0.00000000000E+00  0.61205562986E+03  0.61207367534E+03  0.47000000000E+01 0.  1.
         -5   -1    0    0    0  501 -0.00000000000E+00 -0.00000000000E+00 -0.83746989994E+02  0.83878771647E+02  0.47000000000E+01 0.  1.
         25    2    1    2    0    0  0.32578547905E+02 -0.17848600640E+03  0.18336333724E+03  0.28664608366E+03  0.12500099029E+03 0.  0.
         25    2    1    2    0    0 -0.32578547905E+02  0.17848600640E+03  0.34494530263E+03  0.40930636332E+03  0.12500328389E+03 0.  0.
          5    1    4    4  502    0 -0.72851174601E+02  0.58946593641E+02  0.15714935767E+03  0.18303006627E+03  0.47000000000E+01 0.  1.
         -5    1    4    4    0  502  0.40272626696E+02  0.11953941276E+03  0.18779594496E+03  0.22627629706E+03  0.47000000000E+01 0.  1.
          5    1    3    3  503    0  0.18179645437E+02 -0.11039466100E+03  0.26647942258E+02  0.11510726959E+03  0.47000000000E+01 0.  1.
         -5    1    3    3    0  503  0.14398902467E+02 -0.68091345400E+02  0.15671539498E+03  0.17153881407E+03  0.47000000000E+01 0.  1.
<mgrwt>
<rscale>  0 0.22032770E+03</rscale>
<asrwt>0</asrwt>
<pdfrwt beam="1">  1        5 0.94173930E-01 0.22032802E+03</pdfrwt>
<pdfrwt beam="2">  1       -5 0.12895677E-01 0.22032802E+03</pdfrwt>
<totfact> 0.38701346E+01</totfact>
</mgrwt>
</event>
<event>
 8    1  0.1821556E-007  0.1308421E+03  0.7546771E-02  0.1226212E+00
         -5   -1    0    0    0  501 -0.00000000000E+00  0.00000000000E+00  0.10495067683E+02  0.11499410666E+02  0.47000000000E+01 0.  1.
          5   -1    0    0  501    0  0.00000000000E+00 -0.00000000000E+00 -0.18454701346E+04  0.18454761196E+04  0.47000000000E+01 0.  1.
         25    2    1    2    0    0  0.38162428606E+02 -0.62152023136E+01 -0.54967371567E+03  0.56503171582E+03  0.12499858592E+03 0.  0.
         25    2    1    2    0    0 -0.38162428606E+02  0.62152023136E+01 -0.12853013513E+04  0.12919438144E+04  0.12499702501E+03 0.  0.
          5    1    4    4  502    0  0.25199758351E+02 -0.20784201898E+02 -0.89334529873E+03  0.89395465413E+03  0.47000000000E+01 0.  1.
         -5    1    4    4    0  502 -0.63362186957E+02  0.26999404211E+02 -0.39195605255E+03  0.39798916027E+03  0.47000000000E+01 0.  1.
          5    1    3    3  503    0  0.19843676339E+02 -0.54455118807E+02 -0.43894169641E+03  0.44277650604E+03  0.47000000000E+01 0.  1.
         -5    1    3    3    0  503  0.18318752266E+02  0.48239916493E+02 -0.11073201927E+03  0.12225520978E+03  0.47000000000E+01 0.  1.
<mgrwt>
<rscale>  0 0.13084169E+03</rscale>
<asrwt>0</asrwt>
<pdfrwt beam="2">  1        5 0.28399595E+00 0.13084207E+03</pdfrwt>
<pdfrwt beam="1">  1       -5 0.16923448E-02 0.13084207E+03</pdfrwt>
<totfact> 0.37702165E+01</totfact>
</mgrwt>
</event>
<event>
 8    1  0.1821556E-007  0.1439611E+03  0.7546771E-02  0.1208099E+00
         -5   -1    0    0    0  501 -0.00000000000E+00  0.00000000000E+00  0.11996028344E+03  0.12005232027E+03  0.47000000000E+01 0.  1.
          5   -1    0    0  501    0  0.00000000000E+00 -0.00000000000E+00 -0.18488980661E+03  0.18494953525E+03  0.47000000000E+01 0.  1.
         25    2    1    2    0    0 -0.51915200233E+02 -0.49012563183E+02  0.68966689706E+01  0.14412619486E+03  0.12500950619E+03 0.  0.
         25    2    1    2    0    0  0.51915200233E+02  0.49012563183E+02 -0.71826192143E+02  0.16087566065E+03  0.12499822777E+03 0.  0.
          5    1    4    4  502    0 -0.40957754951E+02  0.81363075543E+01 -0.15985093562E+02  0.44959430684E+02  0.47000000000E+01 0. -1.
         -5    1    4    4    0  502  0.92872955184E+02  0.40876255629E+02 -0.55841098581E+02  0.11591622997E+03  0.47000000000E+01 0. -1.
          5    1    3    3  503    0  0.19966332288E+02 -0.43558277528E+02  0.41923908516E+02  0.63841068847E+02  0.47000000000E+01 0. -1.
         -5    1    3    3    0  503 -0.71881532521E+02 -0.54542856559E+01 -0.35027239546E+02  0.80285126018E+02  0.47000000000E+01 0. -1.
<mgrwt>
<rscale>  0 0.14395864E+03</rscale>
<asrwt>0</asrwt>
<pdfrwt beam="2">  1        5 0.28456260E-01 0.14396109E+03</pdfrwt>
<pdfrwt beam="1">  1       -5 0.18467102E-01 0.14396109E+03</pdfrwt>
<totfact> 0.23470251E+02</totfact>
</mgrwt>
</event>
<event>
 8    1  0.1821556E-007  0.1519353E+03  0.7546771E-02  0.1198115E+00
         -5   -1    0    0    0  501 -0.00000000000E+00  0.00000000000E+00  0.38043524985E+02  0.38332750922E+02  0.47000000000E+01 0. -1.
          5   -1    0    0  501    0  0.00000000000E+00 -0.00000000000E+00 -0.90461218560E+03  0.90462439517E+03  0.47000000000E+01 0. -1.
         25    2    1    2    0    0 -0.14297145134E+02  0.85171840671E+02 -0.16162478341E+03  0.22182627641E+03  0.12500270193E+03 0.  0.
         25    2    1    2    0    0  0.14297145134E+02 -0.85171840671E+02 -0.70494387721E+03  0.72113086969E+03  0.12500084160E+03 0.  0.
          5    1    4    4  502    0  0.35579691419E+02 -0.11046626893E+03 -0.48797026735E+03  0.50160321254E+03  0.47000000000E+01 0. -1.
         -5    1    4    4    0  502 -0.21282546284E+02  0.25294428263E+02 -0.21697360986E+03  0.21952765715E+03  0.47000000000E+01 0. -1.
          5    1    3    3  503    0 -0.15482866240E+02  0.13727231879E+02 -0.14727254193E+03  0.14879330512E+03  0.47000000000E+01 0.  1.
         -5    1    3    3    0  503  0.11857211057E+01  0.71444608792E+02 -0.14352241485E+02  0.73032971291E+02  0.47000000000E+01 0.  1.
<mgrwt>
<rscale>  0 0.15193489E+03</rscale>
<asrwt>0</asrwt>
<pdfrwt beam="2">  1        5 0.13919428E+00 0.15193527E+03</pdfrwt>
<pdfrwt beam="1">  1       -5 0.58760380E-02 0.15193527E+03</pdfrwt>
<totfact> 0.50940104E+01</totfact>
</mgrwt>
</event>
<event>
 8    1  0.1821556E-007  0.1345006E+03  0.7546771E-02  0.1220927E+00
          5   -1    0    0  501    0  0.00000000000E+00  0.00000000000E+00  0.80602856913E+03  0.80604227200E+03  0.47000000000E+01 0. -1.
         -5   -1    0    0    0  501 -0.00000000000E+00 -0.00000000000E+00 -0.22447153196E+02  0.22933920001E+02  0.47000000000E+01 0. -1.
         25    2    1    2    0    0 -0.21650476461E+02 -0.44672659971E+02  0.43620752571E+03  0.45647245175E+03  0.12500281612E+03 0.  0.
         25    2    1    2    0    0  0.21650476461E+02  0.44672659971E+02  0.34737389022E+03  0.37250374025E+03  0.12500410879E+03 0.  0.
          5    1    3    3  502    0  0.24779015294E+02  0.43945406856E+01  0.32682386292E+03  0.32782501271E+03  0.47000000000E+01 0.  1.
         -5    1    3    3    0  502 -0.46429491755E+02 -0.49067200657E+02  0.10938366280E+03  0.12864743904E+03  0.47000000000E+01 0.  1.
          5    1    4    4  503    0 -0.46907153231E+02  0.73723947916E+01  0.73035403499E+02  0.87240434395E+02  0.47000000000E+01 0.  1.
         -5    1    4    4    0  503  0.68557629691E+02  0.37300265180E+02  0.27433848672E+03  0.28526330586E+03  0.47000000000E+01 0.  1.
<mgrwt>
<rscale>  0 0.13450032E+03</rscale>
<asrwt>0</asrwt>
<pdfrwt beam="1">  1        5 0.12404291E+00 0.13450062E+03</pdfrwt>
<pdfrwt beam="2">  1       -5 0.34919054E-02 0.13450062E+03</pdfrwt>
<totfact> 0.15676661E+02</totfact>
</mgrwt>
</event>
<event>
 8    1  0.1821556E-007  0.1281582E+03  0.7546771E-02  0.1230220E+00
         -5   -1    0    0    0  501 -0.00000000000E+00  0.00000000000E+00  0.24802795839E+03  0.24807248566E+03  0.47000000000E+01 0.  1.
          5   -1    0    0  501    0  0.00000000000E+00 -0.00000000000E+00 -0.75051460024E+02  0.75198481712E+02  0.47000000000E+01 0.  1.
         25    2    1    2    0    0 -0.25504988327E+02  0.12151075112E+02  0.14229627612E+03  0.19149157920E+03  0.12499056625E+03 0.  0.
         25    2    1    2    0    0  0.25504988327E+02 -0.12151075112E+02  0.30680222240E+02  0.13177938817E+03  0.12500551209E+03 0.  0.
          5    1    3    3  502    0  0.47136172216E+02 -0.90804705615E+01  0.79735961504E+02  0.93188986655E+02  0.47000000000E+01 0. -1.
         -5    1    3    3    0  502 -0.72641160543E+02  0.21231545674E+02  0.62560314619E+02  0.98302592549E+02  0.47000000000E+01 0. -1.
          5    1    4    4  503    0  0.22279823319E+02  0.52484997504E+02 -0.55205642244E+01  0.57477231314E+02  0.47000000000E+01 0.  1.
         -5    1    4    4    0  503  0.32251650081E+01 -0.64636072616E+02  0.36200786465E+02  0.74302156855E+02  0.47000000000E+01 0.  1.
<mgrwt>
<rscale>  0 0.12815458E+03</rscale>
<asrwt>0</asrwt>
<pdfrwt beam="2">  1        5 0.11561113E-01 0.12815823E+03</pdfrwt>
<pdfrwt beam="1">  1       -5 0.38172882E-01 0.12815823E+03</pdfrwt>
<totfact> 0.29293560E+02</totfact>
</mgrwt>
</event>
<event>
 8    1  0.1821556E-007  0.1481948E+03  0.7546771E-02  0.1202713E+00
         -5   -1    0    0    0  501 -0.00000000000E+00  0.00000000000E+00  0.14101118728E+03  0.14108949266E+03  0.47000000000E+01 0. -1.
          5   -1    0    0  501    0  0.00000000000E+00 -0.00000000000E+00 -0.15636163947E+03  0.15643226106E+03  0.47000000000E+01 0. -1.
         25    2    1    2    0    0 -0.46267546570E+02 -0.64776841856E+02  0.28867373098E+01  0.14820897483E+03  0.12498336634E+03 0.  0.
         25    2    1    2    0    0  0.46267546570E+02  0.64776841856E+02 -0.18237189503E+02  0.14931277888E+03  0.12499994300E+03 0.  0.
          5    1    3    3  502    0 -0.76464212289E+02 -0.82577328946E+02  0.52577242886E+01  0.11276313530E+03  0.47000000000E+01 0. -1.
         -5    1    3    3    0  502  0.30196665720E+02  0.17800487090E+02 -0.23709869787E+01  0.35445839537E+02  0.47000000000E+01 0. -1.
          5    1    4    4  503    0 -0.74684169109E+01 -0.27633002467E+02 -0.29923178208E+02  0.41675492446E+02  0.47000000000E+01 0. -1.
         -5    1    4    4    0  503  0.53735963481E+02  0.92409844323E+02  0.11685988705E+02  0.10763728643E+03  0.47000000000E+01 0. -1.
<mgrwt>
<rscale>  0 0.14819135E+03</rscale>
<asrwt>0</asrwt>
<pdfrwt beam="2">  1        5 0.24067093E-01 0.14819484E+03</pdfrwt>
<pdfrwt beam="1">  1       -5 0.21705485E-01 0.14819484E+03</pdfrwt>
<totfact> 0.24208900E+02</totfact>
</mgrwt>
</event>
<event>
 8    1  0.1821556E-007  0.1301728E+03  0.7546771E-02  0.1227206E+00
         -5   -1    0    0    0  501 -0.00000000000E+00  0.00000000000E+00  0.29470504467E+02  0.29842932723E+02  0.47000000000E+01 0.  1.
          5   -1    0    0  501    0  0.00000000000E+00 -0.00000000000E+00 -0.64923161777E+03  0.64924862997E+03  0.47000000000E+01 0.  1.
         25    2    1    2    0    0  0.30187778534E+02  0.20108411918E+02 -0.19196610103E+03  0.23192993641E+03  0.12499944503E+03 0.  0.
         25    2    1    2    0    0 -0.30187778534E+02 -0.20108411918E+02 -0.42779501227E+03  0.44716162628E+03  0.12501718795E+03 0.  0.
          5    1    3    3  502    0 -0.28042813923E+02  0.50741053569E+02 -0.12531473990E+03  0.13815544856E+03  0.47000000000E+01 0.  1.
         -5    1    3    3    0  502  0.58230592456E+02 -0.30632641651E+02 -0.66651361128E+02  0.93774487855E+02  0.47000000000E+01 0.  1.
          5    1    4    4  503    0 -0.28495244828E+02  0.49214192663E+02 -0.24605907518E+03  0.25258894318E+03  0.47000000000E+01 0. -1.
         -5    1    4    4    0  503 -0.16925337052E+01 -0.69322604581E+02 -0.18173593710E+03  0.19457268310E+03  0.47000000000E+01 0. -1.
<mgrwt>
<rscale>  0 0.13016850E+03</rscale>
<asrwt>0</asrwt>
<pdfrwt beam="2">  1        5 0.99911734E-01 0.13017276E+03</pdfrwt>
<pdfrwt beam="1">  1       -5 0.45638812E-02 0.13017276E+03</pdfrwt>
<totfact> 0.17160006E+02</totfact>
</mgrwt>
</event>
<event>
 8    1  0.1821556E-007  0.1587628E+03  0.7546771E-02  0.1190102E+00
          5   -1    0    0  501    0  0.00000000000E+00  0.00000000000E+00  0.43426421918E+03  0.43428965226E+03  0.47000000000E+01 0. -1.
         -5   -1    0    0    0  501 -0.00000000000E+00 -0.00000000000E+00 -0.58333170308E+02  0.58522207393E+02  0.47000000000E+01 0. -1.
         25    2    1    2    0    0 -0.88108250348E+02 -0.42621629767E+02  0.16722189237E+03  0.23058358794E+03  0.12500385048E+03 0.  0.
         25    2    1    2    0    0  0.88108250348E+02  0.42621629767E+02  0.20870915651E+03  0.26222827172E+03  0.12499794948E+03 0.  0.
          5    1    4    4  502    0  0.68401702948E+02 -0.33117636939E+02  0.13291328845E+03  0.15317833753E+03  0.47000000000E+01 0. -1.
         -5    1    4    4    0  502  0.19706547400E+02  0.75739266706E+02  0.75795868062E+02  0.10904993419E+03  0.47000000000E+01 0. -1.
          5    1    3    3  503    0 -0.94070458268E+02  0.61226550490E+01  0.58116729481E+02  0.11084395459E+03  0.47000000000E+01 0. -1.
         -5    1    3    3    0  503  0.59622079208E+01 -0.48744284816E+02  0.10910516289E+03  0.11973963335E+03  0.47000000000E+01 0. -1.
<mgrwt>
<rscale>  0 0.15876165E+03</rscale>
<asrwt>0</asrwt>
<pdfrwt beam="1">  1        5 0.66826376E-01 0.15876281E+03</pdfrwt>
<pdfrwt beam="2">  1       -5 0.89908318E-02 0.15876281E+03</pdfrwt>
<totfact> 0.14845117E+02</totfact>
</mgrwt>
</event>
<event>
 8    1  0.1821556E-007  0.2296834E+03  0.7546771E-02  0.1126863E+00
          5   -1    0    0  501    0  0.00000000000E+00  0.00000000000E+00  0.69586401759E+02  0.69744944690E+02  0.47000000000E+01 0. -1.
         -5   -1    0    0    0  501 -0.00000000000E+00 -0.00000000000E+00 -0.77338504835E+03  0.77339932959E+03  0.47000000000E+01 0. -1.
         25    2    1    2    0    0 -0.53092646693E+02  0.18522982005E+03 -0.41309630745E+03  0.47265527984E+03  0.12500215583E+03 0.  0.
         25    2    1    2    0    0  0.53092646693E+02 -0.18522982005E+03 -0.29070233914E+03  0.37048899444E+03  0.12500131861E+03 0.  0.
          5    1    3    3  502    0 -0.72997588581E+02  0.10710531539E+03 -0.33935325634E+03  0.36329453493E+03  0.47000000000E+01 0.  1.
         -5    1    3    3    0  502  0.19904941887E+02  0.78124504654E+02 -0.73743051109E+02  0.10936074490E+03  0.47000000000E+01 0.  1.
          5    1    4    4  503    0  0.43051057842E+02 -0.16564831339E+03 -0.30057244436E+03  0.34591710223E+03  0.47000000000E+01 0. -1.
         -5    1    4    4    0  503  0.10041588851E+02 -0.19581506656E+02  0.98701052192E+01  0.24571892207E+02  0.47000000000E+01 0. -1.
<mgrwt>
<rscale>  0 0.22968326E+03</rscale>
<asrwt>0</asrwt>
<pdfrwt beam="1">  1        5 0.10718895E-01 0.22968338E+03</pdfrwt>
<pdfrwt beam="2">  1       -5 0.11899560E+00 0.22968338E+03</pdfrwt>
<totfact> 0.30335414E+01</totfact>
</mgrwt>
</event>
<event>
 8    1  0.1821556E-007  0.1259376E+03  0.7546771E-02  0.1233612E+00
         -5   -1    0    0    0  501 -0.00000000000E+00  0.00000000000E+00  0.27903239098E+02  0.28296302800E+02  0.47000000000E+01 0.  1.
          5   -1    0    0  501    0  0.00000000000E+00 -0.00000000000E+00 -0.56435154030E+03  0.56437111110E+03  0.47000000000E+01 0.  1.
         25    2    1    2    0    0 -0.35800681370E+01  0.14894507567E+02 -0.27542778482E+03  0.30285369560E+03  0.12500093216E+03 0.  0.
         25    2    1    2    0    0  0.35800681370E+01 -0.14894507567E+02 -0.26102051638E+03  0.28981371830E+03  0.12500247237E+03 0.  0.
          5    1    4    4  502    0  0.46791889878E+02 -0.44703720794E+02 -0.19392787506E+03  0.20449453376E+03  0.47000000000E+01 0.  1.
         -5    1    4    4    0  502 -0.43211821741E+02  0.29809213227E+02 -0.67092641320E+02  0.85319184541E+02  0.47000000000E+01 0.  1.
          5    1    3    3  503    0 -0.56367130212E+01  0.64382009652E+02 -0.21514430433E+03  0.22469084847E+03  0.47000000000E+01 0. -1.
         -5    1    3    3    0  503  0.20566448842E+01 -0.49487502086E+02 -0.60283480493E+02  0.78162847128E+02  0.47000000000E+01 0. -1.
<mgrwt>
<rscale>  0 0.12593723E+03</rscale>
<asrwt>0</asrwt>
<pdfrwt beam="2">  1        5 0.86855047E-01 0.12593761E+03</pdfrwt>
<pdfrwt beam="1">  1       -5 0.43245475E-02 0.12593761E+03</pdfrwt>
<totfact> 0.25890450E+02</totfact>
</mgrwt>
</event>
<event>
 8    1  0.1821556E-007  0.1701953E+03  0.7546771E-02  0.1177644E+00
          5   -1    0    0  501    0  0.00000000000E+00  0.00000000000E+00  0.54570909180E+03  0.54572933115E+03  0.47000000000E+01 0.  1.
         -5   -1    0    0    0  501 -0.00000000000E+00 -0.00000000000E+00 -0.62887465559E+02  0.63062852174E+02  0.47000000000E+01 0.  1.
         25    2    1    2    0    0  0.16438107630E+02  0.11432864315E+03  0.12064187368E+03  0.20861663041E+03  0.12500074710E+03 0.  0.
         25    2    1    2    0    0 -0.16438107630E+02 -0.11432864315E+03  0.36217975257E+03  0.40017555291E+03  0.12500019979E+03 0.  0.
          5    1    3    3  502    0  0.60580059555E+02  0.26460381123E+02  0.23510809110E+02  0.70320292447E+02  0.47000000000E+01 0.  1.
         -5    1    3    3    0  502 -0.44141951925E+02  0.87868262028E+02  0.97131064566E+02  0.13829633797E+03  0.47000000000E+01 0.  1.
          5    1    4    4  503    0 -0.51206621019E+02 -0.86272284614E+02  0.32992177713E+03  0.34487025699E+03  0.47000000000E+01 0.  1.
         -5    1    4    4    0  503  0.34768513389E+02 -0.28056358536E+02  0.32257975434E+02  0.55305295919E+02  0.47000000000E+01 0.  1.
<mgrwt>
<rscale>  0 0.17019519E+03</rscale>
<asrwt>0</asrwt>
<pdfrwt beam="1">  1        5 0.83970291E-01 0.17019529E+03</pdfrwt>
<pdfrwt beam="2">  1       -5 0.96900431E-02 0.17019529E+03</pdfrwt>
<totfact> 0.78812084E+01</totfact>
</mgrwt>
</event>
<event>
 8    1  0.1821556E-007  0.1433836E+03  0.7546771E-02  0.1208850E+00
          5   -1    0    0  501    0  0.00000000000E+00  0.00000000000E+00  0.18598222959E+03  0.18604160751E+03  0.47000000000E+01 0.  1.
         -5   -1    0    0    0  501 -0.00000000000E+00 -0.00000000000E+00 -0.12548279476E+03  0.12557078395E+03  0.47000000000E+01 0.  1.
         25    2    1    2    0    0  0.50938687726E+02 -0.48363331962E+02 -0.23721297600E+02  0.14532355190E+03  0.12498989156E+03 0.  0.
         25    2    1    2    0    0 -0.50938687726E+02  0.48363331962E+02  0.84220732427E+02  0.16628883955E+03  0.12500033841E+03 0.  0.
          5    1    3    3  502    0  0.27569583825E+01 -0.58733167609E+02  0.34944263895E+02  0.68559298247E+02  0.47000000000E+01 0.  1.
         -5    1    3    3    0  502  0.48181729344E+02  0.10369835647E+02 -0.58665561495E+02  0.76764253657E+02  0.47000000000E+01 0.  1.
          5    1    4    4  503    0 -0.42314614032E+02  0.30320174616E+00  0.10478109816E+03  0.11310078260E+03  0.47000000000E+01 0.  1.
         -5    1    4    4    0  503 -0.86240736946E+01  0.48060130216E+02 -0.20560365735E+02  0.53188056955E+02  0.47000000000E+01 0.  1.
<mgrwt>
<rscale>  0 0.14338129E+03</rscale>
<asrwt>0</asrwt>
<pdfrwt beam="1">  1        5 0.28623986E-01 0.14338356E+03</pdfrwt>
<pdfrwt beam="2">  1       -5 0.19316381E-01 0.14338356E+03</pdfrwt>
<totfact> 0.21316489E+02</totfact>
</mgrwt>
</event>
<event>
 8    1  0.1821556E-007  0.1433927E+03  0.7546771E-02  0.1208840E+00
          5   -1    0    0  501    0  0.00000000000E+00  0.00000000000E+00  0.34378948469E+03  0.34382161041E+03  0.47000000000E+01 0.  1.
         -5   -1    0    0    0  501 -0.00000000000E+00 -0.00000000000E+00 -0.60103399244E+02  0.60286885810E+02  0.47000000000E+01 0.  1.
         25    2    1    2    0    0 -0.69270311875E+02  0.11733740744E+02  0.12480024388E+03  0.19008471919E+03  0.12498417026E+03 0.  0.
         25    2    1    2    0    0  0.69270311875E+02 -0.11733740744E+02  0.15888584156E+03  0.21402377703E+03  0.12500163881E+03 0.  0.
          5    1    3    3  502    0 -0.58570199470E+02 -0.52016734532E+02  0.64994475538E+02  0.10189494977E+03  0.47000000000E+01 0.  1.
         -5    1    3    3    0  502 -0.10700112405E+02  0.63750475276E+02  0.59805768344E+02  0.88189769421E+02  0.47000000000E+01 0.  1.
          5    1    4    4  503    0  0.50158871608E+02 -0.23657924344E+02  0.22455597908E+01  0.55702264981E+02  0.47000000000E+01 0.  1.
         -5    1    4    4    0  503  0.19111440267E+02  0.11924183600E+02  0.15664028177E+03  0.15832151205E+03  0.47000000000E+01 0.  1.
<mgrwt>
<rscale>  0 0.14338889E+03</rscale>
<asrwt>0</asrwt>
<pdfrwt beam="1">  1        5 0.52907276E-01 0.14339270E+03</pdfrwt>
<pdfrwt beam="2">  1       -5 0.92632623E-02 0.14339270E+03</pdfrwt>
<totfact> 0.22736301E+02</totfact>
</mgrwt>
</event>
<event>
 8    1  0.1821556E-007  0.1480534E+03  0.7546771E-02  0.1202888E+00
          5   -1    0    0  501    0  0.00000000000E+00  0.00000000000E+00  0.77982949278E+02  0.78124454417E+02  0.47000000000E+01 0.  1.
         -5   -1    0    0    0  501 -0.00000000000E+00 -0.00000000000E+00 -0.31125612443E+03  0.31129160765E+03  0.47000000000E+01 0.  1.
         25    2    1    2    0    0 -0.61840359864E+02  0.49677323598E+02 -0.17767714670E+03  0.23127683928E+03  0.12501096489E+03 0.  0.
         25    2    1    2    0    0  0.61840359864E+02 -0.49677323598E+02 -0.55596028454E+02  0.15813922278E+03  0.12500011526E+03 0.  0.
          5    1    3    3  502    0 -0.66438401014E+02  0.21563329116E+02 -0.18800191333E+03  0.20061367777E+03  0.47000000000E+01 0.  1.
         -5    1    3    3    0  502  0.45980411502E+01  0.28113994482E+02  0.10324766634E+02  0.30663161517E+02  0.47000000000E+01 0.  1.
          5    1    4    4  503    0  0.91892491215E+02 -0.66265014822E+02 -0.41909132994E+02  0.12088733416E+03  0.47000000000E+01 0. -1.
         -5    1    4    4    0  503 -0.30052131351E+02  0.16587691224E+02 -0.13686895461E+02  0.37251888627E+02  0.47000000000E+01 0. -1.
<mgrwt>
<rscale>  0 0.14805111E+03</rscale>
<asrwt>0</asrwt>
<pdfrwt beam="1">  1        5 0.12010991E-01 0.14805340E+03</pdfrwt>
<pdfrwt beam="2">  1       -5 0.47899171E-01 0.14805340E+03</pdfrwt>
<totfact> 0.17992242E+02</totfact>
</mgrwt>
</event>
<event>
 8    1  0.1821556E-007  0.1707016E+03  0.7546771E-02  0.1177118E+00
          5   -1    0    0  501    0  0.00000000000E+00  0.00000000000E+00  0.76021942238E+02  0.76167090673E+02  0.47000000000E+01 0.  1.
         -5   -1    0    0    0  501 -0.00000000000E+00 -0.00000000000E+00 -0.38293693739E+03  0.38296577918E+03  0.47000000000E+01 0.  1.
         25    2    1    2    0    0 -0.17726314000E+02 -0.11489574184E+03 -0.14868243655E+03  0.22637467010E+03  0.12499508241E+03 0.  0.
         25    2    1    2    0    0  0.17726314000E+02  0.11489574184E+03 -0.15823255861E+03  0.23275819975E+03  0.12499433285E+03 0.  0.
          5    1    4    4  502    0  0.33663820042E+02  0.84324314014E+02 -0.23919141515E+02  0.94010946408E+02  0.47000000000E+01 0. -1.
         -5    1    4    4    0  502 -0.15937506041E+02  0.30571427823E+02 -0.13431341709E+03  0.13874725334E+03  0.47000000000E+01 0. -1.
          5    1    3    3  503    0  0.19292980082E+02 -0.12842892239E+03 -0.12405672102E+03  0.17966181346E+03  0.47000000000E+01 0.  1.
         -5    1    3    3    0  503 -0.37019294082E+02  0.13533180553E+02 -0.24625715533E+02  0.46712856643E+02  0.47000000000E+01 0.  1.
<mgrwt>
<rscale>  0 0.17070143E+03</rscale>
<asrwt>0</asrwt>
<pdfrwt beam="1">  1        5 0.11709068E-01 0.17070157E+03</pdfrwt>
<pdfrwt beam="2">  1       -5 0.58926758E-01 0.17070157E+03</pdfrwt>
<totfact> 0.12611601E+02</totfact>
</mgrwt>
</event>
<event>
 8    1  0.1821556E-007  0.1902196E+03  0.7546771E-02  0.1158264E+00
          5   -1    0    0  501    0  0.00000000000E+00  0.00000000000E+00  0.12136490903E+03  0.12145588147E+03  0.47000000000E+01 0. -1.
         -5   -1    0    0    0  501 -0.00000000000E+00 -0.00000000000E+00 -0.31068768109E+03  0.31072322922E+03  0.47000000000E+01 0. -1.
         25    2    1    2    0    0  0.14326633567E+03  0.57345046497E+01 -0.13847260405E+03  0.23528317406E+03  0.12500152976E+03 0.  0.
         25    2    1    2    0    0 -0.14326633567E+03 -0.57345046497E+01 -0.50850168005E+02  0.19689593663E+03  0.12499657114E+03 0.  0.
          5    1    3    3  502    0  0.14866867778E+03  0.35416103032E+02 -0.88345481761E+02  0.17658904342E+03  0.47000000000E+01 0.  1.
         -5    1    3    3    0  502 -0.54023421081E+01 -0.29681598382E+02 -0.50127122290E+02  0.58694130642E+02  0.47000000000E+01 0.  1.
          5    1    4    4  503    0 -0.55224835751E+02  0.53480642176E+02  0.44626003908E+01  0.77148988156E+02  0.47000000000E+01 0.  1.
         -5    1    4    4    0  503 -0.88041499924E+02 -0.59215146826E+02 -0.55312768396E+02  0.11974694848E+03  0.47000000000E+01 0.  1.
<mgrwt>
<rscale>  0 0.19021882E+03</rscale>
<asrwt>0</asrwt>
<pdfrwt beam="1">  1        5 0.18681257E-01 0.19021964E+03</pdfrwt>
<pdfrwt beam="2">  1       -5 0.47807837E-01 0.19021964E+03</pdfrwt>
<totfact> 0.87349706E+01</totfact>
</mgrwt>
</event>
<event>
 8    1  0.1821556E-007  0.1380295E+03  0.7546771E-02  0.1216006E+00
          5   -1    0    0  501    0  0.00000000000E+00  0.00000000000E+00  0.41999136380E+03  0.42001766113E+03  0.47000000000E+01 0. -1.
         -5   -1    0    0    0  501 -0.00000000000E+00 -0.00000000000E+00 -0.10751407402E+03  0.10761675572E+03  0.47000000000E+01 0. -1.
         25    2    1    2    0    0 -0.44117940335E+02 -0.38479768472E+02 -0.44401250267E+02  0.14499303278E+03  0.12499769313E+03 0.  0.
         25    2    1    2    0    0  0.44117940335E+02  0.38479768472E+02  0.35687854005E+03  0.38264138408E+03  0.12500020488E+03 0.  0.
          5    1    4    4  502    0  0.69906282963E+02 -0.20065656771E+02  0.21262335755E+03  0.22476721548E+03  0.47000000000E+01 0.  1.
         -5    1    4    4    0  502 -0.25788342628E+02  0.58545425243E+02  0.14425518249E+03  0.15787416859E+03  0.47000000000E+01 0.  1.
          5    1    3    3  503    0 -0.82530818896E+02 -0.44387838004E+02 -0.48516965799E+02  0.10562955174E+03  0.47000000000E+01 0.  1.
         -5    1    3    3    0  503  0.38412878562E+02  0.59080695321E+01  0.41157155312E+01  0.39363481037E+02  0.47000000000E+01 0.  1.
<mgrwt>
<rscale>  0 0.13802891E+03</rscale>
<asrwt>0</asrwt>
<pdfrwt beam="1">  1        5 0.64623978E-01 0.13802948E+03</pdfrwt>
<pdfrwt beam="2">  1       -5 0.16550548E-01 0.13802948E+03</pdfrwt>
<totfact> 0.51704343E+01</totfact>
</mgrwt>
</event>
<event>
 8    1  0.1821556E-007  0.1580150E+03  0.7546771E-02  0.1190960E+00
         -5   -1    0    0    0  501 -0.00000000000E+00  0.00000000000E+00  0.64059056129E+02  0.64231243738E+02  0.47000000000E+01 0.  1.
          5   -1    0    0  501    0  0.00000000000E+00 -0.00000000000E+00 -0.39004023626E+03  0.39006855283E+03  0.47000000000E+01 0.  1.
         25    2    1    2    0    0  0.80923572449E+02  0.52844478061E+02 -0.17449740177E+03  0.23540236412E+03  0.12499506538E+03 0.  0.
         25    2    1    2    0    0 -0.80923572449E+02 -0.52844478061E+02 -0.15148377836E+03  0.21889743244E+03  0.12501034911E+03 0.  0.
          5    1    4    4  502    0 -0.43935889996E+02  0.37162592679E+02 -0.77107322435E+02  0.96327825147E+02  0.47000000000E+01 0. -1.
         -5    1    4    4    0  502 -0.36987682454E+02 -0.90007070740E+02 -0.74376455926E+02  0.12256960730E+03  0.47000000000E+01 0. -1.
          5    1    3    3  503    0  0.67989452036E+02  0.38252301040E+01 -0.17128704547E+03  0.18438692990E+03  0.47000000000E+01 0. -1.
         -5    1    3    3    0  503  0.12934120413E+02  0.49019247957E+02 -0.32103563046E+01  0.51015434220E+02  0.47000000000E+01 0. -1.
<mgrwt>
<rscale>  0 0.15801201E+03</rscale>
<asrwt>0</asrwt>
<pdfrwt beam="2">  1        5 0.60021612E-01 0.15801503E+03</pdfrwt>
<pdfrwt beam="1">  1       -5 0.98706630E-02 0.15801503E+03</pdfrwt>
<totfact> 0.15985056E+02</totfact>
</mgrwt>
</event>
<event>
 8    1  0.1821556E-007  0.1349021E+03  0.7546771E-02  0.1220359E+00
         -5   -1    0    0    0  501 -0.00000000000E+00  0.00000000000E+00  0.11525737513E+04  0.11525833341E+04  0.47000000000E+01 0. -1.
          5   -1    0    0  501    0  0.00000000000E+00 -0.00000000000E+00 -0.16204213743E+02  0.16872063982E+02  0.47000000000E+01 0. -1.
         25    2    1    2    0    0  0.47368795061E+02  0.18162527611E+02  0.69338016031E+03  0.70638136599E+03  0.12499962943E+03 0.  0.
         25    2    1    2    0    0 -0.47368795061E+02 -0.18162527611E+02  0.44298937721E+03  0.46307403211E+03  0.12499716293E+03 0.  0.
          5    1    4    4  502    0 -0.84281433987E+01  0.21555299672E+02  0.86326620651E+01  0.25145126753E+02  0.47000000000E+01 0.  1.
         -5    1    4    4    0  502 -0.38940651663E+02 -0.39717827284E+02  0.43435671514E+03  0.43792890535E+03  0.47000000000E+01 0.  1.
          5    1    3    3  503    0  0.29741129091E-01 -0.50588040255E+02  0.29193090078E+03  0.29631890175E+03  0.47000000000E+01 0. -1.
         -5    1    3    3    0  503  0.47339053932E+02  0.68750567866E+02  0.40144925953E+03  0.41006246425E+03  0.47000000000E+01 0. -1.
<mgrwt>
<rscale>  0 0.13490157E+03</rscale>
<asrwt>0</asrwt>
<pdfrwt beam="2">  1        5 0.25450649E-02 0.13490214E+03</pdfrwt>
<pdfrwt beam="1">  1       -5 0.17737124E+00 0.13490214E+03</pdfrwt>
<totfact> 0.98618716E+01</totfact>
</mgrwt>
</event>
<event>
 8    1  0.1821556E-007  0.1475908E+03  0.7546771E-02  0.1203465E+00
          5   -1    0    0  501    0  0.00000000000E+00  0.00000000000E+00  0.87825070814E+02  0.87950742257E+02  0.47000000000E+01 0.  1.
         -5   -1    0    0    0  501 -0.00000000000E+00 -0.00000000000E+00 -0.30350260079E+03  0.30353899038E+03  0.47000000000E+01 0.  1.
         25    2    1    2    0    0  0.10741223285E+01 -0.78462089674E+02 -0.19174921589E+03  0.24197274666E+03  0.12500238030E+03 0.  0.
         25    2    1    2    0    0 -0.10741223285E+01  0.78462089674E+02 -0.23928314084E+02  0.14951698598E+03  0.12500124650E+03 0.  0.
          5    1    4    4  502    0 -0.36863131109E+01 -0.10888602121E+02  0.38455109017E+02  0.40410839759E+02  0.47000000000E+01 0.  1.
         -5    1    4    4    0  502  0.26121907824E+01  0.89350691795E+02 -0.62383423101E+02  0.10910614622E+03  0.47000000000E+01 0.  1.
          5    1    3    3  503    0 -0.35981064872E+02 -0.98516532652E+02 -0.14230158784E+03  0.17683884227E+03  0.47000000000E+01 0. -1.
         -5    1    3    3    0  503  0.37055187200E+02  0.20054442978E+02 -0.49447628050E+02  0.65133904392E+02  0.47000000000E+01 0. -1.
<mgrwt>
<rscale>  0 0.14759057E+03</rscale>
<asrwt>0</asrwt>
<pdfrwt beam="1">  1        5 0.13524016E-01 0.14759081E+03</pdfrwt>
<pdfrwt beam="2">  1       -5 0.46705174E-01 0.14759081E+03</pdfrwt>
<totfact> 0.15337138E+02</totfact>
</mgrwt>
</event>
<event>
 8    1  0.1821556E-007  0.1291068E+03  0.7546771E-02  0.1228794E+00
         -5   -1    0    0    0  501 -0.00000000000E+00  0.00000000000E+00  0.85080747039E+02  0.85210466004E+02  0.47000000000E+01 0.  1.
          5   -1    0    0  501    0  0.00000000000E+00 -0.00000000000E+00 -0.24624313846E+03  0.24628798842E+03  0.47000000000E+01 0.  1.
         25    2    1    2    0    0 -0.17325631102E+01  0.32181356130E+02 -0.54230192325E+01  0.12920331938E+03  0.12500178857E+03 0.  0.
         25    2    1    2    0    0  0.17325631102E+01 -0.32181356130E+02 -0.15573937219E+03  0.20229513504E+03  0.12501971106E+03 0.  0.
          5    1    3    3  502    0  0.23772432179E+02  0.35614091527E+02  0.51151299656E+02  0.66873294397E+02  0.47000000000E+01 0. -1.
         -5    1    3    3    0  502 -0.25504995289E+02 -0.34327353970E+01 -0.56574318889E+02  0.62330024986E+02  0.47000000000E+01 0. -1.
          5    1    4    4  503    0  0.58041851871E+02  0.91736920353E+01 -0.75804547124E+02  0.96028290409E+02  0.47000000000E+01 0.  1.
         -5    1    4    4    0  503 -0.56309288761E+02 -0.41355048165E+02 -0.79934825067E+02  0.10626684463E+03  0.47000000000E+01 0.  1.
<mgrwt>
<rscale>  0 0.12910248E+03</rscale>
<asrwt>0</asrwt>
<pdfrwt beam="2">  1        5 0.37896988E-01 0.12910681E+03</pdfrwt>
<pdfrwt beam="1">  1       -5 0.13102774E-01 0.12910681E+03</pdfrwt>
<totfact> 0.23870391E+02</totfact>
</mgrwt>
</event>
<event>
 8    1  0.1821556E-007  0.1342722E+03  0.7546771E-02  0.1221258E+00
          5   -1    0    0  501    0  0.00000000000E+00  0.00000000000E+00  0.19087637633E+03  0.19093423224E+03  0.47000000000E+01 0. -1.
         -5   -1    0    0    0  501 -0.00000000000E+00 -0.00000000000E+00 -0.20255593860E+03  0.20261045941E+03  0.47000000000E+01 0. -1.
         25    2    1    2    0    0  0.43632573798E+02  0.22239207549E+02 -0.14963520297E+03  0.20104656931E+03  0.12502257882E+03 0.  0.
         25    2    1    2    0    0 -0.43632573798E+02 -0.22239207549E+02  0.13795564071E+03  0.19249812233E+03  0.12500153779E+03 0.  0.
          5    1    4    4  502    0 -0.35106154801E+01  0.49044821472E+02  0.72004551385E+02  0.87318178831E+02  0.47000000000E+01 0.  1.
         -5    1    4    4    0  502 -0.40121958318E+02 -0.71284029020E+02  0.65951089321E+02  0.10517994350E+03  0.47000000000E+01 0.  1.
          5    1    3    3  503    0  0.66538478410E+02  0.59729305992E+02 -0.10853774800E+03  0.14070356017E+03  0.47000000000E+01 0. -1.
         -5    1    3    3    0  503 -0.22905904613E+02 -0.37490098443E+02 -0.41097454968E+02  0.60343009141E+02  0.47000000000E+01 0. -1.
<mgrwt>
<rscale>  0 0.13426732E+03</rscale>
<asrwt>0</asrwt>
<pdfrwt beam="1">  1        5 0.29374241E-01 0.13427222E+03</pdfrwt>
<pdfrwt beam="2">  1       -5 0.31171096E-01 0.13427222E+03</pdfrwt>
<totfact> 0.79395767E+01</totfact>
</mgrwt>
</event>
<event>
 8    1  0.1821556E-007  0.1295278E+03  0.7546771E-02  0.1228160E+00
          5   -1    0    0  501    0  0.00000000000E+00  0.00000000000E+00  0.74867142220E+03  0.74868617485E+03  0.47000000000E+01 0.  1.
         -5   -1    0    0    0  501 -0.00000000000E+00 -0.00000000000E+00 -0.22358259823E+02  0.22846920631E+02  0.47000000000E+01 0.  1.
         25    2    1    2    0    0  0.33918046685E+02  0.15109012221E-02  0.32608835329E+03  0.35087187428E+03  0.12500809621E+03 0.  0.
         25    2    1    2    0    0 -0.33918046685E+02 -0.15109012221E-02  0.40022480908E+03  0.42066122120E+03  0.12500212527E+03 0.  0.
          5    1    3    3  502    0  0.42133883322E+02 -0.18053047408E+02  0.32722649809E+03  0.33045491023E+03  0.47000000000E+01 0.  1.
         -5    1    3    3    0  502 -0.82158366377E+01  0.18054558310E+02 -0.11381448010E+01  0.20416964050E+02  0.47000000000E+01 0.  1.
          5    1    4    4  503    0 -0.30678374924E+02 -0.47554254406E+02  0.33478765474E+03  0.33956948267E+03  0.47000000000E+01 0. -1.
         -5    1    4    4    0  503 -0.32396717604E+01  0.47552743505E+02  0.65437154347E+02  0.81091738525E+02  0.47000000000E+01 0. -1.
<mgrwt>
<rscale>  0 0.12952639E+03</rscale>
<asrwt>0</asrwt>
<pdfrwt beam="1">  1        5 0.11521894E+00 0.12952783E+03</pdfrwt>
<pdfrwt beam="2">  1       -5 0.34784566E-02 0.12952783E+03</pdfrwt>
<totfact> 0.18788465E+02</totfact>
</mgrwt>
</event>
<event>
 8    1  0.1821556E-007  0.1313613E+03  0.7546771E-02  0.1225452E+00
          5   -1    0    0  501    0  0.00000000000E+00  0.00000000000E+00  0.37888956992E+02  0.38179353870E+02  0.47000000000E+01 0.  1.
         -5   -1    0    0    0  501 -0.00000000000E+00 -0.00000000000E+00 -0.46558846928E+03  0.46561219135E+03  0.47000000000E+01 0.  1.
         25    2    1    2    0    0  0.12256307008E+02  0.38469037570E+02 -0.25464951969E+03  0.28653474816E+03  0.12500280042E+03 0.  0.
         25    2    1    2    0    0 -0.12256307008E+02 -0.38469037570E+02 -0.17304999260E+03  0.21725679706E+03  0.12499652801E+03 0.  0.
          5    1    3    3  502    0 -0.52429408077E+02  0.76620847286E+01 -0.15377791159E+03  0.16271842694E+03  0.47000000000E+01 0. -1.
         -5    1    3    3    0  502  0.64685715085E+02  0.30806952841E+02 -0.10087160810E+03  0.12381632122E+03  0.47000000000E+01 0. -1.
          5    1    4    4  503    0  0.12113268349E+01  0.44847533303E+02 -0.77598429134E+02  0.89757310343E+02  0.47000000000E+01 0. -1.
         -5    1    4    4    0  503 -0.13467633843E+02 -0.83316570873E+02 -0.95451563468E+02  0.12749948671E+03  0.47000000000E+01 0. -1.
<mgrwt>
<rscale>  0 0.13135978E+03</rscale>
<asrwt>0</asrwt>
<pdfrwt beam="1">  1        5 0.58532336E-02 0.13136127E+03</pdfrwt>
<pdfrwt beam="2">  1       -5 0.71653154E-01 0.13136127E+03</pdfrwt>
<totfact> 0.24774446E+02</totfact>
</mgrwt>
</event>
<event>
 8    1  0.1821556E-007  0.1256156E+03  0.7546771E-02  0.1234113E+00
          5   -1    0    0  501    0  0.00000000000E+00  0.00000000000E+00  0.11033197496E+03  0.11043203656E+03  0.47000000000E+01 0. -1.
         -5   -1    0    0    0  501 -0.00000000000E+00 -0.00000000000E+00 -0.14329528326E+03  0.14337234115E+03  0.47000000000E+01 0. -1.
         25    2    1    2    0    0 -0.12282600274E+02 -0.16776407657E+01 -0.23894629334E+02  0.12786806437E+03  0.12500244728E+03 0.  0.
         25    2    1    2    0    0  0.12282600274E+02  0.16776407657E+01 -0.90686789703E+01  0.12593631333E+03  0.12499614926E+03 0.  0.
          5    1    3    3  502    0 -0.63786502130E+02  0.23105785361E+02 -0.88531093691E+01  0.68578879523E+02  0.47000000000E+01 0.  1.
         -5    1    3    3    0  502  0.51503901855E+02 -0.24783426127E+02 -0.15041519965E+02  0.59289184847E+02  0.47000000000E+01 0.  1.
          5    1    4    4  503    0  0.41077075537E+02 -0.47530858644E+02 -0.22987732311E+02  0.67059932113E+02  0.47000000000E+01 0.  1.
         -5    1    4    4    0  503 -0.28794475263E+02  0.49208499410E+02  0.13919053340E+02  0.58876381221E+02  0.47000000000E+01 0.  1.
<mgrwt>
<rscale>  0 0.12561407E+03</rscale>
<asrwt>0</asrwt>
<pdfrwt beam="1">  1        5 0.16987775E-01 0.12561564E+03</pdfrwt>
<pdfrwt beam="2">  1       -5 0.22059053E-01 0.12561564E+03</pdfrwt>
<totfact> 0.42492920E+02</totfact>
</mgrwt>
</event>
<event>
 8    1  0.1821556E-007  0.1370646E+03  0.7546771E-02  0.1217337E+00
         -5   -1    0    0    0  501 -0.00000000000E+00  0.00000000000E+00  0.92423716958E+02  0.92543143756E+02  0.47000000000E+01 0.  1.
          5   -1    0    0  501    0  0.00000000000E+00 -0.00000000000E+00 -0.21422040562E+03  0.21427195846E+03  0.47000000000E+01 0.  1.
         25    2    1    2    0    0  0.24634905693E+02 -0.50546718323E+02 -0.25763314792E+02  0.13945588798E+03  0.12498938751E+03 0.  0.
         25    2    1    2    0    0 -0.24634905693E+02  0.50546718323E+02 -0.96033373868E+02  0.16735921424E+03  0.12499939353E+03 0.  0.
          5    1    4    4  502    0 -0.22660218463E+02  0.54932316532E+02 -0.12454002634E+03  0.13807010199E+03  0.47000000000E+01 0. -1.
         -5    1    4    4    0  502 -0.19746872292E+01 -0.43855982089E+01  0.28506652476E+02  0.29289112255E+02  0.47000000000E+01 0. -1.
          5    1    3    3  503    0  0.26245998901E+01  0.30084531741E+02 -0.44199003021E+02  0.53736481488E+02  0.47000000000E+01 0.  1.
         -5    1    3    3    0  503  0.22010305802E+02 -0.80631250065E+02  0.18435688228E+02  0.85719406490E+02  0.47000000000E+01 0.  1.
<mgrwt>
<rscale>  0 0.13706229E+03</rscale>
<asrwt>0</asrwt>
<pdfrwt beam="2">  1        5 0.32970138E-01 0.13706457E+03</pdfrwt>
<pdfrwt beam="1">  1       -5 0.14232186E-01 0.13706457E+03</pdfrwt>
<totfact> 0.27791709E+02</totfact>
</mgrwt>
</event>
<event>
 8    1  0.1821556E-007  0.1522391E+03  0.7546771E-02  0.1197749E+00
          5   -1    0    0  501    0  0.00000000000E+00  0.00000000000E+00  0.42344781229E+02  0.42604817771E+02  0.47000000000E+01 0.  1.
         -5   -1    0    0    0  501 -0.00000000000E+00 -0.00000000000E+00 -0.56484931540E+03  0.56486886894E+03  0.47000000000E+01 0.  1.
         25    2    1    2    0    0  0.66192874648E+02  0.56302569831E+02 -0.31762918182E+03  0.35222742513E+03  0.12499754337E+03 0.  0.
         25    2    1    2    0    0 -0.66192874648E+02 -0.56302569831E+02 -0.20487535235E+03  0.25524626158E+03  0.12500107211E+03 0.  0.
          5    1    3    3  502    0  0.48738842182E+02  0.70034293930E+02 -0.31824579772E+03  0.32951897492E+03  0.47000000000E+01 0. -1.
         -5    1    3    3    0  502  0.17454032466E+02 -0.13731724100E+02  0.61661590028E+00  0.22708450216E+02  0.47000000000E+01 0. -1.
          5    1    4    4  503    0  0.38077558246E+00  0.10830322829E+02 -0.13997487557E+03  0.14047240538E+03  0.47000000000E+01 0.  1.
         -5    1    4    4    0  503 -0.66573650230E+02 -0.67132892660E+02 -0.64900476780E+02  0.11477385620E+03  0.47000000000E+01 0.  1.
<mgrwt>
<rscale>  0 0.15223838E+03</rscale>
<asrwt>0</asrwt>
<pdfrwt beam="1">  1        5 0.65360890E-02 0.15223910E+03</pdfrwt>
<pdfrwt beam="2">  1       -5 0.86921396E-01 0.15223910E+03</pdfrwt>
<totfact> 0.13826270E+02</totfact>
</mgrwt>
</event>
<event>
 8    1  0.1821556E-007  0.1350832E+03  0.7546771E-02  0.1220104E+00
         -5   -1    0    0    0  501 -0.00000000000E+00  0.00000000000E+00  0.19933905144E+02  0.20480492531E+02  0.47000000000E+01 0.  1.
          5   -1    0    0  501    0  0.00000000000E+00 -0.00000000000E+00 -0.96259401343E+03  0.96260548757E+03  0.47000000000E+01 0.  1.
         25    2    1    2    0    0  0.51179551261E+02 -0.11778716136E+01 -0.34849229635E+03  0.37375706488E+03  0.12500691613E+03 0.  0.
         25    2    1    2    0    0 -0.51179551261E+02  0.11778716136E+01 -0.59416781194E+03  0.60932891522E+03  0.12500241731E+03 0.  0.
          5    1    3    3  502    0  0.68911239669E+02  0.26641183730E+02 -0.32413414638E+03  0.33248089640E+03  0.47000000000E+01 0. -1.
         -5    1    3    3    0  502 -0.17731688408E+02 -0.27819055343E+02 -0.24358149974E+02  0.41276168477E+02  0.47000000000E+01 0. -1.
          5    1    4    4  503    0 -0.31649705074E+02 -0.22627971116E+02 -0.46653116711E+02  0.60928911093E+02  0.47000000000E+01 0.  1.
         -5    1    4    4    0  503 -0.19529846187E+02  0.23805842730E+02 -0.54751469523E+03  0.54840000413E+03  0.47000000000E+01 0.  1.
<mgrwt>
<rscale>  0 0.13508213E+03</rscale>
<asrwt>0</asrwt>
<pdfrwt beam="2">  1        5 0.14813428E+00 0.13508317E+03</pdfrwt>
<pdfrwt beam="1">  1       -5 0.31096832E-02 0.13508317E+03</pdfrwt>
<totfact> 0.11861932E+02</totfact>
</mgrwt>
</event>
<event>
 8    1  0.1821556E-007  0.1356012E+03  0.7546771E-02  0.1219376E+00
          5   -1    0    0  501    0  0.00000000000E+00  0.00000000000E+00  0.39404757671E+03  0.39407560532E+03  0.47000000000E+01 0.  1.
         -5   -1    0    0    0  501 -0.00000000000E+00 -0.00000000000E+00 -0.46972640208E+02  0.47207191487E+02  0.47000000000E+01 0.  1.
         25    2    1    2    0    0 -0.16308832051E+02 -0.49976561020E+02  0.15178148000E+03  0.20353210203E+03  0.12499625687E+03 0.  0.
         25    2    1    2    0    0  0.16308832051E+02  0.49976561020E+02  0.19529345650E+03  0.23775069478E+03  0.12498889575E+03 0.  0.
          5    1    3    3  502    0 -0.49632031232E+01 -0.15181018133E+02 -0.21031486287E+02  0.26823685657E+02  0.47000000000E+01 0. -1.
         -5    1    3    3    0  502 -0.11345628928E+02 -0.34795542887E+02  0.17281296629E+03  0.17670841637E+03  0.47000000000E+01 0. -1.
          5    1    4    4  503    0 -0.87642106291E+01  0.81747895266E+02  0.77400418008E+02  0.11301524002E+03  0.47000000000E+01 0.  1.
         -5    1    4    4    0  503  0.25073042680E+02 -0.31771334246E+02  0.11789303849E+03  0.12473545476E+03  0.47000000000E+01 0.  1.
<mgrwt>
<rscale>  0 0.13559955E+03</rscale>
<asrwt>0</asrwt>
<pdfrwt beam="1">  1        5 0.60642903E-01 0.13560125E+03</pdfrwt>
<pdfrwt beam="2">  1       -5 0.72467584E-02 0.13560125E+03</pdfrwt>
<totfact> 0.25314885E+02</totfact>
</mgrwt>
</event>
<event>
 8    1  0.1821556E-007  0.1345753E+03  0.7546771E-02  0.1220821E+00
          5   -1    0    0  501    0  0.00000000000E+00  0.00000000000E+00  0.72489029004E+02  0.72641237089E+02  0.47000000000E+01 0.  1.
         -5   -1    0    0    0  501 -0.00000000000E+00 -0.00000000000E+00 -0.25778435756E+03  0.25782719988E+03  0.47000000000E+01 0.  1.
         25    2    1    2    0    0  0.49147838891E+02  0.83199883454E+01 -0.12244288556E+03  0.18194166362E+03  0.12500310582E+03 0.  0.
         25    2    1    2    0    0 -0.49147838891E+02 -0.83199883454E+01 -0.62852442995E+02  0.14852677335E+03  0.12500016215E+03 0.  0.
          5    1    4    4  502    0  0.32399749749E+02 -0.10958977331E+02 -0.56938255828E+02  0.66587520938E+02  0.47000000000E+01 0.  1.
         -5    1    4    4    0  502 -0.81547588640E+02  0.26389889859E+01 -0.59141871663E+01  0.81939252411E+02  0.47000000000E+01 0.  1.
          5    1    3    3  503    0  0.50977399295E+02  0.49256434256E+02 -0.12142810683E+03  0.14068321393E+03  0.47000000000E+01 0. -1.
         -5    1    3    3    0  503 -0.18295604042E+01 -0.40936445910E+02 -0.10147787279E+01  0.41258449691E+02  0.47000000000E+01 0. -1.
<mgrwt>
<rscale>  0 0.13457461E+03</rscale>
<asrwt>0</asrwt>
<pdfrwt beam="1">  1        5 0.11167162E-01 0.13457529E+03</pdfrwt>
<pdfrwt beam="2">  1       -5 0.39674135E-01 0.13457529E+03</pdfrwt>
<totfact> 0.29295816E+02</totfact>
</mgrwt>
</event>
<event>
 8    1  0.1821556E-007  0.1514680E+03  0.7546771E-02  0.1198681E+00
         -5   -1    0    0    0  501 -0.00000000000E+00  0.00000000000E+00  0.59427159755E+03  0.59429018304E+03  0.47000000000E+01 0. -1.
          5   -1    0    0  501    0  0.00000000000E+00 -0.00000000000E+00 -0.50573048602E+02  0.50790976018E+02  0.47000000000E+01 0. -1.
         25    2    1    2    0    0  0.14744099403E+02 -0.84261748475E+02  0.42938733365E+03  0.45531969856E+03  0.12500045948E+03 0.  0.
         25    2    1    2    0    0 -0.14744099403E+02  0.84261748475E+02  0.11431121530E+03  0.18976146050E+03  0.12499970890E+03 0.  0.
          5    1    4    4  502    0 -0.19019671766E+02  0.76557725291E+02  0.14079564041E+03  0.16145691553E+03  0.47000000000E+01 0. -1.
         -5    1    4    4    0  502  0.42755723631E+01  0.77040231841E+01 -0.26484425110E+02  0.28304544965E+02  0.47000000000E+01 0. -1.
          5    1    3    3  503    0 -0.26702439128E+02  0.49827909666E+01  0.19515535794E+02  0.33775650972E+02  0.47000000000E+01 0. -1.
         -5    1    3    3    0  503  0.41446538531E+02 -0.89244539442E+02  0.40987179786E+03  0.42154404758E+03  0.47000000000E+01 0. -1.
<mgrwt>
<rscale>  0 0.15146781E+03</rscale>
<asrwt>0</asrwt>
<pdfrwt beam="2">  1        5 0.77986624E-02 0.15146797E+03</pdfrwt>
<pdfrwt beam="1">  1       -5 0.91444592E-01 0.15146797E+03</pdfrwt>
<totfact> 0.90589436E+01</totfact>
</mgrwt>
</event>
<event>
 8    1  0.1821556E-007  0.2996966E+03  0.7546771E-02  0.1085393E+00
          5   -1    0    0  501    0  0.00000000000E+00  0.00000000000E+00  0.34437477381E+03  0.34440684494E+03  0.47000000000E+01 0.  1.
         -5   -1    0    0    0  501 -0.00000000000E+00 -0.00000000000E+00 -0.27052359929E+03  0.27056442444E+03  0.47000000000E+01 0.  1.
         25    2    1    2    0    0  0.39632080836E+02 -0.26948531016E+03 -0.21520835987E+02  0.30046828018E+03  0.12500002717E+03 0.  0.
         25    2    1    2    0    0 -0.39632080836E+02  0.26948531016E+03  0.95372010515E+02  0.31450298919E+03  0.12499310220E+03 0.  0.
          5    1    4    4  502    0  0.66257256664E+01  0.77993269159E+02  0.87207606762E+02  0.11727790479E+03  0.47000000000E+01 0.  1.
         -5    1    4    4    0  502 -0.46257806502E+02  0.19149204100E+03  0.81644037526E+01  0.19722508440E+03  0.47000000000E+01 0.  1.
          5    1    3    3  503    0 -0.25529262680E+01 -0.22941306665E+03  0.17677026927E+02  0.23015525165E+03  0.47000000000E+01 0.  1.
         -5    1    3    3    0  503  0.42185007104E+02 -0.40072243507E+02 -0.39197862914E+02  0.70313028530E+02  0.47000000000E+01 0.  1.
<mgrwt>
<rscale>  0 0.29969586E+03</rscale>
<asrwt>0</asrwt>
<pdfrwt beam="1">  1        5 0.52986341E-01 0.29969658E+03</pdfrwt>
<pdfrwt beam="2">  1       -5 0.41624623E-01 0.29969658E+03</pdfrwt>
<totfact> 0.16157403E+01</totfact>
</mgrwt>
</event>
<event>
 8    1  0.1821556E-007  0.1736830E+03  0.7546771E-02  0.1174061E+00
          5   -1    0    0  501    0  0.00000000000E+00  0.00000000000E+00  0.55692375431E+03  0.55694358612E+03  0.47000000000E+01 0.  1.
         -5   -1    0    0    0  501 -0.00000000000E+00 -0.00000000000E+00 -0.71228173119E+02  0.71383069743E+02  0.47000000000E+01 0.  1.
         25    2    1    2    0    0  0.75461061728E+02  0.94059219298E+02  0.88743228266E+02  0.19504142776E+03  0.12499715760E+03 0.  0.
         25    2    1    2    0    0 -0.75461061728E+02 -0.94059219298E+02  0.39695235293E+03  0.43328522810E+03  0.12499363912E+03 0.  0.
          5    1    3    3  502    0 -0.69547593586E+00  0.16620193341E+02  0.84494473713E+02  0.86244539546E+02  0.47000000000E+01 0.  1.
         -5    1    3    3    0  502  0.76156537664E+02  0.77439025958E+02  0.42487545522E+01  0.10879688822E+03  0.47000000000E+01 0.  1.
          5    1    4    4  503    0 -0.95162883275E+02 -0.39981276658E+02  0.16859289442E+03  0.19773753029E+03  0.47000000000E+01 0.  1.
         -5    1    4    4    0  503  0.19701821547E+02 -0.54077942640E+02  0.22835945851E+03  0.23554769780E+03  0.47000000000E+01 0.  1.
<mgrwt>
<rscale>  0 0.17368241E+03</rscale>
<asrwt>0</asrwt>
<pdfrwt beam="1">  1        5 0.85694016E-01 0.17368304E+03</pdfrwt>
<pdfrwt beam="2">  1       -5 0.10971621E-01 0.17368304E+03</pdfrwt>
<totfact> 0.60753777E+01</totfact>
</mgrwt>
</event>
<event>
 8    1  0.1821556E-007  0.1600256E+03  0.7546771E-02  0.1188669E+00
         -5   -1    0    0    0  501 -0.00000000000E+00  0.00000000000E+00  0.29207018078E+03  0.29210799459E+03  0.47000000000E+01 0.  1.
          5   -1    0    0  501    0  0.00000000000E+00 -0.00000000000E+00 -0.88131145194E+02  0.88256380807E+02  0.47000000000E+01 0.  1.
         25    2    1    2    0    0  0.95740234683E+02 -0.28557847949E+02  0.86802248402E+02  0.18205168237E+03  0.12500576591E+03 0.  0.
         25    2    1    2    0    0 -0.95740234683E+02  0.28557847949E+02  0.11713678718E+03  0.19831269302E+03  0.12500061633E+03 0.  0.
          5    1    4    4  502    0  0.10134256728E+01  0.55946769647E+02  0.61564096526E+02  0.83326442662E+02  0.47000000000E+01 0.  1.
         -5    1    4    4    0  502 -0.96753660356E+02 -0.27388921698E+02  0.55572690657E+02  0.11498625036E+03  0.47000000000E+01 0.  1.
          5    1    3    3  503    0  0.10790034045E+03 -0.51033316855E+02  0.35617647576E+02  0.12464986850E+03  0.47000000000E+01 0.  1.
         -5    1    3    3    0  503 -0.12160105763E+02  0.22475468906E+02  0.51184600826E+02  0.57401813877E+02  0.47000000000E+01 0.  1.
<mgrwt>
<rscale>  0 0.16002457E+03</rscale>
<asrwt>0</asrwt>
<pdfrwt beam="2">  1        5 0.13571180E-01 0.16002558E+03</pdfrwt>
<pdfrwt beam="1">  1       -5 0.44946417E-01 0.16002558E+03</pdfrwt>
<totfact> 0.16955226E+02</totfact>
</mgrwt>
</event>
<event>
 8    1  0.1821556E-007  0.1528092E+03  0.7546771E-02  0.1197063E+00
          5   -1    0    0  501    0  0.00000000000E+00  0.00000000000E+00  0.63005012904E+03  0.63006765915E+03  0.47000000000E+01 0.  1.
         -5   -1    0    0    0  501 -0.00000000000E+00 -0.00000000000E+00 -0.68797789165E+02  0.68958145233E+02  0.47000000000E+01 0.  1.
         25    2    1    2    0    0  0.65423804399E+02 -0.58701712434E+02  0.43042396044E+02  0.15875548810E+03  0.12499796766E+03 0.  0.
         25    2    1    2    0    0 -0.65423804399E+02  0.58701712434E+02  0.51820994383E+03  0.54027031628E+03  0.12499721415E+03 0.  0.
          5    1    4    4  502    0 -0.44724336407E+02  0.25605865614E+02  0.48787124237E+03  0.49060815908E+03  0.47000000000E+01 0.  1.
         -5    1    4    4    0  502 -0.20699467993E+02  0.33095846820E+02  0.30338701460E+02  0.49662157205E+02  0.47000000000E+01 0.  1.
          5    1    3    3  503    0  0.34916658203E+02 -0.71901196501E+02  0.76942386231E+02  0.11104582782E+03  0.47000000000E+01 0. -1.
         -5    1    3    3    0  503  0.30507146197E+02  0.13199484067E+02 -0.33899990187E+02  0.47709660273E+02  0.47000000000E+01 0. -1.
<mgrwt>
<rscale>  0 0.15280906E+03</rscale>
<asrwt>0</asrwt>
<pdfrwt beam="1">  1        5 0.96944475E-01 0.15280922E+03</pdfrwt>
<pdfrwt beam="2">  1       -5 0.10597959E-01 0.15280922E+03</pdfrwt>
<totfact> 0.46367913E+01</totfact>
</mgrwt>
</event>
<event>
 8    1  0.1821556E-007  0.1280079E+03  0.7546771E-02  0.1230442E+00
         -5   -1    0    0    0  501 -0.00000000000E+00  0.00000000000E+00  0.33984422656E+02  0.34307885147E+02  0.47000000000E+01 0.  1.
          5   -1    0    0  501    0  0.00000000000E+00 -0.00000000000E+00 -0.61013066186E+03  0.61014876427E+03  0.47000000000E+01 0.  1.
         25    2    1    2    0    0  0.25141611423E+02 -0.11353038259E+02 -0.13903739592E+03  0.18898968635E+03  0.12499884791E+03 0.  0.
         25    2    1    2    0    0 -0.25141611423E+02  0.11353038259E+02 -0.43710884328E+03  0.45546696307E+03  0.12500008588E+03 0.  0.
          5    1    4    4  502    0  0.11301051104E+02  0.63203062185E+02 -0.22805464834E+03  0.23696698811E+03  0.47000000000E+01 0. -1.
         -5    1    4    4    0  502 -0.36442662527E+02 -0.51850023926E+02 -0.20905419495E+03  0.21849997496E+03  0.47000000000E+01 0. -1.
          5    1    3    3  503    0  0.16798423102E+02 -0.41263845392E+01 -0.16204967340E+03  0.16303803457E+03  0.47000000000E+01 0. -1.
         -5    1    3    3    0  503  0.83431883204E+01 -0.72266537195E+01  0.23012277477E+02  0.25951651778E+02  0.47000000000E+01 0. -1.
<mgrwt>
<rscale>  0 0.12800756E+03</rscale>
<asrwt>0</asrwt>
<pdfrwt beam="2">  1        5 0.93892522E-01 0.12800787E+03</pdfrwt>
<pdfrwt beam="1">  1       -5 0.52546474E-02 0.12800787E+03</pdfrwt>
<totfact> 0.15686768E+02</totfact>
</mgrwt>
</event>
<event>
 8    1  0.1821556E-007  0.1263681E+03  0.7546771E-02  0.1232949E+00
          5   -1    0    0  501    0  0.00000000000E+00  0.00000000000E+00  0.38833327066E+02  0.39116713704E+02  0.47000000000E+01 0. -1.
         -5   -1    0    0    0  501 -0.00000000000E+00 -0.00000000000E+00 -0.41359564679E+03  0.41362235076E+03  0.47000000000E+01 0. -1.
         25    2    1    2    0    0 -0.92035540495E+01 -0.16024879533E+02 -0.16459592944E+03  0.20751076783E+03  0.12500958606E+03 0.  0.
         25    2    1    2    0    0  0.92035540495E+01  0.16024879533E+02 -0.21016639029E+03  0.24522829663E+03  0.12500201474E+03 0.  0.
          5    1    4    4  502    0 -0.12188036709E+02 -0.24791631197E+02 -0.19423157445E+03  0.19624262465E+03  0.47000000000E+01 0.  1.
         -5    1    4    4    0  502  0.21391590758E+02  0.40816510730E+02 -0.15934815837E+02  0.48985671978E+02  0.47000000000E+01 0.  1.
          5    1    3    3  503    0 -0.26920312786E+02 -0.63955613379E+02 -0.63688072026E+02  0.94304211155E+02  0.47000000000E+01 0.  1.
         -5    1    3    3    0  503  0.17716758736E+02  0.47930733846E+02 -0.10090785741E+03  0.11320655668E+03  0.47000000000E+01 0.  1.
<mgrwt>
<rscale>  0 0.12636624E+03</rscale>
<asrwt>0</asrwt>
<pdfrwt beam="1">  1        5 0.59982114E-02 0.12636811E+03</pdfrwt>
<pdfrwt beam="2">  1       -5 0.63653950E-01 0.12636811E+03</pdfrwt>
<totfact> 0.30547775E+02</totfact>
</mgrwt>
</event>
<event>
 8    1  0.1821556E-007  0.1426967E+03  0.7546771E-02  0.1209747E+00
         -5   -1    0    0    0  501 -0.00000000000E+00  0.00000000000E+00  0.34523767371E+02  0.34842223142E+02  0.47000000000E+01 0. -1.
          5   -1    0    0  501    0  0.00000000000E+00 -0.00000000000E+00 -0.60949819897E+03  0.60951632017E+03  0.47000000000E+01 0. -1.
         25    2    1    2    0    0  0.11305046705E+02  0.67889761637E+02 -0.22526096117E+03  0.26665249184E+03  0.12499690782E+03 0.  0.
         25    2    1    2    0    0 -0.11305046705E+02 -0.67889761637E+02 -0.34971347043E+03  0.37770605147E+03  0.12500210437E+03 0.  0.
          5    1    4    4  502    0  0.12436191418E+02  0.34174920486E+02 -0.11277038425E+03  0.11858260248E+03  0.47000000000E+01 0. -1.
         -5    1    4    4    0  502 -0.23741238123E+02 -0.10206468212E+03 -0.23694308618E+03  0.25912344899E+03  0.47000000000E+01 0. -1.
          5    1    3    3  503    0 -0.20553704563E+02  0.43355215960E+01  0.78380752106E+01  0.22908010428E+02  0.47000000000E+01 0. -1.
         -5    1    3    3    0  503  0.31858751268E+02  0.63554240041E+02 -0.23309903638E+03  0.24374448141E+03  0.47000000000E+01 0. -1.
<mgrwt>
<rscale>  0 0.14269557E+03</rscale>
<asrwt>0</asrwt>
<pdfrwt beam="2">  1        5 0.93794837E-01 0.14269671E+03</pdfrwt>
<pdfrwt beam="1">  1       -5 0.53372398E-02 0.14269671E+03</pdfrwt>
<totfact> 0.15886198E+02</totfact>
</mgrwt>
</event>
<event>
 8    1  0.1821556E-007  0.1341651E+03  0.7546771E-02  0.1221403E+00
         -5   -1    0    0    0  501 -0.00000000000E+00  0.00000000000E+00  0.35528725635E+03  0.35531834252E+03  0.47000000000E+01 0.  1.
          5   -1    0    0  501    0  0.00000000000E+00 -0.00000000000E+00 -0.65625416939E+02  0.65793505366E+02  0.47000000000E+01 0.  1.
         25    2    1    2    0    0  0.18333407809E+02  0.45168595884E+02  0.24567181718E+03  0.27991910023E+03  0.12499497997E+03 0.  0.
         25    2    1    2    0    0 -0.18333407809E+02 -0.45168595884E+02  0.43990022233E+02  0.14119274766E+03  0.12499581608E+03 0.  0.
          5    1    4    4  502    0  0.52677454681E+02 -0.16018306511E+02  0.65117976253E+01  0.55641656010E+02  0.47000000000E+01 0.  1.
         -5    1    4    4    0  502 -0.71010862490E+02 -0.29150289373E+02  0.37478224607E+02  0.85551091646E+02  0.47000000000E+01 0.  1.
          5    1    3    3  503    0  0.53154231207E+02  0.71938854384E+02  0.17471017554E+03  0.19633213314E+03  0.47000000000E+01 0.  1.
         -5    1    3    3    0  503 -0.34820823399E+02 -0.26770258501E+02  0.70961641645E+02  0.83586967090E+02  0.47000000000E+01 0.  1.
<mgrwt>
<rscale>  0 0.13416489E+03</rscale>
<asrwt>0</asrwt>
<pdfrwt beam="2">  1        5 0.10111539E-01 0.13416508E+03</pdfrwt>
<pdfrwt beam="1">  1       -5 0.54674897E-01 0.13416508E+03</pdfrwt>
<totfact> 0.17791390E+02</totfact>
</mgrwt>
</event>
<event>
 8    1  0.1821556E-007  0.1259420E+03  0.7546771E-02  0.1233613E+00
         -5   -1    0    0    0  501 -0.00000000000E+00  0.00000000000E+00  0.94708262420E+02  0.94824811999E+02  0.47000000000E+01 0. -1.
          5   -1    0    0  501    0  0.00000000000E+00 -0.00000000000E+00 -0.18677370748E+03  0.18683283385E+03  0.47000000000E+01 0. -1.
         25    2    1    2    0    0  0.24131319374E+01 -0.14996432836E+02 -0.46006002361E+00  0.12594284284E+03  0.12502268516E+03 0.  0.
         25    2    1    2    0    0 -0.24131319374E+01  0.14996432836E+02 -0.91605385032E+02  0.15571480300E+03  0.12499934841E+03 0.  0.
          5    1    3    3  502    0 -0.54115329420E+02 -0.35664479354E+02 -0.63203336037E+01  0.65287522412E+02  0.47000000000E+01 0.  1.
         -5    1    3    3    0  502  0.56528461357E+02  0.20668046518E+02  0.58602735801E+01  0.60655320432E+02  0.47000000000E+01 0.  1.
          5    1    4    4  503    0  0.36383448501E+01  0.57411974089E+02 -0.96388046220E+02  0.11234819881E+03  0.47000000000E+01 0. -1.
         -5    1    4    4    0  503 -0.60514767875E+01 -0.42415541253E+02  0.47826611884E+01  0.43366604192E+02  0.47000000000E+01 0. -1.
<mgrwt>
<rscale>  0 0.12593621E+03</rscale>
<asrwt>0</asrwt>
<pdfrwt beam="2">  1        5 0.28747930E-01 0.12594200E+03</pdfrwt>
<pdfrwt beam="1">  1       -5 0.14584016E-01 0.12594200E+03</pdfrwt>
<totfact> 0.33790458E+02</totfact>
</mgrwt>
</event>
<event>
 8    1  0.1821556E-007  0.1636856E+03  0.7546771E-02  0.1184598E+00
          5   -1    0    0  501    0  0.00000000000E+00  0.00000000000E+00  0.22941455686E+03  0.22946269609E+03  0.47000000000E+01 0. -1.
         -5   -1    0    0    0  501 -0.00000000000E+00 -0.00000000000E+00 -0.11716513587E+03  0.11725936664E+03  0.47000000000E+01 0. -1.
         25    2    1    2    0    0 -0.12315406724E+02  0.10495705992E+03  0.44976313069E+02  0.16975131679E+03  0.12499994857E+03 0.  0.
         25    2    1    2    0    0  0.12315406724E+02 -0.10495705992E+03  0.67273107915E+02  0.17697074594E+03  0.12500128079E+03 0.  0.
          5    1    4    4  502    0  0.25666273461E+02 -0.10332209785E+02 -0.29617386068E+02  0.40801859147E+02  0.47000000000E+01 0.  1.
         -5    1    4    4    0  502 -0.13350866737E+02 -0.94624850139E+02  0.96890493982E+02  0.13616888679E+03  0.47000000000E+01 0.  1.
          5    1    3    3  503    0  0.48282045288E+02  0.15285324485E+02 -0.36852916372E+01  0.50994788128E+02  0.47000000000E+01 0.  1.
         -5    1    3    3    0  503 -0.60597452011E+02  0.89671735440E+02  0.48661604706E+02  0.11875652866E+03  0.47000000000E+01 0.  1.
<mgrwt>
<rscale>  0 0.16368534E+03</rscale>
<asrwt>0</asrwt>
<pdfrwt beam="1">  1        5 0.35305499E-01 0.16368559E+03</pdfrwt>
<pdfrwt beam="2">  1       -5 0.18036357E-01 0.16368559E+03</pdfrwt>
<totfact> 0.16673888E+02</totfact>
</mgrwt>
</event>
<event>
 8    1  0.1821556E-007  0.1448742E+03  0.7546771E-02  0.1206917E+00
         -5   -1    0    0    0  501 -0.00000000000E+00  0.00000000000E+00  0.27740231624E+03  0.27744212920E+03  0.47000000000E+01 0. -1.
          5   -1    0    0  501    0  0.00000000000E+00 -0.00000000000E+00 -0.76014225678E+02  0.76159388820E+02  0.47000000000E+01 0. -1.
         25    2    1    2    0    0  0.92655401308E+01  0.72649512344E+02  0.86774432622E+02  0.16887369660E+03  0.12499888547E+03 0.  0.
         25    2    1    2    0    0 -0.92655401308E+01 -0.72649512344E+02  0.11461365794E+03  0.18472782141E+03  0.12499710213E+03 0.  0.
          5    1    3    3  502    0  0.15587885029E+02  0.75077749415E+01 -0.29987106161E+02  0.34938021984E+02  0.47000000000E+01 0.  1.
         -5    1    3    3    0  502 -0.63223448981E+01  0.65141737403E+02  0.11676153878E+03  0.13393567462E+03  0.47000000000E+01 0.  1.
          5    1    4    4  503    0  0.35275490907E+02 -0.14747469774E+02 -0.10362267584E+02  0.39891286178E+02  0.47000000000E+01 0. -1.
         -5    1    4    4    0  503 -0.44541031037E+02 -0.57902042571E+02  0.12497592552E+03  0.14483653524E+03  0.47000000000E+01 0. -1.
<mgrwt>
<rscale>  0 0.14487378E+03</rscale>
<asrwt>0</asrwt>
<pdfrwt beam="2">  1        5 0.11708725E-01 0.14487416E+03</pdfrwt>
<pdfrwt beam="1">  1       -5 0.42691508E-01 0.14487416E+03</pdfrwt>
<totfact> 0.23764663E+02</totfact>
</mgrwt>
</event>
<event>
 8    1  0.1821556E-007  0.1345284E+03  0.7546771E-02  0.1220893E+00
          5   -1    0    0  501    0  0.00000000000E+00  0.00000000000E+00  0.20926521718E+03  0.20931799044E+03  0.47000000000E+01 0. -1.
         -5   -1    0    0    0  501 -0.00000000000E+00 -0.00000000000E+00 -0.12507025840E+03  0.12515853761E+03  0.47000000000E+01 0. -1.
         25    2    1    2    0    0  0.32393584863E+02  0.37665069728E+02 -0.50899735527E+02  0.14383553888E+03  0.12501950788E+03 0.  0.
         25    2    1    2    0    0 -0.32393584863E+02 -0.37665069728E+02  0.13509469431E+03  0.19064098917E+03  0.12500163400E+03 0.  0.
          5    1    4    4  502    0 -0.14892938036E+02 -0.61315849963E+02  0.14583491703E+03  0.15896963888E+03  0.47000000000E+01 0.  1.
         -5    1    4    4    0  502 -0.17500646827E+02  0.23650780235E+02 -0.10740222721E+02  0.31671350290E+02  0.47000000000E+01 0.  1.
          5    1    3    3  503    0  0.20100531576E+02  0.75228337113E+02 -0.65071169643E+02  0.10158583166E+03  0.47000000000E+01 0. -1.
         -5    1    3    3    0  503  0.12293053287E+02 -0.37563267385E+02  0.14171434116E+02  0.42249707225E+02  0.47000000000E+01 0. -1.
<mgrwt>
<rscale>  0 0.13452421E+03</rscale>
<asrwt>0</asrwt>
<pdfrwt beam="1">  1        5 0.32205499E-01 0.13452836E+03</pdfrwt>
<pdfrwt beam="2">  1       -5 0.19252429E-01 0.13452836E+03</pdfrwt>
<totfact> 0.16653684E+02</totfact>
</mgrwt>
</event>
<event>
 8    1  0.1821556E-007  0.1784705E+03  0.7546771E-02  0.1169293E+00
          5   -1    0    0  501    0  0.00000000000E+00  0.00000000000E+00  0.44285119104E+02  0.44533827301E+02  0.47000000000E+01 0. -1.
         -5   -1    0    0    0  501 -0.00000000000E+00 -0.00000000000E+00 -0.91220858036E+03  0.91222068826E+03  0.47000000000E+01 0. -1.
         25    2    1    2    0    0  0.11224871066E+01  0.12737845084E+03 -0.65525429896E+03  0.67912436354E+03  0.12500070053E+03 0.  0.
         25    2    1    2    0    0 -0.11224871066E+01 -0.12737845084E+03 -0.21266916230E+03  0.27763015202E+03  0.12499519592E+03 0.  0.
          5    1    4    4  502    0  0.16819007248E+02 -0.38344289842E+02 -0.17361401810E+03  0.17865352179E+03  0.47000000000E+01 0. -1.
         -5    1    4    4    0  502 -0.17941494355E+02 -0.89034160994E+02 -0.39055144203E+02  0.98976630233E+02  0.47000000000E+01 0. -1.
          5    1    3    3  503    0  0.31609870644E+02  0.94429287842E+02 -0.59782997185E+03  0.60608484519E+03  0.47000000000E+01 0.  1.
         -5    1    3    3    0  503 -0.30487383537E+02  0.32949162993E+02 -0.57424327111E+02  0.73039518352E+02  0.47000000000E+01 0.  1.
<mgrwt>
<rscale>  0 0.17846950E+03</rscale>
<asrwt>0</asrwt>
<pdfrwt beam="1">  1        5 0.68331587E-02 0.17847046E+03</pdfrwt>
<pdfrwt beam="2">  1       -5 0.14035983E+00 0.17847046E+03</pdfrwt>
<totfact> 0.40333844E+01</totfact>
</mgrwt>
</event>
<event>
 8    1  0.1821556E-007  0.1443258E+03  0.7546771E-02  0.1207624E+00
          5   -1    0    0  501    0  0.00000000000E+00  0.00000000000E+00  0.18847797409E+03  0.18853656599E+03  0.47000000000E+01 0. -1.
         -5   -1    0    0    0  501 -0.00000000000E+00 -0.00000000000E+00 -0.11056242964E+03  0.11066228286E+03  0.47000000000E+01 0. -1.
         25    2    1    2    0    0  0.69831311814E+02 -0.18096480792E+02  0.44866924911E+02  0.15113751278E+03  0.12500244834E+03 0.  0.
         25    2    1    2    0    0 -0.69831311814E+02  0.18096480792E+02  0.33048619537E+02  0.14806133607E+03  0.12500421297E+03 0.  0.
          5    1    4    4  502    0  0.22056501533E+02 -0.24179029939E+02 -0.14613428048E+02  0.36149094429E+02  0.47000000000E+01 0. -1.
         -5    1    4    4    0  502 -0.91887813348E+02  0.42275510732E+02  0.47662047585E+02  0.11191224164E+03  0.47000000000E+01 0. -1.
          5    1    3    3  503    0  0.28356008020E+02  0.31461567979E+02  0.69743343656E+02  0.81731985385E+02  0.47000000000E+01 0.  1.
         -5    1    3    3    0  503  0.41475303794E+02 -0.49558048772E+02 -0.24876418745E+02  0.69405527391E+02  0.47000000000E+01 0.  1.
<mgrwt>
<rscale>  0 0.14432546E+03</rscale>
<asrwt>0</asrwt>
<pdfrwt beam="1">  1        5 0.29008799E-01 0.14432584E+03</pdfrwt>
<pdfrwt beam="2">  1       -5 0.17021793E-01 0.14432584E+03</pdfrwt>
<totfact> 0.26290829E+02</totfact>
</mgrwt>
</event>
<event>
 8    1  0.1821556E-007  0.1350762E+03  0.7546771E-02  0.1220113E+00
          5   -1    0    0  501    0  0.00000000000E+00  0.00000000000E+00  0.11093804938E+03  0.11103756481E+03  0.47000000000E+01 0. -1.
         -5   -1    0    0    0  501 -0.00000000000E+00 -0.00000000000E+00 -0.20148440131E+03  0.20153921199E+03  0.47000000000E+01 0. -1.
         25    2    1    2    0    0 -0.39848275138E+02  0.32107273504E+02 -0.11242572392E+03  0.17574162002E+03  0.12500724605E+03 0.  0.
         25    2    1    2    0    0  0.39848275138E+02 -0.32107273504E+02  0.21879371987E+02  0.13683515678E+03  0.12500556456E+03 0.  0.
          5    1    4    4  502    0  0.63155197472E+02 -0.54771733384E+02 -0.17516193206E+02  0.85541970810E+02  0.47000000000E+01 0. -1.
         -5    1    4    4    0  502 -0.23306922334E+02  0.22664459880E+02  0.39395565193E+02  0.51293185973E+02  0.47000000000E+01 0. -1.
          5    1    3    3  503    0  0.36677870680E+02  0.23412636942E+02 -0.81705815596E+02  0.92689525128E+02  0.47000000000E+01 0.  1.
         -5    1    3    3    0  503 -0.76526145819E+02  0.86946365614E+01 -0.30719908325E+02  0.83052094894E+02  0.47000000000E+01 0.  1.
<mgrwt>
<rscale>  0 0.13507579E+03</rscale>
<asrwt>0</asrwt>
<pdfrwt beam="1">  1        5 0.17079263E-01 0.13507618E+03</pdfrwt>
<pdfrwt beam="2">  1       -5 0.31009471E-01 0.13507618E+03</pdfrwt>
<totfact> 0.22415805E+02</totfact>
</mgrwt>
</event>
<event>
 8    1  0.1821556E-007  0.1359297E+03  0.7546771E-02  0.1218924E+00
         -5   -1    0    0    0  501 -0.00000000000E+00  0.00000000000E+00  0.52297611730E+03  0.52299723639E+03  0.47000000000E+01 0. -1.
          5   -1    0    0  501    0  0.00000000000E+00 -0.00000000000E+00 -0.48900629432E+02  0.49125976417E+02  0.47000000000E+01 0. -1.
         25    2    1    2    0    0 -0.25805112105E+02 -0.46762870905E+02  0.38833254482E+03  0.41143534740E+03  0.12499683925E+03 0.  0.
         25    2    1    2    0    0  0.25805112105E+02  0.46762870905E+02  0.85742943054E+02  0.16068786540E+03  0.12496426648E+03 0.  0.
          5    1    4    4  502    0  0.24396758567E+02  0.23026432822E+02 -0.28273414705E+02  0.44123626507E+02  0.47000000000E+01 0. -1.
         -5    1    4    4    0  502  0.14083535382E+01  0.23736438084E+02  0.11401635776E+03  0.11656423890E+03  0.47000000000E+01 0. -1.
          5    1    3    3  503    0  0.89717410916E+01 -0.19760379148E+02  0.35579390153E+03  0.35648612187E+03  0.47000000000E+01 0. -1.
         -5    1    3    3    0  503 -0.34776853196E+02 -0.27002491757E+02  0.32538643288E+02  0.54949225530E+02  0.47000000000E+01 0. -1.
<mgrwt>
<rscale>  0 0.13592220E+03</rscale>
<asrwt>0</asrwt>
<pdfrwt beam="2">  1        5 0.75421327E-02 0.13592969E+03</pdfrwt>
<pdfrwt beam="1">  1       -5 0.80476823E-01 0.13592969E+03</pdfrwt>
<totfact> 0.12514052E+02</totfact>
</mgrwt>
</event>
<event>
 8    1  0.1821556E-007  0.1291323E+03  0.7546771E-02  0.1228749E+00
          5   -1    0    0  501    0  0.00000000000E+00  0.00000000000E+00  0.19964886423E+03  0.19970417869E+03  0.47000000000E+01 0. -1.
         -5   -1    0    0    0  501 -0.00000000000E+00 -0.00000000000E+00 -0.90290815049E+02  0.90413059246E+02  0.47000000000E+01 0. -1.
         25    2    1    2    0    0  0.30891230387E+02 -0.97435900883E+01  0.94745267189E+02  0.16016074289E+03  0.12500236896E+03 0.  0.
         25    2    1    2    0    0 -0.30891230387E+02  0.97435900883E+01  0.14612781991E+02  0.12995649505E+03  0.12500380613E+03 0.  0.
          5    1    3    3  502    0  0.11444443258E+02  0.55850651912E+02  0.25259661311E+02  0.62533279860E+02  0.47000000000E+01 0.  1.
         -5    1    3    3    0  502  0.19446787129E+02 -0.65594242000E+02  0.69485605878E+02  0.97627463029E+02  0.47000000000E+01 0.  1.
          5    1    4    4  503    0 -0.35477732157E+02  0.38982997493E+02  0.57172500929E+02  0.77904611128E+02  0.47000000000E+01 0.  1.
         -5    1    4    4    0  503  0.45865017703E+01 -0.29239407404E+02 -0.42559718938E+02  0.52051883923E+02  0.47000000000E+01 0.  1.
<mgrwt>
<rscale>  0 0.12913198E+03</rscale>
<asrwt>0</asrwt>
<pdfrwt beam="1">  1        5 0.30728868E-01 0.12913232E+03</pdfrwt>
<pdfrwt beam="2">  1       -5 0.13904553E-01 0.12913232E+03</pdfrwt>
<totfact> 0.32614945E+02</totfact>
</mgrwt>
</event>
<event>
 8    1  0.1821556E-007  0.1275697E+03  0.7546771E-02  0.1231108E+00
          5   -1    0    0  501    0  0.00000000000E+00  0.00000000000E+00  0.32580726503E+03  0.32584116368E+03  0.47000000000E+01 0. -1.
         -5   -1    0    0    0  501 -0.00000000000E+00 -0.00000000000E+00 -0.49807731998E+02  0.50028993261E+02  0.47000000000E+01 0. -1.
         25    2    1    2    0    0  0.25141574701E+02 -0.38703771455E+01  0.14008834993E+03  0.18946769227E+03  0.12500472802E+03 0.  0.
         25    2    1    2    0    0 -0.25141574701E+02  0.38703771455E+01  0.13591118310E+03  0.18640246467E+03  0.12500780194E+03 0.  0.
          5    1    4    4  502    0 -0.36365947268E+02 -0.54798760406E+02  0.55897284703E+02  0.86440631071E+02  0.47000000000E+01 0.  1.
         -5    1    4    4    0  502  0.11224372567E+02  0.58669137551E+02  0.80013898398E+02  0.99961833603E+02  0.47000000000E+01 0.  1.
          5    1    3    3  503    0  0.40916147953E+02  0.52982930102E+02  0.87663894947E+02  0.11040095345E+03  0.47000000000E+01 0.  1.
         -5    1    3    3    0  503 -0.15774573252E+02 -0.56853307248E+02  0.52424454987E+02  0.79066738816E+02  0.47000000000E+01 0.  1.
<mgrwt>
<rscale>  0 0.12756895E+03</rscale>
<asrwt>0</asrwt>
<pdfrwt beam="1">  1        5 0.50143825E-01 0.12756970E+03</pdfrwt>
<pdfrwt beam="2">  1       -5 0.76823553E-02 0.12756970E+03</pdfrwt>
<totfact> 0.33773932E+02</totfact>
</mgrwt>
</event>
<event>
 8    1  0.1821556E-007  0.1453344E+03  0.7546771E-02  0.1206328E+00
          5   -1    0    0  501    0  0.00000000000E+00  0.00000000000E+00  0.34163297204E+03  0.34166530053E+03  0.47000000000E+01 0.  1.
         -5   -1    0    0    0  501 -0.00000000000E+00 -0.00000000000E+00 -0.71661088011E+02  0.71815050894E+02  0.47000000000E+01 0.  1.
         25    2    1    2    0    0  0.73253642949E+02  0.11472189048E+02  0.58016684009E+02  0.15648649745E+03  0.12499752371E+03 0.  0.
         25    2    1    2    0    0 -0.73253642949E+02 -0.11472189048E+02  0.21195520002E+03  0.25699385398E+03  0.12499250713E+03 0.  0.
          5    1    4    4  502    0 -0.48218521365E+02  0.42606437303E+02  0.17548600129E+03  0.18696994665E+03  0.47000000000E+01 0. -1.
         -5    1    4    4    0  502 -0.25035121584E+02 -0.54078626351E+02  0.36469198736E+02  0.70023907326E+02  0.47000000000E+01 0. -1.
          5    1    3    3  503    0 -0.24848265031E+02 -0.22035134830E+02  0.38204039536E+02  0.50839178582E+02  0.47000000000E+01 0.  1.
         -5    1    3    3    0  503  0.98101907980E+02  0.33507323878E+02  0.19812644473E+02  0.10564731887E+03  0.47000000000E+01 0.  1.
<mgrwt>
<rscale>  0 0.14533332E+03</rscale>
<asrwt>0</asrwt>
<pdfrwt beam="1">  1        5 0.52573248E-01 0.14533440E+03</pdfrwt>
<pdfrwt beam="2">  1       -5 0.11039113E-01 0.14533440E+03</pdfrwt>
<totfact> 0.17036017E+02</totfact>
</mgrwt>
</event>
<event>
 8    1  0.1821556E-007  0.1863875E+03  0.7546771E-02  0.1161761E+00
          5   -1    0    0  501    0  0.00000000000E+00  0.00000000000E+00  0.29853336508E+03  0.29857036033E+03  0.47000000000E+01 0. -1.
         -5   -1    0    0    0  501 -0.00000000000E+00 -0.00000000000E+00 -0.11627920519E+03  0.11637415331E+03  0.47000000000E+01 0. -1.
         25    2    1    2    0    0 -0.11114468504E+03  0.82226297620E+02  0.92179749214E+02  0.20793604132E+03  0.12500394425E+03 0.  0.
         25    2    1    2    0    0  0.11114468504E+03 -0.82226297620E+02  0.90074410677E+02  0.20700847232E+03  0.12499921248E+03 0.  0.
          5    1    4    4  502    0  0.95159441277E+02 -0.25813931948E+01  0.15359334185E+02  0.96540053872E+02  0.47000000000E+01 0.  1.
         -5    1    4    4    0  502  0.15985243767E+02 -0.79644904425E+02  0.74715076493E+02  0.11046841845E+03  0.47000000000E+01 0.  1.
          5    1    3    3  503    0 -0.19067683918E+02  0.90448529592E+02  0.58198447627E+02  0.10933280561E+03  0.47000000000E+01 0. -1.
         -5    1    3    3    0  503 -0.92077001126E+02 -0.82222319724E+01  0.33981301587E+02  0.98603235710E+02  0.47000000000E+01 0. -1.
<mgrwt>
<rscale>  0 0.18638668E+03</rscale>
<asrwt>0</asrwt>
<pdfrwt beam="1">  1        5 0.45938359E-01 0.18638748E+03</pdfrwt>
<pdfrwt beam="2">  1       -5 0.17899258E-01 0.18638748E+03</pdfrwt>
<totfact> 0.10227318E+02</totfact>
</mgrwt>
</event>
<event>
 8    1  0.1821556E-007  0.1362317E+03  0.7546771E-02  0.1218494E+00
         -5   -1    0    0    0  501 -0.00000000000E+00  0.00000000000E+00  0.12358116669E+04  0.12358206043E+04  0.47000000000E+01 0. -1.
          5   -1    0    0  501    0  0.00000000000E+00 -0.00000000000E+00 -0.15465733014E+02  0.16164123783E+02  0.47000000000E+01 0. -1.
         25    2    1    2    0    0 -0.50822519554E+02  0.18740992194E+02  0.75155403842E+03  0.76380138051E+03  0.12499969167E+03 0.  0.
         25    2    1    2    0    0  0.50822519554E+02 -0.18740992194E+02  0.46879189546E+03  0.48818334758E+03  0.12499194504E+03 0.  0.
          5    1    3    3  502    0 -0.98764789478E+01 -0.34086350722E+02  0.55475761649E+03  0.55591143826E+03  0.47000000000E+01 0. -1.
         -5    1    3    3    0  502 -0.40946040606E+02  0.52827342916E+02  0.19679642193E+03  0.20788994225E+03  0.47000000000E+01 0. -1.
          5    1    4    4  503    0  0.11933514235E+02 -0.66860419214E+02  0.17217090618E+03  0.18514220307E+03  0.47000000000E+01 0. -1.
         -5    1    4    4    0  503  0.38889005319E+02  0.48119427020E+02  0.29662098927E+03  0.30304114451E+03  0.47000000000E+01 0. -1.
<mgrwt>
<rscale>  0 0.13622992E+03</rscale>
<asrwt>0</asrwt>
<pdfrwt beam="2">  1        5 0.24337526E-02 0.13623170E+03</pdfrwt>
<pdfrwt beam="1">  1       -5 0.19017934E+00 0.13623170E+03</pdfrwt>
<totfact> 0.86358370E+01</totfact>
</mgrwt>
</event>
<event>
 8    1  0.1821556E-007  0.2616180E+03  0.7546771E-02  0.1106176E+00
         -5   -1    0    0    0  501 -0.00000000000E+00  0.00000000000E+00  0.20285622967E+04  0.20285677415E+04  0.47000000000E+01 0.  1.
          5   -1    0    0  501    0  0.00000000000E+00 -0.00000000000E+00 -0.35470103774E+02  0.35780137811E+02  0.47000000000E+01 0.  1.
         25    2    1    2    0    0  0.20750994307E+03  0.98770793978E+02  0.12343657846E+04  0.12617855775E+04  0.12501162822E+03 0.  0.
         25    2    1    2    0    0 -0.20750994307E+03 -0.98770793978E+02  0.75872640833E+03  0.80256230175E+03  0.12499775708E+03 0.  0.
          5    1    4    4  502    0 -0.18916589723E+03 -0.47241932437E+02  0.47337598763E+03  0.51197895711E+03  0.47000000000E+01 0. -1.
         -5    1    4    4    0  502 -0.18344045836E+02 -0.51528861541E+02  0.28535042070E+03  0.29058334465E+03  0.47000000000E+01 0. -1.
          5    1    3    3  503    0  0.46938132417E+02 -0.21833767173E+02  0.41081973136E+03  0.41409521047E+03  0.47000000000E+01 0. -1.
         -5    1    3    3    0  503  0.16057181065E+03  0.12060456115E+03  0.82354605326E+03  0.84769036705E+03  0.47000000000E+01 0. -1.
<mgrwt>
<rscale>  0 0.26161630E+03</rscale>
<asrwt>0</asrwt>
<pdfrwt beam="2">  1        5 0.54812070E-02 0.26161795E+03</pdfrwt>
<pdfrwt beam="1">  1       -5 0.31211076E+00 0.26161795E+03</pdfrwt>
<totfact> 0.42249846E+00</totfact>
</mgrwt>
</event>
<event>
 8    1  0.1821556E-007  0.1293077E+03  0.7546771E-02  0.1228509E+00
         -5   -1    0    0    0  501 -0.00000000000E+00  0.00000000000E+00  0.92195979456E+03  0.92197177440E+03  0.47000000000E+01 0. -1.
          5   -1    0    0  501    0  0.00000000000E+00 -0.00000000000E+00 -0.17893914192E+02  0.18500869307E+02  0.47000000000E+01 0. -1.
         25    2    1    2    0    0  0.32503433433E+01  0.32694292813E+02  0.48369296408E+03  0.50067890177E+03  0.12506397427E+03 0.  0.
         25    2    1    2    0    0 -0.32503433433E+01 -0.32694292813E+02  0.42037291629E+03  0.43979374194E+03  0.12500266070E+03 0.  0.
          5    1    3    3  502    0  0.38275618905E+02  0.67225724694E+02  0.24657718485E+03  0.25846995793E+03  0.47000000000E+01 0.  1.
         -5    1    3    3    0  502 -0.35025275561E+02 -0.34531431881E+02  0.23711577923E+03  0.24220894384E+03  0.47000000000E+01 0.  1.
          5    1    4    4  503    0  0.10427592223E+02  0.36534160833E+02  0.28006505105E+03  0.28266942249E+03  0.47000000000E+01 0.  1.
         -5    1    4    4    0  503 -0.13677935566E+02 -0.69228453646E+02  0.14030786524E+03  0.15712431945E+03  0.47000000000E+01 0.  1.
<mgrwt>
<rscale>  0 0.12929286E+03</rscale>
<asrwt>0</asrwt>
<pdfrwt beam="2">  1        5 0.28005203E-02 0.12930769E+03</pdfrwt>
<pdfrwt beam="1">  1       -5 0.14188758E+00 0.12930769E+03</pdfrwt>
<totfact> 0.15550082E+02</totfact>
</mgrwt>
</event>
<event>
 8    1  0.1821556E-007  0.1343939E+03  0.7546771E-02  0.1221099E+00
          5   -1    0    0  501    0  0.00000000000E+00  0.00000000000E+00  0.21623219163E+03  0.21628326495E+03  0.47000000000E+01 0.  1.
         -5   -1    0    0    0  501 -0.00000000000E+00 -0.00000000000E+00 -0.83380938660E+02  0.83513297934E+02  0.47000000000E+01 0.  1.
         25    2    1    2    0    0  0.33812296183E+02  0.35742630890E+02  0.68493580117E+02  0.15078774592E+03  0.12499906706E+03 0.  0.
         25    2    1    2    0    0 -0.33812296183E+02 -0.35742630890E+02  0.64357672853E+02  0.14900881696E+03  0.12506362557E+03 0.  0.
          5    1    4    4  502    0 -0.49949157469E+02 -0.46610175668E+02 -0.12479326407E+02  0.69607832858E+02  0.47000000000E+01 0. -1.
         -5    1    4    4    0  502  0.16136861285E+02  0.10867544778E+02  0.76836999260E+02  0.79400984105E+02  0.47000000000E+01 0. -1.
          5    1    3    3  503    0  0.25397288564E+02  0.81110634839E+02  0.58654487934E+02  0.10337502747E+03  0.47000000000E+01 0. -1.
         -5    1    3    3    0  503  0.84150076196E+01 -0.45368003948E+02  0.98390921836E+01  0.47412718447E+02  0.47000000000E+01 0. -1.
<mgrwt>
<rscale>  0 0.13437887E+03</rscale>
<asrwt>0</asrwt>
<pdfrwt beam="1">  1        5 0.33280601E-01 0.13439389E+03</pdfrwt>
<pdfrwt beam="2">  1       -5 0.12841947E-01 0.13439389E+03</pdfrwt>
<totfact> 0.32574557E+02</totfact>
</mgrwt>
</event>
<event>
 8    1  0.1821556E-007  0.1255596E+03  0.7546771E-02  0.1234198E+00
         -5   -1    0    0    0  501 -0.00000000000E+00  0.00000000000E+00  0.81074391411E+02  0.81210510050E+02  0.47000000000E+01 0. -1.
          5   -1    0    0  501    0  0.00000000000E+00 -0.00000000000E+00 -0.23942593139E+03  0.23947205813E+03  0.47000000000E+01 0. -1.
         25    2    1    2    0    0  0.71082782841E+01 -0.94202840013E+01 -0.94547247478E+01  0.12591223429E+03  0.12500091821E+03 0.  0.
         25    2    1    2    0    0 -0.71082782841E+01  0.94202840013E+01 -0.14889681523E+03  0.19477033388E+03  0.12500380795E+03 0.  0.
          5    1    4    4  502    0  0.20582632909E+02  0.11933145516E+02 -0.16190802585E+03  0.16371421311E+03  0.47000000000E+01 0.  1.
         -5    1    4    4    0  502 -0.27690911193E+02 -0.25128615148E+01  0.13011210617E+02  0.31056120772E+02  0.47000000000E+01 0.  1.
          5    1    3    3  503    0  0.12768508775E+02  0.31698913295E+02  0.45365328505E+02  0.56990867258E+02  0.47000000000E+01 0.  1.
         -5    1    3    3    0  503 -0.56602304908E+01 -0.41119197296E+02 -0.54820053253E+02  0.68921367036E+02  0.47000000000E+01 0.  1.
<mgrwt>
<rscale>  0 0.12555891E+03</rscale>
<asrwt>0</asrwt>
<pdfrwt beam="2">  1        5 0.36848777E-01 0.12555963E+03</pdfrwt>
<pdfrwt beam="1">  1       -5 0.12487002E-01 0.12555963E+03</pdfrwt>
<totfact> 0.27246299E+02</totfact>
</mgrwt>
</event>
<event>
 8    1  0.1821556E-007  0.1251579E+03  0.7546771E-02  0.1234824E+00
          5   -1    0    0  501    0  0.00000000000E+00  0.00000000000E+00  0.71401357707E+03  0.71402904579E+03  0.47000000000E+01 0. -1.
         -5   -1    0    0    0  501 -0.00000000000E+00 -0.00000000000E+00 -0.22445885788E+02  0.22932679495E+02  0.47000000000E+01 0. -1.
         25    2    1    2    0    0  0.61636613196E+01  0.86715449743E+00  0.27805899673E+03  0.30492707058E+03  0.12499988013E+03 0.  0.
         25    2    1    2    0    0 -0.61636613196E+01 -0.86715449743E+00  0.41350869455E+03  0.43203465471E+03  0.12500303885E+03 0.  0.
          5    1    3    3  502    0  0.49813638814E+02  0.27185273504E+02  0.22124585812E+03  0.22845624842E+03  0.47000000000E+01 0. -1.
         -5    1    3    3    0  502 -0.43649977495E+02 -0.26318119007E+02  0.56813138612E+02  0.76470822163E+02  0.47000000000E+01 0. -1.
          5    1    4    4  503    0  0.56689256994E+02  0.62510127595E+01  0.13952625519E+03  0.15080587823E+03  0.47000000000E+01 0.  1.
         -5    1    4    4    0  503 -0.62852918314E+02 -0.71181672570E+01  0.27398243935E+03  0.28122877648E+03  0.47000000000E+01 0.  1.
<mgrwt>
<rscale>  0 0.12515712E+03</rscale>
<asrwt>0</asrwt>
<pdfrwt beam="1">  1        5 0.10988689E+00 0.12515791E+03</pdfrwt>
<pdfrwt beam="2">  1       -5 0.34918483E-02 0.12515791E+03</pdfrwt>
<totfact> 0.20761521E+02</totfact>
</mgrwt>
</event>
<event>
 8    1  0.1821556E-007  0.1409069E+03  0.7546771E-02  0.1212114E+00
         -5   -1    0    0    0  501 -0.00000000000E+00  0.00000000000E+00  0.51271388946E+02  0.51486360567E+02  0.47000000000E+01 0. -1.
          5   -1    0    0  501    0  0.00000000000E+00 -0.00000000000E+00 -0.39269953584E+03  0.39272766066E+03  0.47000000000E+01 0. -1.
         25    2    1    2    0    0  0.44609354450E+02 -0.47328909928E+02 -0.14216344850E+03  0.20016296971E+03  0.12499899254E+03 0.  0.
         25    2    1    2    0    0 -0.44609354450E+02  0.47328909928E+02 -0.19926469839E+03  0.24405105151E+03  0.12499790198E+03 0.  0.
          5    1    4    4  502    0 -0.63430688461E+02  0.75898663473E+02 -0.10828169029E+03  0.14673470553E+03  0.47000000000E+01 0.  1.
         -5    1    4    4    0  502  0.18821334012E+02 -0.28569753545E+02 -0.90983008100E+02  0.97316345978E+02  0.47000000000E+01 0.  1.
          5    1    3    3  503    0  0.65487327739E+02 -0.95197339497E+01 -0.18180456842E+02  0.68788330696E+02  0.47000000000E+01 0. -1.
         -5    1    3    3    0  503 -0.20877973290E+02 -0.37809175978E+02 -0.12398299166E+03  0.13137463902E+03  0.47000000000E+01 0. -1.
<mgrwt>
<rscale>  0 0.14090671E+03</rscale>
<asrwt>0</asrwt>
<pdfrwt beam="2">  1        5 0.60434011E-01 0.14090695E+03</pdfrwt>
<pdfrwt beam="1">  1       -5 0.79066060E-02 0.14090695E+03</pdfrwt>
<totfact> 0.22265392E+02</totfact>
</mgrwt>
</event>
<event>
 8    1  0.1821556E-007  0.1539642E+03  0.7546771E-02  0.1195687E+00
         -5   -1    0    0    0  501 -0.00000000000E+00  0.00000000000E+00  0.10940433069E+03  0.10950523993E+03  0.47000000000E+01 0.  1.
          5   -1    0    0  501    0  0.00000000000E+00 -0.00000000000E+00 -0.23725943684E+03  0.23730598469E+03  0.47000000000E+01 0.  1.
         25    2    1    2    0    0  0.89417337200E+02  0.91321008012E+01 -0.12573056615E+02  0.15447058393E+03  0.12499689632E+03 0.  0.
         25    2    1    2    0    0 -0.89417337200E+02 -0.91321008012E+01 -0.11528204953E+03  0.19234064069E+03  0.12500446256E+03 0.  0.
          5    1    4    4  502    0 -0.86046939207E+02  0.23035601536E+02 -0.19734629616E+02  0.91357869345E+02  0.47000000000E+01 0. -1.
         -5    1    4    4    0  502 -0.33703979926E+01 -0.32167702337E+02 -0.95547419918E+02  0.10098277135E+03  0.47000000000E+01 0. -1.
          5    1    3    3  503    0  0.25843379258E+02 -0.54733396840E+02  0.98159137053E+01  0.61498513339E+02  0.47000000000E+01 0. -1.
         -5    1    3    3    0  503  0.63573957942E+02  0.63865497641E+02 -0.22388970320E+02  0.92972070588E+02  0.47000000000E+01 0. -1.
<mgrwt>
<rscale>  0 0.15396265E+03</rscale>
<asrwt>0</asrwt>
<pdfrwt beam="2">  1        5 0.36512795E-01 0.15396419E+03</pdfrwt>
<pdfrwt beam="1">  1       -5 0.16842778E-01 0.15396419E+03</pdfrwt>
<totfact> 0.17335601E+02</totfact>
</mgrwt>
</event>
<event>
 8    1  0.1821556E-007  0.1394034E+03  0.7546771E-02  0.1214138E+00
          5   -1    0    0  501    0  0.00000000000E+00  0.00000000000E+00  0.50223183172E+03  0.50225382308E+03  0.47000000000E+01 0.  1.
         -5   -1    0    0    0  501 -0.00000000000E+00 -0.00000000000E+00 -0.42001417039E+02  0.42263566263E+02  0.47000000000E+01 0.  1.
         25    2    1    2    0    0 -0.46423210421E+02  0.40651327969E+02  0.15207161960E+03  0.20629852791E+03  0.12500264077E+03 0.  0.
         25    2    1    2    0    0  0.46423210421E+02 -0.40651327969E+02  0.30815879508E+03  0.33821886143E+03  0.12499004084E+03 0.  0.
          5    1    3    3  502    0 -0.34171738450E+02 -0.42477571305E+02  0.68792971508E+02  0.87901164393E+02  0.47000000000E+01 0. -1.
         -5    1    3    3    0  502 -0.12251471971E+02  0.83128899275E+02  0.83278648096E+02  0.11839736352E+03  0.47000000000E+01 0. -1.
          5    1    4    4  503    0  0.65469226562E+02 -0.41315913518E+02  0.30898752523E+03  0.31857276262E+03  0.47000000000E+01 0.  1.
         -5    1    4    4    0  503 -0.19046016141E+02  0.66458554841E+00 -0.82873014540E+00  0.19646098810E+02  0.47000000000E+01 0.  1.
<mgrwt>
<rscale>  0 0.13940057E+03</rscale>
<asrwt>0</asrwt>
<pdfrwt beam="1">  1        5 0.77288290E-01 0.13940339E+03</pdfrwt>
<pdfrwt beam="2">  1       -5 0.64836137E-02 0.13940339E+03</pdfrwt>
<totfact> 0.17906492E+02</totfact>
</mgrwt>
</event>
<event>
 8    1  0.1821556E-007  0.1355310E+03  0.7546771E-02  0.1219485E+00
          5   -1    0    0  501    0  0.00000000000E+00  0.00000000000E+00  0.15089831087E+03  0.15097148811E+03  0.47000000000E+01 0.  1.
         -5   -1    0    0    0  501 -0.00000000000E+00 -0.00000000000E+00 -0.12231476749E+03  0.12240503399E+03  0.47000000000E+01 0.  1.
         25    2    1    2    0    0 -0.20749329833E+02 -0.48103776754E+02  0.34780351349E+01  0.13557561247E+03  0.12499656772E+03 0.  0.
         25    2    1    2    0    0  0.20749329833E+02  0.48103776754E+02  0.25105508243E+02  0.13780090964E+03  0.12495717717E+03 0.  0.
          5    1    3    3  502    0 -0.23042785151E+02 -0.49329265145E+02  0.58637748606E+02  0.80154986800E+02  0.47000000000E+01 0.  1.
         -5    1    3    3    0  502  0.22934553182E+01  0.12254883906E+01 -0.55159713471E+02  0.55420625667E+02  0.47000000000E+01 0.  1.
          5    1    4    4  503    0  0.62252075792E+02  0.56344180030E+02  0.39432584557E+02  0.92881678971E+02  0.47000000000E+01 0. -1.
         -5    1    4    4    0  503 -0.41502745958E+02 -0.82404032763E+01 -0.14327076313E+02  0.44919230669E+02  0.47000000000E+01 0. -1.
<mgrwt>
<rscale>  0 0.13552191E+03</rscale>
<asrwt>0</asrwt>
<pdfrwt beam="1">  1        5 0.23227697E-01 0.13553099E+03</pdfrwt>
<pdfrwt beam="2">  1       -5 0.18830229E-01 0.13553099E+03</pdfrwt>
<totfact> 0.32775457E+02</totfact>
</mgrwt>
</event>
<event>
 8    1  0.1821556E-007  0.1272139E+03  0.7546771E-02  0.1231650E+00
         -5   -1    0    0    0  501 -0.00000000000E+00  0.00000000000E+00  0.26923253392E+02  0.27330414801E+02  0.47000000000E+01 0.  1.
          5   -1    0    0  501    0  0.00000000000E+00 -0.00000000000E+00 -0.70070099312E+03  0.70071675573E+03  0.47000000000E+01 0.  1.
         25    2    1    2    0    0  0.23586194653E+02  0.13877424819E+01 -0.19632196455E+03  0.23393444608E+03  0.12499910757E+03 0.  0.
         25    2    1    2    0    0 -0.23586194653E+02 -0.13877424819E+01 -0.47745577518E+03  0.49411272445E+03  0.12500053119E+03 0.  0.
          5    1    3    3  502    0 -0.79232618336E+01 -0.14899270212E+02  0.12849558259E+02  0.21724812506E+02  0.47000000000E+01 0. -1.
         -5    1    3    3    0  502  0.31509456486E+02  0.16287012694E+02 -0.20917152280E+03  0.21220963358E+03  0.47000000000E+01 0. -1.
          5    1    4    4  503    0 -0.24379535927E+02 -0.56405671257E+01 -0.11204036905E+02  0.27817228699E+02  0.47000000000E+01 0. -1.
         -5    1    4    4    0  503  0.79334127437E+00  0.42528246438E+01 -0.46625173828E+03  0.46629549575E+03  0.47000000000E+01 0. -1.
<mgrwt>
<rscale>  0 0.12721351E+03</rscale>
<asrwt>0</asrwt>
<pdfrwt beam="2">  1        5 0.10783267E+00 0.12721386E+03</pdfrwt>
<pdfrwt beam="1">  1       -5 0.41745721E-02 0.12721386E+03</pdfrwt>
<totfact> 0.16345551E+02</totfact>
</mgrwt>
</event>
<event>
 8    1  0.1821556E-007  0.1540049E+03  0.7546771E-02  0.1195637E+00
          5   -1    0    0  501    0  0.00000000000E+00  0.00000000000E+00  0.10210953696E+02  0.11240710626E+02  0.47000000000E+01 0.  1.
         -5   -1    0    0    0  501 -0.00000000000E+00 -0.00000000000E+00 -0.22358334097E+04  0.22358383496E+04  0.47000000000E+01 0.  1.
         25    2    1    2    0    0 -0.29150658764E+02 -0.85103879380E+02 -0.12331196892E+04  0.12426993509E+04  0.12500031083E+03 0.  0.
         25    2    1    2    0    0  0.29150658764E+02  0.85103879380E+02 -0.99250276678E+03  0.10043797094E+04  0.12499770926E+03 0.  0.
          5    1    3    3  502    0 -0.15077654105E+02  0.29316300175E+02 -0.43640660036E+03  0.43767521286E+03  0.47000000000E+01 0. -1.
         -5    1    3    3    0  502 -0.14073004659E+02 -0.11442017955E+03 -0.79671308883E+03  0.80502413806E+03  0.47000000000E+01 0. -1.
          5    1    4    4  503    0 -0.14784746379E+02 -0.27545104676E+02 -0.15608265059E+03  0.15925201829E+03  0.47000000000E+01 0.  1.
         -5    1    4    4    0  503  0.43935405144E+02  0.11264898406E+03 -0.83642011619E+03  0.84512769106E+03  0.47000000000E+01 0.  1.
<mgrwt>
<rscale>  0 0.15400437E+03</rscale>
<asrwt>0</asrwt>
<pdfrwt beam="1">  1        5 0.16505098E-02 0.15400490E+03</pdfrwt>
<pdfrwt beam="2">  1       -5 0.34405359E+00 0.15400490E+03</pdfrwt>
<totfact> 0.16824564E+01</totfact>
</mgrwt>
</event>
<event>
 8    1  0.1821556E-007  0.1294134E+03  0.7546771E-02  0.1228332E+00
          5   -1    0    0  501    0  0.00000000000E+00  0.00000000000E+00  0.22703437056E+03  0.22708301437E+03  0.47000000000E+01 0. -1.
         -5   -1    0    0    0  501 -0.00000000000E+00 -0.00000000000E+00 -0.76020986106E+02  0.76166136363E+02  0.47000000000E+01 0. -1.
         25    2    1    2    0    0 -0.23139332466E+02 -0.24244254300E+02  0.48661074523E+02  0.13825274531E+03  0.12499083502E+03 0.  0.
         25    2    1    2    0    0  0.23139332466E+02  0.24244254300E+02  0.10235230994E+03  0.16499640543E+03  0.12499842351E+03 0.  0.
          5    1    4    4  502    0 -0.50763927384E+02  0.53752362723E+01  0.54553346109E+02  0.74860049827E+02  0.47000000000E+01 0.  1.
         -5    1    4    4    0  502  0.73903259850E+02  0.18869018027E+02  0.47798963827E+02  0.90136355599E+02  0.47000000000E+01 0.  1.
          5    1    3    3  503    0 -0.66863767596E+02 -0.18420732844E+02 -0.37178877312E+01  0.69613213579E+02  0.47000000000E+01 0. -1.
         -5    1    3    3    0  503  0.43724435130E+02 -0.58235214560E+01  0.52378962254E+02  0.68639531732E+02  0.47000000000E+01 0. -1.
<mgrwt>
<rscale>  0 0.12941153E+03</rscale>
<asrwt>0</asrwt>
<pdfrwt beam="1">  1        5 0.34943272E-01 0.12941336E+03</pdfrwt>
<pdfrwt beam="2">  1       -5 0.11710444E-01 0.12941336E+03</pdfrwt>
<totfact> 0.34341828E+02</totfact>
</mgrwt>
</event>
<event>
 8    1  0.1821556E-007  0.1425869E+03  0.7546771E-02  0.1209891E+00
         -5   -1    0    0    0  501 -0.00000000000E+00  0.00000000000E+00  0.98469948459E+02  0.98582050849E+02  0.47000000000E+01 0. -1.
          5   -1    0    0  501    0  0.00000000000E+00 -0.00000000000E+00 -0.21079054464E+03  0.21084293611E+03  0.47000000000E+01 0. -1.
         25    2    1    2    0    0 -0.19743413885E+02  0.65698213690E+02 -0.33352780549E+02  0.14643130668E+03  0.12499464761E+03 0.  0.
         25    2    1    2    0    0  0.19743413885E+02 -0.65698213690E+02 -0.78967815628E+02  0.16299368028E+03  0.12499986493E+03 0.  0.
          5    1    4    4  502    0  0.38531453231E+02 -0.85660250781E+02 -0.17682960339E+02  0.95692886561E+02  0.47000000000E+01 0.  1.
         -5    1    4    4    0  502 -0.18788039346E+02  0.19962037091E+02 -0.61284855290E+02  0.67300793719E+02  0.47000000000E+01 0.  1.
          5    1    3    3  503    0  0.34649793961E+02 -0.19174215978E+02 -0.20070470130E+02  0.44644961095E+02  0.47000000000E+01 0.  1.
         -5    1    3    3    0  503 -0.54393207847E+02  0.84872429668E+02 -0.13282310419E+02  0.10178634559E+03  0.47000000000E+01 0.  1.
<mgrwt>
<rscale>  0 0.14258576E+03</rscale>
<asrwt>0</asrwt>
<pdfrwt beam="2">  1        5 0.32441968E-01 0.14258690E+03</pdfrwt>
<pdfrwt beam="1">  1       -5 0.15161876E-01 0.14258690E+03</pdfrwt>
<totfact> 0.25942011E+02</totfact>
</mgrwt>
</event>
<event>
 8    1  0.1821556E-007  0.1309730E+03  0.7546771E-02  0.1226022E+00
          5   -1    0    0  501    0  0.00000000000E+00  0.00000000000E+00  0.13690357515E+03  0.13698422862E+03  0.47000000000E+01 0.  1.
         -5   -1    0    0    0  501 -0.00000000000E+00 -0.00000000000E+00 -0.13079273020E+03  0.13087714954E+03  0.47000000000E+01 0.  1.
         25    2    1    2    0    0  0.22052823227E+02  0.32289581455E+02 -0.24793544450E+02  0.13329912005E+03  0.12499996591E+03 0.  0.
         25    2    1    2    0    0 -0.22052823227E+02 -0.32289581455E+02  0.30904389404E+02  0.13456225811E+03  0.12499190350E+03 0.  0.
          5    1    3    3  502    0 -0.51109897487E+02  0.11449072042E+02 -0.22075306394E+02  0.57032552320E+02  0.47000000000E+01 0.  1.
         -5    1    3    3    0  502  0.73162720715E+02  0.20840509414E+02 -0.27182380559E+01  0.76266567729E+02  0.47000000000E+01 0.  1.
          5    1    4    4  503    0  0.10589883588E+02  0.83905225058E+01 -0.42243839673E+02  0.44600207316E+02  0.47000000000E+01 0. -1.
         -5    1    4    4    0  503 -0.32642706815E+02 -0.40680103961E+02  0.73148229076E+02  0.89962050797E+02  0.47000000000E+01 0. -1.
<mgrwt>
<rscale>  0 0.13097111E+03</rscale>
<asrwt>0</asrwt>
<pdfrwt beam="1">  1        5 0.21074786E-01 0.13097303E+03</pdfrwt>
<pdfrwt beam="2">  1       -5 0.20134657E-01 0.13097303E+03</pdfrwt>
<totfact> 0.34349270E+02</totfact>
</mgrwt>
</event>
<event>
 8    1  0.1821556E-007  0.1460514E+03  0.7546771E-02  0.1205416E+00
          5   -1    0    0  501    0  0.00000000000E+00  0.00000000000E+00  0.12765950674E+04  0.12766037193E+04  0.47000000000E+01 0. -1.
         -5   -1    0    0    0  501 -0.00000000000E+00 -0.00000000000E+00 -0.17006790469E+02  0.17644288652E+02  0.47000000000E+01 0. -1.
         25    2    1    2    0    0 -0.75535739602E+02 -0.67050035364E+00  0.50676255142E+03  0.52738911873E+03  0.12499960605E+03 0.  0.
         25    2    1    2    0    0  0.75535739602E+02  0.67050035364E+00  0.75282572550E+03  0.76685888920E+03  0.12497954008E+03 0.  0.
          5    1    4    4  502    0 -0.48924773495E+01  0.35135151321E+02  0.45512280809E+03  0.45652740951E+03  0.47000000000E+01 0. -1.
         -5    1    4    4    0  502  0.80428216951E+02 -0.34464650967E+02  0.29770291741E+03  0.31033147968E+03  0.47000000000E+01 0. -1.
          5    1    3    3  503    0 -0.77903439511E+02  0.47922032943E+02  0.39374052970E+03  0.40425135975E+03  0.47000000000E+01 0. -1.
         -5    1    3    3    0  503  0.23676999096E+01 -0.48592533297E+02  0.11302202172E+03  0.12313775898E+03  0.47000000000E+01 0. -1.
<mgrwt>
<rscale>  0 0.14604706E+03</rscale>
<asrwt>0</asrwt>
<pdfrwt beam="1">  1        5 0.19644891E+00 0.14605136E+03</pdfrwt>
<pdfrwt beam="2">  1       -5 0.26661336E-02 0.14605136E+03</pdfrwt>
<totfact> 0.68949753E+01</totfact>
</mgrwt>
</event>
<event>
 8    1  0.1821556E-007  0.1469353E+03  0.7546771E-02  0.1204298E+00
          5   -1    0    0  501    0  0.00000000000E+00  0.00000000000E+00  0.61260880300E+02  0.61440910272E+02  0.47000000000E+01 0.  1.
         -5   -1    0    0    0  501 -0.00000000000E+00 -0.00000000000E+00 -0.35493990358E+03  0.35497102016E+03  0.47000000000E+01 0.  1.
         25    2    1    2    0    0 -0.76558356955E+02 -0.98847626392E+01 -0.12683733076E+03  0.19410742085E+03  0.12502436483E+03 0.  0.
         25    2    1    2    0    0  0.76558356955E+02  0.98847626392E+01 -0.16684169252E+03  0.22230450958E+03  0.12499701623E+03 0.  0.
          5    1    3    3  502    0 -0.88977732585E+01 -0.52284240360E+02 -0.12706793535E+02  0.54739060650E+02  0.47000000000E+01 0.  1.
         -5    1    3    3    0  502 -0.67660583696E+02  0.42399477720E+02 -0.11413053722E+03  0.13936836020E+03  0.47000000000E+01 0.  1.
          5    1    4    4  503    0 -0.22272975697E+02  0.38969602392E+01  0.52709143606E+01  0.23688484200E+02  0.47000000000E+01 0.  1.
         -5    1    4    4    0  503  0.98831332652E+02  0.59878024000E+01 -0.17211260688E+03  0.19861602538E+03  0.47000000000E+01 0.  1.
<mgrwt>
<rscale>  0 0.14692948E+03</rscale>
<asrwt>0</asrwt>
<pdfrwt beam="1">  1        5 0.94409931E-02 0.14693530E+03</pdfrwt>
<pdfrwt beam="2">  1       -5 0.54622380E-01 0.14693530E+03</pdfrwt>
<totfact> 0.20707974E+02</totfact>
</mgrwt>
</event>
<event>
 8    1  0.1821556E-007  0.1394705E+03  0.7546771E-02  0.1214065E+00
          5   -1    0    0  501    0  0.00000000000E+00  0.00000000000E+00  0.45248937135E+03  0.45251378010E+03  0.47000000000E+01 0. -1.
         -5   -1    0    0    0  501 -0.00000000000E+00 -0.00000000000E+00 -0.43242331851E+02  0.43497002930E+02  0.47000000000E+01 0. -1.
         25    2    1    2    0    0  0.16710977944E+02 -0.59568524418E+02  0.22916125927E+03  0.26823259047E+03  0.12492467313E+03 0.  0.
         25    2    1    2    0    0 -0.16710977944E+02  0.59568524418E+02  0.18008578022E+03  0.22777819256E+03  0.12499740349E+03 0.  0.
          5    1    3    3  502    0  0.58069272150E+02 -0.63635330812E+02  0.19830163464E+03  0.21625707848E+03  0.47000000000E+01 0. -1.
         -5    1    3    3    0  502 -0.41358294206E+02  0.40668063947E+01  0.30859624634E+02  0.51975511988E+02  0.47000000000E+01 0. -1.
          5    1    4    4  503    0  0.32046584800E+02  0.31605483116E+02  0.70734873046E+01  0.45804086968E+02  0.47000000000E+01 0.  1.
         -5    1    4    4    0  503 -0.48757562744E+02  0.27963041302E+02  0.17301229292E+03  0.18197410559E+03  0.47000000000E+01 0.  1.
<mgrwt>
<rscale>  0 0.13945419E+03</rscale>
<asrwt>0</asrwt>
<pdfrwt beam="1">  1        5 0.69635213E-01 0.13947049E+03</pdfrwt>
<pdfrwt beam="2">  1       -5 0.66741345E-02 0.13947049E+03</pdfrwt>
<totfact> 0.21616767E+02</totfact>
</mgrwt>
</event>
<event>
 8    1  0.1821556E-007  0.1999255E+03  0.7546771E-02  0.1149802E+00
          5   -1    0    0  501    0  0.00000000000E+00  0.00000000000E+00  0.19607157406E+03  0.19612789744E+03  0.47000000000E+01 0. -1.
         -5   -1    0    0    0  501 -0.00000000000E+00 -0.00000000000E+00 -0.20374847155E+03  0.20380267334E+03  0.47000000000E+01 0. -1.
         25    2    1    2    0    0 -0.88558841345E+02 -0.12846351619E+03 -0.26767388183E+01  0.19994338561E+03  0.12499859657E+03 0.  0.
         25    2    1    2    0    0  0.88558841345E+02  0.12846351619E+03 -0.50001586791E+01  0.19998718517E+03  0.12499731706E+03 0.  0.
          5    1    3    3  502    0 -0.47847744268E+02 -0.14150077689E+03  0.20899149736E+02  0.15089977121E+03  0.47000000000E+01 0.  1.
         -5    1    3    3    0  502 -0.40711097077E+02  0.13037260699E+02 -0.23575888554E+02  0.49043614395E+02  0.47000000000E+01 0.  1.
          5    1    4    4  503    0 -0.65156103078E+01 -0.10203724581E+02  0.25902675560E+02  0.28975986164E+02  0.47000000000E+01 0. -1.
         -5    1    4    4    0  503  0.95074451653E+02  0.13866724077E+03 -0.30902834239E+02  0.17101119900E+03  0.47000000000E+01 0. -1.
<mgrwt>
<rscale>  0 0.19992527E+03</rscale>
<asrwt>0</asrwt>
<pdfrwt beam="1">  1        5 0.30173359E-01 0.19992547E+03</pdfrwt>
<pdfrwt beam="2">  1       -5 0.31354421E-01 0.19992547E+03</pdfrwt>
<totfact> 0.83829980E+01</totfact>
</mgrwt>
</event>
<event>
 8    1  0.1821556E-007  0.1404892E+03  0.7546771E-02  0.1212675E+00
         -5   -1    0    0    0  501 -0.00000000000E+00  0.00000000000E+00  0.29091145527E+04  0.29091183494E+04  0.47000000000E+01 0.  1.
          5   -1    0    0  501    0  0.00000000000E+00 -0.00000000000E+00 -0.62692993594E+01  0.78354396467E+01  0.47000000000E+01 0.  1.
         25    2    1    2    0    0 -0.51658014713E+02  0.37936681589E+02  0.17377040551E+04  0.17433732734E+04  0.12500897851E+03 0.  0.
         25    2    1    2    0    0  0.51658014713E+02 -0.37936681589E+02  0.11651411982E+04  0.11735805157E+04  0.12501788967E+03 0.  0.
          5    1    4    4  502    0 -0.30124756139E+02 -0.19707177602E+02  0.12797629445E+03  0.13302592124E+03  0.47000000000E+01 0.  1.
         -5    1    4    4    0  502  0.81782770852E+02 -0.18229503987E+02  0.10371649038E+04  0.10405545945E+04  0.47000000000E+01 0.  1.
          5    1    3    3  503    0 -0.77494454542E+02 -0.17019569438E+02  0.10150191520E+04  0.10181262324E+04  0.47000000000E+01 0.  1.
         -5    1    3    3    0  503  0.25836439830E+02  0.54956251027E+02  0.72268490317E+03  0.72524704096E+03  0.47000000000E+01 0.  1.
<mgrwt>
<rscale>  0 0.14048722E+03</rscale>
<asrwt>0</asrwt>
<pdfrwt beam="2">  1        5 0.10852720E-02 0.14048920E+03</pdfrwt>
<pdfrwt beam="1">  1       -5 0.44767682E+00 0.14048920E+03</pdfrwt>
<totfact> 0.59957891E+00</totfact>
</mgrwt>
</event>
<event>
 8    1  0.1821556E-007  0.1330017E+03  0.7546771E-02  0.1223071E+00
         -5   -1    0    0    0  501 -0.00000000000E+00  0.00000000000E+00  0.35657244348E+03  0.35660341760E+03  0.47000000000E+01 0. -1.
          5   -1    0    0  501    0  0.00000000000E+00 -0.00000000000E+00 -0.57350557188E+02  0.57542822400E+02  0.47000000000E+01 0. -1.
         25    2    1    2    0    0  0.19637960113E+02  0.40956812980E+02  0.22624887179E+03  0.26244618495E+03  0.12500535189E+03 0.  0.
         25    2    1    2    0    0 -0.19637960113E+02 -0.40956812980E+02  0.72973014495E+02  0.15170005505E+03  0.12499894340E+03 0.  0.
          5    1    3    3  502    0 -0.79718793171E+01  0.47665418981E+01  0.21509248685E+03  0.21534423298E+03  0.47000000000E+01 0. -1.
         -5    1    3    3    0  502  0.27609839430E+02  0.36190271082E+02  0.11156384946E+02  0.47101951970E+02  0.47000000000E+01 0. -1.
          5    1    4    4  503    0 -0.66972033799E+02 -0.50856203460E+02  0.50108651939E+02  0.98002927205E+02  0.47000000000E+01 0. -1.
         -5    1    4    4    0  503  0.47334073687E+02  0.98993904807E+01  0.22864362556E+02  0.53697127845E+02  0.47000000000E+01 0. -1.
<mgrwt>
<rscale>  0 0.13300018E+03</rscale>
<asrwt>0</asrwt>
<pdfrwt beam="2">  1        5 0.88403349E-02 0.13300168E+03</pdfrwt>
<pdfrwt beam="1">  1       -5 0.54874471E-01 0.13300168E+03</pdfrwt>
<totfact> 0.22225391E+02</totfact>
</mgrwt>
</event>
<event>
 8    1  0.1821556E-007  0.1737086E+03  0.7546771E-02  0.1174036E+00
          5   -1    0    0  501    0  0.00000000000E+00  0.00000000000E+00  0.36617825870E+02  0.36918222756E+02  0.47000000000E+01 0.  1.
         -5   -1    0    0    0  501 -0.00000000000E+00 -0.00000000000E+00 -0.84792486559E+03  0.84793789141E+03  0.47000000000E+01 0.  1.
         25    2    1    2    0    0  0.54731403867E+02  0.10748595193E+03 -0.32588931037E+03  0.36929463379E+03  0.12500370994E+03 0.  0.
         25    2    1    2    0    0 -0.54731403867E+02 -0.10748595193E+03 -0.48541772935E+03  0.51556148038E+03  0.12499804659E+03 0.  0.
          5    1    3    3  502    0 -0.37403353100E+02  0.55068318580E+02 -0.14414406620E+03  0.15884310610E+03  0.47000000000E+01 0.  1.
         -5    1    3    3    0  502  0.92134756967E+02  0.52417633349E+02 -0.18174524417E+03  0.21045152769E+03  0.47000000000E+01 0.  1.
          5    1    4    4  503    0  0.25944829905E+02 -0.32451945269E+02 -0.27340593959E+03  0.27658481656E+03  0.47000000000E+01 0.  1.
         -5    1    4    4    0  503 -0.80676233772E+02 -0.75034006661E+02 -0.21201178977E+03  0.23897666382E+03  0.47000000000E+01 0.  1.
<mgrwt>
<rscale>  0 0.17370760E+03</rscale>
<asrwt>0</asrwt>
<pdfrwt beam="1">  1        5 0.56576218E-02 0.17370862E+03</pdfrwt>
<pdfrwt beam="2">  1       -5 0.13047407E+00 0.17370862E+03</pdfrwt>
<totfact> 0.66886132E+01</totfact>
</mgrwt>
</event>
<event>
 8    1  0.1821556E-007  0.1516427E+03  0.7546771E-02  0.1198469E+00
         -5   -1    0    0    0  501 -0.00000000000E+00  0.00000000000E+00  0.24557449462E+02  0.25003166281E+02  0.47000000000E+01 0.  1.
          5   -1    0    0  501    0  0.00000000000E+00 -0.00000000000E+00 -0.10435621032E+04  0.10435726871E+04  0.47000000000E+01 0.  1.
         25    2    1    2    0    0  0.48196368588E+02 -0.71050051911E+02 -0.33137707901E+03  0.36442597358E+03  0.12499808759E+03 0.  0.
         25    2    1    2    0    0 -0.48196368588E+02  0.71050051911E+02 -0.68762757470E+03  0.70414987976E+03  0.12499748743E+03 0.  0.
          5    1    4    4  502    0 -0.78327217837E+02  0.64707059823E+02 -0.33372118976E+03  0.34887544932E+03  0.47000000000E+01 0. -1.
         -5    1    4    4    0  502  0.30130849249E+02  0.63429920877E+01 -0.35390638494E+03  0.35527443044E+03  0.47000000000E+01 0. -1.
          5    1    3    3  503    0  0.25766617927E+02  0.29768824921E+02 -0.15488610812E+03  0.15988088699E+03  0.47000000000E+01 0.  1.
         -5    1    3    3    0  503  0.22429750661E+02 -0.10081887683E+03 -0.17649097089E+03  0.20454508659E+03  0.47000000000E+01 0.  1.
<mgrwt>
<rscale>  0 0.15164262E+03</rscale>
<asrwt>0</asrwt>
<pdfrwt beam="2">  1        5 0.16058308E+00 0.15164274E+03</pdfrwt>
<pdfrwt beam="1">  1       -5 0.38131700E-02 0.15164274E+03</pdfrwt>
<totfact> 0.70538440E+01</totfact>
</mgrwt>
</event>
<event>
 8    1  0.1821556E-007  0.1385874E+03  0.7546771E-02  0.1215245E+00
          5   -1    0    0  501    0  0.00000000000E+00  0.00000000000E+00  0.19047235024E+03  0.19053032883E+03  0.47000000000E+01 0.  1.
         -5   -1    0    0    0  501 -0.00000000000E+00 -0.00000000000E+00 -0.12307267694E+03  0.12316238797E+03  0.47000000000E+01 0.  1.
         25    2    1    2    0    0 -0.34831887638E+02  0.48650948704E+02 -0.33127411703E+02  0.14249172101E+03  0.12500515967E+03 0.  0.
         25    2    1    2    0    0  0.34831887638E+02 -0.48650948704E+02  0.10052708500E+03  0.17120099579E+03  0.12499564367E+03 0.  0.
          5    1    3    3  502    0  0.87803505354E+01  0.77267633132E+02 -0.43311594392E+02  0.89136781937E+02  0.47000000000E+01 0.  1.
         -5    1    3    3    0  502 -0.43612238174E+02 -0.28616684428E+02  0.10184182690E+02  0.53354939071E+02  0.47000000000E+01 0.  1.
          5    1    4    4  503    0  0.44690873083E+01 -0.91961772954E+00  0.11291097119E+03  0.11310082163E+03  0.47000000000E+01 0. -1.
         -5    1    4    4    0  503  0.30362800330E+02 -0.47731330974E+02 -0.12383886194E+02  0.58100174163E+02  0.47000000000E+01 0. -1.
<mgrwt>
<rscale>  0 0.13858525E+03</rscale>
<asrwt>0</asrwt>
<pdfrwt beam="1">  1        5 0.29314799E-01 0.13858739E+03</pdfrwt>
<pdfrwt beam="2">  1       -5 0.18945619E-01 0.13858739E+03</pdfrwt>
<totfact> 0.20853284E+02</totfact>
</mgrwt>
</event>
<event>
 8    1  0.1821556E-007  0.1360495E+03  0.7546771E-02  0.1218746E+00
          5   -1    0    0  501    0  0.00000000000E+00  0.00000000000E+00  0.61044932817E+02  0.61225597773E+02  0.47000000000E+01 0.  1.
         -5   -1    0    0    0  501 -0.00000000000E+00 -0.00000000000E+00 -0.33108993410E+03  0.33112329194E+03  0.47000000000E+01 0.  1.
         25    2    1    2    0    0  0.31758292919E+02 -0.43304055333E+02 -0.19258851156E+03  0.23579550042E+03  0.12500141141E+03 0.  0.
         25    2    1    2    0    0 -0.31758292919E+02  0.43304055333E+02 -0.77456489719E+02  0.15655338929E+03  0.12500250206E+03 0.  0.
          5    1    4    4  502    0  0.32951236646E+00 -0.39706490323E+02 -0.48476808173E+02  0.62839516889E+02  0.47000000000E+01 0.  1.
         -5    1    4    4    0  502 -0.32087805285E+02  0.83010545656E+02 -0.28979681546E+02  0.93713872403E+02  0.47000000000E+01 0.  1.
          5    1    3    3  503    0  0.21945566350E+02 -0.50458255919E+02 -0.14318362260E+02  0.57050407279E+02  0.47000000000E+01 0. -1.
         -5    1    3    3    0  503  0.98127265688E+01  0.71542005859E+01 -0.17827014930E+03  0.17874509314E+03  0.47000000000E+01 0. -1.
<mgrwt>
<rscale>  0 0.13604921E+03</rscale>
<asrwt>0</asrwt>
<pdfrwt beam="1">  1        5 0.94079917E-02 0.13604946E+03</pdfrwt>
<pdfrwt beam="2">  1       -5 0.50953375E-01 0.13604946E+03</pdfrwt>
<totfact> 0.23563278E+02</totfact>
</mgrwt>
</event>
<event>
 8    1  0.1821556E-007  0.1458503E+03  0.7546771E-02  0.1205679E+00
          5   -1    0    0  501    0  0.00000000000E+00  0.00000000000E+00  0.28209079792E+02  0.28597940183E+02  0.47000000000E+01 0.  1.
         -5   -1    0    0    0  501 -0.00000000000E+00 -0.00000000000E+00 -0.11994252811E+04  0.11994344896E+04  0.47000000000E+01 0.  1.
         25    2    1    2    0    0  0.34154601044E+01 -0.75069791101E+02 -0.96204684807E+03  0.97303413356E+03  0.12495658556E+03 0.  0.
         25    2    1    2    0    0 -0.34154601044E+01  0.75069791101E+02 -0.20916935324E+03  0.25499829627E+03  0.12500069545E+03 0.  0.
          5    1    4    4  502    0 -0.13619916197E+02 -0.26803933359E+02 -0.10311952331E+03  0.10751594788E+03  0.47000000000E+01 0. -1.
         -5    1    4    4    0  502  0.10204456092E+02  0.10187372446E+03 -0.10604982993E+03  0.14748234839E+03  0.47000000000E+01 0. -1.
          5    1    3    3  503    0 -0.40852131131E+02 -0.61489827268E+02 -0.82480230959E+03  0.82811281561E+03  0.47000000000E+01 0.  1.
         -5    1    3    3    0  503  0.44267591236E+02 -0.13579963832E+02 -0.13724453848E+03  0.14492131794E+03  0.47000000000E+01 0.  1.
<mgrwt>
<rscale>  0 0.14584086E+03</rscale>
<asrwt>0</asrwt>
<pdfrwt beam="1">  1        5 0.43704800E-02 0.14585031E+03</pdfrwt>
<pdfrwt beam="2">  1       -5 0.18455755E+00 0.14585031E+03</pdfrwt>
<totfact> 0.37264241E+01</totfact>
</mgrwt>
</event>
<event>
 8    1  0.1821556E-007  0.1271029E+03  0.7546771E-02  0.1231823E+00
          5   -1    0    0  501    0  0.00000000000E+00  0.00000000000E+00  0.78098094229E+02  0.78239391116E+02  0.47000000000E+01 0.  1.
         -5   -1    0    0    0  501 -0.00000000000E+00 -0.00000000000E+00 -0.22401095860E+03  0.22406025880E+03  0.47000000000E+01 0.  1.
         25    2    1    2    0    0 -0.17177173595E+02  0.15320810648E+02 -0.11521766686E+03  0.17155246226E+03  0.12500141607E+03 0.  0.
         25    2    1    2    0    0  0.17177173595E+02 -0.15320810648E+02 -0.30695197509E+02  0.13074718765E+03  0.12499139729E+03 0.  0.
          5    1    4    4  502    0 -0.86828887875E+01 -0.20991762780E+02 -0.75229599988E+02  0.78725023827E+02  0.47000000000E+01 0. -1.
         -5    1    4    4    0  502  0.25860062383E+02  0.56709521310E+01  0.44534402479E+02  0.52022163821E+02  0.47000000000E+01 0. -1.
          5    1    3    3  503    0 -0.24388698356E+02 -0.48283262474E+02 -0.22472096627E+02  0.58763655174E+02  0.47000000000E+01 0.  1.
         -5    1    3    3    0  503  0.72115247604E+01  0.63604073122E+02 -0.92745570233E+02  0.11278880709E+03  0.47000000000E+01 0.  1.
<mgrwt>
<rscale>  0 0.12710039E+03</rscale>
<asrwt>0</asrwt>
<pdfrwt beam="1">  1        5 0.12029753E-01 0.12710286E+03</pdfrwt>
<pdfrwt beam="2">  1       -5 0.34477886E-01 0.12710286E+03</pdfrwt>
<totfact> 0.33414433E+02</totfact>
</mgrwt>
</event>
<event>
 8    1  0.1821556E-007  0.1341970E+03  0.7546771E-02  0.1221359E+00
         -5   -1    0    0    0  501 -0.00000000000E+00  0.00000000000E+00  0.89597679076E+02  0.89720867672E+02  0.47000000000E+01 0. -1.
          5   -1    0    0  501    0  0.00000000000E+00 -0.00000000000E+00 -0.29290377756E+03  0.29294148376E+03  0.47000000000E+01 0. -1.
         25    2    1    2    0    0 -0.16974997501E+02  0.45778198169E+02  0.56615936208E+01  0.13431638607E+03  0.12500017582E+03 0.  0.
         25    2    1    2    0    0  0.16974997501E+02 -0.45778198169E+02 -0.20896769210E+03  0.24834596536E+03  0.12499771279E+03 0.  0.
          5    1    4    4  502    0  0.63935937750E+01 -0.59418629297E+02 -0.27421490829E+02  0.65920252640E+02  0.47000000000E+01 0. -1.
         -5    1    4    4    0  502  0.10581403726E+02  0.13640431128E+02 -0.18154620127E+03  0.18242571272E+03  0.47000000000E+01 0. -1.
          5    1    3    3  503    0 -0.64885885887E+02  0.28025116247E+02 -0.24313788084E+02  0.74892159930E+02  0.47000000000E+01 0.  1.
         -5    1    3    3    0  503  0.47910888386E+02  0.17753081922E+02  0.29975381705E+02  0.59424226137E+02  0.47000000000E+01 0.  1.
<mgrwt>
<rscale>  0 0.13419644E+03</rscale>
<asrwt>0</asrwt>
<pdfrwt beam="2">  1        5 0.45074496E-01 0.13419701E+03</pdfrwt>
<pdfrwt beam="1">  1       -5 0.13796635E-01 0.13419701E+03</pdfrwt>
<totfact> 0.15448806E+02</totfact>
</mgrwt>
</event>
<event>
 8    1  0.1821556E-007  0.2025486E+03  0.7546771E-02  0.1147607E+00
          5   -1    0    0  501    0  0.00000000000E+00  0.00000000000E+00  0.45968423029E+03  0.45970825703E+03  0.47000000000E+01 0. -1.
         -5   -1    0    0    0  501 -0.00000000000E+00 -0.00000000000E+00 -0.13521312248E+03  0.13529478368E+03  0.47000000000E+01 0. -1.
         25    2    1    2    0    0 -0.52225548195E+02  0.15057337980E+03 -0.11308738820E+02  0.20286270802E+03  0.12500216055E+03 0.  0.
         25    2    1    2    0    0  0.52225548195E+02 -0.15057337980E+03  0.33577984664E+03  0.39214033269E+03  0.12500433802E+03 0.  0.
          5    1    3    3  502    0 -0.86727740910E+02  0.71295700022E+02 -0.25219537936E+02  0.11516463424E+03  0.47000000000E+01 0.  1.
         -5    1    3    3    0  502  0.34502192716E+02  0.79277679778E+02  0.13910799115E+02  0.87698073783E+02  0.47000000000E+01 0.  1.
          5    1    4    4  503    0 -0.39731172526E+02 -0.55498607804E+02  0.13996604445E+03  0.15579231411E+03  0.47000000000E+01 0. -1.
         -5    1    4    4    0  503  0.91956720721E+02 -0.95074771995E+02  0.19581380219E+03  0.23634801857E+03  0.47000000000E+01 0. -1.
<mgrwt>
<rscale>  0 0.20254826E+03</rscale>
<asrwt>0</asrwt>
<pdfrwt beam="1">  1        5 0.70728778E-01 0.20254860E+03</pdfrwt>
<pdfrwt beam="2">  1       -5 0.20810149E-01 0.20254860E+03</pdfrwt>
<totfact> 0.30733469E+01</totfact>
</mgrwt>
</event>
<event>
 8    1  0.1821556E-007  0.1390399E+03  0.7546771E-02  0.1214639E+00
         -5   -1    0    0    0  501 -0.00000000000E+00  0.00000000000E+00  0.89249368270E+03  0.89250605805E+03  0.47000000000E+01 0.  1.
          5   -1    0    0  501    0  0.00000000000E+00 -0.00000000000E+00 -0.21916178172E+02  0.22414478929E+02  0.47000000000E+01 0.  1.
         25    2    1    2    0    0  0.51857968174E+02  0.31750260944E+02  0.36510700762E+03  0.39068558775E+03  0.12503908801E+03 0.  0.
         25    2    1    2    0    0 -0.51857968174E+02 -0.31750260944E+02  0.50547049691E+03  0.52423494923E+03  0.12499812326E+03 0.  0.
          5    1    4    4  502    0 -0.54632717527E+02 -0.49142358160E+02  0.49972771295E+03  0.50512333373E+03  0.47000000000E+01 0. -1.
         -5    1    4    4    0  502  0.27747493532E+01  0.17392097216E+02  0.57427839626E+01  0.19111615504E+02  0.47000000000E+01 0. -1.
          5    1    3    3  503    0 -0.23255915399E+02  0.89382608957E+01  0.10464991541E+02  0.27428746906E+02  0.47000000000E+01 0.  1.
         -5    1    3    3    0  503  0.75113883572E+02  0.22812000049E+02  0.35464201608E+03  0.36325684084E+03  0.47000000000E+01 0.  1.
<mgrwt>
<rscale>  0 0.13903072E+03</rscale>
<asrwt>0</asrwt>
<pdfrwt beam="2">  1        5 0.34110021E-02 0.13903993E+03</pdfrwt>
<pdfrwt beam="1">  1       -5 0.13734602E+00 0.13903993E+03</pdfrwt>
<totfact> 0.12622293E+02</totfact>
</mgrwt>
</event>
<event>
 8    1  0.1821556E-007  0.1494182E+03  0.7546771E-02  0.1201192E+00
          5   -1    0    0  501    0  0.00000000000E+00  0.00000000000E+00  0.75168115961E+02  0.75314909926E+02  0.47000000000E+01 0.  1.
         -5   -1    0    0    0  501 -0.00000000000E+00 -0.00000000000E+00 -0.29654131928E+03  0.29657856302E+03  0.47000000000E+01 0.  1.
         25    2    1    2    0    0  0.16058902402E+02 -0.80259929016E+02 -0.11051621261E+03  0.18584844908E+03  0.12500507279E+03 0.  0.
         25    2    1    2    0    0 -0.16058902402E+02  0.80259929016E+02 -0.11085699071E+03  0.18604502386E+03  0.12499573578E+03 0.  0.
          5    1    4    4  502    0 -0.60136230209E+02  0.17435308731E+02 -0.83416525576E+02  0.10440671872E+03  0.47000000000E+01 0.  1.
         -5    1    4    4    0  502  0.44077327807E+02  0.62824620285E+02 -0.27440465134E+02  0.81638305147E+02  0.47000000000E+01 0.  1.
          5    1    3    3  503    0 -0.76668296955E+01 -0.97298119035E+02 -0.12002714588E+03  0.15477179974E+03  0.47000000000E+01 0.  1.
         -5    1    3    3    0  503  0.23725732097E+02  0.17038190019E+02  0.95109332692E+01  0.31076649342E+02  0.47000000000E+01 0.  1.
<mgrwt>
<rscale>  0 0.14941629E+03</rscale>
<asrwt>0</asrwt>
<pdfrwt beam="1">  1        5 0.11578482E-01 0.14941825E+03</pdfrwt>
<pdfrwt beam="2">  1       -5 0.45635898E-01 0.14941825E+03</pdfrwt>
<totfact> 0.21318289E+02</totfact>
</mgrwt>
</event>
<event>
 8    1  0.1821556E-007  0.1417848E+03  0.7546771E-02  0.1210949E+00
         -5   -1    0    0    0  501 -0.00000000000E+00  0.00000000000E+00  0.10389809580E+03  0.10400434755E+03  0.47000000000E+01 0. -1.
          5   -1    0    0  501    0  0.00000000000E+00 -0.00000000000E+00 -0.27307150972E+03  0.27311195400E+03  0.47000000000E+01 0. -1.
         25    2    1    2    0    0  0.66868912067E+02 -0.25557260742E+01  0.17332868237E+02  0.14283544893E+03  0.12499421592E+03 0.  0.
         25    2    1    2    0    0 -0.66868912067E+02  0.25557260742E+01 -0.18650628216E+03  0.23428085263E+03  0.12499976595E+03 0.  0.
          5    1    3    3  502    0  0.93986748896E+02 -0.30885021563E+02 -0.15538841712E+01  0.99055025521E+02  0.47000000000E+01 0.  1.
         -5    1    3    3    0  502 -0.27117836828E+02  0.28329295489E+02  0.18886752409E+02  0.43780423407E+02  0.47000000000E+01 0.  1.
          5    1    4    4  503    0 -0.54783818641E+02 -0.56065261973E+02 -0.80532273617E+02  0.11248163174E+03  0.47000000000E+01 0.  1.
         -5    1    4    4    0  503 -0.12085093426E+02  0.58620988048E+02 -0.10597400854E+03  0.12179922089E+03  0.47000000000E+01 0.  1.
<mgrwt>
<rscale>  0 0.14178356E+03</rscale>
<asrwt>0</asrwt>
<pdfrwt beam="2">  1        5 0.42022285E-01 0.14178478E+03</pdfrwt>
<pdfrwt beam="1">  1       -5 0.15995607E-01 0.14178478E+03</pdfrwt>
<totfact> 0.13921343E+02</totfact>
</mgrwt>
</event>
<event>
 8    1  0.1821556E-007  0.1363037E+03  0.7546771E-02  0.1218393E+00
         -5   -1    0    0    0  501 -0.00000000000E+00  0.00000000000E+00  0.26241969974E+02  0.26659538408E+02  0.47000000000E+01 0. -1.
          5   -1    0    0  501    0  0.00000000000E+00 -0.00000000000E+00 -0.73609719807E+03  0.73611220273E+03  0.47000000000E+01 0. -1.
         25    2    1    2    0    0 -0.46671522342E+02  0.27855737490E+02 -0.27278221824E+03  0.30493822777E+03  0.12499204397E+03 0.  0.
         25    2    1    2    0    0  0.46671522342E+02 -0.27855737490E+02 -0.43707300986E+03  0.45783351337E+03  0.12499814764E+03 0.  0.
          5    1    4    4  502    0  0.38363485362E+02 -0.27003228501E+02 -0.44368973632E+03  0.44618785671E+03  0.47000000000E+01 0.  1.
         -5    1    4    4    0  502  0.83080369793E+01 -0.85250898878E+00  0.66167264634E+01  0.11645656663E+02  0.47000000000E+01 0.  1.
          5    1    3    3  503    0  0.28252940563E+02  0.48569319456E+02 -0.89279759005E+02  0.10559437869E+03  0.47000000000E+01 0.  1.
         -5    1    3    3    0  503 -0.74924462905E+02 -0.20713581966E+02 -0.18350245924E+03  0.19934384908E+03  0.47000000000E+01 0.  1.
<mgrwt>
<rscale>  0 0.13630234E+03</rscale>
<asrwt>0</asrwt>
<pdfrwt beam="2">  1        5 0.11327898E+00 0.13630374E+03</pdfrwt>
<pdfrwt beam="1">  1       -5 0.40705016E-02 0.13630374E+03</pdfrwt>
<totfact> 0.15426590E+02</totfact>
</mgrwt>
</event>
<event>
 8    1  0.1821556E-007  0.1524103E+03  0.7546771E-02  0.1197547E+00
         -5   -1    0    0    0  501 -0.00000000000E+00  0.00000000000E+00  0.38543853347E+03  0.38546718808E+03  0.47000000000E+01 0.  1.
          5   -1    0    0  501    0  0.00000000000E+00 -0.00000000000E+00 -0.60413547466E+02  0.60596094902E+02  0.47000000000E+01 0.  1.
         25    2    1    2    0    0  0.66727959271E+02  0.56087617965E+02  0.14745181912E+03  0.21206353533E+03  0.12502184856E+03 0.  0.
         25    2    1    2    0    0 -0.66727959271E+02 -0.56087617965E+02  0.17757316688E+03  0.23399974765E+03  0.12500084346E+03 0.  0.
          5    1    4    4  502    0 -0.23105989607E+02 -0.16941332131E+02 -0.14978588929E+02  0.32670225228E+02  0.47000000000E+01 0.  1.
         -5    1    4    4    0  502 -0.43621969663E+02 -0.39146285833E+02  0.19255175581E+03  0.20132952242E+03  0.47000000000E+01 0.  1.
          5    1    3    3  503    0  0.58985542352E+02 -0.29268625715E+02  0.73173028672E+02  0.98551148054E+02  0.47000000000E+01 0. -1.
         -5    1    3    3    0  503  0.77424169187E+01  0.85356243679E+02  0.74278790451E+02  0.11351238728E+03  0.47000000000E+01 0. -1.
<mgrwt>
<rscale>  0 0.15240601E+03</rscale>
<asrwt>0</asrwt>
<pdfrwt beam="2">  1        5 0.93106382E-02 0.15241031E+03</pdfrwt>
<pdfrwt beam="1">  1       -5 0.59314482E-01 0.15241031E+03</pdfrwt>
<totfact> 0.17953027E+02</totfact>
</mgrwt>
</event>
<event>
 8    1  0.1821556E-007  0.1515395E+03  0.7546771E-02  0.1198603E+00
          5   -1    0    0  501    0  0.00000000000E+00  0.00000000000E+00  0.48777599733E+03  0.48779864040E+03  0.47000000000E+01 0. -1.
         -5   -1    0    0    0  501 -0.00000000000E+00 -0.00000000000E+00 -0.49940642108E+02  0.50161317110E+02  0.47000000000E+01 0. -1.
         25    2    1    2    0    0 -0.16947371237E+02  0.83961259740E+02  0.15301200417E+03  0.21533236730E+03  0.12497459126E+03 0.  0.
         25    2    1    2    0    0  0.16947371237E+02 -0.83961259740E+02  0.28482335106E+03  0.32262759021E+03  0.12501005610E+03 0.  0.
          5    1    3    3  502    0 -0.54543266741E+02  0.59344750205E+02  0.14962918647E+03  0.17002279485E+03  0.47000000000E+01 0. -1.
         -5    1    3    3    0  502  0.37595895504E+02  0.24616509535E+02  0.33828176955E+01  0.45309572454E+02  0.47000000000E+01 0. -1.
          5    1    4    4  503    0  0.30323292928E+02 -0.10051342662E+03  0.28163184188E+03  0.30060112339E+03  0.47000000000E+01 0.  1.
         -5    1    4    4    0  503 -0.13375921690E+02  0.16552166878E+02  0.31915091779E+01  0.22026466813E+02  0.47000000000E+01 0.  1.
<mgrwt>
<rscale>  0 0.15153219E+03</rscale>
<asrwt>0</asrwt>
<pdfrwt beam="1">  1        5 0.75061183E-01 0.15153950E+03</pdfrwt>
<pdfrwt beam="2">  1       -5 0.77018920E-02 0.15153950E+03</pdfrwt>
<totfact> 0.14679050E+02</totfact>
</mgrwt>
</event>
<event>
 8    1  0.1821556E-007  0.1272708E+03  0.7546771E-02  0.1231564E+00
          5   -1    0    0  501    0  0.00000000000E+00  0.00000000000E+00  0.48348910773E+03  0.48351195156E+03  0.47000000000E+01 0. -1.
         -5   -1    0    0    0  501 -0.00000000000E+00 -0.00000000000E+00 -0.36254945784E+02  0.36558324549E+02  0.47000000000E+01 0. -1.
         25    2    1    2    0    0  0.21267004092E+02 -0.10968632718E+02  0.14988331434E+03  0.19662871607E+03  0.12500099080E+03 0.  0.
         25    2    1    2    0    0 -0.21267004092E+02  0.10968632718E+02  0.29735084761E+03  0.32344156003E+03  0.12499727923E+03 0.  0.
          5    1    3    3  502    0 -0.19148461569E+02 -0.17332827405E+01  0.15348018188E+03  0.15475116827E+03  0.47000000000E+01 0. -1.
         -5    1    3    3    0  502  0.40415465661E+02 -0.92353499775E+01 -0.35968675466E+01  0.41877547802E+02  0.47000000000E+01 0. -1.
          5    1    4    4  503    0 -0.45989904937E+02  0.36298570180E+02  0.62133793665E+02  0.85529853668E+02  0.47000000000E+01 0.  1.
         -5    1    4    4    0  503  0.24722900846E+02 -0.25329937462E+02  0.23521705395E+03  0.23791170636E+03  0.47000000000E+01 0.  1.
<mgrwt>
<rscale>  0 0.12726984E+03</rscale>
<asrwt>0</asrwt>
<pdfrwt beam="1">  1        5 0.74408025E-01 0.12727075E+03</pdfrwt>
<pdfrwt beam="2">  1       -5 0.56027787E-02 0.12727075E+03</pdfrwt>
<totfact> 0.24193706E+02</totfact>
</mgrwt>
</event>
<event>
 8    1  0.1821556E-007  0.1259988E+03  0.7546771E-02  0.1233520E+00
          5   -1    0    0  501    0  0.00000000000E+00  0.00000000000E+00  0.43075737254E+02  0.43331387469E+02  0.47000000000E+01 0. -1.
         -5   -1    0    0    0  501 -0.00000000000E+00 -0.00000000000E+00 -0.36765357197E+03  0.36768361261E+03  0.47000000000E+01 0. -1.
         25    2    1    2    0    0  0.12572664499E+02  0.95282627364E+01 -0.16975108846E+03  0.21140277294E+03  0.12500736254E+03 0.  0.
         25    2    1    2    0    0 -0.12572664499E+02 -0.95282627364E+01 -0.15482674625E+03  0.19961222714E+03  0.12499944074E+03 0.  0.
          5    1    3    3  502    0  0.43050385382E+02  0.10594394540E+02 -0.62543963308E+01  0.45019821753E+02  0.47000000000E+01 0. -1.
         -5    1    3    3    0  502 -0.30477720884E+02 -0.10661318039E+01 -0.16349669213E+03  0.16638295119E+03  0.47000000000E+01 0. -1.
          5    1    4    4  503    0  0.30120264339E+02 -0.34445675548E+02 -0.14063846369E+03  0.14796959943E+03  0.47000000000E+01 0. -1.
         -5    1    4    4    0  503 -0.42692928838E+02  0.24917412812E+02 -0.14188282560E+02  0.51642627702E+02  0.47000000000E+01 0. -1.
<mgrwt>
<rscale>  0 0.12599685E+03</rscale>
<asrwt>0</asrwt>
<pdfrwt beam="1">  1        5 0.66490130E-02 0.12599881E+03</pdfrwt>
<pdfrwt beam="2">  1       -5 0.56584062E-01 0.12599881E+03</pdfrwt>
<totfact> 0.33182254E+02</totfact>
</mgrwt>
</event>
<event>
 8    1  0.1821556E-007  0.1532716E+03  0.7546771E-02  0.1196510E+00
          5   -1    0    0  501    0  0.00000000000E+00  0.00000000000E+00  0.18861151751E+03  0.18867006794E+03  0.47000000000E+01 0.  1.
         -5   -1    0    0    0  501 -0.00000000000E+00 -0.00000000000E+00 -0.12922652393E+03  0.12931196576E+03  0.47000000000E+01 0.  1.
         25    2    1    2    0    0  0.61898611208E+02 -0.63520609495E+02 -0.91893084296E+00  0.15327392260E+03  0.12500298003E+03 0.  0.
         25    2    1    2    0    0 -0.61898611208E+02  0.63520609495E+02  0.60303924416E+02  0.16470811110E+03  0.12500357059E+03 0.  0.
          5    1    4    4  502    0 -0.33089382243E+02  0.84483553919E+01  0.89477678451E+02  0.95888616984E+02  0.47000000000E+01 0.  1.
         -5    1    4    4    0  502 -0.28809228965E+02  0.55072254103E+02 -0.29173754035E+02  0.68819494114E+02  0.47000000000E+01 0.  1.
          5    1    3    3  503    0 -0.11536166534E+02 -0.19023980776E+02 -0.49524377275E+02  0.54495402810E+02  0.47000000000E+01 0. -1.
         -5    1    3    3    0  503  0.73434777742E+02 -0.44496628719E+02  0.48605446432E+02  0.98778519792E+02  0.47000000000E+01 0. -1.
<mgrwt>
<rscale>  0 0.15327153E+03</rscale>
<asrwt>0</asrwt>
<pdfrwt beam="1">  1        5 0.29028233E-01 0.15327165E+03</pdfrwt>
<pdfrwt beam="2">  1       -5 0.19892080E-01 0.15327165E+03</pdfrwt>
<totfact> 0.20073117E+02</totfact>
</mgrwt>
</event>
<event>
 8    1  0.1821556E-007  0.1484298E+03  0.7546771E-02  0.1202419E+00
         -5   -1    0    0    0  501 -0.00000000000E+00  0.00000000000E+00  0.62012583532E+02  0.62190437499E+02  0.47000000000E+01 0.  1.
          5   -1    0    0  501    0  0.00000000000E+00 -0.00000000000E+00 -0.38946175127E+03  0.38949010989E+03  0.47000000000E+01 0.  1.
         25    2    1    2    0    0 -0.31589546237E+02  0.73553279033E+02 -0.96114628705E+02  0.17682227896E+03  0.12498044726E+03 0.  0.
         25    2    1    2    0    0  0.31589546237E+02 -0.73553279033E+02 -0.23133453903E+03  0.27485826842E+03  0.12499365778E+03 0.  0.
          5    1    4    4  502    0 -0.33655708718E+01  0.33781827410E+02 -0.40182122293E+02  0.52813179060E+02  0.47000000000E+01 0. -1.
         -5    1    4    4    0  502  0.34955117108E+02 -0.10733510644E+03 -0.19115241674E+03  0.22204508936E+03  0.47000000000E+01 0. -1.
          5    1    3    3  503    0  0.35383853066E+02  0.20236968090E+02  0.81524092045E+01  0.41834240893E+02  0.47000000000E+01 0. -1.
         -5    1    3    3    0  503 -0.66973399303E+02  0.53316310943E+02 -0.10426703791E+03  0.13498803807E+03  0.47000000000E+01 0. -1.
<mgrwt>
<rscale>  0 0.14842700E+03</rscale>
<asrwt>0</asrwt>
<pdfrwt beam="2">  1        5 0.59933053E-01 0.14842978E+03</pdfrwt>
<pdfrwt beam="1">  1       -5 0.95562602E-02 0.14842978E+03</pdfrwt>
<totfact> 0.16628694E+02</totfact>
</mgrwt>
</event>
<event>
 8    1  0.1821556E-007  0.1406389E+03  0.7546771E-02  0.1212484E+00
         -5   -1    0    0    0  501 -0.00000000000E+00  0.00000000000E+00  0.79276169793E+02  0.79415370660E+02  0.47000000000E+01 0. -1.
          5   -1    0    0  501    0  0.00000000000E+00 -0.00000000000E+00 -0.33705368985E+03  0.33708645751E+03  0.47000000000E+01 0. -1.
         25    2    1    2    0    0 -0.13595789623E+02 -0.62937145220E+02 -0.22494825960E+02  0.14239006595E+03  0.12499193551E+03 0.  0.
         25    2    1    2    0    0  0.13595789623E+02  0.62937145220E+02 -0.23528269409E+03  0.27411176222E+03  0.12503352472E+03 0.  0.
          5    1    3    3  502    0 -0.52852961513E+02 -0.10169204648E+02 -0.47433229135E+02  0.71894711141E+02  0.47000000000E+01 0. -1.
         -5    1    3    3    0  502  0.39257171889E+02 -0.52767940572E+02  0.24938403176E+02  0.70495354811E+02  0.47000000000E+01 0. -1.
          5    1    4    4  503    0  0.14730133372E+02 -0.23054587242E+02 -0.49423706850E+01  0.28195883565E+02  0.47000000000E+01 0. -1.
         -5    1    4    4    0  503 -0.11343437489E+01  0.85991732461E+02 -0.23034032341E+03  0.24591587866E+03  0.47000000000E+01 0. -1.
<mgrwt>
<rscale>  0 0.14062970E+03</rscale>
<asrwt>0</asrwt>
<pdfrwt beam="2">  1        5 0.51867641E-01 0.14063894E+03</pdfrwt>
<pdfrwt beam="1">  1       -5 0.12209562E-01 0.14063894E+03</pdfrwt>
<totfact> 0.14515770E+02</totfact>
</mgrwt>
</event>
<event>
 8    1  0.1821556E-007  0.1367343E+03  0.7546771E-02  0.1217794E+00
         -5   -1    0    0    0  501 -0.00000000000E+00  0.00000000000E+00  0.52033880519E+03  0.52036003131E+03  0.47000000000E+01 0.  1.
          5   -1    0    0  501    0  0.00000000000E+00 -0.00000000000E+00 -0.39047423453E+02  0.39329267452E+02  0.47000000000E+01 0.  1.
         25    2    1    2    0    0  0.19381860106E+01  0.55372476665E+02  0.32159086170E+03  0.34945008246E+03  0.12499924026E+03 0.  0.
         25    2    1    2    0    0 -0.19381860106E+01 -0.55372476665E+02  0.15970052003E+03  0.21023921630E+03  0.12500561681E+03 0.  0.
          5    1    4    4  502    0 -0.43515502833E+01 -0.35307299884E+02  0.17860230327E+03  0.18217138674E+03  0.47000000000E+01 0.  1.
         -5    1    4    4    0  502  0.24133642727E+01 -0.20065176782E+02 -0.18901783237E+02  0.28067829555E+02  0.47000000000E+01 0.  1.
          5    1    3    3  503    0 -0.53210728768E+02  0.51551934120E+02  0.12701068548E+03  0.14711487958E+03  0.47000000000E+01 0.  1.
         -5    1    3    3    0  503  0.55148914779E+02  0.38205425450E+01  0.19458017622E+03  0.20233520288E+03  0.47000000000E+01 0.  1.
<mgrwt>
<rscale>  0 0.13673285E+03</rscale>
<asrwt>0</asrwt>
<pdfrwt beam="2">  1        5 0.60306089E-02 0.13673431E+03</pdfrwt>
<pdfrwt beam="1">  1       -5 0.80075438E-01 0.13673431E+03</pdfrwt>
<totfact> 0.18525770E+02</totfact>
</mgrwt>
</event>
<event>
 8    1  0.1821556E-007  0.2431338E+03  0.7546771E-02  0.1117729E+00
         -5   -1    0    0    0  501 -0.00000000000E+00  0.00000000000E+00  0.78417886137E+02  0.78558607843E+02  0.47000000000E+01 0. -1.
          5   -1    0    0  501    0  0.00000000000E+00 -0.00000000000E+00 -0.75490847062E+03  0.75492310139E+03  0.47000000000E+01 0. -1.
         25    2    1    2    0    0  0.51396716981E+02 -0.20206003698E+03 -0.31670042441E+03  0.39924330134E+03  0.12500469503E+03 0.  0.
         25    2    1    2    0    0 -0.51396716981E+02  0.20206003698E+03 -0.35979016007E+03  0.43423840789E+03  0.12507659471E+03 0.  0.
          5    1    4    4  502    0 -0.22611336733E+02  0.21024116718E+03 -0.32839123136E+03  0.39060915473E+03  0.47000000000E+01 0. -1.
         -5    1    4    4    0  502 -0.28785380248E+02 -0.81811301946E+01 -0.31398928706E+02  0.43629253158E+02  0.47000000000E+01 0. -1.
          5    1    3    3  503    0  0.23360611336E+02 -0.12537609446E+02 -0.12614780464E+03  0.12898941208E+03  0.47000000000E+01 0.  1.
         -5    1    3    3    0  503  0.28036105644E+02 -0.18952242754E+03 -0.19055261977E+03  0.27025388926E+03  0.47000000000E+01 0.  1.
<mgrwt>
<rscale>  0 0.24312454E+03</rscale>
<asrwt>0</asrwt>
<pdfrwt beam="2">  1        5 0.11615171E+00 0.24313378E+03</pdfrwt>
<pdfrwt beam="1">  1       -5 0.12076241E-01 0.24313378E+03</pdfrwt>
<totfact> 0.26434376E+01</totfact>
</mgrwt>
</event>
<event>
 8    1  0.1821556E-007  0.2757840E+03  0.7546771E-02  0.1098015E+00
         -5   -1    0    0    0  501 -0.00000000000E+00  0.00000000000E+00  0.71700983442E+02  0.71854860841E+02  0.47000000000E+01 0. -1.
          5   -1    0    0  501    0  0.00000000000E+00 -0.00000000000E+00 -0.10691754006E+04  0.10691857310E+04  0.47000000000E+01 0. -1.
         25    2    1    2    0    0 -0.14880138303E+03 -0.19567157123E+03 -0.44428520486E+03  0.52291832398E+03  0.12500005968E+03 0.  0.
         25    2    1    2    0    0  0.14880138303E+03  0.19567157123E+03 -0.55318921231E+03  0.61812226781E+03  0.12501047146E+03 0.  0.
          5    1    3    3  502    0  0.87966838258E+01  0.61424052672E+00 -0.76878568319E+02  0.77525242370E+02  0.47000000000E+01 0. -1.
         -5    1    3    3    0  502 -0.15759806685E+03 -0.19628581176E+03 -0.36740663654E+03  0.44539308161E+03  0.47000000000E+01 0. -1.
          5    1    4    4  503    0  0.13784926387E+03  0.84772502063E+02 -0.28710024804E+03  0.32960194035E+03  0.47000000000E+01 0. -1.
         -5    1    4    4    0  503  0.10952119155E+02  0.11089906917E+03 -0.26608896427E+03  0.28852032747E+03  0.47000000000E+01 0. -1.
<mgrwt>
<rscale>  0 0.27578285E+03</rscale>
<asrwt>0</asrwt>
<pdfrwt beam="2">  1        5 0.16450114E+00 0.27578403E+03</pdfrwt>
<pdfrwt beam="1">  1       -5 0.11043553E-01 0.27578403E+03</pdfrwt>
<totfact> 0.12401632E+01</totfact>
</mgrwt>
</event>
<event>
 8    1  0.1821556E-007  0.1262410E+03  0.7546771E-02  0.1233153E+00
          5   -1    0    0  501    0  0.00000000000E+00  0.00000000000E+00  0.63216373070E+02  0.63390849688E+02  0.47000000000E+01 0.  1.
         -5   -1    0    0    0  501 -0.00000000000E+00 -0.00000000000E+00 -0.25895370111E+03  0.25899635001E+03  0.47000000000E+01 0.  1.
         25    2    1    2    0    0 -0.11536124532E+02 -0.13059332304E+02 -0.12521343469E+03  0.17780659799E+03  0.12503261067E+03 0.  0.
         25    2    1    2    0    0  0.11536124532E+02  0.13059332304E+02 -0.70523893356E+02  0.14458060172E+03  0.12500521001E+03 0.  0.
          5    1    3    3  502    0 -0.45250803975E+02 -0.10236937663E+02 -0.13454538640E+03  0.14239726526E+03  0.47000000000E+01 0. -1.
         -5    1    3    3    0  502  0.33714679442E+02 -0.28223946410E+01  0.93319517088E+01  0.35409332726E+02  0.47000000000E+01 0. -1.
          5    1    4    4  503    0 -0.71031177325E+01  0.65814574258E+02 -0.55355592544E+02  0.86419581648E+02  0.47000000000E+01 0.  1.
         -5    1    4    4    0  503  0.18639242265E+02 -0.52755241954E+02 -0.15168300812E+02  0.58161020068E+02  0.47000000000E+01 0.  1.
<mgrwt>
<rscale>  0 0.12623418E+03</rscale>
<asrwt>0</asrwt>
<pdfrwt beam="1">  1        5 0.97422980E-02 0.12624097E+03</pdfrwt>
<pdfrwt beam="2">  1       -5 0.39855732E-01 0.12624097E+03</pdfrwt>
<totfact> 0.36012565E+02</totfact>
</mgrwt>
</event>
<event>
 8    1  0.1821556E-007  0.1843260E+03  0.7546771E-02  0.1163687E+00
         -5   -1    0    0    0  501 -0.00000000000E+00  0.00000000000E+00  0.46047000030E+02  0.46286242144E+02  0.47000000000E+01 0. -1.
          5   -1    0    0  501    0  0.00000000000E+00 -0.00000000000E+00 -0.80193816961E+03  0.80195194237E+03  0.47000000000E+01 0. -1.
         25    2    1    2    0    0 -0.11273785685E+03 -0.75053210344E+02 -0.25595202258E+03  0.31540123208E+03  0.12499476223E+03 0.  0.
         25    2    1    2    0    0  0.11273785685E+03  0.75053210344E+02 -0.49993914699E+03  0.53283695243E+03  0.12503302936E+03 0.  0.
          5    1    3    3  502    0 -0.13001240878E+03 -0.81119322658E+02 -0.25361511004E+03  0.29635499825E+03  0.47000000000E+01 0.  1.
         -5    1    3    3    0  502  0.17274551933E+02  0.60661123138E+01 -0.23369125455E+01  0.19046233836E+02  0.47000000000E+01 0.  1.
          5    1    4    4  503    0  0.91400021163E+02 -0.10832518956E+02 -0.20268637662E+03  0.22265481042E+03  0.47000000000E+01 0.  1.
         -5    1    4    4    0  503  0.21337835688E+02  0.85885729300E+02 -0.29725277037E+03  0.31018214201E+03  0.47000000000E+01 0.  1.
<mgrwt>
<rscale>  0 0.18431949E+03</rscale>
<asrwt>0</asrwt>
<pdfrwt beam="2">  1        5 0.12339456E+00 0.18432598E+03</pdfrwt>
<pdfrwt beam="1">  1       -5 0.71036171E-02 0.18432598E+03</pdfrwt>
<totfact> 0.53456605E+01</totfact>
</mgrwt>
</event>
<event>
 8    1  0.1821556E-007  0.1621958E+03  0.7546771E-02  0.1186241E+00
          5   -1    0    0  501    0  0.00000000000E+00  0.00000000000E+00  0.34255316729E+02  0.34576245085E+02  0.47000000000E+01 0. -1.
         -5   -1    0    0    0  501 -0.00000000000E+00 -0.00000000000E+00 -0.79529863241E+03  0.79531252015E+03  0.47000000000E+01 0. -1.
         25    2    1    2    0    0 -0.70398178081E+02  0.75667780639E+02 -0.46275165802E+03  0.49035352387E+03  0.12500385942E+03 0.  0.
         25    2    1    2    0    0  0.70398178081E+02 -0.75667780639E+02 -0.29829165766E+03  0.33953524136E+03  0.12499900238E+03 0.  0.
          5    1    3    3  502    0  0.10184266119E+02  0.72172770859E+02 -0.14326609589E+03  0.16081011275E+03  0.47000000000E+01 0. -1.
         -5    1    3    3    0  502 -0.80582444200E+02  0.34950097799E+01 -0.31948556213E+03  0.32954341112E+03  0.47000000000E+01 0. -1.
          5    1    4    4  503    0  0.23865160743E+02  0.34477906201E+02 -0.68491642199E+02  0.80445428486E+02  0.47000000000E+01 0. -1.
         -5    1    4    4    0  503  0.46533017337E+02 -0.11014568684E+03 -0.22980001546E+03  0.25908981288E+03  0.47000000000E+01 0. -1.
<mgrwt>
<rscale>  0 0.16219488E+03</rscale>
<asrwt>0</asrwt>
<pdfrwt beam="1">  1        5 0.52958044E-02 0.16219581E+03</pdfrwt>
<pdfrwt beam="2">  1       -5 0.12237938E+00 0.16219581E+03</pdfrwt>
<totfact> 0.86573205E+01</totfact>
</mgrwt>
</event>
<event>
 8    1  0.1821556E-007  0.1974856E+03  0.7546771E-02  0.1151879E+00
          5   -1    0    0  501    0  0.00000000000E+00  0.00000000000E+00  0.40925287255E+02  0.41194285245E+02  0.47000000000E+01 0. -1.
         -5   -1    0    0    0  501 -0.00000000000E+00 -0.00000000000E+00 -0.99500059225E+03  0.99501169268E+03  0.47000000000E+01 0. -1.
         25    2    1    2    0    0 -0.61363904406E+02  0.14003517548E+03 -0.58774931174E+03  0.62004016947E+03  0.12500071667E+03 0.  0.
         25    2    1    2    0    0  0.61363904406E+02 -0.14003517548E+03 -0.36632599325E+03  0.41616580845E+03  0.12499547056E+03 0.  0.
          5    1    4    4  502    0  0.97222819465E+02 -0.12391409944E+03 -0.30181558349E+03  0.34047278467E+03  0.47000000000E+01 0. -1.
         -5    1    4    4    0  502 -0.35858915059E+02 -0.16121076040E+02 -0.64510409759E+02  0.75693023781E+02  0.47000000000E+01 0. -1.
          5    1    3    3  503    0  0.20244714770E+02  0.10669981915E+03 -0.30224502511E+03  0.32119907392E+03  0.47000000000E+01 0. -1.
         -5    1    3    3    0  503 -0.81608619176E+02  0.33335356332E+02 -0.28550428664E+03  0.29884109556E+03  0.47000000000E+01 0. -1.
<mgrwt>
<rscale>  0 0.19748476E+03</rscale>
<asrwt>0</asrwt>
<pdfrwt beam="1">  1        5 0.63177448E-02 0.19748559E+03</pdfrwt>
<pdfrwt beam="2">  1       -5 0.15309854E+00 0.19748559E+03</pdfrwt>
<totfact> 0.37302123E+01</totfact>
</mgrwt>
</event>
<event>
 8    1  0.1821556E-007  0.1286853E+03  0.7546771E-02  0.1229420E+00
         -5   -1    0    0    0  501 -0.00000000000E+00  0.00000000000E+00  0.72075259081E+02  0.72228339117E+02  0.47000000000E+01 0.  1.
          5   -1    0    0  501    0  0.00000000000E+00 -0.00000000000E+00 -0.23423209969E+03  0.23427924903E+03  0.47000000000E+01 0.  1.
         25    2    1    2    0    0 -0.28732088743E+02 -0.10542501038E+02 -0.58932765242E+02  0.14153752027E+03  0.12499248607E+03 0.  0.
         25    2    1    2    0    0  0.28732088743E+02  0.10542501038E+02 -0.10322407537E+03  0.16497006787E+03  0.12499294502E+03 0.  0.
          5    1    4    4  502    0 -0.41737266465E+02 -0.25597613783E+02 -0.43571928377E+02  0.65710274584E+02  0.47000000000E+01 0. -1.
         -5    1    4    4    0  502  0.70469355208E+02  0.36140114821E+02 -0.59652146989E+02  0.99259793286E+02  0.47000000000E+01 0. -1.
          5    1    3    3  503    0 -0.47680479371E+02 -0.16972381662E+02  0.23918022553E+02  0.56175187185E+02  0.47000000000E+01 0.  1.
         -5    1    3    3    0  503  0.18948390628E+02  0.64298806238E+01 -0.82850787796E+02  0.85362333090E+02  0.47000000000E+01 0.  1.
<mgrwt>
<rscale>  0 0.12868522E+03</rscale>
<asrwt>0</asrwt>
<pdfrwt beam="2">  1        5 0.36051109E-01 0.12868533E+03</pdfrwt>
<pdfrwt beam="1">  1       -5 0.11103904E-01 0.12868533E+03</pdfrwt>
<totfact> 0.35353782E+02</totfact>
</mgrwt>
</event>
<event>
 8    1  0.1821556E-007  0.1391411E+03  0.7546771E-02  0.1214511E+00
          5   -1    0    0  501    0  0.00000000000E+00  0.00000000000E+00  0.11103717397E+03  0.11113660064E+03  0.47000000000E+01 0.  1.
         -5   -1    0    0    0  501 -0.00000000000E+00 -0.00000000000E+00 -0.17506274047E+03  0.17512582077E+03  0.47000000000E+01 0.  1.
         25    2    1    2    0    0  0.93102308137E+00  0.61117122699E+02 -0.21246990412E+02  0.14075399825E+03  0.12499633566E+03 0.  0.
         25    2    1    2    0    0 -0.93102308137E+00 -0.61117122699E+02 -0.42778576090E+02  0.14550842317E+03  0.12492607874E+03 0.  0.
          5    1    4    4  502    0  0.14614175111E+02 -0.93292612778E+02 -0.71311279159E+01  0.94815761867E+02  0.47000000000E+01 0.  1.
         -5    1    4    4    0  502 -0.15545198192E+02  0.32175490078E+02 -0.35647448174E+02  0.50692661302E+02  0.47000000000E+01 0.  1.
          5    1    3    3  503    0 -0.48096156786E+02  0.17348342141E+02 -0.47385479785E+02  0.69869012924E+02  0.47000000000E+01 0.  1.
         -5    1    3    3    0  503  0.49027179867E+02  0.43768780558E+02  0.26138489373E+02  0.70884985321E+02  0.47000000000E+01 0.  1.
<mgrwt>
<rscale>  0 0.13912535E+03</rscale>
<asrwt>0</asrwt>
<pdfrwt beam="1">  1        5 0.17095143E-01 0.13914113E+03</pdfrwt>
<pdfrwt beam="2">  1       -5 0.26945230E-01 0.13914113E+03</pdfrwt>
<totfact> 0.29738787E+02</totfact>
</mgrwt>
</event>
<event>
 8    1  0.1821556E-007  0.2106955E+03  0.7546771E-02  0.1141018E+00
          5   -1    0    0  501    0  0.00000000000E+00  0.00000000000E+00  0.24402148711E+02  0.24850651133E+02  0.47000000000E+01 0. -1.
         -5   -1    0    0    0  501 -0.00000000000E+00 -0.00000000000E+00 -0.18788659546E+04  0.18788718331E+04  0.47000000000E+01 0. -1.
         25    2    1    2    0    0  0.11764990364E+02  0.16919402628E+03 -0.11195784519E+04  0.11392315479E+04  0.12501030460E+03 0.  0.
         25    2    1    2    0    0 -0.11764990364E+02 -0.16919402628E+03 -0.73488535396E+03  0.76449093633E+03  0.12499949899E+03 0.  0.
          5    1    4    4  502    0 -0.42997281462E+02 -0.48445069688E+02 -0.43266976004E+03  0.43751674510E+03  0.47000000000E+01 0. -1.
         -5    1    4    4    0  502  0.31232291098E+02 -0.12074895659E+03 -0.30221559392E+03  0.32697419123E+03  0.47000000000E+01 0. -1.
          5    1    3    3  503    0 -0.27456308935E+02  0.14152984290E+03 -0.99910960579E+03  0.10094684937E+04  0.47000000000E+01 0. -1.
         -5    1    3    3    0  503  0.39221299300E+02  0.27664183382E+02 -0.12046884609E+03  0.12976305422E+03  0.47000000000E+01 0. -1.
<mgrwt>
<rscale>  0 0.21069394E+03</rscale>
<asrwt>0</asrwt>
<pdfrwt beam="1">  1        5 0.37891306E-02 0.21069554E+03</pdfrwt>
<pdfrwt beam="2">  1       -5 0.28909114E+00 0.21069554E+03</pdfrwt>
<totfact> 0.10632015E+01</totfact>
</mgrwt>
</event>
<event>
 8    1  0.1821556E-007  0.1282424E+03  0.7546771E-02  0.1230105E+00
          5   -1    0    0  501    0  0.00000000000E+00  0.00000000000E+00  0.18373171833E+03  0.18379182332E+03  0.47000000000E+01 0.  1.
         -5   -1    0    0    0  501 -0.00000000000E+00 -0.00000000000E+00 -0.91541054186E+02  0.91661631021E+02  0.47000000000E+01 0.  1.
         25    2    1    2    0    0 -0.23561001488E+02 -0.15907603177E+02  0.24777210300E+02  0.13061402004E+03  0.12505174710E+03 0.  0.
         25    2    1    2    0    0  0.23561001488E+02  0.15907603177E+02  0.67413453845E+02  0.14483943430E+03  0.12500286132E+03 0.  0.
          5    1    4    4  502    0  0.42642002817E+02 -0.21537078645E+02 -0.16592871738E+02  0.50789758350E+02  0.47000000000E+01 0. -1.
         -5    1    4    4    0  502 -0.19081001328E+02  0.37444681821E+02  0.84006325583E+02  0.94049675950E+02  0.47000000000E+01 0. -1.
          5    1    3    3  503    0 -0.61044395985E+02 -0.40565774104E+02 -0.93638718299E+01  0.74038992466E+02  0.47000000000E+01 0. -1.
         -5    1    3    3    0  503  0.37483394497E+02  0.24658170927E+02  0.34141082130E+02  0.56575027578E+02  0.47000000000E+01 0. -1.
<mgrwt>
<rscale>  0 0.12823048E+03</rscale>
<asrwt>0</asrwt>
<pdfrwt beam="1">  1        5 0.28280317E-01 0.12824240E+03</pdfrwt>
<pdfrwt beam="2">  1       -5 0.14097138E-01 0.12824240E+03</pdfrwt>
<totfact> 0.37333281E+02</totfact>
</mgrwt>
</event>
<event>
 8    1  0.1821556E-007  0.2267886E+03  0.7546771E-02  0.1128921E+00
         -5   -1    0    0    0  501 -0.00000000000E+00  0.00000000000E+00  0.88101381552E+02  0.88226659414E+02  0.47000000000E+01 0. -1.
          5   -1    0    0  501    0  0.00000000000E+00 -0.00000000000E+00 -0.59447944488E+03  0.59449802387E+03  0.47000000000E+01 0. -1.
         25    2    1    2    0    0 -0.86681458273E+02  0.16820885018E+03 -0.30012050826E+03  0.37617201648E+03  0.12500069607E+03 0.  0.
         25    2    1    2    0    0  0.86681458273E+02 -0.16820885018E+03 -0.20625755507E+03  0.30655266680E+03  0.12499786403E+03 0.  0.
          5    1    3    3  502    0  0.47545822374E+01  0.53550546705E+02 -0.17567425311E+03  0.18377649553E+03  0.47000000000E+01 0. -1.
         -5    1    3    3    0  502 -0.91436040511E+02  0.11465830348E+03 -0.12444625515E+03  0.19239552095E+03  0.47000000000E+01 0. -1.
          5    1    4    4  503    0 -0.30775475313E+02 -0.18947338949E+02 -0.27151605442E+02  0.45447015436E+02  0.47000000000E+01 0. -1.
         -5    1    4    4    0  503  0.11745693359E+03 -0.14926151123E+03 -0.17910594963E+03  0.26110565137E+03  0.47000000000E+01 0. -1.
<mgrwt>
<rscale>  0 0.22678820E+03</rscale>
<asrwt>0</asrwt>
<pdfrwt beam="2">  1        5 0.91469439E-01 0.22678859E+03</pdfrwt>
<pdfrwt beam="1">  1       -5 0.13565125E-01 0.22678859E+03</pdfrwt>
<totfact> 0.38169379E+01</totfact>
</mgrwt>
</event>
<event>
 8    1  0.1821556E-007  0.1682645E+03  0.7546771E-02  0.1179672E+00
          5   -1    0    0  501    0  0.00000000000E+00  0.00000000000E+00  0.15212076475E+03  0.15219335422E+03  0.47000000000E+01 0. -1.
         -5   -1    0    0    0  501 -0.00000000000E+00 -0.00000000000E+00 -0.20149621881E+03  0.20155102628E+03  0.47000000000E+01 0. -1.
         25    2    1    2    0    0  0.41070903543E+02  0.10487894538E+03 -0.73774285289E+02  0.18372689757E+03  0.12500606152E+03 0.  0.
         25    2    1    2    0    0 -0.41070903543E+02 -0.10487894538E+03  0.24398831234E+02  0.17001748293E+03  0.12499691690E+03 0.  0.
          5    1    4    4  502    0 -0.80989671401E+02 -0.74519681855E+02 -0.74717975813E+01  0.11041026952E+03  0.47000000000E+01 0. -1.
         -5    1    4    4    0  502  0.39918767859E+02 -0.30359263526E+02  0.31870628815E+02  0.59607213408E+02  0.47000000000E+01 0. -1.
          5    1    3    3  503    0  0.64635755250E+02  0.57109055287E+02 -0.92977907795E+02  0.12691022965E+03  0.47000000000E+01 0.  1.
         -5    1    3    3    0  503 -0.23564851707E+02  0.47769890094E+02  0.19203622506E+02  0.56816667915E+02  0.47000000000E+01 0.  1.
<mgrwt>
<rscale>  0 0.16826276E+03</rscale>
<asrwt>0</asrwt>
<pdfrwt beam="1">  1        5 0.23412994E-01 0.16826446E+03</pdfrwt>
<pdfrwt beam="2">  1       -5 0.31009218E-01 0.16826446E+03</pdfrwt>
<totfact> 0.13343107E+02</totfact>
</mgrwt>
</event>
<event>
 8    1  0.1821556E-007  0.1566961E+03  0.7546771E-02  0.1192480E+00
         -5   -1    0    0    0  501 -0.00000000000E+00  0.00000000000E+00  0.24501649935E+03  0.24506157380E+03  0.47000000000E+01 0. -1.
          5   -1    0    0  501    0  0.00000000000E+00 -0.00000000000E+00 -0.11563882236E+03  0.11573429585E+03  0.47000000000E+01 0. -1.
         25    2    1    2    0    0 -0.14481112228E+02 -0.93361546151E+02  0.13077859484E+03  0.20409977353E+03  0.12501038267E+03 0.  0.
         25    2    1    2    0    0  0.14481112228E+02  0.93361546151E+02 -0.14009178528E+01  0.15669609613E+03  0.12500249221E+03 0.  0.
          5    1    3    3  502    0  0.21094386132E+02 -0.10398609315E+03  0.55047230834E+02  0.11962595168E+03  0.47000000000E+01 0.  1.
         -5    1    3    3    0  502 -0.35575498360E+02  0.10624546995E+02  0.75731364007E+02  0.84473821843E+02  0.47000000000E+01 0.  1.
          5    1    4    4  503    0  0.49576295490E+02  0.55546868426E+02 -0.46587866247E+02  0.87953299813E+02  0.47000000000E+01 0.  1.
         -5    1    4    4    0  503 -0.35095183263E+02  0.37814677725E+02  0.45186948394E+02  0.68742796313E+02  0.47000000000E+01 0.  1.
<mgrwt>
<rscale>  0 0.15669455E+03</rscale>
<asrwt>0</asrwt>
<pdfrwt beam="2">  1        5 0.17801400E-01 0.15669613E+03</pdfrwt>
<pdfrwt beam="1">  1       -5 0.37705657E-01 0.15669613E+03</pdfrwt>
<totfact> 0.14752511E+02</totfact>
</mgrwt>
</event>
<event>
 8    1  0.1821556E-007  0.1872671E+03  0.7546771E-02  0.1160950E+00
         -5   -1    0    0    0  501 -0.00000000000E+00  0.00000000000E+00  0.39878146032E+02  0.40154159572E+02  0.47000000000E+01 0. -1.
          5   -1    0    0  501    0  0.00000000000E+00 -0.00000000000E+00 -0.10139428435E+04  0.10139537366E+04  0.47000000000E+01 0. -1.
         25    2    1    2    0    0 -0.13632610240E+03  0.29301386489E+02 -0.29271964859E+03  0.34749641461E+03  0.12500235219E+03 0.  0.
         25    2    1    2    0    0  0.13632610240E+03 -0.29301386489E+02 -0.68134504891E+03  0.70661148155E+03  0.12500133096E+03 0.  0.
          5    1    4    4  502    0  0.40796792627E+02  0.48380447987E+02 -0.20575196107E+03  0.21531605960E+03  0.47000000000E+01 0. -1.
         -5    1    4    4    0  502  0.95529309770E+02 -0.77681834476E+02 -0.47559308784E+03  0.49129542196E+03  0.47000000000E+01 0. -1.
          5    1    3    3  503    0 -0.11171851533E+01 -0.29740880488E+02 -0.10180990819E+03  0.10617492868E+03  0.47000000000E+01 0.  1.
         -5    1    3    3    0  503 -0.13520891724E+03  0.59042266977E+02 -0.19090974040E+03  0.24132148593E+03  0.47000000000E+01 0.  1.
<mgrwt>
<rscale>  0 0.18726693E+03</rscale>
<asrwt>0</asrwt>
<pdfrwt beam="2">  1        5 0.15601326E+00 0.18726710E+03</pdfrwt>
<pdfrwt beam="1">  1       -5 0.61571699E-02 0.18726710E+03</pdfrwt>
<totfact> 0.36485604E+01</totfact>
</mgrwt>
</event>
<event>
 8    1  0.1821556E-007  0.1280110E+03  0.7546771E-02  0.1230437E+00
          5   -1    0    0  501    0  0.00000000000E+00  0.00000000000E+00  0.31081835013E+03  0.31085388332E+03  0.47000000000E+01 0. -1.
         -5   -1    0    0    0  501 -0.00000000000E+00 -0.00000000000E+00 -0.69854391038E+02  0.70012327109E+02  0.47000000000E+01 0. -1.
         25    2    1    2    0    0  0.44100498681E+01 -0.27248465025E+02  0.25925049175E+02  0.13060923484E+03  0.12499894666E+03 0.  0.
         25    2    1    2    0    0 -0.44100498681E+01  0.27248465025E+02  0.21503890991E+03  0.25025697559E+03  0.12499957466E+03 0.  0.
          5    1    3    3  502    0 -0.97070776132E+01 -0.27425761318E+02 -0.47386430903E+02  0.55802899327E+02  0.47000000000E+01 0.  1.
         -5    1    3    3    0  502  0.14117127481E+02  0.17729629309E+00  0.73311480077E+02  0.74806335517E+02  0.47000000000E+01 0.  1.
          5    1    4    4  503    0  0.36555525232E+02 -0.36624411020E+02  0.89764806221E+02  0.10371819678E+03  0.47000000000E+01 0. -1.
         -5    1    4    4    0  503 -0.40965575100E+02  0.63872876045E+02  0.12527410369E+03  0.14653877880E+03  0.47000000000E+01 0. -1.
<mgrwt>
<rscale>  0 0.12801087E+03</rscale>
<asrwt>0</asrwt>
<pdfrwt beam="1">  1        5 0.47833091E-01 0.12801102E+03</pdfrwt>
<pdfrwt beam="2">  1       -5 0.10761711E-01 0.12801102E+03</pdfrwt>
<totfact> 0.20851367E+02</totfact>
</mgrwt>
</event>
<event>
 8    1  0.1821556E-007  0.1256980E+03  0.7546771E-02  0.1233984E+00
         -5   -1    0    0    0  501 -0.00000000000E+00  0.00000000000E+00  0.15253709966E+03  0.15260949110E+03  0.47000000000E+01 0. -1.
          5   -1    0    0  501    0  0.00000000000E+00 -0.00000000000E+00 -0.10689148851E+03  0.10699476770E+03  0.47000000000E+01 0. -1.
         25    2    1    2    0    0  0.11052662839E+02  0.72076535940E+01  0.46166673396E+02  0.13390517733E+03  0.12500049263E+03 0.  0.
         25    2    1    2    0    0 -0.11052662839E+02 -0.72076535940E+01 -0.52106224661E+00  0.12569908147E+03  0.12500350375E+03 0.  0.
          5    1    4    4  502    0 -0.28624637337E+02 -0.42159810094E+02 -0.43663703851E+02  0.67271305055E+02  0.47000000000E+01 0.  1.
         -5    1    4    4    0  502  0.17571974499E+02  0.34952156500E+02  0.43142641604E+02  0.58427776411E+02  0.47000000000E+01 0.  1.
          5    1    3    3  503    0  0.35457654750E+02  0.16368710424E+02 -0.32420505018E+02  0.50974102317E+02  0.47000000000E+01 0.  1.
         -5    1    3    3    0  503 -0.24404991911E+02 -0.91610568303E+01  0.78587178414E+02  0.82931075018E+02  0.47000000000E+01 0.  1.
<mgrwt>
<rscale>  0 0.12569725E+03</rscale>
<asrwt>0</asrwt>
<pdfrwt beam="2">  1        5 0.16458358E-01 0.12569800E+03</pdfrwt>
<pdfrwt beam="1">  1       -5 0.23480759E-01 0.12569800E+03</pdfrwt>
<totfact> 0.40017104E+02</totfact>
</mgrwt>
</event>
<event>
 8    1  0.1821556E-007  0.1776642E+03  0.7546771E-02  0.1170085E+00
         -5   -1    0    0    0  501 -0.00000000000E+00  0.00000000000E+00  0.25572408866E+03  0.25576727609E+03  0.47000000000E+01 0.  1.
          5   -1    0    0  501    0  0.00000000000E+00 -0.00000000000E+00 -0.12612148716E+03  0.12620903107E+03  0.47000000000E+01 0.  1.
         25    2    1    2    0    0  0.17211902754E+02  0.12505680297E+03  0.93210070266E+02  0.20062308084E+03  0.12500419914E+03 0.  0.
         25    2    1    2    0    0 -0.17211902754E+02 -0.12505680297E+03  0.36392531236E+02  0.18135322632E+03  0.12501649012E+03 0.  0.
          5    1    3    3  502    0  0.54810134206E+02  0.12419668193E+03  0.54244456166E+02  0.14626523045E+03  0.47000000000E+01 0.  1.
         -5    1    3    3    0  502 -0.37598231451E+02  0.86012103201E+00  0.38965614099E+02  0.54357850386E+02  0.47000000000E+01 0.  1.
          5    1    4    4  503    0 -0.61720580327E+02 -0.49752127937E+02 -0.13478963178E+02  0.80551081424E+02  0.47000000000E+01 0.  1.
         -5    1    4    4    0  503  0.44508677572E+02 -0.75304675028E+02  0.49871494414E+02  0.10080214489E+03  0.47000000000E+01 0.  1.
<mgrwt>
<rscale>  0 0.17766206E+03</rscale>
<asrwt>0</asrwt>
<pdfrwt beam="2">  1        5 0.19413362E-01 0.17766422E+03</pdfrwt>
<pdfrwt beam="1">  1       -5 0.39352224E-01 0.17766422E+03</pdfrwt>
<totfact> 0.11955252E+02</totfact>
</mgrwt>
</event>
<event>
 8    1  0.1821556E-007  0.1594958E+03  0.7546771E-02  0.1189268E+00
         -5   -1    0    0    0  501 -0.00000000000E+00  0.00000000000E+00  0.46323796774E+02  0.46561616677E+02  0.47000000000E+01 0.  1.
          5   -1    0    0  501    0  0.00000000000E+00 -0.00000000000E+00 -0.81828048588E+03  0.81829398358E+03  0.47000000000E+01 0.  1.
         25    2    1    2    0    0 -0.18585322066E+02 -0.97304100071E+02 -0.13725968928E+03  0.21042604918E+03  0.12500159113E+03 0.  0.
         25    2    1    2    0    0  0.18585322066E+02  0.97304100071E+02 -0.63469699982E+03  0.65442955108E+03  0.12499701460E+03 0.  0.
          5    1    4    4  502    0 -0.47324594383E+02  0.44734799720E+02 -0.39349553832E+03  0.39887547959E+03  0.47000000000E+01 0.  1.
         -5    1    4    4    0  502  0.65909916449E+02  0.52569300351E+02 -0.24120146150E+03  0.25555407149E+03  0.47000000000E+01 0.  1.
          5    1    3    3  503    0  0.83653982860E+01  0.15821895747E+02 -0.77335293663E+02  0.79518236396E+02  0.47000000000E+01 0. -1.
         -5    1    3    3    0  503 -0.26950720352E+02 -0.11312599582E+03 -0.59924395619E+02  0.13090781278E+03  0.47000000000E+01 0. -1.
<mgrwt>
<rscale>  0 0.15949487E+03</rscale>
<asrwt>0</asrwt>
<pdfrwt beam="2">  1        5 0.12590863E+00 0.15949577E+03</pdfrwt>
<pdfrwt beam="1">  1       -5 0.71460707E-02 0.15949577E+03</pdfrwt>
<totfact> 0.48276890E+01</totfact>
</mgrwt>
</event>
<event>
 8    1  0.1821556E-007  0.1351638E+03  0.7546771E-02  0.1219990E+00
          5   -1    0    0  501    0  0.00000000000E+00  0.00000000000E+00  0.36154298370E+02  0.36458514652E+02  0.47000000000E+01 0.  1.
         -5   -1    0    0    0  501 -0.00000000000E+00 -0.00000000000E+00 -0.55761175177E+03  0.55763155911E+03  0.47000000000E+01 0.  1.
         25    2    1    2    0    0 -0.48565193881E+02  0.16888844654E+02 -0.35377518981E+03  0.37871642255E+03  0.12500173061E+03 0.  0.
         25    2    1    2    0    0  0.48565193881E+02 -0.16888844654E+02 -0.16768226359E+03  0.21537365121E+03  0.12499862792E+03 0.  0.
          5    1    4    4  502    0  0.36126158833E+02  0.52326166503E+02 -0.92234984419E+02  0.11212720189E+03  0.47000000000E+01 0. -1.
         -5    1    4    4    0  502  0.12439035048E+02 -0.69215011157E+02 -0.75447279173E+02  0.10324644932E+03  0.47000000000E+01 0. -1.
          5    1    3    3  503    0 -0.22829982556E+02  0.12090466047E+02 -0.24345940700E+01  0.26370527508E+02  0.47000000000E+01 0.  1.
         -5    1    3    3    0  503 -0.25735211325E+02  0.47983786065E+01 -0.35134059574E+03  0.35234589504E+03  0.47000000000E+01 0.  1.
<mgrwt>
<rscale>  0 0.13516305E+03</rscale>
<asrwt>0</asrwt>
<pdfrwt beam="1">  1        5 0.55871251E-02 0.13516377E+03</pdfrwt>
<pdfrwt beam="2">  1       -5 0.85811342E-01 0.13516377E+03</pdfrwt>
<totfact> 0.17853447E+02</totfact>
</mgrwt>
</event>
<event>
 8    1  0.1821556E-007  0.1355110E+03  0.7546771E-02  0.1219501E+00
          5   -1    0    0  501    0  0.00000000000E+00  0.00000000000E+00  0.66059751120E+02  0.66226737184E+02  0.47000000000E+01 0. -1.
         -5   -1    0    0    0  501 -0.00000000000E+00 -0.00000000000E+00 -0.28186560914E+03  0.28190479175E+03  0.47000000000E+01 0. -1.
         25    2    1    2    0    0 -0.33236105362E+02 -0.40394033159E+02 -0.12971875149E+03  0.18759044655E+03  0.12500761791E+03 0.  0.
         25    2    1    2    0    0  0.33236105362E+02  0.40394033159E+02 -0.86087106531E+02  0.16054108239E+03  0.12500453036E+03 0.  0.
          5    1    3    3  502    0 -0.61463203680E+02  0.22378930612E+02 -0.74288026672E+02  0.99092597346E+02  0.47000000000E+01 0. -1.
         -5    1    3    3    0  502  0.28227098318E+02 -0.62772963771E+02 -0.55430724814E+02  0.88497849202E+02  0.47000000000E+01 0. -1.
          5    1    4    4  503    0  0.54920124715E+02  0.75521171794E+02 -0.53364393941E+02  0.10765461453E+03  0.47000000000E+01 0. -1.
         -5    1    4    4    0  503 -0.21684019353E+02 -0.35127138636E+02 -0.32722712590E+02  0.52886467865E+02  0.47000000000E+01 0. -1.
<mgrwt>
<rscale>  0 0.13551025E+03</rscale>
<asrwt>0</asrwt>
<pdfrwt beam="1">  1        5 0.10178898E-01 0.13551096E+03</pdfrwt>
<pdfrwt beam="2">  1       -5 0.43379798E-01 0.13551096E+03</pdfrwt>
<totfact> 0.28752718E+02</totfact>
</mgrwt>
</event>
<event>
 8    1  0.1821556E-007  0.1310509E+03  0.7546771E-02  0.1225910E+00
          5   -1    0    0  501    0  0.00000000000E+00  0.00000000000E+00  0.40738972847E+03  0.40741683920E+03  0.47000000000E+01 0. -1.
         -5   -1    0    0    0  501 -0.00000000000E+00 -0.00000000000E+00 -0.42293426447E+02  0.42553776808E+02  0.47000000000E+01 0. -1.
         25    2    1    2    0    0 -0.21035977872E+02  0.33261847033E+02  0.16364848834E+03  0.20965486863E+03  0.12500189347E+03 0.  0.
         25    2    1    2    0    0  0.21035977872E+02 -0.33261847033E+02  0.20144781368E+03  0.24031574737E+03  0.12498629512E+03 0.  0.
          5    1    3    3  502    0 -0.67513175303E+02  0.20598866198E+02  0.13752928599E+03  0.15465683506E+03  0.47000000000E+01 0. -1.
         -5    1    3    3    0  502  0.46477197431E+02  0.12662980835E+02  0.26119202357E+02  0.54998033569E+02  0.47000000000E+01 0. -1.
          5    1    4    4  503    0  0.56427337216E+02  0.61891638859E+01  0.16818040914E+03  0.17756432681E+03  0.47000000000E+01 0. -1.
         -5    1    4    4    0  503 -0.35391359344E+02 -0.39451010919E+02  0.33267404539E+02  0.62751420569E+02  0.47000000000E+01 0. -1.
<mgrwt>
<rscale>  0 0.13104717E+03</rscale>
<asrwt>0</asrwt>
<pdfrwt beam="1">  1        5 0.62697454E-01 0.13105089E+03</pdfrwt>
<pdfrwt beam="2">  1       -5 0.65287935E-02 0.13105089E+03</pdfrwt>
<totfact> 0.27749096E+02</totfact>
</mgrwt>
</event>
<event>
 8    1  0.1821556E-007  0.1266811E+03  0.7546771E-02  0.1232465E+00
         -5   -1    0    0    0  501 -0.00000000000E+00  0.00000000000E+00  0.23737030874E+03  0.23741683485E+03  0.47000000000E+01 0.  1.
          5   -1    0    0  501    0  0.00000000000E+00 -0.00000000000E+00 -0.69282207684E+02  0.69441445128E+02  0.47000000000E+01 0.  1.
         25    2    1    2    0    0 -0.17450209165E+02 -0.10829412170E+02  0.10880141324E+03  0.16699039979E+03  0.12500504043E+03 0.  0.
         25    2    1    2    0    0  0.17450209165E+02  0.10829412170E+02  0.59286687815E+02  0.13986788019E+03  0.12500530624E+03 0.  0.
          5    1    3    3  502    0 -0.39412027413E+02  0.43773366677E+02  0.24264411759E+02  0.63876969348E+02  0.47000000000E+01 0. -1.
         -5    1    3    3    0  502  0.21961818248E+02 -0.54602778847E+02  0.84537001483E+02  0.10311343045E+03  0.47000000000E+01 0. -1.
          5    1    4    4  503    0 -0.11037682953E+02 -0.32503045396E+02  0.77348587443E+02  0.84753598062E+02  0.47000000000E+01 0.  1.
         -5    1    4    4    0  503  0.28487892119E+02  0.43332457567E+02 -0.18061899628E+02  0.55114282126E+02  0.47000000000E+01 0.  1.
<mgrwt>
<rscale>  0 0.12668108E+03</rscale>
<asrwt>0</asrwt>
<pdfrwt beam="2">  1        5 0.10674629E-01 0.12668115E+03</pdfrwt>
<pdfrwt beam="1">  1       -5 0.36534337E-01 0.12668115E+03</pdfrwt>
<totfact> 0.36672426E+02</totfact>
</mgrwt>
</event>
<event>
 8    1  0.1821556E-007  0.1381019E+03  0.7546771E-02  0.1215923E+00
          5   -1    0    0  501    0  0.00000000000E+00  0.00000000000E+00  0.18631599542E+02  0.19215267406E+02  0.47000000000E+01 0. -1.
         -5   -1    0    0    0  501 -0.00000000000E+00 -0.00000000000E+00 -0.10830057927E+04  0.10830159911E+04  0.47000000000E+01 0. -1.
         25    2    1    2    0    0 -0.54538374560E+01 -0.58339107903E+02 -0.67814995995E+03  0.69205898631E+03  0.12500030601E+03 0.  0.
         25    2    1    2    0    0  0.54538374560E+01  0.58339107903E+02 -0.38622423317E+03  0.41017227217E+03  0.12505574245E+03 0.  0.
          5    1    4    4  502    0 -0.34993702747E+02 -0.23740707055E+02 -0.81034509647E+02  0.91525199575E+02  0.47000000000E+01 0.  1.
         -5    1    4    4    0  502  0.40447540203E+02  0.82079814958E+02 -0.30518972352E+03  0.31864707260E+03  0.47000000000E+01 0.  1.
          5    1    3    3  503    0 -0.31614946854E+02  0.28003601018E+02 -0.31437243563E+03  0.31723150035E+03  0.47000000000E+01 0.  1.
         -5    1    3    3    0  503  0.26161109398E+02 -0.86342708921E+02 -0.36377752432E+03  0.37482748596E+03  0.47000000000E+01 0.  1.
<mgrwt>
<rscale>  0 0.13808935E+03</rscale>
<asrwt>0</asrwt>
<pdfrwt beam="1">  1        5 0.29120828E-02 0.13810190E+03</pdfrwt>
<pdfrwt beam="2">  1       -5 0.16666191E+00 0.13810190E+03</pdfrwt>
<totfact> 0.95712871E+01</totfact>
</mgrwt>
</event>
<event>
 8    1  0.1821556E-007  0.1296688E+03  0.7546771E-02  0.1227948E+00
         -5   -1    0    0    0  501 -0.00000000000E+00  0.00000000000E+00  0.36006443292E+02  0.36311898305E+02  0.47000000000E+01 0.  1.
          5   -1    0    0  501    0  0.00000000000E+00 -0.00000000000E+00 -0.50926543776E+03  0.50928712540E+03  0.47000000000E+01 0.  1.
         25    2    1    2    0    0  0.27861261024E+02  0.20284426861E+02 -0.15593874497E+03  0.20280734203E+03  0.12500487174E+03 0.  0.
         25    2    1    2    0    0 -0.27861261024E+02 -0.20284426861E+02 -0.31732024950E+03  0.34279168167E+03  0.12500515367E+03 0.  0.
          5    1    4    4  502    0 -0.39131366732E+02  0.39937007189E+02 -0.22500858680E+03  0.23189907835E+03  0.47000000000E+01 0.  1.
         -5    1    4    4    0  502  0.11270105708E+02 -0.60221434050E+02 -0.92311662697E+02  0.11089260332E+03  0.47000000000E+01 0.  1.
          5    1    3    3  503    0 -0.49773471960E+02  0.47753671415E+01 -0.65056821132E+02  0.82186876191E+02  0.47000000000E+01 0. -1.
         -5    1    3    3    0  503  0.77634732984E+02  0.15509059720E+02 -0.90881923837E+02  0.12062046584E+03  0.47000000000E+01 0. -1.
<mgrwt>
<rscale>  0 0.12966873E+03</rscale>
<asrwt>0</asrwt>
<pdfrwt beam="2">  1        5 0.78373688E-01 0.12966879E+03</pdfrwt>
<pdfrwt beam="1">  1       -5 0.55646180E-02 0.12966879E+03</pdfrwt>
<totfact> 0.21875037E+02</totfact>
</mgrwt>
</event>
<event>
 8    1  0.1821556E-007  0.1327553E+03  0.7546771E-02  0.1223424E+00
          5   -1    0    0  501    0  0.00000000000E+00  0.00000000000E+00  0.34626447167E+03  0.34629636778E+03  0.47000000000E+01 0.  1.
         -5   -1    0    0    0  501 -0.00000000000E+00 -0.00000000000E+00 -0.51352722211E+02  0.51567354775E+02  0.47000000000E+01 0.  1.
         25    2    1    2    0    0 -0.19986624724E+02  0.39996861310E+02  0.12602498768E+03  0.18304716321E+03  0.12499900942E+03 0.  0.
         25    2    1    2    0    0  0.19986624724E+02 -0.39996861310E+02  0.16888676177E+03  0.21481655934E+03  0.12499680710E+03 0.  0.
          5    1    3    3  502    0  0.44123445782E+02  0.48337283710E+02  0.46353936400E+02  0.80337717692E+02  0.47000000000E+01 0. -1.
         -5    1    3    3    0  502 -0.64110070507E+02 -0.83404223994E+01  0.79671051284E+02  0.10270944552E+03  0.47000000000E+01 0. -1.
          5    1    4    4  503    0 -0.20419038192E+02 -0.18088244848E+02 -0.10477512015E+02  0.29597127908E+02  0.47000000000E+01 0. -1.
         -5    1    4    4    0  503  0.40405662916E+02 -0.21908616462E+02  0.17936427379E+03  0.18521943144E+03  0.47000000000E+01 0. -1.
<mgrwt>
<rscale>  0 0.13275477E+03</rscale>
<asrwt>0</asrwt>
<pdfrwt beam="1">  1        5 0.53290422E-01 0.13275529E+03</pdfrwt>
<pdfrwt beam="2">  1       -5 0.79193824E-02 0.13275529E+03</pdfrwt>
<totfact> 0.28577359E+02</totfact>
</mgrwt>
</event>
<event>
 8    1  0.1821556E-007  0.1255637E+03  0.7546771E-02  0.1234193E+00
         -5   -1    0    0    0  501 -0.00000000000E+00  0.00000000000E+00  0.47875343701E+02  0.48105493808E+02  0.47000000000E+01 0.  1.
          5   -1    0    0  501    0  0.00000000000E+00 -0.00000000000E+00 -0.49124834524E+03  0.49127082827E+03  0.47000000000E+01 0.  1.
         25    2    1    2    0    0  0.11835917052E+02 -0.11303221176E+01 -0.66387805939E+02  0.14203003415E+03  0.12499529296E+03 0.  0.
         25    2    1    2    0    0 -0.11835917052E+02  0.11303221176E+01 -0.37698519560E+03  0.39734628792E+03  0.12499947305E+03 0.  0.
          5    1    4    4  502    0 -0.30795803827E+01  0.59553153261E+02 -0.25230061130E+03  0.25929471715E+03  0.47000000000E+01 0. -1.
         -5    1    4    4    0  502 -0.87563366696E+01 -0.58422831143E+02 -0.12468458430E+03  0.13805157077E+03  0.47000000000E+01 0. -1.
          5    1    3    3  503    0  0.45577375432E+02 -0.39353080441E+02 -0.67810394051E+02  0.90809149499E+02  0.47000000000E+01 0.  1.
         -5    1    3    3    0  503 -0.33741458380E+02  0.38222758323E+02  0.14225881112E+01  0.51220884650E+02  0.47000000000E+01 0.  1.
<mgrwt>
<rscale>  0 0.12556263E+03</rscale>
<asrwt>0</asrwt>
<pdfrwt beam="2">  1        5 0.75596098E-01 0.12556367E+03</pdfrwt>
<pdfrwt beam="1">  1       -5 0.73848711E-02 0.12556367E+03</pdfrwt>
<totfact> 0.14579227E+02</totfact>
</mgrwt>
</event>
<event>
 8    1  0.1821556E-007  0.1360537E+03  0.7546771E-02  0.1218741E+00
          5   -1    0    0  501    0  0.00000000000E+00  0.00000000000E+00  0.13596020236E+03  0.13604141511E+03  0.47000000000E+01 0.  1.
         -5   -1    0    0    0  501 -0.00000000000E+00 -0.00000000000E+00 -0.15995189706E+03  0.16002093418E+03  0.47000000000E+01 0.  1.
         25    2    1    2    0    0 -0.21235735013E+02  0.49329298960E+02 -0.69273793471E+02  0.15267098005E+03  0.12500093404E+03 0.  0.
         25    2    1    2    0    0  0.21235735013E+02 -0.49329298960E+02  0.45282098767E+02  0.14339136924E+03  0.12500512039E+03 0.  0.
          5    1    4    4  502    0  0.17830753361E+02  0.38630692650E+02  0.33705551097E+02  0.54483211678E+02  0.47000000000E+01 0. -1.
         -5    1    4    4    0  502  0.34049816519E+01 -0.87959991610E+02  0.11576547670E+02  0.88908157557E+02  0.47000000000E+01 0. -1.
          5    1    3    3  503    0 -0.17064763809E+02  0.65346593667E+02  0.12724673681E+02  0.68886796906E+02  0.47000000000E+01 0. -1.
         -5    1    3    3    0  503 -0.41709712037E+01 -0.16017294706E+02 -0.81998467152E+02  0.83784183148E+02  0.47000000000E+01 0. -1.
<mgrwt>
<rscale>  0 0.13605276E+03</rscale>
<asrwt>0</asrwt>
<pdfrwt beam="1">  1        5 0.20928512E-01 0.13605373E+03</pdfrwt>
<pdfrwt beam="2">  1       -5 0.24619542E-01 0.13605373E+03</pdfrwt>
<totfact> 0.24122653E+02</totfact>
</mgrwt>
</event>
<event>
 8    1  0.1821556E-007  0.1286980E+03  0.7546771E-02  0.1229409E+00
          5   -1    0    0  501    0  0.00000000000E+00  0.00000000000E+00  0.11024748319E+03  0.11034762140E+03  0.47000000000E+01 0.  1.
         -5   -1    0    0    0  501 -0.00000000000E+00 -0.00000000000E+00 -0.15722882634E+03  0.15729905859E+03  0.47000000000E+01 0.  1.
         25    2    1    2    0    0 -0.13760831076E+02  0.27271093922E+02 -0.52163285518E+02  0.13886748468E+03  0.12502038598E+03 0.  0.
         25    2    1    2    0    0  0.13760831076E+02 -0.27271093922E+02  0.51819423611E+01  0.12877919531E+03  0.12499662228E+03 0.  0.
          5    1    3    3  502    0 -0.11933859504E+02  0.14565089699E+02  0.40654062559E+02  0.45048880598E+02  0.47000000000E+01 0.  1.
         -5    1    3    3    0  502 -0.18269715720E+01  0.12706004224E+02 -0.92817348077E+02  0.93818604085E+02  0.47000000000E+01 0.  1.
          5    1    4    4  503    0  0.62256119635E+02 -0.20137462456E+02  0.31691888325E+02  0.72854702057E+02  0.47000000000E+01 0. -1.
         -5    1    4    4    0  503 -0.48495288559E+02 -0.71336314660E+01 -0.26509945964E+02  0.55924493250E+02  0.47000000000E+01 0. -1.
<mgrwt>
<rscale>  0 0.12869221E+03</rscale>
<asrwt>0</asrwt>
<pdfrwt beam="1">  1        5 0.16974257E-01 0.12869798E+03</pdfrwt>
<pdfrwt beam="2">  1       -5 0.24202156E-01 0.12869798E+03</pdfrwt>
<totfact> 0.36020209E+02</totfact>
</mgrwt>
</event>
<event>
 8    1  0.1821556E-007  0.1584967E+03  0.7546771E-02  0.1190405E+00
         -5   -1    0    0    0  501 -0.00000000000E+00  0.00000000000E+00  0.92427182726E+03  0.92428377713E+03  0.47000000000E+01 0. -1.
          5   -1    0    0  501    0  0.00000000000E+00 -0.00000000000E+00 -0.28735824089E+02  0.29117650765E+02  0.47000000000E+01 0. -1.
         25    2    1    2    0    0 -0.97022176781E+02  0.90855058424E+01  0.56531209180E+03  0.58711051206E+03  0.12500057212E+03 0.  0.
         25    2    1    2    0    0  0.97022176781E+02 -0.90855058424E+01  0.33022391137E+03  0.36629091584E+03  0.12500141671E+03 0.  0.
          5    1    4    4  502    0  0.17210271764E+02  0.50761438917E+02  0.75685082627E+02  0.92861396001E+02  0.47000000000E+01 0.  1.
         -5    1    4    4    0  502  0.79811905017E+02 -0.59846944759E+02  0.25453882875E+03  0.27342951984E+03  0.47000000000E+01 0.  1.
          5    1    3    3  503    0 -0.22014785061E+02  0.54727714318E+02  0.34253051970E+03  0.34760468984E+03  0.47000000000E+01 0. -1.
         -5    1    3    3    0  503 -0.75007391720E+02 -0.45642208476E+02  0.22278157210E+03  0.23950582222E+03  0.47000000000E+01 0. -1.
<mgrwt>
<rscale>  0 0.15849653E+03</rscale>
<asrwt>0</asrwt>
<pdfrwt beam="2">  1        5 0.44511872E-02 0.15849670E+03</pdfrwt>
<pdfrwt beam="1">  1       -5 0.14222594E+00 0.15849670E+03</pdfrwt>
<totfact> 0.77338476E+01</totfact>
</mgrwt>
</event>
<event>
 8    1  0.1821556E-007  0.1270547E+03  0.7546771E-02  0.1231900E+00
          5   -1    0    0  501    0  0.00000000000E+00  0.00000000000E+00  0.33284154142E+02  0.33614355816E+02  0.47000000000E+01 0.  1.
         -5   -1    0    0    0  501 -0.00000000000E+00 -0.00000000000E+00 -0.48287257186E+03  0.48289544485E+03  0.47000000000E+01 0.  1.
         25    2    1    2    0    0 -0.21417648559E+02 -0.66801379850E+01 -0.23448604298E+03  0.26669568982E+03  0.12505817328E+03 0.  0.
         25    2    1    2    0    0  0.21417648559E+02  0.66801379850E+01 -0.21510237474E+03  0.24981411085E+03  0.12503886774E+03 0.  0.
          5    1    3    3  502    0  0.15571643554E+02 -0.57617924526E+02 -0.14775657289E+03  0.15942520548E+03  0.47000000000E+01 0. -1.
         -5    1    3    3    0  502 -0.36989292113E+02  0.50937786541E+02 -0.86729470085E+02  0.10727048434E+03  0.47000000000E+01 0. -1.
          5    1    4    4  503    0  0.73456136015E+02  0.40521175699E+00 -0.11137783385E+03  0.13350310853E+03  0.47000000000E+01 0.  1.
         -5    1    4    4    0  503 -0.52038487456E+02  0.62749262280E+01 -0.10372454089E+03  0.11631100232E+03  0.47000000000E+01 0.  1.
<mgrwt>
<rscale>  0 0.12704991E+03</rscale>
<asrwt>0</asrwt>
<pdfrwt beam="1">  1        5 0.51477990E-02 0.12705466E+03</pdfrwt>
<pdfrwt beam="2">  1       -5 0.74315243E-01 0.12705466E+03</pdfrwt>
<totfact> 0.27922270E+02</totfact>
</mgrwt>
</event>
<event>
 8    1  0.1821556E-007  0.1286287E+03  0.7546771E-02  0.1229506E+00
         -5   -1    0    0    0  501 -0.00000000000E+00  0.00000000000E+00  0.76308283553E+02  0.76452888362E+02  0.47000000000E+01 0. -1.
          5   -1    0    0  501    0  0.00000000000E+00 -0.00000000000E+00 -0.21718970578E+03  0.21724055398E+03  0.47000000000E+01 0. -1.
         25    2    1    2    0    0  0.19097130940E+02  0.23560868116E+02 -0.61821999382E+02  0.14271089051E+03  0.12499849497E+03 0.  0.
         25    2    1    2    0    0 -0.19097130940E+02 -0.23560868116E+02 -0.79059422842E+02  0.15098255184E+03  0.12500209479E+03 0.  0.
          5    1    3    3  502    0  0.71789563321E+02  0.92437950117E+01 -0.45097166200E+02  0.85410968543E+02  0.47000000000E+01 0.  1.
         -5    1    3    3    0  502 -0.52692432381E+02  0.14317073104E+02 -0.16724833182E+02  0.57299921967E+02  0.47000000000E+01 0.  1.
          5    1    4    4  503    0  0.80035627419E+01 -0.34642046083E+02 -0.10539067893E+03  0.11132570942E+03  0.47000000000E+01 0.  1.
         -5    1    4    4    0  503 -0.27100693682E+02  0.11081177967E+02  0.26331256087E+02  0.39656842415E+02  0.47000000000E+01 0.  1.
<mgrwt>
<rscale>  0 0.12862781E+03</rscale>
<asrwt>0</asrwt>
<pdfrwt beam="2">  1        5 0.33428836E-01 0.12862869E+03</pdfrwt>
<pdfrwt beam="1">  1       -5 0.11754771E-01 0.12862869E+03</pdfrwt>
<totfact> 0.37183616E+02</totfact>
</mgrwt>
</event>
<event>
 8    1  0.1821556E-007  0.1268335E+03  0.7546771E-02  0.1232232E+00
          5   -1    0    0  501    0  0.00000000000E+00  0.00000000000E+00  0.74864038409E+03  0.74865513735E+03  0.47000000000E+01 0.  1.
         -5   -1    0    0    0  501 -0.00000000000E+00 -0.00000000000E+00 -0.23076299653E+02  0.23550065938E+02  0.47000000000E+01 0.  1.
         25    2    1    2    0    0 -0.15705408276E+02  0.14624970543E+02  0.25433250672E+03  0.28420322216E+03  0.12500359155E+03 0.  0.
         25    2    1    2    0    0  0.15705408276E+02 -0.14624970543E+02  0.47123157771E+03  0.48800198113E+03  0.12500473646E+03 0.  0.
          5    1    4    4  502    0  0.33023079538E+02  0.49781082953E+02  0.22967247255E+03  0.23736093750E+03  0.47000000000E+01 0. -1.
         -5    1    4    4    0  502 -0.17317671262E+02 -0.64406053496E+02  0.24155910517E+03  0.25064104363E+03  0.47000000000E+01 0. -1.
          5    1    3    3  503    0  0.30843741406E+01  0.68488412081E+02  0.15517756557E+03  0.16971252991E+03  0.47000000000E+01 0.  1.
         -5    1    3    3    0  503 -0.18789782416E+02 -0.53863441539E+02  0.99154941148E+02  0.11449069225E+03  0.47000000000E+01 0.  1.
<mgrwt>
<rscale>  0 0.12683321E+03</rscale>
<asrwt>0</asrwt>
<pdfrwt beam="1">  1        5 0.11521301E+00 0.12683349E+03</pdfrwt>
<pdfrwt beam="2">  1       -5 0.35877787E-02 0.12683349E+03</pdfrwt>
<totfact> 0.17738612E+02</totfact>
</mgrwt>
</event>
<event>
 8    1  0.1821556E-007  0.1291445E+03  0.7546771E-02  0.1228733E+00
         -5   -1    0    0    0  501 -0.00000000000E+00  0.00000000000E+00  0.41622630283E+03  0.41625283803E+03  0.47000000000E+01 0. -1.
          5   -1    0    0  501    0  0.00000000000E+00 -0.00000000000E+00 -0.48390069624E+02  0.48617783147E+02  0.47000000000E+01 0. -1.
         25    2    1    2    0    0 -0.26326900735E+02  0.18973910263E+02  0.28099003183E+03  0.30924698231E+03  0.12500073241E+03 0.  0.
         25    2    1    2    0    0  0.26326900735E+02 -0.18973910263E+02  0.86846201374E+02  0.15562363887E+03  0.12499335706E+03 0.  0.
          5    1    4    4  502    0  0.36996189904E+02 -0.66809536923E+02  0.35047664811E+02  0.84158547397E+02  0.47000000000E+01 0.  1.
         -5    1    4    4    0  502 -0.10669289170E+02  0.47835626660E+02  0.51798536564E+02  0.71465091474E+02  0.47000000000E+01 0.  1.
          5    1    3    3  503    0 -0.23302621915E+02  0.55703148998E+02  0.25918903791E+03  0.26617081051E+03  0.47000000000E+01 0. -1.
         -5    1    3    3    0  503 -0.30242788201E+01 -0.36729238735E+02  0.21800993924E+02  0.43076171794E+02  0.47000000000E+01 0. -1.
<mgrwt>
<rscale>  0 0.12914270E+03</rscale>
<asrwt>0</asrwt>
<pdfrwt beam="2">  1        5 0.74641834E-02 0.12914449E+03</pdfrwt>
<pdfrwt beam="1">  1       -5 0.64054375E-01 0.12914449E+03</pdfrwt>
<totfact> 0.20979792E+02</totfact>
</mgrwt>
</event>
<event>
 8    1  0.1821556E-007  0.1330899E+03  0.7546771E-02  0.1222943E+00
          5   -1    0    0  501    0  0.00000000000E+00  0.00000000000E+00  0.24556851753E+03  0.24561349067E+03  0.47000000000E+01 0. -1.
         -5   -1    0    0    0  501 -0.00000000000E+00 -0.00000000000E+00 -0.73102163254E+02  0.73253097357E+02  0.47000000000E+01 0. -1.
         25    2    1    2    0    0  0.27416620681E+02  0.36541862010E+02  0.66678131252E+02  0.14885463269E+03  0.12499899886E+03 0.  0.
         25    2    1    2    0    0 -0.27416620681E+02 -0.36541862010E+02  0.10578822302E+03  0.17001195534E+03  0.12500375219E+03 0.  0.
          5    1    4    4  502    0  0.17628179188E+02 -0.50793378356E+02  0.10981709650E+03  0.12236259506E+03  0.47000000000E+01 0.  1.
         -5    1    4    4    0  502 -0.45044799869E+02  0.14251516346E+02 -0.40288734821E+01  0.47649360278E+02  0.47000000000E+01 0.  1.
          5    1    3    3  503    0 -0.49084232188E+02  0.30328231632E+01  0.23148780946E+02  0.54556538793E+02  0.47000000000E+01 0. -1.
         -5    1    3    3    0  503  0.76500852869E+02  0.33509038847E+02  0.43529350306E+02  0.94298093895E+02  0.47000000000E+01 0. -1.
<mgrwt>
<rscale>  0 0.13308877E+03</rscale>
<asrwt>0</asrwt>
<pdfrwt beam="1">  1        5 0.37794843E-01 0.13308988E+03</pdfrwt>
<pdfrwt beam="2">  1       -5 0.11261556E-01 0.13308988E+03</pdfrwt>
<totfact> 0.31737095E+02</totfact>
</mgrwt>
</event>
<event>
 8    1  0.1821556E-007  0.1372050E+03  0.7546771E-02  0.1217143E+00
         -5   -1    0    0    0  501 -0.00000000000E+00  0.00000000000E+00  0.55973880990E+02  0.56170858576E+02  0.47000000000E+01 0.  1.
          5   -1    0    0  501    0  0.00000000000E+00 -0.00000000000E+00 -0.38492977783E+03  0.38495847031E+03  0.47000000000E+01 0.  1.
         25    2    1    2    0    0  0.56514668956E+02  0.23418050939E+01 -0.85456736157E+02  0.16163506371E+03  0.12499459271E+03 0.  0.
         25    2    1    2    0    0 -0.56514668956E+02 -0.23418050939E+01 -0.24349916069E+03  0.27949426518E+03  0.12500324457E+03 0.  0.
          5    1    4    4  502    0 -0.36452487174E+02  0.56426715560E+02 -0.80198467722E+02  0.10472173736E+03  0.47000000000E+01 0.  1.
         -5    1    4    4    0  502 -0.20062181783E+02 -0.58768520654E+02 -0.16330069296E+03  0.17477252782E+03  0.47000000000E+01 0.  1.
          5    1    3    3  503    0  0.56407027377E+02 -0.33259026481E+02 -0.10262880930E+03  0.12183053015E+03  0.47000000000E+01 0. -1.
         -5    1    3    3    0  503  0.10764157923E+00  0.35600831575E+02  0.17172073141E+02  0.39804533554E+02  0.47000000000E+01 0. -1.
<mgrwt>
<rscale>  0 0.13720300E+03</rscale>
<asrwt>0</asrwt>
<pdfrwt beam="2">  1        5 0.59237324E-01 0.13720497E+03</pdfrwt>
<pdfrwt beam="1">  1       -5 0.86287258E-02 0.13720497E+03</pdfrwt>
<totfact> 0.19839370E+02</totfact>
</mgrwt>
</event>
<event>
 8    1  0.1821556E-007  0.2171163E+03  0.7546771E-02  0.1136052E+00
         -5   -1    0    0    0  501 -0.00000000000E+00  0.00000000000E+00  0.81865515273E+02  0.82000320676E+02  0.47000000000E+01 0.  1.
          5   -1    0    0  501    0  0.00000000000E+00 -0.00000000000E+00 -0.70913142773E+03  0.70914700295E+03  0.47000000000E+01 0.  1.
         25    2    1    2    0    0 -0.15467060733E+03  0.87127218146E+02 -0.14173334237E+03  0.25928326825E+03  0.12500129575E+03 0.  0.
         25    2    1    2    0    0  0.15467060733E+03 -0.87127218146E+02 -0.48553257009E+03  0.53186405538E+03  0.12499339131E+03 0.  0.
          5    1    3    3  502    0 -0.90407027147E+02  0.35956155915E+02 -0.14754165654E+03  0.17679622768E+03  0.47000000000E+01 0.  1.
         -5    1    3    3    0  502 -0.64263580186E+02  0.51171062231E+02  0.58083141776E+01  0.82487040569E+02  0.47000000000E+01 0.  1.
          5    1    4    4  503    0  0.49972836367E+02 -0.56546367269E+02 -0.72887660551E+02  0.10502131730E+03  0.47000000000E+01 0. -1.
         -5    1    4    4    0  503  0.10469777097E+03 -0.30580850877E+02 -0.41264490954E+03  0.42684273808E+03  0.47000000000E+01 0. -1.
<mgrwt>
<rscale>  0 0.21711513E+03</rscale>
<asrwt>0</asrwt>
<pdfrwt beam="2">  1        5 0.10910871E+00 0.21711627E+03</pdfrwt>
<pdfrwt beam="1">  1       -5 0.12606263E-01 0.21711627E+03</pdfrwt>
<totfact> 0.27928373E+01</totfact>
</mgrwt>
</event>
<event>
 8    1  0.1821556E-007  0.1259689E+03  0.7546771E-02  0.1233570E+00
         -5   -1    0    0    0  501 -0.00000000000E+00  0.00000000000E+00  0.70352093376E+02  0.70508914631E+02  0.47000000000E+01 0. -1.
          5   -1    0    0  501    0  0.00000000000E+00 -0.00000000000E+00 -0.28050895888E+03  0.28054833097E+03  0.47000000000E+01 0. -1.
         25    2    1    2    0    0 -0.15225091980E+02  0.27769223895E+01 -0.27079235858E+02  0.12882856251E+03  0.12499599506E+03 0.  0.
         25    2    1    2    0    0  0.15225091980E+02 -0.27769223895E+01 -0.18307762964E+03  0.22222868309E+03  0.12501461669E+03 0.  0.
          5    1    4    4  502    0 -0.20434791444E+02 -0.50172917549E+02 -0.13563882039E+03  0.14613309671E+03  0.47000000000E+01 0. -1.
         -5    1    4    4    0  502  0.35659883423E+02  0.47395995159E+02 -0.47438809250E+02  0.76095586376E+02  0.47000000000E+01 0. -1.
          5    1    3    3  503    0 -0.44646040474E+02 -0.44239946265E+02  0.72311489775E+01  0.63441479263E+02  0.47000000000E+01 0. -1.
         -5    1    3    3    0  503  0.29420948495E+02  0.47016868655E+02 -0.34310384835E+02  0.65387083250E+02  0.47000000000E+01 0. -1.
<mgrwt>
<rscale>  0 0.12596430E+03</rscale>
<asrwt>0</asrwt>
<pdfrwt beam="2">  1        5 0.43170316E-01 0.12596892E+03</pdfrwt>
<pdfrwt beam="1">  1       -5 0.10838491E-01 0.12596892E+03</pdfrwt>
<totfact> 0.25351525E+02</totfact>
</mgrwt>
</event>
<event>
 8    1  0.1821556E-007  0.1358599E+03  0.7546771E-02  0.1219011E+00
          5   -1    0    0  501    0  0.00000000000E+00  0.00000000000E+00  0.17951076164E+02  0.18556161657E+02  0.47000000000E+01 0.  1.
         -5   -1    0    0    0  501 -0.00000000000E+00 -0.00000000000E+00 -0.10163480448E+04  0.10163589120E+04  0.47000000000E+01 0.  1.
         25    2    1    2    0    0 -0.30811166244E+02  0.43404132665E+02 -0.53818898978E+03  0.55507207723E+03  0.12499750199E+03 0.  0.
         25    2    1    2    0    0  0.30811166244E+02 -0.43404132665E+02 -0.46020797881E+03  0.47984299646E+03  0.12499868318E+03 0.  0.
          5    1    3    3  502    0  0.34577459476E+02 -0.13505831114E+02 -0.28428565899E+03  0.28673757006E+03  0.47000000000E+01 0. -1.
         -5    1    3    3    0  502 -0.65388625719E+02  0.56909963779E+02 -0.25390333079E+03  0.26833450717E+03  0.47000000000E+01 0. -1.
          5    1    4    4  503    0  0.66187389058E+02 -0.51012129977E+02 -0.19593009683E+03  0.21305797502E+03  0.47000000000E+01 0.  1.
         -5    1    4    4    0  503 -0.35376222814E+02  0.76079973122E+01 -0.26427788198E+03  0.26678502145E+03  0.47000000000E+01 0.  1.
<mgrwt>
<rscale>  0 0.13585965E+03</rscale>
<asrwt>0</asrwt>
<pdfrwt beam="1">  1        5 0.28090858E-02 0.13585992E+03</pdfrwt>
<pdfrwt beam="2">  1       -5 0.15640857E+00 0.13585992E+03</pdfrwt>
<totfact> 0.12063706E+02</totfact>
</mgrwt>
</event>
<event>
 8    1  0.1821556E-007  0.1330770E+03  0.7546771E-02  0.1222960E+00
         -5   -1    0    0    0  501 -0.00000000000E+00  0.00000000000E+00  0.33143349901E+03  0.33146682227E+03  0.47000000000E+01 0.  1.
          5   -1    0    0  501    0  0.00000000000E+00 -0.00000000000E+00 -0.70963663875E+02  0.71119136599E+02  0.47000000000E+01 0.  1.
         25    2    1    2    0    0 -0.51642278845E+01 -0.45374967297E+02  0.23052921759E+03  0.26618238260E+03  0.12499513486E+03 0.  0.
         25    2    1    2    0    0  0.51642278845E+01  0.45374967297E+02  0.29940617543E+02  0.13640357626E+03  0.12499575246E+03 0.  0.
          5    1    3    3  502    0  0.35003739787E+02  0.24121879359E+02  0.13340490027E+03  0.14009312716E+03  0.47000000000E+01 0.  1.
         -5    1    3    3    0  502 -0.40167967672E+02 -0.69496846656E+02  0.97124317320E+02  0.12608925544E+03  0.47000000000E+01 0.  1.
          5    1    4    4  503    0 -0.17128161622E+02  0.51487279860E+02 -0.36723843862E+02  0.65688999201E+02  0.47000000000E+01 0. -1.
         -5    1    4    4    0  503  0.22292389507E+02 -0.61123125634E+01  0.66664461405E+02  0.70714577063E+02  0.47000000000E+01 0. -1.
<mgrwt>
<rscale>  0 0.13307688E+03</rscale>
<asrwt>0</asrwt>
<pdfrwt beam="2">  1        5 0.10932009E-01 0.13307703E+03</pdfrwt>
<pdfrwt beam="1">  1       -5 0.51004293E-01 0.13307703E+03</pdfrwt>
<totfact> 0.17956120E+02</totfact>
</mgrwt>
</event>
<event>
 8    1  0.1821556E-007  0.1358900E+03  0.7546771E-02  0.1218971E+00
         -5   -1    0    0    0  501 -0.00000000000E+00  0.00000000000E+00  0.41984994970E+03  0.41987625590E+03  0.47000000000E+01 0. -1.
          5   -1    0    0  501    0  0.00000000000E+00 -0.00000000000E+00 -0.45984204985E+02  0.46223772110E+02  0.47000000000E+01 0. -1.
         25    2    1    2    0    0 -0.52787508609E+02 -0.73928151118E+01  0.23725592212E+03  0.27341291727E+03  0.12499230363E+03 0.  0.
         25    2    1    2    0    0  0.52787508609E+02  0.73928151118E+01  0.13660982260E+03  0.19268711074E+03  0.12499961694E+03 0.  0.
          5    1    4    4  502    0  0.92828828940E+02 -0.46507471465E+00  0.79314178654E+02  0.12218934779E+03  0.47000000000E+01 0. -1.
         -5    1    4    4    0  502 -0.40041320332E+02  0.78578898265E+01  0.57295643942E+02  0.70497762951E+02  0.47000000000E+01 0. -1.
          5    1    3    3  503    0  0.10836946985E+02  0.19742233373E+02 -0.31401432725E+01  0.23219511155E+02  0.47000000000E+01 0.  1.
         -5    1    3    3    0  503 -0.63624455593E+02 -0.27135048485E+02  0.24039606539E+03  0.25019340611E+03  0.47000000000E+01 0.  1.
<mgrwt>
<rscale>  0 0.13588827E+03</rscale>
<asrwt>0</asrwt>
<pdfrwt beam="2">  1        5 0.70949449E-02 0.13588995E+03</pdfrwt>
<pdfrwt beam="1">  1       -5 0.64612752E-01 0.13588995E+03</pdfrwt>
<totfact> 0.22835265E+02</totfact>
</mgrwt>
</event>
<event>
 8    1  0.1821556E-007  0.1296780E+03  0.7546771E-02  0.1227936E+00
         -5   -1    0    0    0  501 -0.00000000000E+00  0.00000000000E+00  0.18907237876E+02  0.19482649822E+02  0.47000000000E+01 0.  1.
          5   -1    0    0  501    0  0.00000000000E+00 -0.00000000000E+00 -0.87583865511E+03  0.87585126579E+03  0.47000000000E+01 0.  1.
         25    2    1    2    0    0 -0.34421732892E+02  0.22839246901E+01 -0.43765034354E+03  0.45645692221E+03  0.12500010649E+03 0.  0.
         25    2    1    2    0    0  0.34421732892E+02 -0.22839246901E+01 -0.41928107370E+03  0.43887699341E+03  0.12500529818E+03 0.  0.
          5    1    3    3  502    0 -0.30473460198E+02  0.13557781990E+01 -0.16006428879E+02  0.34767307581E+02  0.47000000000E+01 0. -1.
         -5    1    3    3    0  502 -0.39482726937E+01  0.92814649107E+00 -0.42164391466E+03  0.42168961463E+03  0.47000000000E+01 0. -1.
          5    1    4    4  503    0 -0.17511873892E+02 -0.20416095440E+02 -0.15618412934E+02  0.31456438177E+02  0.47000000000E+01 0.  1.
         -5    1    4    4    0  503  0.51933606783E+02  0.18132170750E+02 -0.40366266076E+03  0.40742055523E+03  0.47000000000E+01 0.  1.
<mgrwt>
<rscale>  0 0.12967680E+03</rscale>
<asrwt>0</asrwt>
<pdfrwt beam="2">  1        5 0.13478961E+00 0.12967805E+03</pdfrwt>
<pdfrwt beam="1">  1       -5 0.29540390E-02 0.12967805E+03</pdfrwt>
<totfact> 0.16366337E+02</totfact>
</mgrwt>
</event>
<event>
 8    1  0.1821556E-007  0.1393601E+03  0.7546771E-02  0.1214193E+00
         -5   -1    0    0    0  501 -0.00000000000E+00  0.00000000000E+00  0.61301074026E+03  0.61302875762E+03  0.47000000000E+01 0. -1.
          5   -1    0    0  501    0  0.00000000000E+00 -0.00000000000E+00 -0.31558395383E+02  0.31906462028E+02  0.47000000000E+01 0. -1.
         25    2    1    2    0    0 -0.23429579207E+02 -0.56981007995E+02  0.27563687514E+03  0.30886391730E+03  0.12500180805E+03 0.  0.
         25    2    1    2    0    0  0.23429579207E+02  0.56981007995E+02  0.30581546973E+03  0.33607130235E+03  0.12500015313E+03 0.  0.
          5    1    3    3  502    0  0.45277411653E+02  0.33716690782E+01  0.11857748218E+03  0.12705951928E+03  0.47000000000E+01 0.  1.
         -5    1    3    3    0  502 -0.68706990860E+02 -0.60352677074E+02  0.15705939296E+03  0.18180439802E+03  0.47000000000E+01 0.  1.
          5    1    4    4  503    0  0.54145066409E+02  0.47729975304E+02  0.29200717748E+03  0.30083237934E+03  0.47000000000E+01 0.  1.
         -5    1    4    4    0  503 -0.30715487202E+02  0.92510326911E+01  0.13808292248E+02  0.35238923007E+02  0.47000000000E+01 0.  1.
<mgrwt>
<rscale>  0 0.13935971E+03</rscale>
<asrwt>0</asrwt>
<pdfrwt beam="2">  1        5 0.48832982E-02 0.13936008E+03</pdfrwt>
<pdfrwt beam="1">  1       -5 0.94337502E-01 0.13936008E+03</pdfrwt>
<totfact> 0.18026243E+02</totfact>
</mgrwt>
</event>
<event>
 8    1  0.1821556E-007  0.1919618E+03  0.7546771E-02  0.1156704E+00
          5   -1    0    0  501    0  0.00000000000E+00  0.00000000000E+00  0.14903257401E+03  0.14910666691E+03  0.47000000000E+01 0. -1.
         -5   -1    0    0    0  501 -0.00000000000E+00 -0.00000000000E+00 -0.33606992520E+03  0.33610278878E+03  0.47000000000E+01 0. -1.
         25    2    1    2    0    0 -0.84676396652E+02 -0.11854990670E+03 -0.21832477241E+03  0.29071461046E+03  0.12500042382E+03 0.  0.
         25    2    1    2    0    0  0.84676396652E+02  0.11854990670E+03  0.31287421219E+02  0.19449484523E+03  0.12500067826E+03 0.  0.
          5    1    3    3  502    0  0.30535225615E+02 -0.23511701030E+02 -0.70733728276E+02  0.80687981785E+02  0.47000000000E+01 0. -1.
         -5    1    3    3    0  502 -0.11521162227E+03 -0.95038205669E+02 -0.14759104414E+03  0.21002662867E+03  0.47000000000E+01 0. -1.
          5    1    4    4  503    0  0.71886478287E+02  0.62583375950E+02 -0.39459435594E+02  0.10326413590E+03  0.47000000000E+01 0. -1.
         -5    1    4    4    0  503  0.12789918365E+02  0.55966530749E+02  0.70746856813E+02  0.91230709330E+02  0.47000000000E+01 0. -1.
<mgrwt>
<rscale>  0 0.19196178E+03</rscale>
<asrwt>0</asrwt>
<pdfrwt beam="1">  1        5 0.22936316E-01 0.19196182E+03</pdfrwt>
<pdfrwt beam="2">  1       -5 0.51711293E-01 0.19196182E+03</pdfrwt>
<totfact> 0.50323661E+01</totfact>
</mgrwt>
</event>
<event>
 8    1  0.1821556E-007  0.1279656E+03  0.7546771E-02  0.1230506E+00
         -5   -1    0    0    0  501 -0.00000000000E+00  0.00000000000E+00  0.20697550100E+03  0.20702885793E+03  0.47000000000E+01 0. -1.
          5   -1    0    0  501    0  0.00000000000E+00 -0.00000000000E+00 -0.79033148015E+02  0.79172776162E+02  0.47000000000E+01 0. -1.
         25    2    1    2    0    0 -0.23762895270E+02  0.13618838710E+02  0.67587179293E+02  0.14471771590E+03  0.12500017012E+03 0.  0.
         25    2    1    2    0    0  0.23762895270E+02 -0.13618838710E+02  0.60355173695E+02  0.14148391819E+03  0.12499921662E+03 0.  0.
          5    1    3    3  502    0 -0.22851360559E+02 -0.20342602869E+02 -0.28880749394E+02  0.42334310629E+02  0.47000000000E+01 0.  1.
         -5    1    3    3    0  502 -0.91153471173E+00  0.33961441579E+02  0.96467928687E+02  0.10238340527E+03  0.47000000000E+01 0.  1.
          5    1    4    4  503    0 -0.45740716070E+02 -0.18980214162E+02  0.91682322401E+00  0.49753313468E+02  0.47000000000E+01 0.  1.
         -5    1    4    4    0  503  0.69503611341E+02  0.53613754515E+01  0.59438350471E+02  0.91730604723E+02  0.47000000000E+01 0.  1.
<mgrwt>
<rscale>  0 0.12796535E+03</rscale>
<asrwt>0</asrwt>
<pdfrwt beam="2">  1        5 0.12173791E-01 0.12796558E+03</pdfrwt>
<pdfrwt beam="1">  1       -5 0.31857230E-01 0.12796558E+03</pdfrwt>
<totfact> 0.38376280E+02</totfact>
</mgrwt>
</event>
<event>
 8    1  0.1821556E-007  0.2348062E+03  0.7546771E-02  0.1123302E+00
         -5   -1    0    0    0  501 -0.00000000000E+00  0.00000000000E+00  0.32880165725E+03  0.32883524722E+03  0.47000000000E+01 0. -1.
          5   -1    0    0  501    0  0.00000000000E+00 -0.00000000000E+00 -0.18129279967E+03  0.18135371298E+03  0.47000000000E+01 0. -1.
         25    2    1    2    0    0  0.17574041511E+03  0.92867068662E+02  0.14382841800E+03  0.27535535373E+03  0.12499988423E+03 0.  0.
         25    2    1    2    0    0 -0.17574041511E+03 -0.92867068662E+02  0.36804395864E+01  0.23483360647E+03  0.12499716456E+03 0.  0.
          5    1    3    3  502    0  0.15907095389E+03  0.11935140378E+03  0.14049656069E+03  0.24353582801E+03  0.47000000000E+01 0.  1.
         -5    1    3    3    0  502  0.16669461218E+02 -0.26484335118E+02  0.33318573072E+01  0.31819525720E+02  0.47000000000E+01 0.  1.
          5    1    4    4  503    0 -0.20350297528E+02  0.29450783741E+02 -0.68156686510E+01  0.36742708278E+02  0.47000000000E+01 0.  1.
         -5    1    4    4    0  503 -0.15539011758E+03 -0.12231785240E+03  0.10496108237E+02  0.19809089819E+03  0.47000000000E+01 0.  1.
<mgrwt>
<rscale>  0 0.23480585E+03</rscale>
<asrwt>0</asrwt>
<pdfrwt beam="2">  1        5 0.27898470E-01 0.23480621E+03</pdfrwt>
<pdfrwt beam="1">  1       -5 0.50592140E-01 0.23480621E+03</pdfrwt>
<totfact> 0.38004703E+01</totfact>
</mgrwt>
</event>
<event>
 8    1  0.1821556E-007  0.1506939E+03  0.7546771E-02  0.1199624E+00
          5   -1    0    0  501    0  0.00000000000E+00  0.00000000000E+00  0.91788767857E+02  0.91909019713E+02  0.47000000000E+01 0. -1.
         -5   -1    0    0    0  501 -0.00000000000E+00 -0.00000000000E+00 -0.25437776898E+03  0.25442118495E+03  0.47000000000E+01 0. -1.
         25    2    1    2    0    0  0.66303425058E+02  0.51837861108E+02 -0.11058900553E+03  0.18691864001E+03  0.12500136727E+03 0.  0.
         25    2    1    2    0    0 -0.66303425058E+02 -0.51837861108E+02 -0.51999995586E+02  0.15941156465E+03  0.12499895753E+03 0.  0.
          5    1    3    3  502    0 -0.17269900290E+02 -0.10008623737E+02 -0.73699771260E+02  0.76499465938E+02  0.47000000000E+01 0. -1.
         -5    1    3    3    0  502  0.83573325348E+02  0.61846484845E+02 -0.36889234274E+02  0.11041917407E+03  0.47000000000E+01 0. -1.
          5    1    4    4  503    0 -0.46965115177E+02  0.34831900639E+02 -0.51145759066E+01  0.58883208408E+02  0.47000000000E+01 0. -1.
         -5    1    4    4    0  503 -0.19338309881E+02 -0.86669761746E+02 -0.46885419680E+02  0.10052835624E+03  0.47000000000E+01 0. -1.
<mgrwt>
<rscale>  0 0.15069339E+03</rscale>
<asrwt>0</asrwt>
<pdfrwt beam="1">  1        5 0.14133939E-01 0.15069389E+03</pdfrwt>
<pdfrwt beam="2">  1       -5 0.39147631E-01 0.15069389E+03</pdfrwt>
<totfact> 0.20555101E+02</totfact>
</mgrwt>
</event>
<event>
 8    1  0.1821556E-007  0.1457032E+03  0.7546771E-02  0.1205855E+00
          5   -1    0    0  501    0  0.00000000000E+00  0.00000000000E+00  0.32178771220E+03  0.32182203424E+03  0.47000000000E+01 0. -1.
         -5   -1    0    0    0  501 -0.00000000000E+00 -0.00000000000E+00 -0.65890095242E+02  0.66057510179E+02  0.47000000000E+01 0. -1.
         25    2    1    2    0    0 -0.56149080797E+02 -0.49516203436E+02  0.13268647913E+03  0.19706631075E+03  0.12499942165E+03 0.  0.
         25    2    1    2    0    0  0.56149080797E+02  0.49516203436E+02  0.12321113783E+03  0.19081323367E+03  0.12499652787E+03 0.  0.
          5    1    4    4  502    0  0.45356057041E+01 -0.30088306944E+02 -0.50577547699E+01  0.31201743817E+02  0.47000000000E+01 0.  1.
         -5    1    4    4    0  502  0.51613475093E+02  0.79604510380E+02  0.12826889260E+03  0.15961148985E+03  0.47000000000E+01 0.  1.
          5    1    3    3  503    0  0.19016963779E+02 -0.70016677570E+01  0.10383231544E+03  0.10589574114E+03  0.47000000000E+01 0. -1.
         -5    1    3    3    0  503 -0.75166044576E+02 -0.42514535679E+02  0.28854163695E+02  0.91170569614E+02  0.47000000000E+01 0. -1.
<mgrwt>
<rscale>  0 0.14570260E+03</rscale>
<asrwt>0</asrwt>
<pdfrwt beam="1">  1        5 0.49521321E-01 0.14570322E+03</pdfrwt>
<pdfrwt beam="2">  1       -5 0.10152456E-01 0.14570322E+03</pdfrwt>
<totfact> 0.22431175E+02</totfact>
</mgrwt>
</event>
<event>
 8    1  0.1821556E-007  0.1936771E+03  0.7546771E-02  0.1155194E+00
         -5   -1    0    0    0  501 -0.00000000000E+00  0.00000000000E+00  0.18173976328E+04  0.18174037102E+04  0.47000000000E+01 0.  1.
          5   -1    0    0  501    0  0.00000000000E+00 -0.00000000000E+00 -0.20422824575E+02  0.20956663943E+02  0.47000000000E+01 0.  1.
         25    2    1    2    0    0  0.89846780772E+02 -0.11752241544E+03  0.94806775440E+03  0.96764833410E+03  0.12500747745E+03 0.  0.
         25    2    1    2    0    0 -0.89846780772E+02  0.11752241544E+03  0.84890705383E+03  0.87071204001E+03  0.12494922336E+03 0.  0.
          5    1    4    4  502    0 -0.97492222882E+02  0.73615910881E+02  0.36916990795E+03  0.38888629031E+03  0.47000000000E+01 0.  1.
         -5    1    4    4    0  502  0.76454421104E+01  0.43906504561E+02  0.47973714588E+03  0.48182574969E+03  0.47000000000E+01 0.  1.
          5    1    3    3  503    0  0.11008158929E+01 -0.74120912178E+02  0.20527869119E+03  0.21830380775E+03  0.47000000000E+01 0.  1.
         -5    1    3    3    0  503  0.88745964879E+02 -0.43401503265E+02  0.74278906320E+03  0.74934452636E+03  0.47000000000E+01 0.  1.
<mgrwt>
<rscale>  0 0.19366773E+03</rscale>
<asrwt>0</asrwt>
<pdfrwt beam="2">  1        5 0.31835050E-02 0.19367713E+03</pdfrwt>
<pdfrwt beam="1">  1       -5 0.27964117E+00 0.19367713E+03</pdfrwt>
<totfact> 0.15994733E+01</totfact>
</mgrwt>
</event>
<event>
 8    1  0.1821556E-007  0.1511860E+03  0.7546771E-02  0.1199025E+00
         -5   -1    0    0    0  501 -0.00000000000E+00  0.00000000000E+00  0.70699396003E+02  0.70855448592E+02  0.47000000000E+01 0. -1.
          5   -1    0    0  501    0  0.00000000000E+00 -0.00000000000E+00 -0.34207445907E+03  0.34210674584E+03  0.47000000000E+01 0. -1.
         25    2    1    2    0    0 -0.25157035661E+02 -0.81237448266E+02 -0.86636480087E+02  0.17425005058E+03  0.12499920400E+03 0.  0.
         25    2    1    2    0    0  0.25157035661E+02  0.81237448266E+02 -0.18473858298E+03  0.23871214385E+03  0.12499097622E+03 0.  0.
          5    1    4    4  502    0 -0.80392559289E+01 -0.14491632718E+02  0.94364980877E+01  0.19641144337E+02  0.47000000000E+01 0.  1.
         -5    1    4    4    0  502  0.33196291589E+02  0.95729080984E+02 -0.19417508106E+03  0.21907099951E+03  0.47000000000E+01 0.  1.
          5    1    3    3  503    0 -0.41096016469E+02 -0.95079543802E+02 -0.21871126039E+02  0.10596904441E+03  0.47000000000E+01 0. -1.
         -5    1    3    3    0  503  0.15938980809E+02  0.13842095535E+02 -0.64765354048E+02  0.68281006166E+02  0.47000000000E+01 0. -1.
<mgrwt>
<rscale>  0 0.15118428E+03</rscale>
<asrwt>0</asrwt>
<pdfrwt beam="2">  1        5 0.52641326E-01 0.15118598E+03</pdfrwt>
<pdfrwt beam="1">  1       -5 0.10891318E-01 0.15118598E+03</pdfrwt>
<totfact> 0.17622803E+02</totfact>
</mgrwt>
</event>
<event>
 8    1  0.1821556E-007  0.1700824E+03  0.7546771E-02  0.1177763E+00
         -5   -1    0    0    0  501 -0.00000000000E+00  0.00000000000E+00  0.19380455566E+03  0.19386153769E+03  0.47000000000E+01 0.  1.
          5   -1    0    0  501    0  0.00000000000E+00 -0.00000000000E+00 -0.14920189084E+03  0.14927589970E+03  0.47000000000E+01 0.  1.
         25    2    1    2    0    0 -0.51486974294E+02 -0.10319972118E+03  0.25699855105E+02  0.17200779652E+03  0.12500043415E+03 0.  0.
         25    2    1    2    0    0  0.51486974294E+02  0.10319972118E+03  0.18902809714E+02  0.17112964087E+03  0.12500778693E+03 0.  0.
          5    1    4    4  502    0 -0.69985117707E+01  0.11032418191E+03  0.17399598348E+02  0.11200553694E+03  0.47000000000E+01 0. -1.
         -5    1    4    4    0  502  0.58485486064E+02 -0.71244607341E+01  0.15032113663E+01  0.59124103928E+02  0.47000000000E+01 0. -1.
          5    1    3    3  503    0 -0.47342004205E+02 -0.31731052261E+02  0.67900741133E+02  0.88773451471E+02  0.47000000000E+01 0. -1.
         -5    1    3    3    0  503 -0.41449700886E+01 -0.71468668919E+02 -0.42200886028E+02  0.83234345049E+02  0.47000000000E+01 0. -1.
<mgrwt>
<rscale>  0 0.17008109E+03</rscale>
<asrwt>0</asrwt>
<pdfrwt beam="2">  1        5 0.22964213E-01 0.17008244E+03</pdfrwt>
<pdfrwt beam="1">  1       -5 0.29826162E-01 0.17008244E+03</pdfrwt>
<totfact> 0.14997325E+02</totfact>
</mgrwt>
</event>
<event>
 8    1  0.1821556E-007  0.1403570E+03  0.7546771E-02  0.1212850E+00
         -5   -1    0    0    0  501 -0.00000000000E+00  0.00000000000E+00  0.24394974260E+02  0.24843606203E+02  0.47000000000E+01 0. -1.
          5   -1    0    0  501    0  0.00000000000E+00 -0.00000000000E+00 -0.84693418741E+03  0.84694722847E+03  0.47000000000E+01 0. -1.
         25    2    1    2    0    0 -0.54229985719E+02 -0.33681571375E+02 -0.30837170671E+03  0.33881025203E+03  0.12499575105E+03 0.  0.
         25    2    1    2    0    0  0.54229985719E+02  0.33681571375E+02 -0.51416750645E+03  0.53298058264E+03  0.12499894875E+03 0.  0.
          5    1    3    3  502    0 -0.38732194717E+02  0.25087040066E+02 -0.25049081610E+03  0.25474944835E+03  0.47000000000E+01 0. -1.
         -5    1    3    3    0  502 -0.15497791002E+02 -0.58768611442E+02 -0.57880890607E+02  0.84060803674E+02  0.47000000000E+01 0. -1.
          5    1    4    4  503    0  0.61693237504E+02  0.52125663070E+02 -0.17065983026E+03  0.18886505227E+03  0.47000000000E+01 0. -1.
         -5    1    4    4    0  503 -0.74632517847E+01 -0.18444091695E+02 -0.34350767618E+03  0.34411553037E+03  0.47000000000E+01 0. -1.
<mgrwt>
<rscale>  0 0.14035625E+03</rscale>
<asrwt>0</asrwt>
<pdfrwt beam="2">  1        5 0.13033306E+00 0.14035696E+03</pdfrwt>
<pdfrwt beam="1">  1       -5 0.37885869E-02 0.14035696E+03</pdfrwt>
<totfact> 0.12239780E+02</totfact>
</mgrwt>
</event>
<event>
 8    1  0.1821556E-007  0.1999464E+03  0.7546771E-02  0.1149791E+00
          5   -1    0    0  501    0  0.00000000000E+00  0.00000000000E+00  0.61224154803E+02  0.61404292451E+02  0.47000000000E+01 0. -1.
         -5   -1    0    0    0  501 -0.00000000000E+00 -0.00000000000E+00 -0.11009619980E+04  0.11009720301E+04  0.47000000000E+01 0. -1.
         25    2    1    2    0    0  0.67786707899E+02  0.14056189202E+03 -0.89110781230E+03  0.91326431384E+03  0.12500356216E+03 0.  0.
         25    2    1    2    0    0 -0.67786707899E+02 -0.14056189202E+03 -0.14863003086E+03  0.24911200866E+03  0.12495288523E+03 0.  0.
          5    1    4    4  502    0 -0.21512947144E+02 -0.21116276513E+02 -0.11159042586E+03  0.11568585554E+03  0.47000000000E+01 0.  1.
         -5    1    4    4    0  502 -0.46273760756E+02 -0.11944561550E+03 -0.37039605005E+02  0.13342615312E+03  0.47000000000E+01 0.  1.
          5    1    3    3  503    0  0.21069549916E+02  0.13309435971E+02 -0.21812376703E+02  0.33450512657E+02  0.47000000000E+01 0.  1.
         -5    1    3    3    0  503  0.46717157983E+02  0.12725245604E+03 -0.86929543559E+03  0.87981380119E+03  0.47000000000E+01 0.  1.
<mgrwt>
<rscale>  0 0.19993851E+03</rscale>
<asrwt>0</asrwt>
<pdfrwt beam="1">  1        5 0.94337300E-02 0.19994643E+03</pdfrwt>
<pdfrwt beam="2">  1       -5 0.16939338E+00 0.19994643E+03</pdfrwt>
<totfact> 0.14078198E+01</totfact>
</mgrwt>
</event>
<event>
 8    1  0.1821556E-007  0.1439610E+03  0.7546771E-02  0.1208096E+00
          5   -1    0    0  501    0  0.00000000000E+00  0.00000000000E+00  0.57743271300E+02  0.57934233234E+02  0.47000000000E+01 0.  1.
         -5   -1    0    0    0  501 -0.00000000000E+00 -0.00000000000E+00 -0.37370339745E+03  0.37373295181E+03  0.47000000000E+01 0.  1.
         25    2    1    2    0    0  0.27948466673E+02 -0.65714604491E+02 -0.20205239515E+03  0.24809261572E+03  0.12500099823E+03 0.  0.
         25    2    1    2    0    0 -0.27948466673E+02  0.65714604491E+02 -0.11390773101E+03  0.18357456933E+03  0.12500050115E+03 0.  0.
          5    1    3    3  502    0 -0.26957745012E+02 -0.13519902680E+02  0.17930624247E+01  0.30574709442E+02  0.47000000000E+01 0. -1.
         -5    1    3    3    0  502  0.54906211686E+02 -0.52194701810E+02 -0.20384545757E+03  0.21751790628E+03  0.47000000000E+01 0. -1.
          5    1    4    4  503    0 -0.22758422942E+02  0.10269337629E+03 -0.93223937792E+02  0.14062954144E+03  0.47000000000E+01 0. -1.
         -5    1    4    4    0  503 -0.51900437313E+01 -0.36978771802E+02 -0.20683793216E+02  0.42945027882E+02  0.47000000000E+01 0. -1.
<mgrwt>
<rscale>  0 0.14396091E+03</rscale>
<asrwt>0</asrwt>
<pdfrwt beam="1">  1        5 0.89005432E-02 0.14396102E+03</pdfrwt>
<pdfrwt beam="2">  1       -5 0.57509792E-01 0.14396102E+03</pdfrwt>
<totfact> 0.20380015E+02</totfact>
</mgrwt>
</event>
<event>
 8    1  0.1821556E-007  0.2067136E+03  0.7546771E-02  0.1144195E+00
          5   -1    0    0  501    0  0.00000000000E+00  0.00000000000E+00  0.16658601220E+04  0.16658667522E+04  0.47000000000E+01 0.  1.
         -5   -1    0    0    0  501 -0.00000000000E+00 -0.00000000000E+00 -0.29471488690E+02  0.29843904664E+02  0.47000000000E+01 0.  1.
         25    2    1    2    0    0 -0.22072295984E+02  0.16314813179E+03  0.50631749363E+03  0.54688896323E+03  0.12500253833E+03 0.  0.
         25    2    1    2    0    0  0.22072295984E+02 -0.16314813179E+03  0.11300711397E+04  0.11488216936E+04  0.12500401539E+03 0.  0.
          5    1    3    3  502    0 -0.47974751737E+02  0.16253531595E+03  0.35628985203E+03  0.39456793382E+03  0.47000000000E+01 0. -1.
         -5    1    3    3    0  502  0.25902455753E+02  0.61281583644E+00  0.15002764160E+03  0.15232102942E+03  0.47000000000E+01 0. -1.
          5    1    4    4  503    0  0.58929532150E+02 -0.80897151322E+02  0.81314726367E+03  0.81929701652E+03  0.47000000000E+01 0.  1.
         -5    1    4    4    0  503 -0.36857236166E+02 -0.82250980468E+02  0.31692387602E+03  0.32952467713E+03  0.47000000000E+01 0.  1.
<mgrwt>
<rscale>  0 0.20671335E+03</rscale>
<asrwt>0</asrwt>
<pdfrwt beam="1">  1        5 0.25631528E+00 0.20671358E+03</pdfrwt>
<pdfrwt beam="2">  1       -5 0.45632334E-02 0.20671358E+03</pdfrwt>
<totfact> 0.12616346E+01</totfact>
</mgrwt>
</event>
<event>
 8    1  0.1821556E-007  0.1317849E+03  0.7546771E-02  0.1224855E+00
          5   -1    0    0  501    0  0.00000000000E+00  0.00000000000E+00  0.70561665722E+03  0.70563231002E+03  0.47000000000E+01 0. -1.
         -5   -1    0    0    0  501 -0.00000000000E+00 -0.00000000000E+00 -0.52604292408E+02  0.52813838903E+02  0.47000000000E+01 0. -1.
         25    2    1    2    0    0  0.17829270727E+02  0.37786574638E+02  0.49576197893E+02  0.14080152693E+03  0.12498624912E+03 0.  0.
         25    2    1    2    0    0 -0.17829270727E+02 -0.37786574638E+02  0.60343616692E+03  0.61764462200E+03  0.12491582534E+03 0.  0.
          5    1    4    4  502    0  0.31254741761E+02  0.10226886428E+02  0.50530675104E+02  0.60472202002E+02  0.47000000000E+01 0.  1.
         -5    1    4    4    0  502 -0.49084012488E+02 -0.48013461066E+02  0.55290549181E+03  0.55717241999E+03  0.47000000000E+01 0.  1.
          5    1    3    3  503    0 -0.53791582627E+02  0.13417034528E+02  0.26053581915E+02  0.61436392371E+02  0.47000000000E+01 0.  1.
         -5    1    3    3    0  503  0.71620853354E+02  0.24369540110E+02  0.23522615978E+02  0.79365134554E+02  0.47000000000E+01 0.  1.
<mgrwt>
<rscale>  0 0.13176824E+03</rscale>
<asrwt>0</asrwt>
<pdfrwt beam="1">  1        5 0.10857374E+00 0.13178494E+03</pdfrwt>
<pdfrwt beam="2">  1       -5 0.81102908E-02 0.13178494E+03</pdfrwt>
<totfact> 0.53422190E+01</totfact>
</mgrwt>
</event>
<event>
 8    1  0.1821556E-007  0.2094329E+03  0.7546771E-02  0.1142017E+00
         -5   -1    0    0    0  501 -0.00000000000E+00  0.00000000000E+00  0.32096415096E+03  0.32099856106E+03  0.47000000000E+01 0. -1.
          5   -1    0    0  501    0  0.00000000000E+00 -0.00000000000E+00 -0.21011146762E+03  0.21016402838E+03  0.47000000000E+01 0. -1.
         25    2    1    2    0    0  0.16801461100E+03  0.29636405398E+01  0.21251192348E+03  0.29836800647E+03  0.12499782795E+03 0.  0.
         25    2    1    2    0    0 -0.16801461100E+03 -0.29636405398E+01 -0.10165924014E+03  0.23279458297E+03  0.12498409531E+03 0.  0.
          5    1    3    3  502    0  0.20866806267E+01  0.92974222350E+00  0.94606538609E+02  0.94750756219E+02  0.47000000000E+01 0. -1.
         -5    1    3    3    0  502  0.16592793037E+03  0.20338983163E+01  0.11790538487E+03  0.20361725025E+03  0.47000000000E+01 0. -1.
          5    1    4    4  503    0 -0.11725080713E+03 -0.49298390254E+02 -0.24969721165E+02  0.12970605240E+03  0.47000000000E+01 0. -1.
         -5    1    4    4    0  503 -0.50763803865E+02  0.46334749714E+02 -0.76689518974E+02  0.10308853057E+03  0.47000000000E+01 0. -1.
<mgrwt>
<rscale>  0 0.20943088E+03</rscale>
<asrwt>0</asrwt>
<pdfrwt beam="2">  1        5 0.32331531E-01 0.20943292E+03</pdfrwt>
<pdfrwt beam="1">  1       -5 0.49385790E-01 0.20943292E+03</pdfrwt>
<totfact> 0.29055737E+01</totfact>
</mgrwt>
</event>
<event>
 8    1  0.1821556E-007  0.1351992E+03  0.7546771E-02  0.1219940E+00
          5   -1    0    0  501    0  0.00000000000E+00  0.00000000000E+00  0.13418604112E+03  0.13426832698E+03  0.47000000000E+01 0. -1.
         -5   -1    0    0    0  501 -0.00000000000E+00 -0.00000000000E+00 -0.14421578559E+03  0.14429235189E+03  0.47000000000E+01 0. -1.
         25    2    1    2    0    0  0.68083661415E+01 -0.51065680532E+02 -0.38134945913E+02  0.14047112249E+03  0.12499521821E+03 0.  0.
         25    2    1    2    0    0 -0.68083661415E+01  0.51065680532E+02  0.28105201441E+02  0.13808955639E+03  0.12499906263E+03 0.  0.
          5    1    3    3  502    0  0.12206577535E+02 -0.50007485327E+02 -0.81498405697E+02  0.96508182322E+02  0.47000000000E+01 0.  1.
         -5    1    3    3    0  502 -0.53982113936E+01 -0.10581952051E+01  0.43363459784E+02  0.43962940163E+02  0.47000000000E+01 0.  1.
          5    1    4    4  503    0  0.38343506464E+02  0.72412313629E+02  0.33276804971E+01  0.82139704836E+02  0.47000000000E+01 0.  1.
         -5    1    4    4    0  503 -0.45151872606E+02 -0.21346633097E+02  0.24777520944E+02  0.55949851551E+02  0.47000000000E+01 0.  1.
<mgrwt>
<rscale>  0 0.13519831E+03</rscale>
<asrwt>0</asrwt>
<pdfrwt beam="1">  1        5 0.20656226E-01 0.13519920E+03</pdfrwt>
<pdfrwt beam="2">  1       -5 0.22199263E-01 0.13519920E+03</pdfrwt>
<totfact> 0.30028700E+02</totfact>
</mgrwt>
</event>
<event>
 8    1  0.1821556E-007  0.2198455E+03  0.7546771E-02  0.1134001E+00
          5   -1    0    0  501    0  0.00000000000E+00  0.00000000000E+00  0.62256136725E+02  0.62433296885E+02  0.47000000000E+01 0.  1.
         -5   -1    0    0    0  501 -0.00000000000E+00 -0.00000000000E+00 -0.77592581719E+03  0.77594005167E+03  0.47000000000E+01 0.  1.
         25    2    1    2    0    0 -0.91266768146E+02 -0.15612344088E+03 -0.37122044493E+03  0.43142922917E+03  0.12498963671E+03 0.  0.
         25    2    1    2    0    0  0.91266768146E+02  0.15612344088E+03 -0.34244923554E+03  0.40694411939E+03  0.12501154197E+03 0.  0.
          5    1    4    4  502    0 -0.22753289638E+02  0.18740621310E+02 -0.13762580769E+02  0.32869768874E+02  0.47000000000E+01 0. -1.
         -5    1    4    4    0  502  0.11402005778E+03  0.13738281957E+03 -0.32868665477E+03  0.37407435052E+03  0.47000000000E+01 0. -1.
          5    1    3    3  503    0 -0.83589131726E+01 -0.10521709732E+03 -0.27463988544E+03  0.29426122014E+03  0.47000000000E+01 0.  1.
         -5    1    3    3    0  503 -0.82907854974E+02 -0.50906343559E+02 -0.96580559487E+02  0.13716800903E+03  0.47000000000E+01 0.  1.
<mgrwt>
<rscale>  0 0.21984237E+03</rscale>
<asrwt>0</asrwt>
<pdfrwt beam="1">  1        5 0.95925904E-02 0.21984549E+03</pdfrwt>
<pdfrwt beam="2">  1       -5 0.11938792E+00 0.21984549E+03</pdfrwt>
<totfact> 0.36195443E+01</totfact>
</mgrwt>
</event>
<event>
 8    1  0.1821556E-007  0.1824971E+03  0.7546771E-02  0.1165409E+00
          5   -1    0    0  501    0  0.00000000000E+00  0.00000000000E+00  0.74569212896E+03  0.74570694056E+03  0.47000000000E+01 0. -1.
         -5   -1    0    0    0  501 -0.00000000000E+00 -0.00000000000E+00 -0.47318480816E+02  0.47551326235E+02  0.47000000000E+01 0. -1.
         25    2    1    2    0    0 -0.68962588267E+01  0.13278702670E+03  0.25304868132E+03  0.31199168392E+03  0.12500089148E+03 0.  0.
         25    2    1    2    0    0  0.68962588267E+01 -0.13278702670E+03  0.44532496682E+03  0.48126658287E+03  0.12499297927E+03 0.  0.
          5    1    4    4  502    0 -0.62465300190E+01 -0.22444280577E+02  0.16063520890E+01  0.23820899121E+02  0.47000000000E+01 0.  1.
         -5    1    4    4    0  502  0.13142788846E+02 -0.11034274612E+03  0.44371861473E+03  0.45744568375E+03  0.47000000000E+01 0.  1.
          5    1    3    3  503    0  0.49672280050E+01  0.13637655130E+03  0.13100115861E+03  0.18922640053E+03  0.47000000000E+01 0.  1.
         -5    1    3    3    0  503 -0.11863486832E+02 -0.35895246024E+01  0.12204752271E+03  0.12276528339E+03  0.47000000000E+01 0.  1.
<mgrwt>
<rscale>  0 0.18249570E+03</rscale>
<asrwt>0</asrwt>
<pdfrwt beam="1">  1        5 0.11474091E+00 0.18249706E+03</pdfrwt>
<pdfrwt beam="2">  1       -5 0.72988172E-02 0.18249706E+03</pdfrwt>
<totfact> 0.61298996E+01</totfact>
</mgrwt>
</event>
<event>
 8    1  0.1821556E-007  0.1419558E+03  0.7546771E-02  0.1210722E+00
          5   -1    0    0  501    0  0.00000000000E+00  0.00000000000E+00  0.35506797618E+02  0.35816514027E+02  0.47000000000E+01 0. -1.
         -5   -1    0    0    0  501 -0.00000000000E+00 -0.00000000000E+00 -0.64313782569E+03  0.64315499907E+03  0.47000000000E+01 0. -1.
         25    2    1    2    0    0 -0.29250636589E+02 -0.60586638256E+02 -0.42230859507E+03  0.44552888488E+03  0.12500038925E+03 0.  0.
         25    2    1    2    0    0  0.29250636589E+02  0.60586638256E+02 -0.18532243300E+03  0.23344262822E+03  0.12499886408E+03 0.  0.
          5    1    4    4  502    0  0.13138634620E+02  0.42768558088E+01 -0.17273654158E+03  0.17335200608E+03  0.47000000000E+01 0. -1.
         -5    1    4    4    0  502  0.16112001969E+02  0.56309782447E+02 -0.12585891422E+02  0.60090622143E+02  0.47000000000E+01 0. -1.
          5    1    3    3  503    0  0.25705444175E+02  0.26894943722E+02 -0.89999978517E+02  0.97499712774E+02  0.47000000000E+01 0. -1.
         -5    1    3    3    0  503 -0.54956080765E+02 -0.87481581978E+02 -0.33230861656E+03  0.34802917211E+03  0.47000000000E+01 0. -1.
<mgrwt>
<rscale>  0 0.14195542E+03</rscale>
<asrwt>0</asrwt>
<pdfrwt beam="1">  1        5 0.54877301E-02 0.14195576E+03</pdfrwt>
<pdfrwt beam="2">  1       -5 0.98969418E-01 0.14195576E+03</pdfrwt>
<totfact> 0.13301524E+02</totfact>
</mgrwt>
</event>
<event>
 8    1  0.1821556E-007  0.1586710E+03  0.7546771E-02  0.1190211E+00
         -5   -1    0    0    0  501 -0.00000000000E+00  0.00000000000E+00  0.23856345791E+03  0.23860975137E+03  0.47000000000E+01 0.  1.
          5   -1    0    0  501    0  0.00000000000E+00 -0.00000000000E+00 -0.14622865512E+03  0.14630416801E+03  0.47000000000E+01 0.  1.
         25    2    1    2    0    0 -0.81208047115E+02  0.54339197720E+02  0.14779799619E+03  0.21682863280E+03  0.12499165171E+03 0.  0.
         25    2    1    2    0    0  0.81208047115E+02 -0.54339197720E+02 -0.55463193398E+02  0.16808528659E+03  0.12501600866E+03 0.  0.
          5    1    3    3  502    0 -0.31127509542E+02  0.36303369620E+02  0.15557742511E+03  0.16282899527E+03  0.47000000000E+01 0. -1.
         -5    1    3    3    0  502 -0.50080537573E+02  0.18035828100E+02 -0.77794289206E+01  0.53999637528E+02  0.47000000000E+01 0. -1.
          5    1    4    4  503    0  0.61426295110E+02  0.32191229977E+02 -0.29255254315E+02  0.75415017890E+02  0.47000000000E+01 0. -1.
         -5    1    4    4    0  503  0.19781752005E+02 -0.86530427697E+02 -0.26207939082E+02  0.92670268699E+02  0.47000000000E+01 0. -1.
<mgrwt>
<rscale>  0 0.15866624E+03</rscale>
<asrwt>0</asrwt>
<pdfrwt beam="2">  1        5 0.22506086E-01 0.15867104E+03</pdfrwt>
<pdfrwt beam="1">  1       -5 0.36711440E-01 0.15867104E+03</pdfrwt>
<totfact> 0.10081974E+02</totfact>
</mgrwt>
</event>
<event>
 8    1  0.1821556E-007  0.1299596E+03  0.7546771E-02  0.1227522E+00
         -5   -1    0    0    0  501 -0.00000000000E+00  0.00000000000E+00  0.28003099033E+02  0.28394780426E+02  0.47000000000E+01 0.  1.
          5   -1    0    0  501    0  0.00000000000E+00 -0.00000000000E+00 -0.66753378907E+03  0.66755033484E+03  0.47000000000E+01 0.  1.
         25    2    1    2    0    0 -0.35330424484E+02  0.35661204844E+01 -0.20788248313E+03  0.24516246956E+03  0.12501421351E+03 0.  0.
         25    2    1    2    0    0  0.35330424484E+02 -0.35661204844E+01 -0.43164820690E+03  0.45078264570E+03  0.12499545206E+03 0.  0.
          5    1    3    3  502    0 -0.65783718739E+02  0.40312214047E+02 -0.15840764646E+03  0.17626016201E+03  0.47000000000E+01 0. -1.
         -5    1    3    3    0  502  0.30453294255E+02 -0.36746093563E+02 -0.49474836668E+02  0.68902307555E+02  0.47000000000E+01 0. -1.
          5    1    4    4  503    0  0.26742144998E+02 -0.46406435224E+02 -0.37624552684E+03  0.38006773872E+03  0.47000000000E+01 0.  1.
         -5    1    4    4    0  503  0.85882794860E+01  0.42840314740E+02 -0.55402680061E+02  0.70714906982E+02  0.47000000000E+01 0.  1.
<mgrwt>
<rscale>  0 0.12995513E+03</rscale>
<asrwt>0</asrwt>
<pdfrwt beam="2">  1        5 0.10272890E+00 0.12995965E+03</pdfrwt>
<pdfrwt beam="1">  1       -5 0.43395717E-02 0.12995965E+03</pdfrwt>
<totfact> 0.17410912E+02</totfact>
</mgrwt>
</event>
<event>
 8    1  0.1821556E-007  0.1456082E+03  0.7546771E-02  0.1205977E+00
         -5   -1    0    0    0  501 -0.00000000000E+00  0.00000000000E+00  0.10963248576E+03  0.10973318520E+03  0.47000000000E+01 0.  1.
          5   -1    0    0  501    0  0.00000000000E+00 -0.00000000000E+00 -0.22148597213E+03  0.22153583424E+03  0.47000000000E+01 0.  1.
         25    2    1    2    0    0 -0.30218832058E+01  0.74618778813E+02  0.32802291900E+01  0.14564518724E+03  0.12499866693E+03 0.  0.
         25    2    1    2    0    0  0.30218832058E+01 -0.74618778813E+02 -0.11513371556E+03  0.18562383220E+03  0.12499336259E+03 0.  0.
          5    1    3    3  502    0  0.54446331427E+02  0.28351983770E+02 -0.25061335831E+02  0.66471035370E+02  0.47000000000E+01 0.  1.
         -5    1    3    3    0  502 -0.57468214633E+02  0.46266795043E+02  0.28341565021E+02  0.79174151871E+02  0.47000000000E+01 0.  1.
          5    1    4    4  503    0  0.61003994270E+02 -0.59683353916E+02 -0.70472111129E+02  0.11077905262E+03  0.47000000000E+01 0.  1.
         -5    1    4    4    0  503 -0.57982111064E+02 -0.14935424897E+02 -0.44661604428E+02  0.74844779580E+02  0.47000000000E+01 0.  1.
<mgrwt>
<rscale>  0 0.14560711E+03</rscale>
<asrwt>0</asrwt>
<pdfrwt beam="2">  1        5 0.34086347E-01 0.14560824E+03</pdfrwt>
<pdfrwt beam="1">  1       -5 0.16878118E-01 0.14560824E+03</pdfrwt>
<totfact> 0.19469342E+02</totfact>
</mgrwt>
</event>
<event>
 8    1  0.1821556E-007  0.1342647E+03  0.7546771E-02  0.1221284E+00
          5   -1    0    0  501    0  0.00000000000E+00  0.00000000000E+00  0.12899284529E+03  0.12907844180E+03  0.47000000000E+01 0.  1.
         -5   -1    0    0    0  501 -0.00000000000E+00 -0.00000000000E+00 -0.16332636933E+03  0.16339398067E+03  0.47000000000E+01 0.  1.
         25    2    1    2    0    0 -0.21623945621E+02  0.43784075054E+02 -0.72979424756E+02  0.15281689520E+03  0.12506944778E+03 0.  0.
         25    2    1    2    0    0  0.21623945621E+02 -0.43784075054E+02  0.38645900714E+02  0.13965552727E+03  0.12500208159E+03 0.  0.
          5    1    4    4  502    0  0.12424601923E+02 -0.31120736608E+02  0.84474907082E+02  0.90999840146E+02  0.47000000000E+01 0.  1.
         -5    1    4    4    0  502  0.91993436981E+01 -0.12663338445E+02 -0.45829006368E+02  0.48655687126E+02  0.47000000000E+01 0.  1.
          5    1    3    3  503    0 -0.33025029204E+02  0.19424525153E+02 -0.10433101710E+03  0.11124304860E+03  0.47000000000E+01 0. -1.
         -5    1    3    3    0  503  0.11401083582E+02  0.24359549900E+02  0.31351592348E+02  0.41573846598E+02  0.47000000000E+01 0. -1.
<mgrwt>
<rscale>  0 0.13424900E+03</rscale>
<asrwt>0</asrwt>
<pdfrwt beam="1">  1        5 0.19856838E-01 0.13426469E+03</pdfrwt>
<pdfrwt beam="2">  1       -5 0.25138919E-01 0.13426469E+03</pdfrwt>
<totfact> 0.25456501E+02</totfact>
</mgrwt>
</event>
<event>
 8    1  0.1821556E-007  0.1276720E+03  0.7546771E-02  0.1230955E+00
          5   -1    0    0  501    0  0.00000000000E+00  0.00000000000E+00  0.10631186495E+03  0.10641570668E+03  0.47000000000E+01 0.  1.
         -5   -1    0    0    0  501 -0.00000000000E+00 -0.00000000000E+00 -0.16728673870E+03  0.16735275003E+03  0.47000000000E+01 0.  1.
         25    2    1    2    0    0 -0.25041554630E+02 -0.67745969092E+01 -0.70329177575E+02  0.14575419326E+03  0.12500046805E+03 0.  0.
         25    2    1    2    0    0  0.25041554630E+02  0.67745969092E+01  0.93543038244E+01  0.12801426346E+03  0.12500869580E+03 0.  0.
          5    1    3    3  502    0  0.28845617218E+02 -0.13992160442E+02 -0.83542371919E+02  0.89606183338E+02  0.47000000000E+01 0.  1.
         -5    1    3    3    0  502 -0.53887171849E+02  0.72175635325E+01  0.13213194345E+02  0.56148009920E+02  0.47000000000E+01 0.  1.
          5    1    4    4  503    0  0.18656015872E+02 -0.34276721703E+02  0.54037068276E+02  0.66820919829E+02  0.47000000000E+01 0. -1.
         -5    1    4    4    0  503  0.63855387585E+01  0.41051318612E+02 -0.44682764452E+02  0.61193343626E+02  0.47000000000E+01 0. -1.
<mgrwt>
<rscale>  0 0.12767002E+03</rscale>
<asrwt>0</asrwt>
<pdfrwt beam="1">  1        5 0.16368737E-01 0.12767204E+03</pdfrwt>
<pdfrwt beam="2">  1       -5 0.25749487E-01 0.12767204E+03</pdfrwt>
<totfact> 0.34087867E+02</totfact>
</mgrwt>
</event>
<event>
 8    1  0.1821556E-007  0.2021202E+03  0.7546771E-02  0.1147963E+00
          5   -1    0    0  501    0  0.00000000000E+00  0.00000000000E+00  0.52551144205E+03  0.52553245925E+03  0.47000000000E+01 0. -1.
         -5   -1    0    0    0  501 -0.00000000000E+00 -0.00000000000E+00 -0.93035395868E+02  0.93154038475E+02  0.47000000000E+01 0. -1.
         25    2    1    2    0    0  0.76991314578E+02 -0.13892342060E+03  0.90518028904E+02  0.22146348783E+03  0.12500073429E+03 0.  0.
         25    2    1    2    0    0 -0.76991314578E+02  0.13892342060E+03  0.34195801728E+03  0.39722300989E+03  0.12499381862E+03 0.  0.
          5    1    4    4  502    0  0.11227917473E+02 -0.61988510391E+01  0.10368680266E+03  0.10458267032E+03  0.47000000000E+01 0.  1.
         -5    1    4    4    0  502 -0.88219232052E+02  0.14512227164E+03  0.23827121462E+03  0.29264033957E+03  0.47000000000E+01 0.  1.
          5    1    3    3  503    0  0.85550574440E+02 -0.13737299794E+03  0.35739724038E+02  0.16580005797E+03  0.47000000000E+01 0. -1.
         -5    1    3    3    0  503 -0.85592598618E+01 -0.15504226663E+01  0.54778304866E+02  0.55663429860E+02  0.47000000000E+01 0. -1.
<mgrwt>
<rscale>  0 0.20211910E+03</rscale>
<asrwt>0</asrwt>
<pdfrwt beam="1">  1        5 0.80858658E-01 0.20212017E+03</pdfrwt>
<pdfrwt beam="2">  1       -5 0.14323881E-01 0.20212017E+03</pdfrwt>
<totfact> 0.45017929E+01</totfact>
</mgrwt>
</event>
<event>
 8    1  0.1821556E-007  0.1253902E+03  0.7546771E-02  0.1234466E+00
         -5   -1    0    0    0  501 -0.00000000000E+00  0.00000000000E+00  0.11935405400E+02  0.12827466705E+02  0.47000000000E+01 0. -1.
          5   -1    0    0  501    0  0.00000000000E+00 -0.00000000000E+00 -0.15750154018E+04  0.15750224144E+04  0.47000000000E+01 0. -1.
         25    2    1    2    0    0  0.23823060376E+01 -0.95969051241E+01 -0.43155514395E+03  0.44939865766E+03  0.12498614033E+03 0.  0.
         25    2    1    2    0    0 -0.23823060376E+01  0.95969051241E+01 -0.11315248525E+04  0.11384512235E+04  0.12499968197E+03 0.  0.
          5    1    4    4  502    0 -0.37002979182E+02  0.19198857434E+01 -0.10322958897E+04  0.10329713453E+04  0.47000000000E+01 0. -1.
         -5    1    4    4    0  502  0.34620673144E+02  0.76770193807E+01 -0.99228962802E+02  0.10547987815E+03  0.47000000000E+01 0. -1.
          5    1    3    3  503    0  0.30055594329E+02 -0.29525956841E+02 -0.40140466323E+03  0.40363710749E+03  0.47000000000E+01 0. -1.
         -5    1    3    3    0  503 -0.27673288291E+02  0.19929051717E+02 -0.30150480713E+02  0.45761550175E+02  0.47000000000E+01 0. -1.
<mgrwt>
<rscale>  0 0.12538680E+03</rscale>
<asrwt>0</asrwt>
<pdfrwt beam="2">  1        5 0.24237906E+00 0.12539018E+03</pdfrwt>
<pdfrwt beam="1">  1       -5 0.19053770E-02 0.12539018E+03</pdfrwt>
<totfact> 0.56447018E+01</totfact>
</mgrwt>
</event>
<event>
 8    1  0.1821556E-007  0.1321418E+03  0.7546771E-02  0.1224316E+00
         -5   -1    0    0    0  501 -0.00000000000E+00  0.00000000000E+00  0.48523849440E+02  0.48750938088E+02  0.47000000000E+01 0.  1.
          5   -1    0    0  501    0  0.00000000000E+00 -0.00000000000E+00 -0.38688907161E+03  0.38691761879E+03  0.47000000000E+01 0.  1.
         25    2    1    2    0    0 -0.42817865520E+02  0.30147166994E+00 -0.11044034122E+03  0.17220848222E+03  0.12500092754E+03 0.  0.
         25    2    1    2    0    0  0.42817865520E+02 -0.30147166994E+00 -0.22792488094E+03  0.26346007465E+03  0.12501199579E+03 0.  0.
          5    1    3    3  502    0 -0.53501320091E+02 -0.16151013710E+02 -0.13155262762E+03  0.14300849740E+03  0.47000000000E+01 0. -1.
         -5    1    3    3    0  502  0.10683454571E+02  0.16452485380E+02  0.21112286395E+02  0.29199984821E+02  0.47000000000E+01 0. -1.
          5    1    4    4  503    0  0.54333207715E+02 -0.54152616354E+02 -0.13472222275E+03  0.15510245202E+03  0.47000000000E+01 0.  1.
         -5    1    4    4    0  503 -0.11515342195E+02  0.53851144684E+02 -0.93202658190E+02  0.10835762264E+03  0.47000000000E+01 0.  1.
<mgrwt>
<rscale>  0 0.13213920E+03</rscale>
<asrwt>0</asrwt>
<pdfrwt beam="2">  1        5 0.59541058E-01 0.13214182E+03</pdfrwt>
<pdfrwt beam="1">  1       -5 0.74848722E-02 0.13214182E+03</pdfrwt>
<totfact> 0.24719909E+02</totfact>
</mgrwt>
</event>
<event>
 8    1  0.1821556E-007  0.1331749E+03  0.7546771E-02  0.1222820E+00
          5   -1    0    0  501    0  0.00000000000E+00  0.00000000000E+00  0.45661984517E+03  0.45664403315E+03  0.47000000000E+01 0.  1.
         -5   -1    0    0    0  501 -0.00000000000E+00 -0.00000000000E+00 -0.38710609332E+02  0.38994887804E+02  0.47000000000E+01 0.  1.
         25    2    1    2    0    0 -0.15611057244E+02 -0.43209905764E+02  0.20128261957E+03  0.24135041334E+03  0.12499811203E+03 0.  0.
         25    2    1    2    0    0  0.15611057244E+02  0.43209905764E+02  0.21662661627E+03  0.25428850761E+03  0.12499901265E+03 0.  0.
          5    1    4    4  502    0  0.50179079717E+02  0.30520854032E+02  0.20799071455E+03  0.21617513712E+03  0.47000000000E+01 0.  1.
         -5    1    4    4    0  502 -0.34568022473E+02  0.12689051732E+02  0.86359017229E+01  0.38113370490E+02  0.47000000000E+01 0.  1.
          5    1    3    3  503    0 -0.70032020816E+02 -0.18288458700E+02  0.98639086018E+02  0.12243655888E+03  0.47000000000E+01 0. -1.
         -5    1    3    3    0  503  0.54420963572E+02 -0.24921447064E+02  0.10264353355E+03  0.11891385445E+03  0.47000000000E+01 0. -1.
<mgrwt>
<rscale>  0 0.13317469E+03</rscale>
<asrwt>0</asrwt>
<pdfrwt beam="1">  1        5 0.70272933E-01 0.13317490E+03</pdfrwt>
<pdfrwt beam="2">  1       -5 0.59792067E-02 0.13317490E+03</pdfrwt>
<totfact> 0.25098283E+02</totfact>
</mgrwt>
</event>
<event>
 8    1  0.1821556E-007  0.1290507E+03  0.7546771E-02  0.1228873E+00
         -5   -1    0    0    0  501 -0.00000000000E+00  0.00000000000E+00  0.16978914625E+02  0.17617421544E+02  0.47000000000E+01 0. -1.
          5   -1    0    0  501    0  0.00000000000E+00 -0.00000000000E+00 -0.96447579380E+03  0.96448724555E+03  0.47000000000E+01 0. -1.
         25    2    1    2    0    0  0.19578404448E+02 -0.25392136328E+02 -0.44932626241E+03  0.46749019830E+03  0.12499968360E+03 0.  0.
         25    2    1    2    0    0 -0.19578404448E+02  0.25392136328E+02 -0.49817061676E+03  0.51461446879E+03  0.12500405426E+03 0.  0.
          5    1    4    4  502    0 -0.46128908776E+02  0.28958896810E+02 -0.88372564933E+02  0.10391484091E+03  0.47000000000E+01 0. -1.
         -5    1    4    4    0  502  0.26550504328E+02 -0.35667604815E+01 -0.40979805183E+03  0.41069962788E+03  0.47000000000E+01 0. -1.
          5    1    3    3  503    0  0.58839142768E+02 -0.53822794802E+02 -0.29796912605E+03  0.30849088810E+03  0.47000000000E+01 0.  1.
         -5    1    3    3    0  503 -0.39260738321E+02  0.28430658474E+02 -0.15135713636E+03  0.15899931019E+03  0.47000000000E+01 0.  1.
<mgrwt>
<rscale>  0 0.12904966E+03</rscale>
<asrwt>0</asrwt>
<pdfrwt beam="2">  1        5 0.14843085E+00 0.12905072E+03</pdfrwt>
<pdfrwt beam="1">  1       -5 0.26621383E-02 0.12905072E+03</pdfrwt>
<totfact> 0.14928645E+02</totfact>
</mgrwt>
</event>
<event>
 8    1  0.1821556E-007  0.1314755E+03  0.7546771E-02  0.1225295E+00
          5   -1    0    0  501    0  0.00000000000E+00  0.00000000000E+00  0.11910597586E+02  0.12804387329E+02  0.47000000000E+01 0. -1.
         -5   -1    0    0    0  501 -0.00000000000E+00 -0.00000000000E+00 -0.14350917232E+04  0.14350994196E+04  0.47000000000E+01 0. -1.
         25    2    1    2    0    0  0.17143279174E+02  0.36842897236E+02 -0.82854261163E+03  0.83890398816E+03  0.12500300382E+03 0.  0.
         25    2    1    2    0    0 -0.17143279174E+02 -0.36842897236E+02 -0.59463851403E+03  0.60899981877E+03  0.12503809737E+03 0.  0.
          5    1    4    4  502    0  0.52320660289E+02  0.36735221785E+00 -0.23692676136E+03  0.24268079176E+03  0.47000000000E+01 0. -1.
         -5    1    4    4    0  502 -0.69463939463E+02 -0.37210249454E+02 -0.35771175268E+03  0.36631902701E+03  0.47000000000E+01 0. -1.
          5    1    3    3  503    0  0.13360330817E+02  0.39500510721E+02 -0.83085764341E+03  0.83191664390E+03  0.47000000000E+01 0. -1.
         -5    1    3    3    0  503  0.37829483568E+01 -0.26576134851E+01  0.23150317757E+01  0.69873442615E+01  0.47000000000E+01 0. -1.
<mgrwt>
<rscale>  0 0.13146719E+03</rscale>
<asrwt>0</asrwt>
<pdfrwt beam="1">  1        5 0.19017459E-02 0.13147554E+03</pdfrwt>
<pdfrwt beam="2">  1       -5 0.22085255E+00 0.13147554E+03</pdfrwt>
<totfact> 0.78891726E+01</totfact>
</mgrwt>
</event>
<event>
 8    1  0.1821556E-007  0.1431255E+03  0.7546771E-02  0.1209190E+00
          5   -1    0    0  501    0  0.00000000000E+00  0.00000000000E+00  0.18233917804E+03  0.18239974191E+03  0.47000000000E+01 0. -1.
         -5   -1    0    0    0  501 -0.00000000000E+00 -0.00000000000E+00 -0.13009363938E+03  0.13017851208E+03  0.47000000000E+01 0. -1.
         25    2    1    2    0    0  0.68954734571E+02  0.10290566489E+02 -0.31800234871E+02  0.14661573228E+03  0.12499706731E+03 0.  0.
         25    2    1    2    0    0 -0.68954734571E+02 -0.10290566489E+02  0.84045773525E+02  0.16596252171E+03  0.12497685941E+03 0.  0.
          5    1    4    4  502    0 -0.19818824562E+02 -0.63483233657E+02  0.59491154464E+02  0.89354318430E+02  0.47000000000E+01 0. -1.
         -5    1    4    4    0  502 -0.49135910009E+02  0.53192667167E+02  0.24554619061E+02  0.76608203281E+02  0.47000000000E+01 0. -1.
          5    1    3    3  503    0  0.11095710193E+02  0.16732518420E+02 -0.72534225363E+02  0.75408194557E+02  0.47000000000E+01 0.  1.
         -5    1    3    3    0  503  0.57859024378E+02 -0.64419519306E+01  0.40733990493E+02  0.71207537720E+02  0.47000000000E+01 0.  1.
<mgrwt>
<rscale>  0 0.14312112E+03</rscale>
<asrwt>0</asrwt>
<pdfrwt beam="1">  1        5 0.28063369E-01 0.14312553E+03</pdfrwt>
<pdfrwt beam="2">  1       -5 0.20025593E-01 0.14312553E+03</pdfrwt>
<totfact> 0.20701588E+02</totfact>
</mgrwt>
</event>
<event>
 8    1  0.1821556E-007  0.1261084E+03  0.7546771E-02  0.1233353E+00
         -5   -1    0    0    0  501 -0.00000000000E+00  0.00000000000E+00  0.30694630936E+03  0.30698229074E+03  0.47000000000E+01 0.  1.
          5   -1    0    0  501    0  0.00000000000E+00 -0.00000000000E+00 -0.54167038446E+02  0.54370562385E+02  0.47000000000E+01 0.  1.
         25    2    1    2    0    0 -0.13578625931E+02 -0.94970469371E+01  0.16518087234E+03  0.20781734337E+03  0.12501501765E+03 0.  0.
         25    2    1    2    0    0  0.13578625931E+02  0.94970469371E+01  0.87598398573E+02  0.15353550975E+03  0.12500040136E+03 0.  0.
          5    1    4    4  502    0 -0.24870077131E+02  0.95392767410E+01  0.10689230783E+03  0.11026138948E+03  0.47000000000E+01 0.  1.
         -5    1    4    4    0  502  0.38448703062E+02 -0.42229803854E-01 -0.19293909259E+02  0.43274120269E+02  0.47000000000E+01 0.  1.
          5    1    3    3  503    0 -0.17902970887E+02  0.53620716557E+02  0.46923053452E+02  0.73617664701E+02  0.47000000000E+01 0. -1.
         -5    1    3    3    0  503  0.43243449555E+01 -0.63117763494E+02  0.11825781889E+03  0.13419967867E+03  0.47000000000E+01 0. -1.
<mgrwt>
<rscale>  0 0.12610477E+03</rscale>
<asrwt>0</asrwt>
<pdfrwt beam="2">  1        5 0.83518141E-02 0.12610840E+03</pdfrwt>
<pdfrwt beam="1">  1       -5 0.47240932E-01 0.12610840E+03</pdfrwt>
<totfact> 0.33050324E+02</totfact>
</mgrwt>
</event>
<event>
 8    1  0.1821556E-007  0.1723066E+03  0.7546771E-02  0.1175464E+00
          5   -1    0    0  501    0  0.00000000000E+00  0.00000000000E+00  0.37036120713E+02  0.37333151989E+02  0.47000000000E+01 0. -1.
         -5   -1    0    0    0  501 -0.00000000000E+00 -0.00000000000E+00 -0.89951456685E+03  0.89952684561E+03  0.47000000000E+01 0. -1.
         25    2    1    2    0    0 -0.10230857650E+03  0.59976177480E+02 -0.58847934503E+03  0.61318566365E+03  0.12499812757E+03 0.  0.
         25    2    1    2    0    0  0.10230857650E+03 -0.59976177480E+02 -0.27399910111E+03  0.32367433395E+03  0.12500152141E+03 0.  0.
          5    1    3    3  502    0  0.28021629094E+02  0.21012455206E+02 -0.98271782985E+02  0.10443260172E+03  0.47000000000E+01 0. -1.
         -5    1    3    3    0  502 -0.13033020560E+03  0.38963722273E+02 -0.49020756204E+03  0.50875306193E+03  0.47000000000E+01 0. -1.
          5    1    4    4  503    0  0.76617622542E+02 -0.33767937961E+02 -0.27413410958E+03  0.28667426420E+03  0.47000000000E+01 0.  1.
         -5    1    4    4    0  503  0.25690953959E+02 -0.26208239518E+02  0.13500847170E+00  0.37000069747E+02  0.47000000000E+01 0.  1.
<mgrwt>
<rscale>  0 0.17230599E+03</rscale>
<asrwt>0</asrwt>
<pdfrwt beam="1">  1        5 0.57216585E-02 0.17230661E+03</pdfrwt>
<pdfrwt beam="2">  1       -5 0.13841063E+00 0.17230661E+03</pdfrwt>
<totfact> 0.56023596E+01</totfact>
</mgrwt>
</event>
<event>
 8    1  0.1821556E-007  0.1404354E+03  0.7546771E-02  0.1212746E+00
         -5   -1    0    0    0  501 -0.00000000000E+00  0.00000000000E+00  0.11285886710E+04  0.11285984575E+04  0.47000000000E+01 0. -1.
          5   -1    0    0  501    0  0.00000000000E+00 -0.00000000000E+00 -0.17391732616E+02  0.18015614432E+02  0.47000000000E+01 0. -1.
         25    2    1    2    0    0 -0.63995067905E+02  0.10128646910E+01  0.48895639677E+03  0.50872270027E+03  0.12499613277E+03 0.  0.
         25    2    1    2    0    0  0.63995067905E+02 -0.10128646910E+01  0.62224054159E+03  0.63789137166E+03  0.12500286330E+03 0.  0.
          5    1    3    3  502    0 -0.10004309180E+03  0.76135530031E+01  0.30567829755E+03  0.32175751428E+03  0.47000000000E+01 0.  1.
         -5    1    3    3    0  502  0.36048023895E+02 -0.66006883121E+01  0.18327809923E+03  0.18696518598E+03  0.47000000000E+01 0.  1.
          5    1    4    4  503    0 -0.21312850357E+02  0.12107918930E+02  0.28466250320E+02  0.37858376860E+02  0.47000000000E+01 0.  1.
         -5    1    4    4    0  503  0.85307918262E+02 -0.13120783621E+02  0.59377429127E+03  0.60003299480E+03  0.47000000000E+01 0.  1.
<mgrwt>
<rscale>  0 0.14043393E+03</rscale>
<asrwt>0</asrwt>
<pdfrwt beam="2">  1        5 0.27243946E-02 0.14043543E+03</pdfrwt>
<pdfrwt beam="1">  1       -5 0.17367779E+00 0.14043543E+03</pdfrwt>
<totfact> 0.95145154E+01</totfact>
</mgrwt>
</event>
<event>
 8    1  0.1821556E-007  0.1812593E+03  0.7546771E-02  0.1166590E+00
         -5   -1    0    0    0  501 -0.00000000000E+00  0.00000000000E+00  0.13159889935E+03  0.13168280187E+03  0.47000000000E+01 0. -1.
          5   -1    0    0  501    0  0.00000000000E+00 -0.00000000000E+00 -0.35667871897E+03  0.35670968387E+03  0.47000000000E+01 0. -1.
         25    2    1    2    0    0 -0.26620510552E+02 -0.12853408530E+03  0.21315648867E+02  0.18250836549E+03  0.12500113568E+03 0.  0.
         25    2    1    2    0    0  0.26620510552E+02  0.12853408530E+03 -0.24639546849E+03  0.30588412026E+03  0.12499882187E+03 0.  0.
          5    1    4    4  502    0  0.70740262074E+02  0.10070498360E+03 -0.13467892126E+03  0.18249980886E+03  0.47000000000E+01 0.  1.
         -5    1    4    4    0  502 -0.44119751522E+02  0.27829101694E+02 -0.11171654723E+03  0.12338431140E+03  0.47000000000E+01 0.  1.
          5    1    3    3  503    0  0.18709651280E+02 -0.88048387163E+02 -0.37662022230E+02  0.97688727351E+02  0.47000000000E+01 0. -1.
         -5    1    3    3    0  503 -0.45330161832E+02 -0.40485698134E+02  0.58977671098E+02  0.84819638134E+02  0.47000000000E+01 0. -1.
<mgrwt>
<rscale>  0 0.18125894E+03</rscale>
<asrwt>0</asrwt>
<pdfrwt beam="2">  1        5 0.54882485E-01 0.18125934E+03</pdfrwt>
<pdfrwt beam="1">  1       -5 0.20254821E-01 0.18125934E+03</pdfrwt>
<totfact> 0.55125809E+01</totfact>
</mgrwt>
</event>
<event>
 8    1  0.1821556E-007  0.1252563E+03  0.7546771E-02  0.1234670E+00
         -5   -1    0    0    0  501 -0.00000000000E+00  0.00000000000E+00  0.24653667178E+03  0.24658146835E+03  0.47000000000E+01 0. -1.
          5   -1    0    0  501    0  0.00000000000E+00 -0.00000000000E+00 -0.63508091718E+02  0.63681769084E+02  0.47000000000E+01 0. -1.
         25    2    1    2    0    0  0.65505605137E+01 -0.44961693370E+01  0.89689884333E+02  0.15405650546E+03  0.12500402449E+03 0.  0.
         25    2    1    2    0    0 -0.65505605137E+01  0.44961693370E+01  0.93338695730E+02  0.15620673198E+03  0.12500122244E+03 0.  0.
          5    1    4    4  502    0 -0.48719283000E+02 -0.34714924638E+02  0.74022070118E+02  0.95289303667E+02  0.47000000000E+01 0. -1.
         -5    1    4    4    0  502  0.42168722487E+02  0.39211093975E+02  0.19316625612E+02  0.60917428310E+02  0.47000000000E+01 0. -1.
          5    1    3    3  503    0 -0.29381761726E+02 -0.19410209112E+01 -0.21708846124E+02  0.36883864824E+02  0.47000000000E+01 0. -1.
         -5    1    3    3    0  503  0.35932322240E+02 -0.25551484258E+01  0.11139873046E+03  0.11717264063E+03  0.47000000000E+01 0. -1.
<mgrwt>
<rscale>  0 0.12525556E+03</rscale>
<asrwt>0</asrwt>
<pdfrwt beam="2">  1        5 0.97872815E-02 0.12525626E+03</pdfrwt>
<pdfrwt beam="1">  1       -5 0.37945524E-01 0.12525626E+03</pdfrwt>
<totfact> 0.39361443E+02</totfact>
</mgrwt>
</event>
<event>
 8    1  0.1821556E-007  0.1364055E+03  0.7546771E-02  0.1218256E+00
         -5   -1    0    0    0  501 -0.00000000000E+00  0.00000000000E+00  0.39487283533E+02  0.39766010120E+02  0.47000000000E+01 0.  1.
          5   -1    0    0  501    0  0.00000000000E+00 -0.00000000000E+00 -0.46970671003E+03  0.46973022412E+03  0.47000000000E+01 0.  1.
         25    2    1    2    0    0  0.42797771062E+02 -0.33841916527E+02 -0.20663242918E+03  0.24758480026E+03  0.12499739201E+03 0.  0.
         25    2    1    2    0    0 -0.42797771062E+02  0.33841916527E+02 -0.22358699732E+03  0.26191143398E+03  0.12501811610E+03 0.  0.
          5    1    4    4  502    0 -0.35864144643E+01  0.20452245911E+02 -0.21891792908E+03  0.21995069085E+03  0.47000000000E+01 0. -1.
         -5    1    4    4    0  502 -0.39211356597E+02  0.13389670615E+02 -0.46690682372E+01  0.41960743125E+02  0.47000000000E+01 0. -1.
          5    1    3    3  503    0  0.11500678030E+02 -0.77259628014E+02 -0.15199719473E+03  0.17095775186E+03  0.47000000000E+01 0. -1.
         -5    1    3    3    0  503  0.31297093031E+02  0.43417711487E+02 -0.54635234446E+02  0.76627048397E+02  0.47000000000E+01 0. -1.
<mgrwt>
<rscale>  0 0.13640073E+03</rscale>
<asrwt>0</asrwt>
<pdfrwt beam="2">  1        5 0.72285816E-01 0.13640548E+03</pdfrwt>
<pdfrwt beam="1">  1       -5 0.60982163E-02 0.13640548E+03</pdfrwt>
<totfact> 0.22964603E+02</totfact>
</mgrwt>
</event>
<event>
 8    1  0.1821556E-007  0.1280660E+03  0.7546771E-02  0.1230356E+00
          5   -1    0    0  501    0  0.00000000000E+00  0.00000000000E+00  0.19688220974E+03  0.19693830129E+03  0.47000000000E+01 0.  1.
         -5   -1    0    0    0  501 -0.00000000000E+00 -0.00000000000E+00 -0.83627979668E+02  0.83759948563E+02  0.47000000000E+01 0.  1.
         25    2    1    2    0    0  0.15764980529E+02 -0.22970348219E+02  0.46193137233E+02  0.13614226668E+03  0.12499895736E+03 0.  0.
         25    2    1    2    0    0 -0.15764980529E+02  0.22970348219E+02  0.67061092842E+02  0.14455598316E+03  0.12499228211E+03 0.  0.
          5    1    3    3  502    0  0.62063426172E+01 -0.72844901608E+02  0.43215170298E+02  0.85056095154E+02  0.47000000000E+01 0.  1.
         -5    1    3    3    0  502  0.95586379122E+01  0.49874553390E+02  0.29779669350E+01  0.51086171530E+02  0.47000000000E+01 0.  1.
          5    1    4    4  503    0  0.29503276095E+01 -0.33888713476E+02  0.76425432091E+02  0.83785953503E+02  0.47000000000E+01 0. -1.
         -5    1    4    4    0  503 -0.18715308139E+02  0.56859061694E+02 -0.93643392493E+01  0.60770029662E+02  0.47000000000E+01 0. -1.
<mgrwt>
<rscale>  0 0.12806441E+03</rscale>
<asrwt>0</asrwt>
<pdfrwt beam="1">  1        5 0.30304036E-01 0.12806604E+03</pdfrwt>
<pdfrwt beam="2">  1       -5 0.12880309E-01 0.12806604E+03</pdfrwt>
<totfact> 0.38317681E+02</totfact>
</mgrwt>
</event>
<event>
 8    1  0.1821556E-007  0.1251634E+03  0.7546771E-02  0.1234818E+00
          5   -1    0    0  501    0  0.00000000000E+00  0.00000000000E+00  0.42243144048E+02  0.42503802407E+02  0.47000000000E+01 0. -1.
         -5   -1    0    0    0  501 -0.00000000000E+00 -0.00000000000E+00 -0.39179392715E+03  0.39182211698E+03  0.47000000000E+01 0. -1.
         25    2    1    2    0    0 -0.36510857416E+00  0.62446793042E+01 -0.22667682275E+03  0.25893678492E+03  0.12500698897E+03 0.  0.
         25    2    1    2    0    0  0.36510857416E+00 -0.62446793042E+01 -0.12287396036E+03  0.17538913447E+03  0.12499683608E+03 0.  0.
          5    1    3    3  502    0  0.18644793685E+02  0.58552087029E+02 -0.73635454488E+02  0.96022108832E+02  0.47000000000E+01 0.  1.
         -5    1    3    3    0  502 -0.19009902259E+02 -0.52307407724E+02 -0.15304136826E+03  0.16291467609E+03  0.47000000000E+01 0.  1.
          5    1    4    4  503    0 -0.92699451757E+01  0.58493622078E+02 -0.62282240097E+02  0.86073242874E+02  0.47000000000E+01 0. -1.
         -5    1    4    4    0  503  0.96350537499E+01 -0.64738301382E+02 -0.60591720263E+02  0.89315891592E+02  0.47000000000E+01 0. -1.
<mgrwt>
<rscale>  0 0.12516086E+03</rscale>
<asrwt>0</asrwt>
<pdfrwt beam="1">  1        5 0.65211646E-02 0.12516340E+03</pdfrwt>
<pdfrwt beam="2">  1       -5 0.60298205E-01 0.12516340E+03</pdfrwt>
<totfact> 0.29789695E+02</totfact>
</mgrwt>
</event>
<event>
 8    1  0.1821556E-007  0.1321602E+03  0.7546771E-02  0.1224288E+00
          5   -1    0    0  501    0  0.00000000000E+00  0.00000000000E+00  0.17365266507E+03  0.17371625740E+03  0.47000000000E+01 0.  1.
         -5   -1    0    0    0  501 -0.00000000000E+00 -0.00000000000E+00 -0.10083440958E+03  0.10094388617E+03  0.47000000000E+01 0.  1.
         25    2    1    2    0    0  0.41545552503E+02  0.10746334883E+02  0.27816266232E+02  0.13505577040E+03  0.12499919922E+03 0.  0.
         25    2    1    2    0    0 -0.41545552503E+02 -0.10746334883E+02  0.45001989257E+02  0.13960437317E+03  0.12499074095E+03 0.  0.
          5    1    4    4  502    0  0.36895216009E+02 -0.33653771643E+02  0.13981638599E+02  0.52071196722E+02  0.47000000000E+01 0. -1.
         -5    1    4    4    0  502 -0.78440768512E+02  0.22907436760E+02  0.31020350658E+02  0.87533176445E+02  0.47000000000E+01 0. -1.
          5    1    3    3  503    0 -0.16826912548E+02  0.55573862080E+02  0.90259363770E+01  0.58950459369E+02  0.47000000000E+01 0. -1.
         -5    1    3    3    0  503  0.58372465051E+02 -0.44827527197E+02  0.18790329855E+02  0.76105311029E+02  0.47000000000E+01 0. -1.
<mgrwt>
<rscale>  0 0.13215819E+03</rscale>
<asrwt>0</asrwt>
<pdfrwt beam="1">  1        5 0.26729107E-01 0.13216019E+03</pdfrwt>
<pdfrwt beam="2">  1       -5 0.15526299E-01 0.13216019E+03</pdfrwt>
<totfact> 0.35369795E+02</totfact>
</mgrwt>
</event>
<event>
 8    1  0.1821556E-007  0.1445462E+03  0.7546771E-02  0.1207339E+00
          5   -1    0    0  501    0  0.00000000000E+00  0.00000000000E+00  0.11074684811E+04  0.11074784542E+04  0.47000000000E+01 0. -1.
         -5   -1    0    0    0  501 -0.00000000000E+00 -0.00000000000E+00 -0.21174300774E+02  0.21689652216E+02  0.47000000000E+01 0. -1.
         25    2    1    2    0    0  0.22702752073E+02  0.68943799075E+02  0.34745700246E+03  0.37632417140E+03  0.12499940417E+03 0.  0.
         25    2    1    2    0    0 -0.22702752073E+02 -0.68943799075E+02  0.73883717782E+03  0.75284393502E+03  0.12499981111E+03 0.  0.
          5    1    4    4  502    0 -0.62927532700E+02 -0.46771085496E+02  0.25535712973E+03  0.26716429872E+03  0.47000000000E+01 0. -1.
         -5    1    4    4    0  502  0.40224780628E+02 -0.22172713579E+02  0.48348004810E+03  0.48567963629E+03  0.47000000000E+01 0. -1.
          5    1    3    3  503    0  0.28799598303E+02  0.96601372969E+02  0.32368533348E+03  0.33905092129E+03  0.47000000000E+01 0.  1.
         -5    1    3    3    0  503 -0.60968462304E+01 -0.27657573894E+02  0.23771668980E+02  0.37273250109E+02  0.47000000000E+01 0.  1.
<mgrwt>
<rscale>  0 0.14454615E+03</rscale>
<asrwt>0</asrwt>
<pdfrwt beam="1">  1        5 0.17042019E+00 0.14454624E+03</pdfrwt>
<pdfrwt beam="2">  1       -5 0.32979941E-02 0.14454624E+03</pdfrwt>
<totfact> 0.74426118E+01</totfact>
</mgrwt>
</event>
<event>
 8    1  0.1821556E-007  0.1322236E+03  0.7546771E-02  0.1224194E+00
          5   -1    0    0  501    0  0.00000000000E+00  0.00000000000E+00  0.15284624214E+04  0.15284696476E+04  0.47000000000E+01 0. -1.
         -5   -1    0    0    0  501 -0.00000000000E+00 -0.00000000000E+00 -0.11390373349E+02  0.12321956217E+02  0.47000000000E+01 0. -1.
         25    2    1    2    0    0 -0.30766261019E+02 -0.30172858444E+02  0.61268559462E+03  0.62679080486E+03  0.12500444389E+03 0.  0.
         25    2    1    2    0    0  0.30766261019E+02  0.30172858444E+02  0.90438645348E+03  0.91400079901E+03  0.12500255658E+03 0.  0.
          5    1    3    3  502    0 -0.75802674782E+02 -0.32826954667E+01  0.28809674095E+03  0.29795745291E+03  0.47000000000E+01 0. -1.
         -5    1    3    3    0  502  0.45036413763E+02 -0.26890162977E+02  0.32458885367E+03  0.32883335195E+03  0.47000000000E+01 0. -1.
          5    1    4    4  503    0  0.10414806042E+02 -0.48932094341E+02  0.36600162698E+03  0.36943483727E+03  0.47000000000E+01 0. -1.
         -5    1    4    4    0  503  0.20351454977E+02  0.79104952784E+02  0.53838482650E+03  0.54456596173E+03  0.47000000000E+01 0. -1.
<mgrwt>
<rscale>  0 0.13222313E+03</rscale>
<asrwt>0</asrwt>
<pdfrwt beam="1">  1        5 0.23522044E+00 0.13222358E+03</pdfrwt>
<pdfrwt beam="2">  1       -5 0.18245800E-02 0.13222358E+03</pdfrwt>
<totfact> 0.68179723E+01</totfact>
</mgrwt>
</event>
<event>
 8    1  0.1821556E-007  0.1383137E+03  0.7546771E-02  0.1215617E+00
          5   -1    0    0  501    0  0.00000000000E+00  0.00000000000E+00  0.14548210768E+04  0.14548286688E+04  0.47000000000E+01 0. -1.
         -5   -1    0    0    0  501 -0.00000000000E+00 -0.00000000000E+00 -0.15527065180E+02  0.16222815820E+02  0.47000000000E+01 0. -1.
         25    2    1    2    0    0 -0.54679813853E+02  0.22711573333E+02  0.41453901334E+03  0.43700434861E+03  0.12499803806E+03 0.  0.
         25    2    1    2    0    0  0.54679813853E+02 -0.22711573333E+02  0.10247549983E+04  0.10340471360E+04  0.12499990135E+03 0.  0.
          5    1    4    4  502    0  0.58557290619E+02  0.40001095521E+02  0.41459777744E+03  0.42064527928E+03  0.47000000000E+01 0.  1.
         -5    1    4    4    0  502 -0.38774767659E+01 -0.62712668854E+02  0.61015722082E+03  0.61340185669E+03  0.47000000000E+01 0.  1.
          5    1    3    3  503    0 -0.18891507551E+02 -0.32071710950E+02  0.31846466993E+03  0.32066699190E+03  0.47000000000E+01 0. -1.
         -5    1    3    3    0  503 -0.35788306302E+02  0.54783284283E+02  0.96074343405E+02  0.11633735671E+03  0.47000000000E+01 0. -1.
<mgrwt>
<rscale>  0 0.13831325E+03</rscale>
<asrwt>0</asrwt>
<pdfrwt beam="1">  1        5 0.22387270E+00 0.13831368E+03</pdfrwt>
<pdfrwt beam="2">  1       -5 0.24428829E-02 0.13831368E+03</pdfrwt>
<totfact> 0.51380256E+01</totfact>
</mgrwt>
</event>
<event>
 8    1  0.1821556E-007  0.1766195E+03  0.7546771E-02  0.1171116E+00
         -5   -1    0    0    0  501 -0.00000000000E+00  0.00000000000E+00  0.16320030644E+03  0.16326796999E+03  0.47000000000E+01 0. -1.
          5   -1    0    0  501    0  0.00000000000E+00 -0.00000000000E+00 -0.19383666710E+03  0.19389363969E+03  0.47000000000E+01 0. -1.
         25    2    1    2    0    0  0.12295669901E+03 -0.21239521436E+02  0.62640639925E+01  0.17672856928E+03  0.12499712637E+03 0.  0.
         25    2    1    2    0    0 -0.12295669901E+03  0.21239521436E+02 -0.36900424649E+02  0.18043304040E+03  0.12499989450E+03 0.  0.
          5    1    3    3  502    0  0.13011768423E+03 -0.54158866190E+02  0.14408934215E+02  0.14175154998E+03  0.47000000000E+01 0. -1.
         -5    1    3    3    0  502 -0.71609852202E+01  0.32919344754E+02 -0.81448702228E+01  0.34977019303E+02  0.47000000000E+01 0. -1.
          5    1    4    4  503    0 -0.11318246182E+03 -0.10443803498E+02  0.18934553959E+02  0.11532540929E+03  0.47000000000E+01 0.  1.
         -5    1    4    4    0  503 -0.97742371879E+01  0.31683324934E+02 -0.55834978608E+02  0.65107631102E+02  0.47000000000E+01 0.  1.
<mgrwt>
<rscale>  0 0.17661899E+03</rscale>
<asrwt>0</asrwt>
<pdfrwt beam="2">  1        5 0.29830613E-01 0.17661948E+03</pdfrwt>
<pdfrwt beam="1">  1       -5 0.25117327E-01 0.17661948E+03</pdfrwt>
<totfact> 0.12771940E+02</totfact>
</mgrwt>
</event>
<event>
 8    1  0.1821556E-007  0.1277204E+03  0.7546771E-02  0.1230883E+00
          5   -1    0    0  501    0  0.00000000000E+00  0.00000000000E+00  0.20134932814E+02  0.20676206602E+02  0.47000000000E+01 0.  1.
         -5   -1    0    0    0  501 -0.00000000000E+00 -0.00000000000E+00 -0.88658219658E+03  0.88659465444E+03  0.47000000000E+01 0.  1.
         25    2    1    2    0    0 -0.46589232087E+01  0.25715410236E+02 -0.57591735066E+03  0.58990651006E+03  0.12500363170E+03 0.  0.
         25    2    1    2    0    0  0.46589232087E+01 -0.25715410236E+02 -0.29052991311E+03  0.31736435098E+03  0.12501805060E+03 0.  0.
          5    1    4    4  502    0 -0.20255884775E+02  0.83827877018E+01 -0.26862503758E+03  0.26955903401E+03  0.47000000000E+01 0. -1.
         -5    1    4    4    0  502  0.24914807984E+02 -0.34098197938E+02 -0.21904875523E+02  0.47805316976E+02  0.47000000000E+01 0. -1.
          5    1    3    3  503    0 -0.61572134345E+02  0.19952207377E+02 -0.21931857713E+03  0.22871805041E+03  0.47000000000E+01 0. -1.
         -5    1    3    3    0  503  0.56913211136E+02  0.57632028596E+01 -0.35659877352E+03  0.36118845965E+03  0.47000000000E+01 0. -1.
<mgrwt>
<rscale>  0 0.12771687E+03</rscale>
<asrwt>0</asrwt>
<pdfrwt beam="1">  1        5 0.31402774E-02 0.12772040E+03</pdfrwt>
<pdfrwt beam="2">  1       -5 0.13643983E+00 0.12772040E+03</pdfrwt>
<totfact> 0.14288181E+02</totfact>
</mgrwt>
</event>
<event>
 8    1  0.1821556E-007  0.1261214E+03  0.7546771E-02  0.1233336E+00
          5   -1    0    0  501    0  0.00000000000E+00  0.00000000000E+00  0.56204175081E+03  0.56206140203E+03  0.47000000000E+01 0. -1.
         -5   -1    0    0    0  501 -0.00000000000E+00 -0.00000000000E+00 -0.32847022377E+02  0.33181574390E+02  0.47000000000E+01 0. -1.
         25    2    1    2    0    0 -0.38557365132E+01 -0.16332706490E+02  0.15189999754E+03  0.19743409040E+03  0.12499994717E+03 0.  0.
         25    2    1    2    0    0  0.38557365132E+01  0.16332706490E+02  0.37729473089E+03  0.39780888602E+03  0.12497588501E+03 0.  0.
          5    1    4    4  502    0  0.81108968121E+01  0.51297225436E+02  0.34763015284E+03  0.35151956582E+03  0.47000000000E+01 0. -1.
         -5    1    4    4    0  502 -0.42551602989E+01 -0.34964518947E+02  0.29664578045E+02  0.46289320204E+02  0.47000000000E+01 0. -1.
          5    1    3    3  503    0 -0.21267662573E+02 -0.77452897564E+01  0.16934381608E+03  0.17091436754E+03  0.47000000000E+01 0.  1.
         -5    1    3    3    0  503  0.17411926059E+02 -0.85874167334E+01 -0.17443818544E+02  0.26519722861E+02  0.47000000000E+01 0.  1.
<mgrwt>
<rscale>  0 0.12611545E+03</rscale>
<asrwt>0</asrwt>
<pdfrwt beam="1">  1        5 0.86495204E-01 0.12612141E+03</pdfrwt>
<pdfrwt beam="2">  1       -5 0.50806347E-02 0.12612141E+03</pdfrwt>
<totfact> 0.20043849E+02</totfact>
</mgrwt>
</event>
<event>
 8    1  0.1821556E-007  0.1369023E+03  0.7546771E-02  0.1217560E+00
         -5   -1    0    0    0  501 -0.00000000000E+00  0.00000000000E+00  0.13521720153E+03  0.13529886027E+03  0.47000000000E+01 0. -1.
          5   -1    0    0  501    0  0.00000000000E+00 -0.00000000000E+00 -0.14503953370E+03  0.14511566537E+03  0.47000000000E+01 0. -1.
         25    2    1    2    0    0  0.55739108495E+02  0.31925808095E+01  0.24973685157E+02  0.13915943667E+03  0.12499849229E+03 0.  0.
         25    2    1    2    0    0 -0.55739108495E+02 -0.31925808095E+01 -0.34796017327E+02  0.14125508897E+03  0.12500078620E+03 0.  0.
          5    1    4    4  502    0  0.36064432858E+02 -0.27189103417E+01  0.11618569910E+02  0.38276846233E+02  0.47000000000E+01 0. -1.
         -5    1    4    4    0  502 -0.91803541353E+02 -0.47367046780E+00 -0.46414587236E+02  0.10297824274E+03  0.47000000000E+01 0. -1.
          5    1    3    3  503    0  0.42535539691E+02  0.60956505040E+02  0.28184200045E+02  0.79632950314E+02  0.47000000000E+01 0. -1.
         -5    1    3    3    0  503  0.13203568805E+02 -0.57763924230E+02 -0.32105148886E+01  0.59526486353E+02  0.47000000000E+01 0. -1.
<mgrwt>
<rscale>  0 0.13690177E+03</rscale>
<asrwt>0</asrwt>
<pdfrwt beam="2">  1        5 0.22325912E-01 0.13690229E+03</pdfrwt>
<pdfrwt beam="1">  1       -5 0.20814784E-01 0.13690229E+03</pdfrwt>
<totfact> 0.29411198E+02</totfact>
</mgrwt>
</event>
<event>
 8    1  0.1821556E-007  0.1305114E+03  0.7546771E-02  0.1226700E+00
         -5   -1    0    0    0  501 -0.00000000000E+00  0.00000000000E+00  0.20695261974E+03  0.20700598256E+03  0.47000000000E+01 0. -1.
          5   -1    0    0  501    0  0.00000000000E+00 -0.00000000000E+00 -0.85154585271E+02  0.85284191928E+02  0.47000000000E+01 0. -1.
         25    2    1    2    0    0  0.51333174238E+01 -0.37165716423E+02  0.88225063525E+02  0.15753374601E+03  0.12500231147E+03 0.  0.
         25    2    1    2    0    0 -0.51333174238E+01  0.37165716423E+02  0.33572970942E+02  0.13475642848E+03  0.12499803684E+03 0.  0.
          5    1    4    4  502    0  0.26191170112E+02 -0.26990824574E+02  0.48613489718E+02  0.61642869706E+02  0.47000000000E+01 0. -1.
         -5    1    4    4    0  502 -0.31324487536E+02  0.64156540997E+02 -0.15040518776E+02  0.73113558778E+02  0.47000000000E+01 0. -1.
          5    1    3    3  503    0  0.23201035676E+02  0.38140058424E+02  0.73961659043E+01  0.45494454422E+02  0.47000000000E+01 0.  1.
         -5    1    3    3    0  503 -0.18067718252E+02 -0.75305774847E+02  0.80828897621E+02  0.11203929158E+03  0.47000000000E+01 0.  1.
<mgrwt>
<rscale>  0 0.13051035E+03</rscale>
<asrwt>0</asrwt>
<pdfrwt beam="2">  1        5 0.13114780E-01 0.13051138E+03</pdfrwt>
<pdfrwt beam="1">  1       -5 0.31852939E-01 0.13051138E+03</pdfrwt>
<totfact> 0.33869755E+02</totfact>
</mgrwt>
</event>
<event>
 8    1  0.1821556E-007  0.1300192E+03  0.7546771E-02  0.1227437E+00
          5   -1    0    0  501    0  0.00000000000E+00  0.00000000000E+00  0.10152511571E+03  0.10163384830E+03  0.47000000000E+01 0. -1.
         -5   -1    0    0    0  501 -0.00000000000E+00 -0.00000000000E+00 -0.18409085347E+03  0.18415084124E+03  0.47000000000E+01 0. -1.
         25    2    1    2    0    0  0.23560680099E+02  0.26948139436E+02 -0.85753700051E+02  0.15575198436E+03  0.12499470266E+03 0.  0.
         25    2    1    2    0    0 -0.23560680099E+02 -0.26948139436E+02  0.31879622998E+01  0.13003270519E+03  0.12496812973E+03 0.  0.
          5    1    3    3  502    0  0.45290763624E+02  0.92547010558E+01 -0.10935342269E+03  0.11881567159E+03  0.47000000000E+01 0. -1.
         -5    1    3    3    0  502 -0.21730083525E+02  0.17693438380E+02  0.23599722643E+02  0.36936312763E+02  0.47000000000E+01 0. -1.
          5    1    4    4  503    0  0.27875356833E+02 -0.59829076303E+02 -0.11260740079E+02  0.67122635206E+02  0.47000000000E+01 0.  1.
         -5    1    4    4    0  503 -0.51436036932E+02  0.32880936867E+02  0.14448702379E+02  0.62910069981E+02  0.47000000000E+01 0.  1.
<mgrwt>
<rscale>  0 0.13001278E+03</rscale>
<asrwt>0</asrwt>
<pdfrwt beam="1">  1        5 0.15632227E-01 0.13001917E+03</pdfrwt>
<pdfrwt beam="2">  1       -5 0.28334648E-01 0.13001917E+03</pdfrwt>
<totfact> 0.31015549E+02</totfact>
</mgrwt>
</event>
<event>
 8    1  0.1821556E-007  0.1305366E+03  0.7546771E-02  0.1226662E+00
          5   -1    0    0  501    0  0.00000000000E+00  0.00000000000E+00  0.14149029903E+03  0.14156833939E+03  0.47000000000E+01 0.  1.
         -5   -1    0    0    0  501 -0.00000000000E+00 -0.00000000000E+00 -0.12268879449E+03  0.12277878600E+03  0.47000000000E+01 0.  1.
         25    2    1    2    0    0 -0.36807364859E+02  0.76255657462E+01  0.27936300404E+02  0.13349242977E+03  0.12500744203E+03 0.  0.
         25    2    1    2    0    0  0.36807364859E+02 -0.76255657462E+01 -0.91347958634E+01  0.13085469563E+03  0.12500630189E+03 0.  0.
          5    1    4    4  502    0 -0.19983666605E+02  0.16440516066E+01 -0.53963535707E+02  0.57759873811E+02  0.47000000000E+01 0.  1.
         -5    1    4    4    0  502  0.56791031464E+02 -0.92696173528E+01  0.44828739844E+02  0.73094821818E+02  0.47000000000E+01 0.  1.
          5    1    3    3  503    0  0.42860235325E+01 -0.13163605574E+02 -0.44883272348E+02  0.47204328679E+02  0.47000000000E+01 0.  1.
         -5    1    3    3    0  503 -0.41093388391E+02  0.20789171320E+02  0.72819572752E+02  0.86288101088E+02  0.47000000000E+01 0.  1.
<mgrwt>
<rscale>  0 0.13053628E+03</rscale>
<asrwt>0</asrwt>
<pdfrwt beam="1">  1        5 0.21780664E-01 0.13053655E+03</pdfrwt>
<pdfrwt beam="2">  1       -5 0.18888125E-01 0.13053655E+03</pdfrwt>
<totfact> 0.36316633E+02</totfact>
</mgrwt>
</event>
<event>
 8    1  0.1821556E-007  0.1273488E+03  0.7546771E-02  0.1231445E+00
          5   -1    0    0  501    0  0.00000000000E+00  0.00000000000E+00  0.39937322154E+03  0.39940087642E+03  0.47000000000E+01 0.  1.
         -5   -1    0    0    0  501 -0.00000000000E+00 -0.00000000000E+00 -0.40473194260E+02  0.40745177059E+02  0.47000000000E+01 0.  1.
         25    2    1    2    0    0  0.10692386068E+02 -0.21860762285E+02  0.17334353673E+03  0.21509464438E+03  0.12500201705E+03 0.  0.
         25    2    1    2    0    0 -0.10692386068E+02  0.21860762285E+02  0.18555649055E+03  0.22505140910E+03  0.12499882201E+03 0.  0.
          5    1    4    4  502    0 -0.47555305874E+02  0.10428762184E+02  0.17907528736E+03  0.18563489634E+03  0.47000000000E+01 0.  1.
         -5    1    4    4    0  502  0.36862919806E+02  0.11432000101E+02  0.64812031874E+01  0.39416512754E+02  0.47000000000E+01 0.  1.
          5    1    3    3  503    0 -0.28680405643E+01  0.25098991314E+02 -0.82433186968E+01  0.26985687406E+02  0.47000000000E+01 0.  1.
         -5    1    3    3    0  503  0.13560426632E+02 -0.46959753599E+02  0.18158685543E+03  0.18810895697E+03  0.47000000000E+01 0.  1.
<mgrwt>
<rscale>  0 0.12734805E+03</rscale>
<asrwt>0</asrwt>
<pdfrwt beam="1">  1        5 0.61465082E-01 0.12734883E+03</pdfrwt>
<pdfrwt beam="2">  1       -5 0.62496945E-02 0.12734883E+03</pdfrwt>
<totfact> 0.30880868E+02</totfact>
</mgrwt>
</event>
<event>
 8    1  0.1821556E-007  0.1363298E+03  0.7546771E-02  0.1218356E+00
         -5   -1    0    0    0  501 -0.00000000000E+00  0.00000000000E+00  0.47516771418E+02  0.47748649886E+02  0.47000000000E+01 0. -1.
          5   -1    0    0  501    0  0.00000000000E+00 -0.00000000000E+00 -0.40947901621E+03  0.40950598862E+03  0.47000000000E+01 0. -1.
         25    2    1    2    0    0 -0.54289605730E+02  0.35906757681E+01 -0.13103774458E+03  0.18909064638E+03  0.12499651116E+03 0.  0.
         25    2    1    2    0    0  0.54289605730E+02 -0.35906757681E+01 -0.23092450021E+03  0.26816399213E+03  0.12500219051E+03 0.  0.
          5    1    4    4  502    0  0.84043269356E+02 -0.11740840815E+02 -0.21872777230E+03  0.23465942734E+03  0.47000000000E+01 0. -1.
         -5    1    4    4    0  502 -0.29753663626E+02  0.81501650469E+01 -0.12196727914E+02  0.33504564782E+02  0.47000000000E+01 0. -1.
          5    1    3    3  503    0 -0.42605887535E+02  0.43612675890E+02 -0.11262346985E+02  0.62179237777E+02  0.47000000000E+01 0.  1.
         -5    1    3    3    0  503 -0.11683718195E+02 -0.40022000122E+02 -0.11977539759E+03  0.12691140860E+03  0.47000000000E+01 0.  1.
<mgrwt>
<rscale>  0 0.13632845E+03</rscale>
<asrwt>0</asrwt>
<pdfrwt beam="2">  1        5 0.63016681E-01 0.13632975E+03</pdfrwt>
<pdfrwt beam="1">  1       -5 0.73301844E-02 0.13632975E+03</pdfrwt>
<totfact> 0.22856655E+02</totfact>
</mgrwt>
</event>
<event>
 8    1  0.1821556E-007  0.1278858E+03  0.7546771E-02  0.1230648E+00
          5   -1    0    0  501    0  0.00000000000E+00  0.00000000000E+00  0.11123677493E+03  0.11133602335E+03  0.47000000000E+01 0.  1.
         -5   -1    0    0    0  501 -0.00000000000E+00 -0.00000000000E+00 -0.19315649019E+03  0.19321366334E+03  0.47000000000E+01 0.  1.
         25    2    1    2    0    0  0.19900866995E+02  0.17886317646E+02 -0.11555217025E+03  0.17231530605E+03  0.12499718311E+03 0.  0.
         25    2    1    2    0    0 -0.19900866995E+02 -0.17886317646E+02  0.33632454988E+02  0.13223438064E+03  0.12505528589E+03 0.  0.
          5    1    4    4  502    0 -0.58884481141E+02 -0.99994800179E+01 -0.21880157799E+02  0.63782466440E+02  0.47000000000E+01 0. -1.
         -5    1    4    4    0  502  0.38983614146E+02 -0.78868376282E+01  0.55512612787E+02  0.68451914203E+02  0.47000000000E+01 0. -1.
          5    1    3    3  503    0  0.52727753101E+02  0.32486889116E+02 -0.12067548968E+03  0.13572132375E+03  0.47000000000E+01 0.  1.
         -5    1    3    3    0  503 -0.32826886106E+02 -0.14600571469E+02  0.51233194321E+01  0.36593982301E+02  0.47000000000E+01 0.  1.
<mgrwt>
<rscale>  0 0.12787164E+03</rscale>
<asrwt>0</asrwt>
<pdfrwt beam="1">  1        5 0.17125383E-01 0.12788585E+03</pdfrwt>
<pdfrwt beam="2">  1       -5 0.29728415E-01 0.12788585E+03</pdfrwt>
<totfact> 0.23769292E+02</totfact>
</mgrwt>
</event>
<event>
 8    1  0.1821556E-007  0.1430928E+03  0.7546771E-02  0.1209227E+00
         -5   -1    0    0    0  501 -0.00000000000E+00  0.00000000000E+00  0.25094085944E+03  0.25098486994E+03  0.47000000000E+01 0.  1.
          5   -1    0    0  501    0  0.00000000000E+00 -0.00000000000E+00 -0.12382186624E+03  0.12391103486E+03  0.47000000000E+01 0.  1.
         25    2    1    2    0    0  0.69463980416E+02 -0.50586262013E+01  0.17310975427E+03  0.22459389078E+03  0.12499837789E+03 0.  0.
         25    2    1    2    0    0 -0.69463980416E+02  0.50586262013E+01 -0.45990761077E+02  0.15030201402E+03  0.12499884415E+03 0.  0.
          5    1    3    3  502    0 -0.32874562207E+02 -0.96812669527E+01  0.75358617659E+02  0.82918484221E+02  0.47000000000E+01 0.  1.
         -5    1    3    3    0  502  0.10233854262E+03  0.46226407514E+01  0.97751136615E+02  0.14167540656E+03  0.47000000000E+01 0.  1.
          5    1    4    4  503    0 -0.53498557197E+02  0.52177196769E+02 -0.62646421020E+02  0.97627965007E+02  0.47000000000E+01 0.  1.
         -5    1    4    4    0  503 -0.15965423219E+02 -0.47118570567E+02  0.16655659943E+02  0.52674049009E+02  0.47000000000E+01 0.  1.
<mgrwt>
<rscale>  0 0.14309268E+03</rscale>
<asrwt>0</asrwt>
<pdfrwt beam="2">  1        5 0.19059763E-01 0.14309279E+03</pdfrwt>
<pdfrwt beam="1">  1       -5 0.38616530E-01 0.14309279E+03</pdfrwt>
<totfact> 0.12026614E+02</totfact>
</mgrwt>
</event>
<event>
 8    1  0.1821556E-007  0.1265432E+03  0.7546771E-02  0.1232679E+00
         -5   -1    0    0    0  501 -0.00000000000E+00  0.00000000000E+00  0.15011374613E+03  0.15018730565E+03  0.47000000000E+01 0. -1.
          5   -1    0    0  501    0  0.00000000000E+00 -0.00000000000E+00 -0.13022412109E+03  0.13030890881E+03  0.47000000000E+01 0. -1.
         25    2    1    2    0    0  0.73815373450E+01 -0.18222569518E+02  0.69746112005E+02  0.14449122488E+03  0.12500657900E+03 0.  0.
         25    2    1    2    0    0 -0.73815373450E+01  0.18222569518E+02 -0.49856486966E+02  0.13600498958E+03  0.12500055506E+03 0.  0.
          5    1    4    4  502    0  0.35844388318E+02 -0.37963594420E+02 -0.66242981602E+01  0.52839625294E+02  0.47000000000E+01 0. -1.
         -5    1    4    4    0  502 -0.43225925663E+02  0.56186163938E+02 -0.43232188806E+02  0.83165364283E+02  0.47000000000E+01 0. -1.
          5    1    3    3  503    0 -0.39526365568E+02 -0.46223564486E+02  0.65484277363E+02  0.89494313063E+02  0.47000000000E+01 0. -1.
         -5    1    3    3    0  503  0.46907902913E+02  0.28000994967E+02  0.42618346415E+01  0.54996911817E+02  0.47000000000E+01 0. -1.
<mgrwt>
<rscale>  0 0.12654176E+03</rscale>
<asrwt>0</asrwt>
<pdfrwt beam="2">  1        5 0.20046661E-01 0.12654325E+03</pdfrwt>
<pdfrwt beam="1">  1       -5 0.23106603E-01 0.12654325E+03</pdfrwt>
<totfact> 0.28750103E+02</totfact>
</mgrwt>
</event>
<event>
 8    1  0.1821556E-007  0.1335964E+03  0.7546771E-02  0.1222217E+00
         -5   -1    0    0    0  501 -0.00000000000E+00  0.00000000000E+00  0.31339388206E+02  0.31689860415E+02  0.47000000000E+01 0.  1.
          5   -1    0    0  501    0  0.00000000000E+00 -0.00000000000E+00 -0.64172718937E+03  0.64174440050E+03  0.47000000000E+01 0.  1.
         25    2    1    2    0    0  0.18934214295E+02 -0.43168488590E+02 -0.18951236215E+03  0.23186418970E+03  0.12499617665E+03 0.  0.
         25    2    1    2    0    0 -0.18934214295E+02  0.43168488590E+02 -0.42087543901E+03  0.44157007122E+03  0.12500387897E+03 0.  0.
          5    1    3    3  502    0  0.42581193336E+02  0.28860314102E+02 -0.44568975475E+02  0.68224330930E+02  0.47000000000E+01 0. -1.
         -5    1    3    3    0  502 -0.23646979041E+02 -0.72028802691E+02 -0.14494338668E+03  0.16363985876E+03  0.47000000000E+01 0. -1.
          5    1    4    4  503    0 -0.11490707050E+02  0.19446156935E+02 -0.41493907208E+03  0.41557997173E+03  0.47000000000E+01 0. -1.
         -5    1    4    4    0  503 -0.74435072456E+01  0.23722331654E+02 -0.59363669360E+01  0.25990099493E+02  0.47000000000E+01 0. -1.
<mgrwt>
<rscale>  0 0.13359458E+03</rscale>
<asrwt>0</asrwt>
<pdfrwt beam="2">  1        5 0.98755534E-01 0.13359638E+03</pdfrwt>
<pdfrwt beam="1">  1       -5 0.48497281E-02 0.13359638E+03</pdfrwt>
<totfact> 0.16105701E+02</totfact>
</mgrwt>
</event>
<event>
 8    1  0.1821556E-007  0.1859380E+03  0.7546771E-02  0.1162178E+00
          5   -1    0    0  501    0  0.00000000000E+00  0.00000000000E+00  0.17722424252E+03  0.17728655374E+03  0.47000000000E+01 0. -1.
         -5   -1    0    0    0  501 -0.00000000000E+00 -0.00000000000E+00 -0.19584267805E+03  0.19589906724E+03  0.47000000000E+01 0. -1.
         25    2    1    2    0    0  0.89802647583E+02 -0.10432491102E+03 -0.21894687033E+02  0.18722265301E+03  0.12499896763E+03 0.  0.
         25    2    1    2    0    0 -0.89802647583E+02  0.10432491102E+03  0.32762515016E+01  0.18596296797E+03  0.12499315605E+03 0.  0.
          5    1    4    4  502    0 -0.11148962453E+03  0.74841843722E+02 -0.28399847708E+02  0.13733127575E+03  0.47000000000E+01 0.  1.
         -5    1    4    4    0  502  0.21686976952E+02  0.29483067300E+02  0.31676099210E+02  0.48631692217E+02  0.47000000000E+01 0.  1.
          5    1    3    3  503    0 -0.29838503130E+01  0.24695327219E+02 -0.11752314005E+02  0.27910023891E+02  0.47000000000E+01 0.  1.
         -5    1    3    3    0  503  0.92786497896E+02 -0.12902023824E+03 -0.10142373028E+02  0.15931262912E+03  0.47000000000E+01 0.  1.
<mgrwt>
<rscale>  0 0.18593704E+03</rscale>
<asrwt>0</asrwt>
<pdfrwt beam="1">  1        5 0.27274399E-01 0.18593801E+03</pdfrwt>
<pdfrwt beam="2">  1       -5 0.30138774E-01 0.18593801E+03</pdfrwt>
<totfact> 0.10832127E+02</totfact>
</mgrwt>
</event>
<event>
 8    1  0.1821556E-007  0.1485030E+03  0.7546771E-02  0.1202326E+00
          5   -1    0    0  501    0  0.00000000000E+00  0.00000000000E+00  0.95689781928E+03  0.95690936172E+03  0.47000000000E+01 0.  1.
         -5   -1    0    0    0  501 -0.00000000000E+00 -0.00000000000E+00 -0.23008598452E+02  0.23483730597E+02  0.47000000000E+01 0.  1.
         25    2    1    2    0    0 -0.76334638387E+02  0.24494731359E+02  0.51376981616E+03  0.53480142454E+03  0.12500468314E+03 0.  0.
         25    2    1    2    0    0  0.76334638387E+02 -0.24494731359E+02  0.42011940467E+03  0.44559166778E+03  0.12499860532E+03 0.  0.
          5    1    3    3  502    0  0.24086756488E+02  0.39408782077E+02  0.14244844435E+03  0.14982280614E+03  0.47000000000E+01 0.  1.
         -5    1    3    3    0  502 -0.10042139488E+03 -0.14914050718E+02  0.37132137181E+03  0.38497861839E+03  0.47000000000E+01 0.  1.
          5    1    4    4  503    0 -0.18373160457E+01 -0.27324075578E+02  0.30540254521E+03  0.30666396179E+03  0.47000000000E+01 0.  1.
         -5    1    4    4    0  503  0.78171954433E+02  0.28293442190E+01  0.11471685946E+03  0.13892770599E+03  0.47000000000E+01 0.  1.
<mgrwt>
<rscale>  0 0.14850172E+03</rscale>
<asrwt>0</asrwt>
<pdfrwt beam="1">  1        5 0.14725250E+00 0.14850300E+03</pdfrwt>
<pdfrwt beam="2">  1       -5 0.35772206E-02 0.14850300E+03</pdfrwt>
<totfact> 0.98860862E+01</totfact>
</mgrwt>
</event>
<event>
 8    1  0.1821556E-007  0.1563895E+03  0.7546771E-02  0.1192835E+00
          5   -1    0    0  501    0  0.00000000000E+00  0.00000000000E+00  0.27147169421E+03  0.27151237680E+03  0.47000000000E+01 0.  1.
         -5   -1    0    0    0  501 -0.00000000000E+00 -0.00000000000E+00 -0.98331465959E+02  0.98443726045E+02  0.47000000000E+01 0.  1.
         25    2    1    2    0    0 -0.93931237781E+02  0.33558480187E+01  0.14042386349E+03  0.21018212904E+03  0.12499330697E+03 0.  0.
         25    2    1    2    0    0  0.93931237781E+02 -0.33558480187E+01  0.32716364762E+02  0.15977397380E+03  0.12499209189E+03 0.  0.
          5    1    3    3  502    0  0.12769756748E+02  0.38998343810E+02  0.22088387128E+02  0.46839346209E+02  0.47000000000E+01 0.  1.
         -5    1    3    3    0  502 -0.10670099453E+03 -0.35642495792E+02  0.11833547636E+03  0.16334278284E+03  0.47000000000E+01 0.  1.
          5    1    4    4  503    0 -0.85497017910E+01 -0.25896024844E+02  0.46222915010E+02  0.53873457058E+02  0.47000000000E+01 0.  1.
         -5    1    4    4    0  503  0.10248093957E+03  0.22540176825E+02 -0.13506550247E+02  0.10590051674E+03  0.47000000000E+01 0.  1.
<mgrwt>
<rscale>  0 0.15638923E+03</rscale>
<asrwt>0</asrwt>
<pdfrwt beam="1">  1        5 0.41776640E-01 0.15638947E+03</pdfrwt>
<pdfrwt beam="2">  1       -5 0.15139683E-01 0.15638947E+03</pdfrwt>
<totfact> 0.16077092E+02</totfact>
</mgrwt>
</event>
<event>
 8    1  0.1821556E-007  0.1377132E+03  0.7546771E-02  0.1216441E+00
          5   -1    0    0  501    0  0.00000000000E+00  0.00000000000E+00  0.15763956710E+03  0.15770961644E+03  0.47000000000E+01 0.  1.
         -5   -1    0    0    0  501 -0.00000000000E+00 -0.00000000000E+00 -0.12080297136E+03  0.12089436665E+03  0.47000000000E+01 0.  1.
         25    2    1    2    0    0 -0.75901533010E+01  0.57292142859E+02  0.82643158650E+01  0.13795792734E+03  0.12499636290E+03 0.  0.
         25    2    1    2    0    0  0.75901533010E+01 -0.57292142859E+02  0.28572279883E+02  0.14064605575E+03  0.12499975104E+03 0.  0.
          5    1    3    3  502    0 -0.41969418752E+02 -0.22504689002E+02 -0.10383841853E+02  0.48967410684E+02  0.47000000000E+01 0.  1.
         -5    1    3    3    0  502  0.34379265451E+02  0.79796831861E+02  0.18648157718E+02  0.88990516654E+02  0.47000000000E+01 0.  1.
          5    1    4    4  503    0  0.60087415771E+02 -0.52029402105E+02  0.35589644503E+02  0.87213926716E+02  0.47000000000E+01 0.  1.
         -5    1    4    4    0  503 -0.52497262469E+02 -0.52627407543E+01 -0.70173646198E+01  0.53432129035E+02  0.47000000000E+01 0.  1.
<mgrwt>
<rscale>  0 0.13771248E+03</rscale>
<asrwt>0</asrwt>
<pdfrwt beam="1">  1        5 0.24264660E-01 0.13771324E+03</pdfrwt>
<pdfrwt beam="2">  1       -5 0.18597491E-01 0.13771324E+03</pdfrwt>
<totfact> 0.31033472E+02</totfact>
</mgrwt>
</event>
<event>
 8    1  0.1821556E-007  0.1502756E+03  0.7546771E-02  0.1200135E+00
         -5   -1    0    0    0  501 -0.00000000000E+00  0.00000000000E+00  0.76091601892E+03  0.76093053418E+03  0.47000000000E+01 0. -1.
          5   -1    0    0  501    0  0.00000000000E+00 -0.00000000000E+00 -0.40713098174E+02  0.40983488906E+02  0.47000000000E+01 0. -1.
         25    2    1    2    0    0  0.80613467587E+02  0.21412808788E+02  0.56987345282E+03  0.58935414818E+03  0.12500208085E+03 0.  0.
         25    2    1    2    0    0 -0.80613467587E+02 -0.21412808788E+02  0.15032946793E+03  0.21255987490E+03  0.12500284779E+03 0.  0.
          5    1    3    3  502    0  0.73342711985E+01  0.64250387528E+02  0.26874090375E+03  0.27645192562E+03  0.47000000000E+01 0.  1.
         -5    1    3    3    0  502  0.73279196389E+02 -0.42837578740E+02  0.30113254907E+03  0.31290222256E+03  0.47000000000E+01 0.  1.
          5    1    4    4  503    0 -0.40427265048E+02  0.44219059341E+02  0.24316778024E+02  0.64831201298E+02  0.47000000000E+01 0.  1.
         -5    1    4    4    0  503 -0.40186202540E+02 -0.65631868129E+02  0.12601268990E+03  0.14772867360E+03  0.47000000000E+01 0.  1.
<mgrwt>
<rscale>  0 0.15027543E+03</rscale>
<asrwt>0</asrwt>
<pdfrwt beam="2">  1        5 0.62854694E-02 0.15027559E+03</pdfrwt>
<pdfrwt beam="1">  1       -5 0.11708592E+00 0.15027559E+03</pdfrwt>
<totfact> 0.71048191E+01</totfact>
</mgrwt>
</event>
<event>
 8    1  0.1821556E-007  0.1568552E+03  0.7546771E-02  0.1192294E+00
         -5   -1    0    0    0  501 -0.00000000000E+00  0.00000000000E+00  0.61905828682E+02  0.62083988474E+02  0.47000000000E+01 0. -1.
          5   -1    0    0  501    0  0.00000000000E+00 -0.00000000000E+00 -0.40524620451E+03  0.40527345863E+03  0.47000000000E+01 0. -1.
         25    2    1    2    0    0  0.42207435013E+02 -0.84830432229E+02 -0.13767560108E+03  0.20870409055E+03  0.12500062591E+03 0.  0.
         25    2    1    2    0    0 -0.42207435013E+02  0.84830432229E+02 -0.20566477475E+03  0.25865335655E+03  0.12500355787E+03 0.  0.
          5    1    3    3  502    0  0.72840499077E+02 -0.85503249193E+02 -0.65398654425E+02  0.13006005509E+03  0.47000000000E+01 0.  1.
         -5    1    3    3    0  502 -0.30633064065E+02  0.67281696366E+00 -0.72276946656E+02  0.78644035467E+02  0.47000000000E+01 0.  1.
          5    1    4    4  503    0 -0.30125158138E+02  0.11717480948E+03 -0.14726410306E+03  0.19064697003E+03  0.47000000000E+01 0. -1.
         -5    1    4    4    0  503 -0.12082276875E+02 -0.32344377255E+02 -0.58400671684E+02  0.68006386521E+02  0.47000000000E+01 0. -1.
<mgrwt>
<rscale>  0 0.15685463E+03</rscale>
<asrwt>0</asrwt>
<pdfrwt beam="2">  1        5 0.62361369E-01 0.15685522E+03</pdfrwt>
<pdfrwt beam="1">  1       -5 0.95397750E-02 0.15685522E+03</pdfrwt>
<totfact> 0.15558078E+02</totfact>
</mgrwt>
</event>
<event>
 8    1  0.1821556E-007  0.1608877E+03  0.7546771E-02  0.1187707E+00
         -5   -1    0    0    0  501 -0.00000000000E+00  0.00000000000E+00  0.32548960802E+03  0.32552353974E+03  0.47000000000E+01 0. -1.
          5   -1    0    0  501    0  0.00000000000E+00 -0.00000000000E+00 -0.10570271945E+03  0.10580715902E+03  0.47000000000E+01 0. -1.
         25    2    1    2    0    0  0.10106518579E+03  0.58785594093E+01  0.21739685208E+03  0.27045562045E+03  0.12504448048E+03 0.  0.
         25    2    1    2    0    0 -0.10106518579E+03 -0.58785594093E+01  0.23900364784E+01  0.16087507831E+03  0.12500539711E+03 0.  0.
          5    1    4    4  502    0 -0.26667060748E+02  0.47133654772E+02 -0.32084293736E+02  0.63120562780E+02  0.47000000000E+01 0.  1.
         -5    1    4    4    0  502 -0.74398125046E+02 -0.53012214181E+02  0.34474330215E+02  0.97754515530E+02  0.47000000000E+01 0.  1.
          5    1    3    3  503    0 -0.16421128669E+02 -0.30141422542E+02  0.72903589326E+02  0.80716678303E+02  0.47000000000E+01 0.  1.
         -5    1    3    3    0  503  0.11748631446E+03  0.36019981952E+02  0.14449326276E+03  0.18973894215E+03  0.47000000000E+01 0.  1.
<mgrwt>
<rscale>  0 0.16088010E+03</rscale>
<asrwt>0</asrwt>
<pdfrwt beam="2">  1        5 0.16272601E-01 0.16088770E+03</pdfrwt>
<pdfrwt beam="1">  1       -5 0.50085967E-01 0.16088770E+03</pdfrwt>
<totfact> 0.97255942E+01</totfact>
</mgrwt>
</event>
<event>
 8    1  0.1821556E-007  0.1592330E+03  0.7546771E-02  0.1189566E+00
          5   -1    0    0  501    0  0.00000000000E+00  0.00000000000E+00  0.18231488718E+03  0.18237545912E+03  0.47000000000E+01 0. -1.
         -5   -1    0    0    0  501 -0.00000000000E+00 -0.00000000000E+00 -0.17092135910E+03  0.17098596725E+03  0.47000000000E+01 0. -1.
         25    2    1    2    0    0 -0.13984362529E+01 -0.98637867356E+02 -0.70687852560E+02  0.17421760239E+03  0.12499446381E+03 0.  0.
         25    2    1    2    0    0  0.13984362529E+01  0.98637867356E+02  0.82081380640E+02  0.17914382398E+03  0.12499508839E+03 0.  0.
          5    1    3    3  502    0  0.10294987197E+02 -0.12665396615E+03 -0.65587304881E+02  0.14307689703E+03  0.47000000000E+01 0. -1.
         -5    1    3    3    0  502 -0.11693423450E+02  0.28016098795E+02 -0.51005476791E+01  0.31140705360E+02  0.47000000000E+01 0. -1.
          5    1    4    4  503    0  0.40370609101E+02  0.43564130113E+02 -0.14422810792E+02  0.61300301654E+02  0.47000000000E+01 0.  1.
         -5    1    4    4    0  503 -0.38972172848E+02  0.55073737243E+02  0.96504191432E+02  0.11784352233E+03  0.47000000000E+01 0.  1.
<mgrwt>
<rscale>  0 0.15923290E+03</rscale>
<asrwt>0</asrwt>
<pdfrwt beam="1">  1        5 0.28058073E-01 0.15923303E+03</pdfrwt>
<pdfrwt beam="2">  1       -5 0.26305223E-01 0.15923303E+03</pdfrwt>
<totfact> 0.12770117E+02</totfact>
</mgrwt>
</event>
<event>
 8    1  0.1821556E-007  0.1543897E+03  0.7546771E-02  0.1195181E+00
          5   -1    0    0  501    0  0.00000000000E+00  0.00000000000E+00  0.11810035938E+03  0.11819384454E+03  0.47000000000E+01 0. -1.
         -5   -1    0    0    0  501 -0.00000000000E+00 -0.00000000000E+00 -0.20162599242E+03  0.20168076463E+03  0.47000000000E+01 0. -1.
         25    2    1    2    0    0 -0.75961153434E+02 -0.49418756179E+02 -0.41954860795E+02  0.15998622159E+03  0.12499228160E+03 0.  0.
         25    2    1    2    0    0  0.75961153434E+02  0.49418756179E+02 -0.41570772246E+02  0.15988838758E+03  0.12499542825E+03 0.  0.
          5    1    3    3  502    0 -0.96285840856E+02 -0.41564734239E+02  0.79999753027E+01  0.10528380638E+03  0.47000000000E+01 0.  1.
         -5    1    3    3    0  502  0.20324687423E+02 -0.78540219407E+01 -0.49954836098E+02  0.54702415203E+02  0.47000000000E+01 0.  1.
          5    1    4    4  503    0  0.10970706351E+03  0.38588865660E+02 -0.19894113079E+02  0.11807881297E+03  0.47000000000E+01 0. -1.
         -5    1    4    4    0  503 -0.33745910081E+02  0.10829890520E+02 -0.21676659167E+02  0.41809574603E+02  0.47000000000E+01 0. -1.
<mgrwt>
<rscale>  0 0.15438902E+03</rscale>
<asrwt>0</asrwt>
<pdfrwt beam="1">  1        5 0.18180691E-01 0.15438966E+03</pdfrwt>
<pdfrwt beam="2">  1       -5 0.31030788E-01 0.15438966E+03</pdfrwt>
<totfact> 0.20860712E+02</totfact>
</mgrwt>
</event>
<event>
 8    1  0.1821556E-007  0.1403943E+03  0.7546771E-02  0.1212824E+00
         -5   -1    0    0    0  501 -0.00000000000E+00  0.00000000000E+00  0.18226845822E+02  0.18823068523E+02  0.47000000000E+01 0.  1.
          5   -1    0    0  501    0  0.00000000000E+00 -0.00000000000E+00 -0.11157656581E+04  0.11157755571E+04  0.47000000000E+01 0.  1.
         25    2    1    2    0    0 -0.26154291269E+02  0.58146487842E+02 -0.67214572513E+03  0.68663676171E+03  0.12500042285E+03 0.  0.
         25    2    1    2    0    0  0.26154291269E+02 -0.58146487842E+02 -0.42539308715E+03  0.44796186390E+03  0.12508194082E+03 0.  0.
          5    1    4    4  502    0  0.10520419578E+02  0.22539271993E+02 -0.27790309703E+03  0.27905361376E+03  0.47000000000E+01 0.  1.
         -5    1    4    4    0  502  0.15633871691E+02 -0.80685759835E+02 -0.14748999011E+03  0.16890825015E+03  0.47000000000E+01 0.  1.
          5    1    3    3  503    0  0.27829018683E+02  0.69763265147E+02 -0.25647567000E+03  0.26728865810E+03  0.47000000000E+01 0.  1.
         -5    1    3    3    0  503 -0.53983309952E+02 -0.11616777305E+02 -0.41567005513E+03  0.41934810361E+03  0.47000000000E+01 0.  1.
<mgrwt>
<rscale>  0 0.14037612E+03</rscale>
<asrwt>0</asrwt>
<pdfrwt beam="2">  1        5 0.17170283E+00 0.14039428E+03</pdfrwt>
<pdfrwt beam="1">  1       -5 0.28507558E-02 0.14039428E+03</pdfrwt>
<totfact> 0.91410249E+01</totfact>
</mgrwt>
</event>
<event>
 8    1  0.1821556E-007  0.1456640E+03  0.7546771E-02  0.1205905E+00
          5   -1    0    0  501    0  0.00000000000E+00  0.00000000000E+00  0.13667881408E+03  0.13675960010E+03  0.47000000000E+01 0.  1.
         -5   -1    0    0    0  501 -0.00000000000E+00 -0.00000000000E+00 -0.17629880458E+03  0.17636144277E+03  0.47000000000E+01 0.  1.
         25    2    1    2    0    0  0.32219753000E+02 -0.67484472519E+02 -0.74107205467E+02  0.16343153397E+03  0.12500288749E+03 0.  0.
         25    2    1    2    0    0 -0.32219753000E+02  0.67484472519E+02  0.34487214968E+02  0.14968950890E+03  0.12500125824E+03 0.  0.
          5    1    3    3  502    0 -0.36240627136E+02 -0.27052799203E+02 -0.70263870353E+02  0.83691925996E+02  0.47000000000E+01 0. -1.
         -5    1    3    3    0  502  0.68460380137E+02 -0.40431673316E+02 -0.38433351143E+01  0.79739607978E+02  0.47000000000E+01 0. -1.
          5    1    4    4  503    0 -0.10639452481E+02 -0.32527700039E+02 -0.12850333861E+02  0.36857432076E+02  0.47000000000E+01 0.  1.
         -5    1    4    4    0  503 -0.21580300520E+02  0.10001217256E+03  0.47337548829E+02  0.11283207682E+03  0.47000000000E+01 0.  1.
<mgrwt>
<rscale>  0 0.14566361E+03</rscale>
<asrwt>0</asrwt>
<pdfrwt beam="1">  1        5 0.21038542E-01 0.14566396E+03</pdfrwt>
<pdfrwt beam="2">  1       -5 0.27133926E-01 0.14566396E+03</pdfrwt>
<totfact> 0.20267736E+02</totfact>
</mgrwt>
</event>
<event>
 8    1  0.1821556E-007  0.1266307E+03  0.7546771E-02  0.1232546E+00
         -5   -1    0    0    0  501 -0.00000000000E+00  0.00000000000E+00  0.84133699170E+03  0.84135011951E+03  0.47000000000E+01 0.  1.
          5   -1    0    0  501    0  0.00000000000E+00 -0.00000000000E+00 -0.21354320069E+02  0.21865429006E+02  0.47000000000E+01 0.  1.
         25    2    1    2    0    0 -0.18057045114E+02 -0.91375991439E+01  0.55866660730E+03  0.57283829639E+03  0.12500313234E+03 0.  0.
         25    2    1    2    0    0  0.18057045114E+02  0.91375991439E+01  0.26131606433E+03  0.29037725213E+03  0.12499324175E+03 0.  0.
          5    1    3    3  502    0 -0.38447704313E+02  0.34037909089E+02  0.46251737026E+03  0.46538286712E+03  0.47000000000E+01 0.  1.
         -5    1    3    3    0  502  0.20390659199E+02 -0.43175508233E+02  0.96149237046E+02  0.10745542926E+03  0.47000000000E+01 0.  1.
          5    1    4    4  503    0 -0.45121198040E+02 -0.76100591686E+01  0.44986236987E+02  0.64340399683E+02  0.47000000000E+01 0. -1.
         -5    1    4    4    0  503  0.63178243154E+02  0.16747658312E+02  0.21632982734E+03  0.22603685245E+03  0.47000000000E+01 0. -1.
<mgrwt>
<rscale>  0 0.12662827E+03</rscale>
<asrwt>0</asrwt>
<pdfrwt beam="2">  1        5 0.33256068E-02 0.12663071E+03</pdfrwt>
<pdfrwt beam="1">  1       -5 0.12947675E+00 0.12663071E+03</pdfrwt>
<totfact> 0.14885632E+02</totfact>
</mgrwt>
</event>
<event>
 8    1  0.1821556E-007  0.1305289E+03  0.7546771E-02  0.1226675E+00
         -5   -1    0    0    0  501 -0.00000000000E+00  0.00000000000E+00  0.26600849342E+03  0.26605001141E+03  0.47000000000E+01 0. -1.
          5   -1    0    0  501    0  0.00000000000E+00 -0.00000000000E+00 -0.68101119993E+02  0.68263112618E+02  0.47000000000E+01 0. -1.
         25    2    1    2    0    0 -0.14741839777E+02 -0.34581570450E+02  0.14033367541E+03  0.19165089544E+03  0.12499327348E+03 0.  0.
         25    2    1    2    0    0  0.14741839777E+02  0.34581570450E+02  0.57573698020E+02  0.14266222859E+03  0.12499829562E+03 0.  0.
          5    1    3    3  502    0 -0.69071512727E+02 -0.17598182198E+02  0.94253893786E+02  0.11826434958E+03  0.47000000000E+01 0.  1.
         -5    1    3    3    0  502  0.54329672949E+02 -0.16983388252E+02  0.46079781624E+02  0.73386545863E+02  0.47000000000E+01 0.  1.
          5    1    4    4  503    0  0.21075417556E+02 -0.23205927283E+02 -0.25829568619E+02  0.40889422853E+02  0.47000000000E+01 0.  1.
         -5    1    4    4    0  503 -0.63335777783E+01  0.57787497732E+02  0.83403266639E+02  0.10177280574E+03  0.47000000000E+01 0.  1.
<mgrwt>
<rscale>  0 0.13052765E+03</rscale>
<asrwt>0</asrwt>
<pdfrwt beam="2">  1        5 0.10492750E-01 0.13052885E+03</pdfrwt>
<pdfrwt beam="1">  1       -5 0.40940040E-01 0.13052885E+03</pdfrwt>
<totfact> 0.30317894E+02</totfact>
</mgrwt>
</event>
<event>
 8    1  0.1821556E-007  0.1353942E+03  0.7546771E-02  0.1219667E+00
          5   -1    0    0  501    0  0.00000000000E+00  0.00000000000E+00  0.53415360448E+03  0.53417428165E+03  0.47000000000E+01 0.  1.
         -5   -1    0    0    0  501 -0.00000000000E+00 -0.00000000000E+00 -0.34316375096E+02  0.34636737717E+02  0.47000000000E+01 0.  1.
         25    2    1    2    0    0 -0.39106571827E+02  0.34293094564E+02  0.27053646528E+03  0.30252531680E+03  0.12500499175E+03 0.  0.
         25    2    1    2    0    0  0.39106571827E+02 -0.34293094564E+02  0.22930076411E+03  0.26628570257E+03  0.12499557864E+03 0.  0.
          5    1    4    4  502    0  0.79955198942E+02 -0.18578944160E+02  0.19096925849E+03  0.20791671095E+03  0.47000000000E+01 0. -1.
         -5    1    4    4    0  502 -0.40848627116E+02 -0.15714150404E+02  0.38331505615E+02  0.58368991621E+02  0.47000000000E+01 0. -1.
          5    1    3    3  503    0  0.16418932245E+02  0.60643077687E+01  0.22374405328E+03  0.22447683297E+03  0.47000000000E+01 0. -1.
         -5    1    3    3    0  503 -0.55525504072E+02  0.28228786795E+02  0.46792412000E+02  0.78048483824E+02  0.47000000000E+01 0. -1.
<mgrwt>
<rscale>  0 0.13539202E+03</rscale>
<asrwt>0</asrwt>
<pdfrwt beam="1">  1        5 0.82203717E-01 0.13539420E+03</pdfrwt>
<pdfrwt beam="2">  1       -5 0.53056758E-02 0.13539420E+03</pdfrwt>
<totfact> 0.21528334E+02</totfact>
</mgrwt>
</event>
<event>
 8    1  0.1821556E-007  0.1264582E+03  0.7546771E-02  0.1232812E+00
         -5   -1    0    0    0  501 -0.00000000000E+00  0.00000000000E+00  0.40712381163E+02  0.40982776626E+02  0.47000000000E+01 0.  1.
          5   -1    0    0  501    0  0.00000000000E+00 -0.00000000000E+00 -0.42856742397E+03  0.42859319510E+03  0.47000000000E+01 0.  1.
         25    2    1    2    0    0 -0.70924823800E+01  0.17699845209E+02 -0.12459325107E+03  0.17751698717E+03  0.12500085877E+03 0.  0.
         25    2    1    2    0    0  0.70924823800E+01 -0.17699845209E+02 -0.26326179173E+03  0.29205898456E+03  0.12501236598E+03 0.  0.
          5    1    3    3  502    0 -0.53948758585E+02 -0.12985574109E+02 -0.20731837159E+02  0.59422157145E+02  0.47000000000E+01 0. -1.
         -5    1    3    3    0  502  0.46856276205E+02  0.30685419318E+02 -0.10386141391E+03  0.11809483002E+03  0.47000000000E+01 0. -1.
          5    1    4    4  503    0 -0.10635633344E+02  0.22835549708E+02 -0.57599170431E+00  0.25632026715E+02  0.47000000000E+01 0. -1.
         -5    1    4    4    0  503  0.17728115724E+02 -0.40535394917E+02 -0.26268580003E+03  0.26642695784E+03  0.47000000000E+01 0. -1.
<mgrwt>
<rscale>  0 0.12645537E+03</rscale>
<asrwt>0</asrwt>
<pdfrwt beam="2">  1        5 0.65956229E-01 0.12645821E+03</pdfrwt>
<pdfrwt beam="1">  1       -5 0.62862256E-02 0.12645821E+03</pdfrwt>
<totfact> 0.26101924E+02</totfact>
</mgrwt>
</event>
<event>
 8    1  0.1821556E-007  0.1551299E+03  0.7546771E-02  0.1194312E+00
          5   -1    0    0  501    0  0.00000000000E+00  0.00000000000E+00  0.11633090406E+03  0.11642581002E+03  0.47000000000E+01 0. -1.
         -5   -1    0    0    0  501 -0.00000000000E+00 -0.00000000000E+00 -0.20727249453E+03  0.20732577502E+03  0.47000000000E+01 0. -1.
         25    2    1    2    0    0 -0.79917171179E+02  0.45314092736E+02 -0.54380223407E+02  0.16438519331E+03  0.12500064733E+03 0.  0.
         25    2    1    2    0    0  0.79917171179E+02 -0.45314092736E+02 -0.36561367065E+02  0.15936639173E+03  0.12498316688E+03 0.  0.
          5    1    3    3  502    0 -0.69008298643E+01  0.16436135174E+02 -0.79657909324E+02  0.81763320077E+02  0.47000000000E+01 0.  1.
         -5    1    3    3    0  502 -0.73016341315E+02  0.28877957562E+02  0.25277685917E+02  0.82621873237E+02  0.47000000000E+01 0.  1.
          5    1    4    4  503    0 -0.49986211341E+01  0.51471951513E+01 -0.57623894052E+02  0.58258758972E+02  0.47000000000E+01 0.  1.
         -5    1    4    4    0  503  0.84915792313E+02 -0.50461287887E+02  0.21062526988E+02  0.10110763276E+03  0.47000000000E+01 0.  1.
<mgrwt>
<rscale>  0 0.15512637E+03</rscale>
<asrwt>0</asrwt>
<pdfrwt beam="1">  1        5 0.17908461E-01 0.15512989E+03</pdfrwt>
<pdfrwt beam="2">  1       -5 0.31899475E-01 0.15512989E+03</pdfrwt>
<totfact> 0.20341824E+02</totfact>
</mgrwt>
</event>
<event>
 8    1  0.1821556E-007  0.1557148E+03  0.7546771E-02  0.1193627E+00
          5   -1    0    0  501    0  0.00000000000E+00  0.00000000000E+00  0.10624438027E+03  0.10634828790E+03  0.47000000000E+01 0. -1.
         -5   -1    0    0    0  501 -0.00000000000E+00 -0.00000000000E+00 -0.29419971202E+03  0.29423725215E+03  0.47000000000E+01 0. -1.
         25    2    1    2    0    0  0.42638451823E+02 -0.82484262686E+02 -0.18900404739E+03  0.24488695561E+03  0.12500159973E+03 0.  0.
         25    2    1    2    0    0 -0.42638451823E+02  0.82484262686E+02  0.10487156517E+01  0.15569858443E+03  0.12497703079E+03 0.  0.
          5    1    4    4  502    0 -0.86040658091E+02  0.66644954926E+02 -0.38377091820E+01  0.10900166455E+03  0.47000000000E+01 0. -1.
         -5    1    4    4    0  502  0.43402206268E+02  0.15839307760E+02  0.48864248338E+01  0.46696919886E+02  0.47000000000E+01 0. -1.
          5    1    3    3  503    0 -0.29451810146E+02 -0.71425322422E+02 -0.12848302117E+03  0.14999654174E+03  0.47000000000E+01 0. -1.
         -5    1    3    3    0  503  0.72090261969E+02 -0.11058940264E+02 -0.60521026220E+02  0.94890413874E+02  0.47000000000E+01 0. -1.
<mgrwt>
<rscale>  0 0.15570984E+03</rscale>
<asrwt>0</asrwt>
<pdfrwt beam="1">  1        5 0.16356170E-01 0.15571477E+03</pdfrwt>
<pdfrwt beam="2">  1       -5 0.45272374E-01 0.15571477E+03</pdfrwt>
<totfact> 0.11801281E+02</totfact>
</mgrwt>
</event>
<event>
 8    1  0.1821556E-007  0.1313427E+03  0.7546771E-02  0.1225494E+00
         -5   -1    0    0    0  501 -0.00000000000E+00  0.00000000000E+00  0.98642781872E+03  0.98643901562E+03  0.47000000000E+01 0. -1.
          5   -1    0    0  501    0  0.00000000000E+00 -0.00000000000E+00 -0.17249706303E+02  0.17878544895E+02  0.47000000000E+01 0. -1.
         25    2    1    2    0    0 -0.35677814895E+02 -0.18460685850E+02  0.52127875810E+03  0.53757087002E+03  0.12504876350E+03 0.  0.
         25    2    1    2    0    0  0.35677814895E+02  0.18460685850E+02  0.44789935431E+03  0.46674669049E+03  0.12499975237E+03 0.  0.
          5    1    4    4  502    0  0.16429148017E+02  0.59495674898E+02  0.37977669823E+03  0.38478836099E+03  0.47000000000E+01 0. -1.
         -5    1    4    4    0  502  0.19248666878E+02 -0.41034989048E+02  0.68122656088E+02  0.81958329505E+02  0.47000000000E+01 0. -1.
          5    1    3    3  503    0 -0.27438248461E+02  0.48604730436E+01  0.17660366996E+02  0.33323568825E+02  0.47000000000E+01 0. -1.
         -5    1    3    3    0  503 -0.82395664336E+01 -0.23321158893E+02  0.50361839110E+03  0.50424730120E+03  0.47000000000E+01 0. -1.
<mgrwt>
<rscale>  0 0.13133100E+03</rscale>
<asrwt>0</asrwt>
<pdfrwt beam="2">  1        5 0.27030346E-02 0.13134267E+03</pdfrwt>
<pdfrwt beam="1">  1       -5 0.15180735E+00 0.13134267E+03</pdfrwt>
<totfact> 0.13783511E+02</totfact>
</mgrwt>
</event>
<event>
 8    1  0.1821556E-007  0.1270449E+03  0.7546771E-02  0.1231911E+00
          5   -1    0    0  501    0  0.00000000000E+00  0.00000000000E+00  0.10926230504E+04  0.10926331591E+04  0.47000000000E+01 0.  1.
         -5   -1    0    0    0  501 -0.00000000000E+00 -0.00000000000E+00 -0.15245453174E+02  0.15953489978E+02  0.47000000000E+01 0.  1.
         25    2    1    2    0    0 -0.16678935976E+02  0.15384729250E+02  0.41024169525E+03  0.42946320334E+03  0.12500207078E+03 0.  0.
         25    2    1    2    0    0  0.16678935976E+02 -0.15384729250E+02  0.66713590198E+03  0.67912344570E+03  0.12499386381E+03 0.  0.
          5    1    3    3  502    0 -0.60852836167E+02 -0.20311878189E+01  0.33388590337E+03  0.33942463061E+03  0.47000000000E+01 0. -1.
         -5    1    3    3    0  502  0.44173900192E+02  0.17415917069E+02  0.76355791883E+02  0.90038572732E+02  0.47000000000E+01 0. -1.
          5    1    4    4  503    0 -0.23384180001E+02  0.41849588157E+02  0.15754553125E+03  0.16474493109E+03  0.47000000000E+01 0. -1.
         -5    1    4    4    0  503  0.40063115977E+02 -0.57234317407E+02  0.50959037072E+03  0.51437851460E+03  0.47000000000E+01 0. -1.
<mgrwt>
<rscale>  0 0.12704283E+03</rscale>
<asrwt>0</asrwt>
<pdfrwt beam="1">  1        5 0.16815113E+00 0.12704485E+03</pdfrwt>
<pdfrwt beam="2">  1       -5 0.24006959E-02 0.12704485E+03</pdfrwt>
<totfact> 0.12389485E+02</totfact>
</mgrwt>
</event>
<event>
 8    1  0.1821556E-007  0.1517790E+03  0.7546771E-02  0.1198306E+00
         -5   -1    0    0    0  501 -0.00000000000E+00  0.00000000000E+00  0.50751665788E+03  0.50753842025E+03  0.47000000000E+01 0. -1.
          5   -1    0    0  501    0  0.00000000000E+00 -0.00000000000E+00 -0.46353521980E+02  0.46591190153E+02  0.47000000000E+01 0. -1.
         25    2    1    2    0    0 -0.58426771445E+02  0.63229054147E+02  0.27331227633E+03  0.31262832205E+03  0.12500106576E+03 0.  0.
         25    2    1    2    0    0  0.58426771445E+02 -0.63229054147E+02  0.18785085957E+03  0.24150128836E+03  0.12499330353E+03 0.  0.
          5    1    4    4  502    0  0.63784804150E+02 -0.83116973987E+02  0.19309131611E+03  0.21973456479E+03  0.47000000000E+01 0. -1.
         -5    1    4    4    0  502 -0.53580327052E+01  0.19887919840E+02 -0.52404565421E+01  0.21766723566E+02  0.47000000000E+01 0. -1.
          5    1    3    3  503    0  0.33882789346E+02 -0.56767419659E+01  0.85375290988E+02  0.92148245368E+02  0.47000000000E+01 0.  1.
         -5    1    3    3    0  503 -0.92309560791E+02  0.68905796113E+02  0.18793698534E+03  0.22048007668E+03  0.47000000000E+01 0.  1.
<mgrwt>
<rscale>  0 0.15177741E+03</rscale>
<asrwt>0</asrwt>
<pdfrwt beam="2">  1        5 0.71512675E-02 0.15177901E+03</pdfrwt>
<pdfrwt beam="1">  1       -5 0.78099439E-01 0.15177901E+03</pdfrwt>
<totfact> 0.15217854E+02</totfact>
</mgrwt>
</event>
<event>
 8    1  0.1821556E-007  0.1265677E+03  0.7546771E-02  0.1232641E+00
         -5   -1    0    0    0  501 -0.00000000000E+00  0.00000000000E+00  0.76946939174E+02  0.77090346012E+02  0.47000000000E+01 0. -1.
          5   -1    0    0  501    0  0.00000000000E+00 -0.00000000000E+00 -0.21310210644E+03  0.21315392976E+03  0.47000000000E+01 0. -1.
         25    2    1    2    0    0 -0.19757742737E+02 -0.19208534886E+01 -0.45238021465E+02  0.13440931499E+03  0.12500130917E+03 0.  0.
         25    2    1    2    0    0  0.19757742737E+02  0.19208534886E+01 -0.90917145806E+02  0.15583496078E+03  0.12499819808E+03 0.  0.
          5    1    4    4  502    0 -0.36411160813E+02  0.42430015672E+02 -0.30787444155E+02  0.64000277963E+02  0.47000000000E+01 0. -1.
         -5    1    4    4    0  502  0.56168903550E+02 -0.40509162183E+02 -0.60129701651E+02  0.91834682813E+02  0.47000000000E+01 0. -1.
          5    1    3    3  503    0 -0.12496414196E+02  0.56534971527E+02  0.29425515080E+01  0.58164525123E+02  0.47000000000E+01 0. -1.
         -5    1    3    3    0  503 -0.72613285416E+01 -0.58455825016E+02 -0.48180572973E+02  0.76244789871E+02  0.47000000000E+01 0. -1.
<mgrwt>
<rscale>  0 0.12656694E+03</rscale>
<asrwt>0</asrwt>
<pdfrwt beam="2">  1        5 0.32799957E-01 0.12656771E+03</pdfrwt>
<pdfrwt beam="1">  1       -5 0.11853008E-01 0.12656771E+03</pdfrwt>
<totfact> 0.37822839E+02</totfact>
</mgrwt>
</event>
<event>
 8    1  0.1821556E-007  0.1252181E+03  0.7546771E-02  0.1234730E+00
          5   -1    0    0  501    0  0.00000000000E+00  0.00000000000E+00  0.17319041530E+03  0.17325417730E+03  0.47000000000E+01 0. -1.
         -5   -1    0    0    0  501 -0.00000000000E+00 -0.00000000000E+00 -0.92085608435E+02  0.92205473161E+02  0.47000000000E+01 0. -1.
         25    2    1    2    0    0  0.35359045161E+01  0.65040775738E+01  0.22563858129E+02  0.12723297430E+03  0.12499718561E+03 0.  0.
         25    2    1    2    0    0 -0.35359045161E+01 -0.65040775738E+01  0.58540948738E+02  0.13822667616E+03  0.12499906270E+03 0.  0.
          5    1    3    3  502    0  0.29502622469E+02  0.45551946621E+02 -0.25298419948E+02  0.60062339493E+02  0.47000000000E+01 0.  1.
         -5    1    3    3    0  502 -0.25966717953E+02 -0.39047869047E+02  0.47862278077E+02  0.67170634812E+02  0.47000000000E+01 0.  1.
          5    1    4    4  503    0 -0.30609556363E+02 -0.10491990622E+02 -0.30648094323E+02  0.44815426960E+02  0.47000000000E+01 0.  1.
         -5    1    4    4    0  503  0.27073651847E+02  0.39879130481E+01  0.89189043061E+02  0.93411249199E+02  0.47000000000E+01 0.  1.
<mgrwt>
<rscale>  0 0.12521763E+03</rscale>
<asrwt>0</asrwt>
<pdfrwt beam="1">  1        5 0.26658804E-01 0.12521810E+03</pdfrwt>
<pdfrwt beam="2">  1       -5 0.14181142E-01 0.12521810E+03</pdfrwt>
<totfact> 0.41045717E+02</totfact>
</mgrwt>
</event>
<event>
 8    1  0.1821556E-007  0.1317852E+03  0.7546771E-02  0.1224835E+00
          5   -1    0    0  501    0  0.00000000000E+00  0.00000000000E+00  0.11895660423E+03  0.11904941701E+03  0.47000000000E+01 0. -1.
         -5   -1    0    0    0  501 -0.00000000000E+00 -0.00000000000E+00 -0.15660713014E+03  0.15667764107E+03  0.47000000000E+01 0. -1.
         25    2    1    2    0    0 -0.46147415334E+01  0.41484701716E+02 -0.55030687181E+02  0.14281355248E+03  0.12500023170E+03 0.  0.
         25    2    1    2    0    0  0.46147415334E+01 -0.41484701716E+02  0.17380161264E+02  0.13291350560E+03  0.12498661388E+03 0.  0.
          5    1    3    3  502    0  0.49008232174E+02  0.21716985638E+02  0.11453926130E+02  0.55015604239E+02  0.47000000000E+01 0.  1.
         -5    1    3    3    0  502 -0.53622973707E+02  0.19767716077E+02 -0.66484613311E+02  0.87797948240E+02  0.47000000000E+01 0.  1.
          5    1    4    4  503    0 -0.46798825486E+02 -0.32467434279E+02  0.45849937042E+02  0.73270533519E+02  0.47000000000E+01 0.  1.
         -5    1    4    4    0  503  0.51413567019E+02 -0.90172674369E+01 -0.28469775777E+02  0.59642972080E+02  0.47000000000E+01 0.  1.
<mgrwt>
<rscale>  0 0.13178195E+03</rscale>
<asrwt>0</asrwt>
<pdfrwt beam="1">  1        5 0.18313579E-01 0.13178518E+03</pdfrwt>
<pdfrwt beam="2">  1       -5 0.24105968E-01 0.13178518E+03</pdfrwt>
<totfact> 0.31840518E+02</totfact>
</mgrwt>
</event>
<event>
 8    1  0.1821556E-007  0.1881747E+03  0.7546771E-02  0.1160119E+00
          5   -1    0    0  501    0  0.00000000000E+00  0.00000000000E+00  0.40324082420E+03  0.40326821385E+03  0.47000000000E+01 0. -1.
         -5   -1    0    0    0  501 -0.00000000000E+00 -0.00000000000E+00 -0.88538740686E+02  0.88663400579E+02  0.47000000000E+01 0. -1.
         25    2    1    2    0    0 -0.72006689181E+01 -0.14047494932E+03  0.13367836272E+03  0.23081997558E+03  0.12499158151E+03 0.  0.
         25    2    1    2    0    0  0.72006689181E+01  0.14047494932E+03  0.18102372080E+03  0.26111163885E+03  0.12499855772E+03 0.  0.
          5    1    4    4  502    0 -0.13991128410E+01  0.89942208068E+02  0.18867296699E+03  0.20907208513E+03  0.47000000000E+01 0. -1.
         -5    1    4    4    0  502  0.85997817591E+01  0.50532741252E+02 -0.76492461847E+01  0.52039553725E+02  0.47000000000E+01 0. -1.
          5    1    3    3  503    0 -0.37349107390E+02 -0.11865971804E+03  0.41369838999E+02  0.13118169875E+03  0.47000000000E+01 0.  1.
         -5    1    3    3    0  503  0.30148438472E+02 -0.21815231278E+02  0.92308523717E+02  0.99638276826E+02  0.47000000000E+01 0.  1.
<mgrwt>
<rscale>  0 0.18817350E+03</rscale>
<asrwt>0</asrwt>
<pdfrwt beam="1">  1        5 0.62048744E-01 0.18817465E+03</pdfrwt>
<pdfrwt beam="2">  1       -5 0.13633041E-01 0.18817465E+03</pdfrwt>
<totfact> 0.88201992E+01</totfact>
</mgrwt>
</event>
<event>
 8    1  0.1821556E-007  0.1404395E+03  0.7546771E-02  0.1212743E+00
          5   -1    0    0  501    0  0.00000000000E+00  0.00000000000E+00  0.98311162506E+03  0.98312285973E+03  0.47000000000E+01 0. -1.
         -5   -1    0    0    0  501 -0.00000000000E+00 -0.00000000000E+00 -0.24790641953E+02  0.25232239862E+02  0.47000000000E+01 0. -1.
         25    2    1    2    0    0 -0.52388755868E+02  0.36721802451E+02  0.25462262629E+03  0.29077957429E+03  0.12500802569E+03 0.  0.
         25    2    1    2    0    0  0.52388755868E+02 -0.36721802451E+02  0.70369835681E+03  0.71757552531E+03  0.12502073675E+03 0.  0.
          5    1    3    3  502    0 -0.30110451811E+02  0.71106940666E+02  0.79742521411E+02  0.11110263741E+03  0.47000000000E+01 0. -1.
         -5    1    3    3    0  502 -0.22278304057E+02 -0.34385138215E+02  0.17488010488E+03  0.17967693688E+03  0.47000000000E+01 0. -1.
          5    1    4    4  503    0  0.60812486990E+02  0.32871169563E+02  0.30902215277E+03  0.31669457410E+03  0.47000000000E+01 0.  1.
         -5    1    4    4    0  503 -0.84237311222E+01 -0.69592972014E+02  0.39467620404E+03  0.40088095120E+03  0.47000000000E+01 0.  1.
<mgrwt>
<rscale>  0 0.14043669E+03</rscale>
<asrwt>0</asrwt>
<pdfrwt beam="1">  1        5 0.15128276E+00 0.14043951E+03</pdfrwt>
<pdfrwt beam="2">  1       -5 0.38487785E-02 0.14043951E+03</pdfrwt>
<totfact> 0.80130026E+01</totfact>
</mgrwt>
</event>
<event>
 8    1  0.1821556E-007  0.1309720E+03  0.7546771E-02  0.1226022E+00
         -5   -1    0    0    0  501 -0.00000000000E+00  0.00000000000E+00  0.11094189115E+03  0.11104140314E+03  0.47000000000E+01 0. -1.
          5   -1    0    0  501    0  0.00000000000E+00 -0.00000000000E+00 -0.16103808869E+03  0.16110666035E+03  0.47000000000E+01 0. -1.
         25    2    1    2    0    0  0.23886737807E+01 -0.39021576090E+02  0.25448337025E+01  0.13099667475E+03  0.12500105382E+03 0.  0.
         25    2    1    2    0    0 -0.23886737807E+01  0.39021576090E+02 -0.52641031244E+02  0.14115138874E+03  0.12499698880E+03 0.  0.
          5    1    4    4  502    0  0.44581387150E+02  0.63418304713E+02 -0.34765228463E+02  0.85088733467E+02  0.47000000000E+01 0.  1.
         -5    1    4    4    0  502 -0.46970060931E+02 -0.24396728623E+02 -0.17875802781E+02  0.56062655275E+02  0.47000000000E+01 0.  1.
          5    1    3    3  503    0  0.57115862701E+02 -0.45235049349E+02 -0.11625982043E+02  0.73930270662E+02  0.47000000000E+01 0.  1.
         -5    1    3    3    0  503 -0.54727188920E+02  0.62134732589E+01  0.14170815745E+02  0.57066404092E+02  0.47000000000E+01 0.  1.
<mgrwt>
<rscale>  0 0.13097098E+03</rscale>
<asrwt>0</asrwt>
<pdfrwt beam="2">  1        5 0.24788020E-01 0.13097195E+03</pdfrwt>
<pdfrwt beam="1">  1       -5 0.17080913E-01 0.13097195E+03</pdfrwt>
<totfact> 0.34239416E+02</totfact>
</mgrwt>
</event>
<event>
 8    1  0.1821556E-007  0.1973179E+03  0.7546771E-02  0.1152022E+00
         -5   -1    0    0    0  501 -0.00000000000E+00  0.00000000000E+00  0.21354665039E+03  0.21359836585E+03  0.47000000000E+01 0.  1.
          5   -1    0    0  501    0  0.00000000000E+00 -0.00000000000E+00 -0.20040877866E+03  0.20046388344E+03  0.47000000000E+01 0.  1.
         25    2    1    2    0    0  0.13507016308E+03 -0.71167009170E+02  0.68929317167E+02  0.20901100805E+03  0.12500263426E+03 0.  0.
         25    2    1    2    0    0 -0.13507016308E+03  0.71167009170E+02 -0.55791445435E+02  0.20505124124E+03  0.12499853600E+03 0.  0.
          5    1    4    4  502    0 -0.10899005529E+03  0.33149575659E+02 -0.91787159443E+02  0.14637178402E+03  0.47000000000E+01 0.  1.
         -5    1    4    4    0  502 -0.26080107787E+02  0.38017433512E+02  0.35995714008E+02  0.58679457222E+02  0.47000000000E+01 0.  1.
          5    1    3    3  503    0  0.88912996048E+02  0.20524981014E+02  0.51173821023E+02  0.10472652801E+03  0.47000000000E+01 0.  1.
         -5    1    3    3    0  503  0.46157167030E+02 -0.91691990184E+02  0.17755496144E+02  0.10428448003E+03  0.47000000000E+01 0.  1.
<mgrwt>
<rscale>  0 0.19731724E+03</rscale>
<asrwt>0</asrwt>
<pdfrwt beam="2">  1        5 0.30840337E-01 0.19731789E+03</pdfrwt>
<pdfrwt beam="1">  1       -5 0.32861548E-01 0.19731789E+03</pdfrwt>
<totfact> 0.72850031E+01</totfact>
</mgrwt>
</event>
<event>
 8    1  0.1821556E-007  0.1600776E+03  0.7546771E-02  0.1188610E+00
         -5   -1    0    0    0  501 -0.00000000000E+00  0.00000000000E+00  0.63228390642E+03  0.63230137460E+03  0.47000000000E+01 0. -1.
          5   -1    0    0  501    0  0.00000000000E+00 -0.00000000000E+00 -0.40740085909E+02  0.41010298705E+02  0.47000000000E+01 0. -1.
         25    2    1    2    0    0 -0.15960304063E+01 -0.99978551118E+02  0.26388770982E+03  0.30864281063E+03  0.12500161264E+03 0.  0.
         25    2    1    2    0    0  0.15960304063E+01  0.99978551118E+02  0.32765611069E+03  0.36466886267E+03  0.12500637797E+03 0.  0.
          5    1    3    3  502    0  0.25492451355E+02  0.21702601575E+02  0.75142302588E+02  0.82397352078E+02  0.47000000000E+01 0.  1.
         -5    1    3    3    0  502 -0.27088481761E+02 -0.12168115269E+03  0.18874540723E+03  0.22624545855E+03  0.47000000000E+01 0.  1.
          5    1    4    4  503    0  0.16727186601E+02 -0.61932088406E+01  0.18610533196E+03  0.18701721630E+03  0.47000000000E+01 0.  1.
         -5    1    4    4    0  503 -0.15131156195E+02  0.10617175996E+03  0.14155077873E+03  0.17765164638E+03  0.47000000000E+01 0.  1.
<mgrwt>
<rscale>  0 0.16007671E+03</rscale>
<asrwt>0</asrwt>
<pdfrwt beam="2">  1        5 0.62898353E-02 0.16007765E+03</pdfrwt>
<pdfrwt beam="1">  1       -5 0.97296570E-01 0.16007765E+03</pdfrwt>
<totfact> 0.11447588E+02</totfact>
</mgrwt>
</event>
<event>
 8    1  0.1821556E-007  0.2094207E+03  0.7546771E-02  0.1142026E+00
         -5   -1    0    0    0  501 -0.00000000000E+00  0.00000000000E+00  0.26741109723E+03  0.26745239749E+03  0.47000000000E+01 0.  1.
          5   -1    0    0  501    0  0.00000000000E+00 -0.00000000000E+00 -0.16426089683E+03  0.16432812367E+03  0.47000000000E+01 0.  1.
         25    2    1    2    0    0 -0.16795774458E+03  0.46323243538E+01  0.41695435030E+02  0.21352905319E+03  0.12499953945E+03 0.  0.
         25    2    1    2    0    0  0.16795774458E+03 -0.46323243538E+01  0.61454765371E+02  0.21825146796E+03  0.12500301072E+03 0.  0.
          5    1    4    4  502    0  0.44287738784E+02  0.14427960036E+02  0.78980285393E+02  0.91812555340E+02  0.47000000000E+01 0. -1.
         -5    1    4    4    0  502  0.12367000579E+03 -0.19060284390E+02 -0.17525520022E+02  0.12643891262E+03  0.47000000000E+01 0. -1.
          5    1    3    3  503    0  0.16806977935E+02  0.42928176729E+01 -0.11333685561E+02  0.21247240274E+02  0.47000000000E+01 0.  1.
         -5    1    3    3    0  503 -0.18476472251E+03  0.33950668087E+00  0.53029120592E+02  0.19228181292E+03  0.47000000000E+01 0.  1.
<mgrwt>
<rscale>  0 0.20942015E+03</rscale>
<asrwt>0</asrwt>
<pdfrwt beam="2">  1        5 0.25279256E-01 0.20942067E+03</pdfrwt>
<pdfrwt beam="1">  1       -5 0.41148517E-01 0.20942067E+03</pdfrwt>
<totfact> 0.69124173E+01</totfact>
</mgrwt>
</event>
<event>
 8    1  0.1821556E-007  0.1324084E+03  0.7546771E-02  0.1223928E+00
          5   -1    0    0  501    0  0.00000000000E+00  0.00000000000E+00  0.77066875094E+02  0.77210059168E+02  0.47000000000E+01 0.  1.
         -5   -1    0    0    0  501 -0.00000000000E+00 -0.00000000000E+00 -0.35721180134E+03  0.35724272004E+03  0.47000000000E+01 0.  1.
         25    2    1    2    0    0  0.35693271105E+02 -0.25157016109E+02 -0.27113869768E+03  0.30173844046E+03  0.12499203177E+03 0.  0.
         25    2    1    2    0    0 -0.35693271105E+02  0.25157016109E+02 -0.90062285656E+01  0.13271433875E+03  0.12500039398E+03 0.  0.
          5    1    3    3  502    0  0.56960016409E+02 -0.44363281071E+02 -0.26121696629E+03  0.27105154059E+03  0.47000000000E+01 0.  1.
         -5    1    3    3    0  502 -0.21266745305E+02  0.19206264962E+02 -0.99217313895E+01  0.30686899866E+02  0.47000000000E+01 0.  1.
          5    1    4    4  503    0 -0.65840435040E+02 -0.54808927425E+01  0.31609396430E+02  0.73391055410E+02  0.47000000000E+01 0. -1.
         -5    1    4    4    0  503  0.30147163935E+02  0.30637908852E+02 -0.40615624996E+02  0.59323283337E+02  0.47000000000E+01 0. -1.
<mgrwt>
<rscale>  0 0.13240642E+03</rscale>
<asrwt>0</asrwt>
<pdfrwt beam="1">  1        5 0.11869835E-01 0.13240840E+03</pdfrwt>
<pdfrwt beam="2">  1       -5 0.54969053E-01 0.13240840E+03</pdfrwt>
<totfact> 0.13210585E+02</totfact>
</mgrwt>
</event>
<event>
 8    1  0.1821556E-007  0.1563510E+03  0.7546771E-02  0.1192882E+00
         -5   -1    0    0    0  501 -0.00000000000E+00  0.00000000000E+00  0.15713777369E+02  0.16401609653E+02  0.47000000000E+01 0. -1.
          5   -1    0    0  501    0  0.00000000000E+00 -0.00000000000E+00 -0.15233186378E+04  0.15233258884E+04  0.47000000000E+01 0. -1.
         25    2    1    2    0    0 -0.83721139359E+02  0.42532120542E+02 -0.72776108153E+03  0.74436471949E+03  0.12499773353E+03 0.  0.
         25    2    1    2    0    0  0.83721139359E+02 -0.42532120542E+02 -0.77984377895E+03  0.79536277861E+03  0.12500967791E+03 0.  0.
          5    1    3    3  502    0 -0.44763485692E+02  0.85333013343E+02 -0.50682516259E+03  0.51592570032E+03  0.47000000000E+01 0.  1.
         -5    1    3    3    0  502 -0.38957653667E+02 -0.42800892801E+02 -0.22093591894E+03  0.22843901917E+03  0.47000000000E+01 0.  1.
          5    1    4    4  503    0  0.26286546795E+02  0.18418559227E+02 -0.43536413592E+02  0.54293049047E+02  0.47000000000E+01 0.  1.
         -5    1    4    4    0  503  0.57434592564E+02 -0.60950679769E+02 -0.73630736536E+03  0.74106972956E+03  0.47000000000E+01 0.  1.
<mgrwt>
<rscale>  0 0.15634860E+03</rscale>
<asrwt>0</asrwt>
<pdfrwt beam="2">  1        5 0.23441007E+00 0.15635098E+03</pdfrwt>
<pdfrwt beam="1">  1       -5 0.24709733E-02 0.15635098E+03</pdfrwt>
<totfact> 0.44573393E+01</totfact>
</mgrwt>
</event>
<event>
 8    1  0.1821556E-007  0.1439830E+03  0.7546771E-02  0.1208069E+00
          5   -1    0    0  501    0  0.00000000000E+00  0.00000000000E+00  0.33978557031E+02  0.34302074834E+02  0.47000000000E+01 0.  1.
         -5   -1    0    0    0  501 -0.00000000000E+00 -0.00000000000E+00 -0.74837400069E+03  0.74838875921E+03  0.47000000000E+01 0.  1.
         25    2    1    2    0    0  0.45055256580E+02  0.55464799721E+02 -0.52731926548E+03  0.54662299784E+03  0.12499909548E+03 0.  0.
         25    2    1    2    0    0 -0.45055256580E+02 -0.55464799721E+02 -0.18707617819E+03  0.23606783621E+03  0.12499682673E+03 0.  0.
          5    1    4    4  502    0 -0.45480958236E+02 -0.40341597150E+02 -0.20398106502E+03  0.21289980486E+03  0.47000000000E+01 0.  1.
         -5    1    4    4    0  502  0.42570165582E+00 -0.15123202571E+02  0.16904886830E+02  0.23168031350E+02  0.47000000000E+01 0.  1.
          5    1    3    3  503    0  0.11219453831E+02  0.79963621045E+00  0.28747470371E+01  0.12524764783E+02  0.47000000000E+01 0. -1.
         -5    1    3    3    0  503  0.33835802749E+02  0.54665163511E+02 -0.53019401251E+03  0.53409823306E+03  0.47000000000E+01 0. -1.
<mgrwt>
<rscale>  0 0.14398247E+03</rscale>
<asrwt>0</asrwt>
<pdfrwt beam="1">  1        5 0.52534921E-02 0.14398296E+03</pdfrwt>
<pdfrwt beam="2">  1       -5 0.11516047E+00 0.14398296E+03</pdfrwt>
<totfact> 0.98772325E+01</totfact>
</mgrwt>
</event>
<event>
 8    1  0.1821556E-007  0.1482361E+03  0.7546771E-02  0.1202660E+00
         -5   -1    0    0    0  501 -0.00000000000E+00  0.00000000000E+00  0.16329172471E+03  0.16335935038E+03  0.47000000000E+01 0.  1.
          5   -1    0    0  501    0  0.00000000000E+00 -0.00000000000E+00 -0.13770484817E+03  0.13778503260E+03  0.47000000000E+01 0.  1.
         25    2    1    2    0    0  0.79333537839E+02  0.74307769306E+01  0.36019292431E+02  0.15254947794E+03  0.12499970848E+03 0.  0.
         25    2    1    2    0    0 -0.79333537839E+02 -0.74307769306E+01 -0.10432415892E+02  0.14859490505E+03  0.12499033496E+03 0.  0.
          5    1    3    3  502    0  0.43432984215E+02  0.59352168560E+02 -0.98863141523E+01  0.74356796852E+02  0.47000000000E+01 0. -1.
         -5    1    3    3    0  502  0.35900553624E+02 -0.51921391630E+02  0.45905606584E+02  0.78192681084E+02  0.47000000000E+01 0. -1.
          5    1    4    4  503    0  0.53013997448E+01  0.28754494955E+02  0.34993289868E+02  0.45842623782E+02  0.47000000000E+01 0.  1.
         -5    1    4    4    0  503 -0.84634937583E+02 -0.36185271886E+02 -0.45425705760E+02  0.10275228126E+03  0.47000000000E+01 0.  1.
<mgrwt>
<rscale>  0 0.14823417E+03</rscale>
<asrwt>0</asrwt>
<pdfrwt beam="2">  1        5 0.21196731E-01 0.14823614E+03</pdfrwt>
<pdfrwt beam="1">  1       -5 0.25133174E-01 0.14823614E+03</pdfrwt>
<totfact> 0.23301173E+02</totfact>
</mgrwt>
</event>
<event>
 8    1  0.1821556E-007  0.1266265E+03  0.7546771E-02  0.1232563E+00
         -5   -1    0    0    0  501 -0.00000000000E+00  0.00000000000E+00  0.15999465136E+04  0.15999534170E+04  0.47000000000E+01 0.  1.
          5   -1    0    0  501    0  0.00000000000E+00 -0.00000000000E+00 -0.10822619165E+02  0.11799113763E+02  0.47000000000E+01 0.  1.
         25    2    1    2    0    0 -0.19582127990E+02  0.38732711560E+01  0.10676824594E+04  0.10751651529E+04  0.12504323222E+03 0.  0.
         25    2    1    2    0    0  0.19582127990E+02 -0.38732711560E+01  0.52144143509E+03  0.53658737786E+03  0.12500552743E+03 0.  0.
          5    1    4    4  502    0  0.50023034950E+02 -0.34646728226E+01  0.48996188674E+03  0.49254344827E+03  0.47000000000E+01 0.  1.
         -5    1    4    4    0  502 -0.30440906959E+02 -0.40859833343E+00  0.31479548355E+02  0.44043929590E+02  0.47000000000E+01 0.  1.
          5    1    3    3  503    0 -0.72859257734E+02  0.35313625997E+01  0.63069771230E+03  0.63491939352E+03  0.47000000000E+01 0.  1.
         -5    1    3    3    0  503  0.53277129744E+02  0.34190855635E+00  0.43698474707E+03  0.44024575936E+03  0.47000000000E+01 0.  1.
<mgrwt>
<rscale>  0 0.12661720E+03</rscale>
<asrwt>0</asrwt>
<pdfrwt beam="2">  1        5 0.17406653E-02 0.12662651E+03</pdfrwt>
<pdfrwt beam="1">  1       -5 0.24622113E+00 0.12662651E+03</pdfrwt>
<totfact> 0.61728380E+01</totfact>
</mgrwt>
</event>
<event>
 8    1  0.1821556E-007  0.1255440E+03  0.7546771E-02  0.1234223E+00
          5   -1    0    0  501    0  0.00000000000E+00  0.00000000000E+00  0.82346273387E+03  0.82347614664E+03  0.47000000000E+01 0.  1.
         -5   -1    0    0    0  501 -0.00000000000E+00 -0.00000000000E+00 -0.19187232840E+02  0.19754490731E+02  0.47000000000E+01 0.  1.
         25    2    1    2    0    0 -0.71176117991E-02 -0.11705476205E+02  0.34605498675E+03  0.36812409340E+03  0.12499710424E+03 0.  0.
         25    2    1    2    0    0  0.71176117991E-02  0.11705476205E+02  0.45822051429E+03  0.47510654396E+03  0.12499268050E+03 0.  0.
          5    1    3    3  502    0  0.45749664170E+02 -0.17147306155E+02  0.56305376600E+02  0.74695698097E+02  0.47000000000E+01 0.  1.
         -5    1    3    3    0  502 -0.45756781782E+02  0.54418299504E+01  0.28974961015E+03  0.29342839531E+03  0.47000000000E+01 0.  1.
          5    1    4    4  503    0  0.41098024948E+02 -0.40303158954E+02  0.17891488815E+03  0.18800537087E+03  0.47000000000E+01 0.  1.
         -5    1    4    4    0  503 -0.41090907336E+02  0.52008635159E+02  0.27930562614E+03  0.28710117309E+03  0.47000000000E+01 0.  1.
<mgrwt>
<rscale>  0 0.12554289E+03</rscale>
<asrwt>0</asrwt>
<pdfrwt beam="1">  1        5 0.12673126E+00 0.12554399E+03</pdfrwt>
<pdfrwt beam="2">  1       -5 0.29965485E-02 0.12554399E+03</pdfrwt>
<totfact> 0.18565718E+02</totfact>
</mgrwt>
</event>
<event>
 8    1  0.1821556E-007  0.1253575E+03  0.7546771E-02  0.1234512E+00
         -5   -1    0    0    0  501 -0.00000000000E+00  0.00000000000E+00  0.40080888829E+03  0.40083644412E+03  0.47000000000E+01 0.  1.
          5   -1    0    0  501    0  0.00000000000E+00 -0.00000000000E+00 -0.39071473251E+02  0.39353145008E+02  0.47000000000E+01 0.  1.
         25    2    1    2    0    0 -0.37947331690E+01 -0.86851417757E+01  0.17436388311E+03  0.21474930915E+03  0.12499868143E+03 0.  0.
         25    2    1    2    0    0  0.37947331690E+01  0.86851417757E+01  0.18737353193E+03  0.22544027998E+03  0.12499859072E+03 0.  0.
          5    1    3    3  502    0  0.22193804722E+02 -0.59141831398E+02  0.61279364607E+02  0.88133828442E+02  0.47000000000E+01 0. -1.
         -5    1    3    3    0  502 -0.25988537891E+02  0.50456689623E+02  0.11308451850E+03  0.12661548071E+03  0.47000000000E+01 0. -1.
          5    1    4    4  503    0  0.41170388433E+02  0.39807294841E+02  0.39565554064E+02  0.69764924387E+02  0.47000000000E+01 0. -1.
         -5    1    4    4    0  503 -0.37375655264E+02 -0.31122153066E+02  0.14780797787E+03  0.15567535559E+03  0.47000000000E+01 0. -1.
<mgrwt>
<rscale>  0 0.12535747E+03</rscale>
<asrwt>0</asrwt>
<pdfrwt beam="2">  1        5 0.60347823E-02 0.12535750E+03</pdfrwt>
<pdfrwt beam="1">  1       -5 0.61686696E-01 0.12535750E+03</pdfrwt>
<totfact> 0.32307051E+02</totfact>
</mgrwt>
</event>
<event>
 8    1  0.1821556E-007  0.1582245E+03  0.7546771E-02  0.1190718E+00
          5   -1    0    0  501    0  0.00000000000E+00  0.00000000000E+00  0.71041173813E+03  0.71042728528E+03  0.47000000000E+01 0. -1.
         -5   -1    0    0    0  501 -0.00000000000E+00 -0.00000000000E+00 -0.37765627787E+02  0.38056965751E+02  0.47000000000E+01 0. -1.
         25    2    1    2    0    0  0.73593629665E+02  0.63197041085E+02  0.23668121510E+03  0.28469807790E+03  0.12500043860E+03 0.  0.
         25    2    1    2    0    0 -0.73593629665E+02 -0.63197041085E+02  0.43596489525E+03  0.46378617314E+03  0.12498934425E+03 0.  0.
          5    1    3    3  502    0  0.80064348384E+01 -0.32694264457E+02  0.97991603416E+02  0.10371818677E+03  0.47000000000E+01 0.  1.
         -5    1    3    3    0  502  0.65587194826E+02  0.95891305542E+02  0.13868961168E+03  0.18097989113E+03  0.47000000000E+01 0.  1.
          5    1    4    4  503    0 -0.59020068121E+02 -0.29135732896E+02  0.71053482172E+02  0.96968792408E+02  0.47000000000E+01 0. -1.
         -5    1    4    4    0  503 -0.14573561543E+02 -0.34061308189E+02  0.36491141308E+03  0.36681738073E+03  0.47000000000E+01 0. -1.
<mgrwt>
<rscale>  0 0.15822233E+03</rscale>
<asrwt>0</asrwt>
<pdfrwt beam="1">  1        5 0.10931771E+00 0.15822452E+03</pdfrwt>
<pdfrwt beam="2">  1       -5 0.58337038E-02 0.15822452E+03</pdfrwt>
<totfact> 0.97204306E+01</totfact>
</mgrwt>
</event>
<event>
 8    1  0.1821556E-007  0.1398510E+03  0.7546771E-02  0.1213531E+00
         -5   -1    0    0    0  501 -0.00000000000E+00  0.00000000000E+00  0.26306343452E+02  0.26722906014E+02  0.47000000000E+01 0.  1.
          5   -1    0    0  501    0  0.00000000000E+00 -0.00000000000E+00 -0.74068435641E+03  0.74069926814E+03  0.47000000000E+01 0.  1.
         25    2    1    2    0    0  0.49914272822E+02  0.37974692284E+02 -0.33084832554E+03  0.35919021781E+03  0.12499394456E+03 0.  0.
         25    2    1    2    0    0 -0.49914272822E+02 -0.37974692284E+02 -0.38352968742E+03  0.40823195634E+03  0.12499918866E+03 0.  0.
          5    1    4    4  502    0 -0.78388914024E+01  0.35221303826E+02 -0.23085386338E+03  0.23370405367E+03  0.47000000000E+01 0. -1.
         -5    1    4    4    0  502 -0.42075381419E+02 -0.73195996110E+02 -0.15267582403E+03  0.17452790267E+03  0.47000000000E+01 0. -1.
          5    1    3    3  503    0 -0.10344546977E+02  0.26836659227E+02 -0.27376145993E+03  0.27530826881E+03  0.47000000000E+01 0.  1.
         -5    1    3    3    0  503  0.60258819799E+02  0.11138033056E+02 -0.57086865608E+02  0.83881949005E+02  0.47000000000E+01 0.  1.
<mgrwt>
<rscale>  0 0.13984985E+03</rscale>
<asrwt>0</asrwt>
<pdfrwt beam="2">  1        5 0.11398461E+00 0.13985102E+03</pdfrwt>
<pdfrwt beam="1">  1       -5 0.40803206E-02 0.13985102E+03</pdfrwt>
<totfact> 0.15254511E+02</totfact>
</mgrwt>
</event>
<event>
 8    1  0.1821556E-007  0.1270055E+03  0.7546771E-02  0.1231969E+00
         -5   -1    0    0    0  501 -0.00000000000E+00  0.00000000000E+00  0.31072668233E+03  0.31076222601E+03  0.47000000000E+01 0.  1.
          5   -1    0    0  501    0  0.00000000000E+00 -0.00000000000E+00 -0.52372056320E+02  0.52582528307E+02  0.47000000000E+01 0.  1.
         25    2    1    2    0    0 -0.17846755703E+02 -0.13666399484E+02  0.14868324205E+03  0.19554306918E+03  0.12500043310E+03 0.  0.
         25    2    1    2    0    0  0.17846755703E+02  0.13666399484E+02  0.10967138396E+03  0.16780168513E+03  0.12499726360E+03 0.  0.
          5    1    4    4  502    0 -0.14056057962E+02  0.64421135299E+02  0.66587716896E+02  0.93827871553E+02  0.47000000000E+01 0.  1.
         -5    1    4    4    0  502  0.31902813665E+02 -0.50754735815E+02  0.43083667062E+02  0.73973813576E+02  0.47000000000E+01 0.  1.
          5    1    3    3  503    0 -0.40339566766E+02  0.98158457314E+01 -0.14993663604E+01  0.41808726048E+02  0.47000000000E+01 0. -1.
         -5    1    3    3    0  503  0.22492811063E+02 -0.23482245216E+02  0.15018260841E+03  0.15373434314E+03  0.47000000000E+01 0. -1.
<mgrwt>
<rscale>  0 0.12700467E+03</rscale>
<asrwt>0</asrwt>
<pdfrwt beam="2">  1        5 0.80761636E-02 0.12700545E+03</pdfrwt>
<pdfrwt beam="1">  1       -5 0.47823030E-01 0.12700545E+03</pdfrwt>
<totfact> 0.34209604E+02</totfact>
</mgrwt>
</event>
<event>
 8    1  0.1821556E-007  0.1366673E+03  0.7546771E-02  0.1217890E+00
          5   -1    0    0  501    0  0.00000000000E+00  0.00000000000E+00  0.10344279029E+03  0.10354950924E+03  0.47000000000E+01 0.  1.
         -5   -1    0    0    0  501 -0.00000000000E+00 -0.00000000000E+00 -0.27754821154E+03  0.27758800357E+03  0.47000000000E+01 0.  1.
         25    2    1    2    0    0  0.29615650263E+02  0.46640762235E+02 -0.19982024872E+03  0.24208692708E+03  0.12500200407E+03 0.  0.
         25    2    1    2    0    0 -0.29615650263E+02 -0.46640762235E+02  0.25714827472E+02  0.13905058574E+03  0.12498546155E+03 0.  0.
          5    1    3    3  502    0  0.52772056986E+02  0.67761598556E+01 -0.21054601652E+02  0.57412477665E+02  0.47000000000E+01 0.  1.
         -5    1    3    3    0  502 -0.23156406723E+02  0.39864602379E+02 -0.17876564706E+03  0.18467444941E+03  0.47000000000E+01 0.  1.
          5    1    4    4  503    0 -0.66612490113E+02  0.21265589773E+00  0.39519385601E+02  0.77596010850E+02  0.47000000000E+01 0. -1.
         -5    1    4    4    0  503  0.36996839850E+02 -0.46853418132E+02 -0.13804558129E+02  0.61454574888E+02  0.47000000000E+01 0. -1.
<mgrwt>
<rscale>  0 0.13666351E+03</rscale>
<asrwt>0</asrwt>
<pdfrwt beam="1">  1        5 0.15925546E-01 0.13666729E+03</pdfrwt>
<pdfrwt beam="2">  1       -5 0.42710995E-01 0.13666729E+03</pdfrwt>
<totfact> 0.13408008E+02</totfact>
</mgrwt>
</event>
<event>
 8    1  0.1821556E-007  0.1359327E+03  0.7546771E-02  0.1218911E+00
          5   -1    0    0  501    0  0.00000000000E+00  0.00000000000E+00  0.16749128736E+03  0.16755721811E+03  0.47000000000E+01 0. -1.
         -5   -1    0    0    0  501 -0.00000000000E+00 -0.00000000000E+00 -0.12335171494E+03  0.12344122317E+03  0.47000000000E+01 0. -1.
         25    2    1    2    0    0  0.50983044113E+02  0.15900186449E+02 -0.25446797957E+02  0.13829400095E+03  0.12500241780E+03 0.  0.
         25    2    1    2    0    0 -0.50983044113E+02 -0.15900186449E+02  0.69586370377E+02  0.15270444034E+03  0.12499718573E+03 0.  0.
          5    1    4    4  502    0  0.39454943009E+02 -0.16371142603E+02  0.94678780219E+01  0.44004971903E+02  0.47000000000E+01 0.  1.
         -5    1    4    4    0  502 -0.90437987122E+02  0.47095615393E+00  0.60118492355E+02  0.10869946843E+03  0.47000000000E+01 0.  1.
          5    1    3    3  503    0  0.19763109103E+02 -0.25219184432E+02 -0.65310127132E+02  0.72897808272E+02  0.47000000000E+01 0.  1.
         -5    1    3    3    0  503  0.31219935009E+02  0.41119370882E+02  0.39863329175E+02  0.65396192676E+02  0.47000000000E+01 0.  1.
<mgrwt>
<rscale>  0 0.13593147E+03</rscale>
<asrwt>0</asrwt>
<pdfrwt beam="1">  1        5 0.25779847E-01 0.13593267E+03</pdfrwt>
<pdfrwt beam="2">  1       -5 0.18989144E-01 0.13593267E+03</pdfrwt>
<totfact> 0.26468217E+02</totfact>
</mgrwt>
</event>
<event>
 8    1  0.1821556E-007  0.1466587E+03  0.7546771E-02  0.1204643E+00
         -5   -1    0    0    0  501 -0.00000000000E+00  0.00000000000E+00  0.73954380405E+02  0.74103578733E+02  0.47000000000E+01 0.  1.
          5   -1    0    0  501    0  0.00000000000E+00 -0.00000000000E+00 -0.32201220713E+03  0.32204650525E+03  0.47000000000E+01 0.  1.
         25    2    1    2    0    0  0.32567421187E+02  0.69426627326E+02 -0.61947251170E+02  0.15920498134E+03  0.12501228201E+03 0.  0.
         25    2    1    2    0    0 -0.32567421187E+02 -0.69426627326E+02 -0.18611057556E+03  0.23694510264E+03  0.12500056730E+03 0.  0.
          5    1    4    4  502    0  0.36581472834E+02 -0.46933227914E+02 -0.35030965145E+02  0.69211202533E+02  0.47000000000E+01 0.  1.
         -5    1    4    4    0  502 -0.69148894020E+02 -0.22493399412E+02 -0.15107961041E+03  0.16773390010E+03  0.47000000000E+01 0.  1.
          5    1    3    3  503    0  0.72353199735E+02  0.45472173873E+02 -0.71545409050E+02  0.11155061481E+03  0.47000000000E+01 0.  1.
         -5    1    3    3    0  503 -0.39785778549E+02  0.23954453453E+02  0.95981578805E+01  0.47654366533E+02  0.47000000000E+01 0.  1.
<mgrwt>
<rscale>  0 0.14665617E+03</rscale>
<asrwt>0</asrwt>
<pdfrwt beam="2">  1        5 0.49554454E-01 0.14665867E+03</pdfrwt>
<pdfrwt beam="1">  1       -5 0.11391712E-01 0.14665867E+03</pdfrwt>
<totfact> 0.18334188E+02</totfact>
</mgrwt>
</event>
<event>
 8    1  0.1821556E-007  0.1455586E+03  0.7546771E-02  0.1206047E+00
          5   -1    0    0  501    0  0.00000000000E+00  0.00000000000E+00  0.19709341861E+03  0.19714945007E+03  0.47000000000E+01 0.  1.
         -5   -1    0    0    0  501 -0.00000000000E+00 -0.00000000000E+00 -0.19127115739E+03  0.19132889393E+03  0.47000000000E+01 0.  1.
         25    2    1    2    0    0  0.41287094626E+02  0.62103270229E+02 -0.12569751914E+03  0.19230304535E+03  0.12497661611E+03 0.  0.
         25    2    1    2    0    0 -0.41287094626E+02 -0.62103270229E+02  0.13151978036E+03  0.19617529864E+03  0.12500341921E+03 0.  0.
          5    1    3    3  502    0  0.45725885804E+02  0.55239172733E+02 -0.14995067080E+03  0.16628143766E+03  0.47000000000E+01 0. -1.
         -5    1    3    3    0  502 -0.44387911782E+01  0.68640974954E+01  0.24253151654E+02  0.26021607689E+02  0.47000000000E+01 0. -1.
          5    1    4    4  503    0 -0.33841101549E+02  0.15259620661E+02 -0.62385357198E+01  0.37935280475E+02  0.47000000000E+01 0. -1.
         -5    1    4    4    0  503 -0.74459930765E+01 -0.77362890889E+02  0.13775831608E+03  0.15824001817E+03  0.47000000000E+01 0. -1.
<mgrwt>
<rscale>  0 0.14555281E+03</rscale>
<asrwt>0</asrwt>
<pdfrwt beam="1">  1        5 0.30330816E-01 0.14555856E+03</pdfrwt>
<pdfrwt beam="2">  1       -5 0.29435083E-01 0.14555856E+03</pdfrwt>
<totfact> 0.85613602E+01</totfact>
</mgrwt>
</event>
<event>
 8    1  0.1821556E-007  0.1612372E+03  0.7546771E-02  0.1187308E+00
         -5   -1    0    0    0  501 -0.00000000000E+00  0.00000000000E+00  0.59662237036E+02  0.59847076187E+02  0.47000000000E+01 0. -1.
          5   -1    0    0  501    0  0.00000000000E+00 -0.00000000000E+00 -0.43543405338E+03  0.43545941814E+03  0.47000000000E+01 0. -1.
         25    2    1    2    0    0  0.10170952174E+03  0.52705541872E+01 -0.17890792190E+03  0.24084329118E+03  0.12499936334E+03 0.  0.
         25    2    1    2    0    0 -0.10170952174E+03 -0.52705541872E+01 -0.19686389445E+03  0.25446320315E+03  0.12499409291E+03 0.  0.
          5    1    3    3  502    0  0.12471586206E+03  0.26903789789E+02 -0.12825538130E+03  0.18096793359E+03  0.47000000000E+01 0. -1.
         -5    1    3    3    0  502 -0.23006340325E+02 -0.21633235602E+02 -0.50652540598E+02  0.59875357592E+02  0.47000000000E+01 0. -1.
          5    1    4    4  503    0 -0.48612345052E+02 -0.64755801742E+02 -0.92094017314E+02  0.12271867004E+03  0.47000000000E+01 0.  1.
         -5    1    4    4    0  503 -0.53097176686E+02  0.59485247554E+02 -0.10476987714E+03  0.13174453311E+03  0.47000000000E+01 0.  1.
<mgrwt>
<rscale>  0 0.16123621E+03</rscale>
<asrwt>0</asrwt>
<pdfrwt beam="2">  1        5 0.67006022E-01 0.16123724E+03</pdfrwt>
<pdfrwt beam="1">  1       -5 0.91949755E-02 0.16123724E+03</pdfrwt>
<totfact> 0.14260050E+02</totfact>
</mgrwt>
</event>
<event>
 8    1  0.1821556E-007  0.1275520E+03  0.7546771E-02  0.1231134E+00
         -5   -1    0    0    0  501 -0.00000000000E+00  0.00000000000E+00  0.17575415303E+03  0.17581698527E+03  0.47000000000E+01 0.  1.
          5   -1    0    0  501    0  0.00000000000E+00 -0.00000000000E+00 -0.96758516058E+02  0.96872598963E+02  0.47000000000E+01 0.  1.
         25    2    1    2    0    0 -0.25093183318E+02 -0.38489036434E+01  0.68309066091E+02  0.14469065119E+03  0.12499909649E+03 0.  0.
         25    2    1    2    0    0  0.25093183318E+02  0.38489036434E+01  0.10686570885E+02  0.12799893304E+03  0.12500016862E+03 0.  0.
          5    1    3    3  502    0 -0.11960407912E+02  0.22073332173E+02  0.98954413791E+02  0.10219759958E+03  0.47000000000E+01 0. -1.
         -5    1    3    3    0  502 -0.13132775407E+02 -0.25922235817E+02 -0.30645347700E+02  0.42493051612E+02  0.47000000000E+01 0. -1.
          5    1    4    4  503    0 -0.34658870279E+02 -0.34853711783E+02  0.24823047159E+02  0.55265651035E+02  0.47000000000E+01 0.  1.
         -5    1    4    4    0  503  0.59752053597E+02  0.38702615427E+02 -0.14136476274E+02  0.72733282006E+02  0.47000000000E+01 0.  1.
<mgrwt>
<rscale>  0 0.12755178E+03</rscale>
<asrwt>0</asrwt>
<pdfrwt beam="2">  1        5 0.14899535E-01 0.12755204E+03</pdfrwt>
<pdfrwt beam="1">  1       -5 0.27052709E-01 0.12755204E+03</pdfrwt>
<totfact> 0.36751549E+02</totfact>
</mgrwt>
</event>
<event>
 8    1  0.1821556E-007  0.1376665E+03  0.7546771E-02  0.1216505E+00
          5   -1    0    0  501    0  0.00000000000E+00  0.00000000000E+00  0.25160548481E+03  0.25164937907E+03  0.47000000000E+01 0.  1.
         -5   -1    0    0    0  501 -0.00000000000E+00 -0.00000000000E+00 -0.82600833367E+02  0.82734440669E+02  0.47000000000E+01 0.  1.
         25    2    1    2    0    0 -0.16531347917E+02  0.55258687388E+02  0.34504802346E+02  0.14192014227E+03  0.12499574953E+03 0.  0.
         25    2    1    2    0    0  0.16531347917E+02 -0.55258687388E+02  0.13449984909E+03  0.19246367747E+03  0.12500099897E+03 0.  0.
          5    1    3    3  502    0 -0.43727158818E+02  0.30882495637E+01 -0.30888208597E+02  0.53830968169E+02  0.47000000000E+01 0.  1.
         -5    1    3    3    0  502  0.27195810901E+02  0.52170437824E+02  0.65393010943E+02  0.88089174099E+02  0.47000000000E+01 0.  1.
          5    1    4    4  503    0  0.18028856161E+02 -0.25530302338E+02 -0.18434246413E+02  0.36588897670E+02  0.47000000000E+01 0.  1.
         -5    1    4    4    0  503 -0.14975082439E+01 -0.29728385050E+02  0.15293409551E+03  0.15587477980E+03  0.47000000000E+01 0.  1.
<mgrwt>
<rscale>  0 0.13766528E+03</rscale>
<asrwt>0</asrwt>
<pdfrwt beam="1">  1        5 0.38722190E-01 0.13766647E+03</pdfrwt>
<pdfrwt beam="2">  1       -5 0.12721475E-01 0.13766647E+03</pdfrwt>
<totfact> 0.24628321E+02</totfact>
</mgrwt>
</event>
<event>
 8    1  0.1821556E-007  0.1515438E+03  0.7546771E-02  0.1198590E+00
          5   -1    0    0  501    0  0.00000000000E+00  0.00000000000E+00  0.16057606725E+03  0.16064483612E+03  0.47000000000E+01 0.  1.
         -5   -1    0    0    0  501 -0.00000000000E+00 -0.00000000000E+00 -0.14328473413E+03  0.14336179768E+03  0.47000000000E+01 0.  1.
         25    2    1    2    0    0  0.77778179828E+02  0.35929339869E+02  0.55484342929E+00  0.15154483446E+03  0.12500066512E+03 0.  0.
         25    2    1    2    0    0 -0.77778179828E+02 -0.35929339869E+02  0.16736489692E+02  0.15246179934E+03  0.12499650975E+03 0.  0.
          5    1    4    4  502    0  0.58888422467E+01 -0.41666246830E+02  0.46926859907E+02  0.63205812775E+02  0.47000000000E+01 0. -1.
         -5    1    4    4    0  502 -0.83667022075E+02  0.57369069608E+01 -0.30190370215E+02  0.89255986567E+02  0.47000000000E+01 0. -1.
          5    1    3    3  503    0  0.64147987459E+02  0.22011536099E+02  0.58840937015E+02  0.89910054417E+02  0.47000000000E+01 0.  1.
         -5    1    3    3    0  503  0.13630192369E+02  0.13917803770E+02 -0.58286093586E+02  0.61634780046E+02  0.47000000000E+01 0.  1.
<mgrwt>
<rscale>  0 0.15154296E+03</rscale>
<asrwt>0</asrwt>
<pdfrwt beam="1">  1        5 0.24715228E-01 0.15154382E+03</pdfrwt>
<pdfrwt beam="2">  1       -5 0.22055023E-01 0.15154382E+03</pdfrwt>
<totfact> 0.22491587E+02</totfact>
</mgrwt>
</event>
<event>
 8    1  0.1821556E-007  0.1358153E+03  0.7546771E-02  0.1219075E+00
         -5   -1    0    0    0  501 -0.00000000000E+00  0.00000000000E+00  0.12855929442E+02  0.13688130691E+02  0.47000000000E+01 0.  1.
          5   -1    0    0  501    0  0.00000000000E+00 -0.00000000000E+00 -0.14447401330E+04  0.14447477780E+04  0.47000000000E+01 0.  1.
         25    2    1    2    0    0  0.39093936166E+02 -0.35951126245E+02 -0.57269053220E+03  0.58857474588E+03  0.12499986597E+03 0.  0.
         25    2    1    2    0    0 -0.39093936166E+02  0.35951126245E+02 -0.85919367139E+03  0.86986116279E+03  0.12499543296E+03 0.  0.
          5    1    4    4  502    0  0.13766732008E+02 -0.20907499212E+02 -0.56457238851E+03  0.56514663433E+03  0.47000000000E+01 0. -1.
         -5    1    4    4    0  502 -0.52860668174E+02  0.56858625457E+02 -0.29462128288E+03  0.30471452846E+03  0.47000000000E+01 0. -1.
          5    1    3    3  503    0  0.71344689214E+02  0.12714951012E+02 -0.23923949874E+03  0.25001872413E+03  0.47000000000E+01 0.  1.
         -5    1    3    3    0  503 -0.32250753047E+02 -0.48666077256E+02 -0.33345103346E+03  0.33855602175E+03  0.47000000000E+01 0.  1.
<mgrwt>
<rscale>  0 0.13581424E+03</rscale>
<asrwt>0</asrwt>
<pdfrwt beam="2">  1        5 0.22233219E+00 0.13581526E+03</pdfrwt>
<pdfrwt beam="1">  1       -5 0.20424400E-02 0.13581526E+03</pdfrwt>
<totfact> 0.69569287E+01</totfact>
</mgrwt>
</event>
<event>
 8    1  0.1821556E-007  0.1404361E+03  0.7546771E-02  0.1212745E+00
         -5   -1    0    0    0  501 -0.00000000000E+00  0.00000000000E+00  0.26482908541E+03  0.26487078827E+03  0.47000000000E+01 0.  1.
          5   -1    0    0  501    0  0.00000000000E+00 -0.00000000000E+00 -0.78368368749E+02  0.78509179211E+02  0.47000000000E+01 0.  1.
         25    2    1    2    0    0 -0.43510272014E+02 -0.46937657796E+02  0.13207044073E+03  0.19277921355E+03  0.12499974550E+03 0.  0.
         25    2    1    2    0    0  0.43510272014E+02  0.46937657796E+02  0.54390275932E+02  0.15060075393E+03  0.12500398985E+03 0.  0.
          5    1    3    3  502    0 -0.52391823791E+02  0.22898188075E+02  0.99976657874E+02  0.11526774196E+03  0.47000000000E+01 0.  1.
         -5    1    3    3    0  502  0.88815517767E+01 -0.69835845871E+02  0.32093782854E+02  0.77511471592E+02  0.47000000000E+01 0.  1.
          5    1    4    4  503    0  0.48166812617E+02 -0.30671564321E+02  0.43530118187E+02  0.71956569436E+02  0.47000000000E+01 0.  1.
         -5    1    4    4    0  503 -0.46565406026E+01  0.77609222117E+02  0.10860157745E+02  0.78644184491E+02  0.47000000000E+01 0.  1.
<mgrwt>
<rscale>  0 0.14043511E+03</rscale>
<asrwt>0</asrwt>
<pdfrwt beam="2">  1        5 0.12070712E-01 0.14043605E+03</pdfrwt>
<pdfrwt beam="1">  1       -5 0.40756976E-01 0.14043605E+03</pdfrwt>
<totfact> 0.24516015E+02</totfact>
</mgrwt>
</event>
<event>
 8    1  0.1821556E-007  0.1291714E+03  0.7546771E-02  0.1228692E+00
         -5   -1    0    0    0  501 -0.00000000000E+00  0.00000000000E+00  0.42934278564E+03  0.42936851023E+03  0.47000000000E+01 0. -1.
          5   -1    0    0  501    0  0.00000000000E+00 -0.00000000000E+00 -0.41826171145E+02  0.42089411883E+02  0.47000000000E+01 0. -1.
         25    2    1    2    0    0  0.22844013068E+02  0.23197140909E+02  0.25805542937E+03  0.28857694433E+03  0.12499636752E+03 0.  0.
         25    2    1    2    0    0 -0.22844013068E+02 -0.23197140909E+02  0.12946118513E+03  0.18288097779E+03  0.12500118920E+03 0.  0.
          5    1    4    4  502    0  0.33808349088E+02 -0.28120689942E+02  0.11615618800E+03  0.12429049715E+03  0.47000000000E+01 0.  1.
         -5    1    4    4    0  502 -0.56652362156E+02  0.49235490325E+01  0.13304997130E+02  0.58590480639E+02  0.47000000000E+01 0.  1.
          5    1    3    3  503    0 -0.40254700640E+02 -0.26407516795E+02  0.10804683929E+03  0.11838077271E+03  0.47000000000E+01 0.  1.
         -5    1    3    3    0  503  0.63098713708E+02  0.49604657704E+02  0.15000859007E+03  0.17019617162E+03  0.47000000000E+01 0.  1.
<mgrwt>
<rscale>  0 0.12917025E+03</rscale>
<asrwt>0</asrwt>
<pdfrwt beam="2">  1        5 0.64570239E-02 0.12917141E+03</pdfrwt>
<pdfrwt beam="1">  1       -5 0.66074962E-01 0.12917141E+03</pdfrwt>
<totfact> 0.25040110E+02</totfact>
</mgrwt>
</event>
<event>
 8    1  0.1821556E-007  0.1710554E+03  0.7546771E-02  0.1176752E+00
          5   -1    0    0  501    0  0.00000000000E+00  0.00000000000E+00  0.22471467598E+03  0.22476382183E+03  0.47000000000E+01 0. -1.
         -5   -1    0    0    0  501 -0.00000000000E+00 -0.00000000000E+00 -0.13419836692E+03  0.13428064523E+03  0.47000000000E+01 0. -1.
         25    2    1    2    0    0  0.11673750574E+03 -0.26046753491E+01  0.13910299969E+02  0.17162002832E+03  0.12500203235E+03 0.  0.
         25    2    1    2    0    0 -0.11673750574E+03  0.26046753491E+01  0.76606009096E+02  0.18742443874E+03  0.12500004011E+03 0.  0.
          5    1    3    3  502    0  0.12791892649E+03  0.64426977743E+00 -0.25269545440E+02  0.13047722700E+03  0.47000000000E+01 0.  1.
         -5    1    3    3    0  502 -0.11181420744E+02 -0.32489451266E+01  0.39179845409E+02  0.41142801321E+02  0.47000000000E+01 0.  1.
          5    1    4    4  503    0 -0.10578432907E+03 -0.31978874452E+02  0.95295185761E+01  0.11102195465E+03  0.47000000000E+01 0.  1.
         -5    1    4    4    0  503 -0.10953176670E+02  0.34583549801E+02  0.67076490520E+02  0.76402484099E+02  0.47000000000E+01 0.  1.
<mgrwt>
<rscale>  0 0.17105500E+03</rscale>
<asrwt>0</asrwt>
<pdfrwt beam="1">  1        5 0.34581598E-01 0.17105536E+03</pdfrwt>
<pdfrwt beam="2">  1       -5 0.20656012E-01 0.17105536E+03</pdfrwt>
<totfact> 0.13678418E+02</totfact>
</mgrwt>
</event>
<event>
 8    1  0.1821556E-007  0.1461661E+03  0.7546771E-02  0.1205268E+00
          5   -1    0    0  501    0  0.00000000000E+00  0.00000000000E+00  0.82473562396E+03  0.82474901602E+03  0.47000000000E+01 0. -1.
         -5   -1    0    0    0  501 -0.00000000000E+00 -0.00000000000E+00 -0.27029364662E+02  0.27434951322E+02  0.47000000000E+01 0. -1.
         25    2    1    2    0    0  0.63695552735E+02  0.41014739430E+02  0.30425691376E+03  0.33754158876E+03  0.12499088879E+03 0.  0.
         25    2    1    2    0    0 -0.63695552735E+02 -0.41014739430E+02  0.49344934553E+03  0.51464237858E+03  0.12500075574E+03 0.  0.
          5    1    3    3  502    0  0.32491264214E+02  0.49613081365E+01  0.28331166357E+03  0.28525056624E+03  0.47000000000E+01 0. -1.
         -5    1    3    3    0  502  0.31204288522E+02  0.36053431293E+02  0.20945250196E+02  0.52291022518E+02  0.47000000000E+01 0. -1.
          5    1    4    4  503    0 -0.34797903466E+02  0.42956917767E+02  0.22964130147E+03  0.23624861526E+03  0.47000000000E+01 0. -1.
         -5    1    4    4    0  503 -0.28897649269E+02 -0.83971657197E+02  0.26380804406E+03  0.27839376333E+03  0.47000000000E+01 0. -1.
<mgrwt>
<rscale>  0 0.14616396E+03</rscale>
<asrwt>0</asrwt>
<pdfrwt beam="1">  1        5 0.12691462E+00 0.14616607E+03</pdfrwt>
<pdfrwt beam="2">  1       -5 0.41905933E-02 0.14616607E+03</pdfrwt>
<totfact> 0.11257025E+02</totfact>
</mgrwt>
</event>
<event>
 8    1  0.1821556E-007  0.1283791E+03  0.7546771E-02  0.1229884E+00
         -5   -1    0    0    0  501 -0.00000000000E+00  0.00000000000E+00  0.38639264854E+02  0.38924064387E+02  0.47000000000E+01 0.  1.
          5   -1    0    0  501    0  0.00000000000E+00 -0.00000000000E+00 -0.42952504117E+03  0.42955075485E+03  0.47000000000E+01 0.  1.
         25    2    1    2    0    0 -0.23338901027E+02  0.17573643264E+02 -0.17047743656E+03  0.21340417826E+03  0.12500099872E+03 0.  0.
         25    2    1    2    0    0  0.23338901027E+02 -0.17573643264E+02 -0.22040833975E+03  0.25507064098E+03  0.12501063323E+03 0.  0.
          5    1    4    4  502    0  0.31783129333E+02 -0.46559693020E+02 -0.21708653004E+03  0.22433596200E+03  0.47000000000E+01 0.  1.
         -5    1    4    4    0  502 -0.84442283059E+01  0.28986049756E+02 -0.33218097152E+01  0.30734678979E+02  0.47000000000E+01 0.  1.
          5    1    3    3  503    0  0.30090969088E+02 -0.40519047585E+01  0.26836321226E+01  0.30841145150E+02  0.47000000000E+01 0. -1.
         -5    1    3    3    0  503 -0.53429870115E+02  0.21625548022E+02 -0.17316106869E+03  0.18256303310E+03  0.47000000000E+01 0. -1.
<mgrwt>
<rscale>  0 0.12837676E+03</rscale>
<asrwt>0</asrwt>
<pdfrwt beam="2">  1        5 0.66104658E-01 0.12837911E+03</pdfrwt>
<pdfrwt beam="1">  1       -5 0.59683882E-02 0.12837911E+03</pdfrwt>
<totfact> 0.28492603E+02</totfact>
</mgrwt>
</event>
<event>
 8    1  0.1821556E-007  0.1476327E+03  0.7546771E-02  0.1203413E+00
         -5   -1    0    0    0  501 -0.00000000000E+00  0.00000000000E+00  0.79898400265E+02  0.80036518945E+02  0.47000000000E+01 0.  1.
          5   -1    0    0  501    0  0.00000000000E+00 -0.00000000000E+00 -0.28592924003E+03  0.28596786586E+03  0.47000000000E+01 0.  1.
         25    2    1    2    0    0 -0.77411131537E+02  0.13298738353E+02 -0.63212288514E+02  0.16059610088E+03  0.12500389783E+03 0.  0.
         25    2    1    2    0    0  0.77411131537E+02 -0.13298738353E+02 -0.14281855125E+03  0.20540828392E+03  0.12500433910E+03 0.  0.
          5    1    3    3  502    0  0.12292833285E+02  0.23655857458E+02  0.23104112830E+02  0.35589371615E+02  0.47000000000E+01 0. -1.
         -5    1    3    3    0  502 -0.89703964822E+02 -0.10357119106E+02 -0.86316401344E+02  0.12500672927E+03  0.47000000000E+01 0. -1.
          5    1    4    4  503    0 -0.17997698735E+02 -0.14801491920E+02 -0.96220678514E+02  0.99113623163E+02  0.47000000000E+01 0.  1.
         -5    1    4    4    0  503  0.95408830272E+02  0.15027535671E+01 -0.46597872736E+02  0.10629466076E+03  0.47000000000E+01 0.  1.
<mgrwt>
<rscale>  0 0.14763264E+03</rscale>
<asrwt>0</asrwt>
<pdfrwt beam="2">  1        5 0.44002709E-01 0.14763274E+03</pdfrwt>
<pdfrwt beam="1">  1       -5 0.12305657E-01 0.14763274E+03</pdfrwt>
<totfact> 0.20563586E+02</totfact>
</mgrwt>
</event>
<event>
 8    1  0.1821556E-007  0.1429808E+03  0.7546771E-02  0.1209376E+00
         -5   -1    0    0    0  501 -0.00000000000E+00  0.00000000000E+00  0.52472729018E+02  0.52682798811E+02  0.47000000000E+01 0.  1.
          5   -1    0    0  501    0  0.00000000000E+00 -0.00000000000E+00 -0.41718840295E+03  0.41721487696E+03  0.47000000000E+01 0.  1.
         25    2    1    2    0    0  0.30759638676E+02  0.62228611125E+02 -0.12084988515E+03  0.18721168134E+03  0.12499985390E+03 0.  0.
         25    2    1    2    0    0 -0.30759638676E+02 -0.62228611125E+02 -0.24386578878E+03  0.28268599443E+03  0.12498917191E+03 0.  0.
          5    1    4    4  502    0  0.14273208727E+02 -0.59290605318E+02 -0.38287954010E+02  0.72160638777E+02  0.47000000000E+01 0.  1.
         -5    1    4    4    0  502 -0.45032847403E+02 -0.29380058065E+01 -0.20557783477E+03  0.21052535566E+03  0.47000000000E+01 0.  1.
          5    1    3    3  503    0  0.47996209835E+02  0.31730983683E+02  0.35992212287E+01  0.57840607512E+02  0.47000000000E+01 0.  1.
         -5    1    3    3    0  503 -0.17236571158E+02  0.30497627442E+02 -0.12444910638E+03  0.12937107383E+03  0.47000000000E+01 0.  1.
<mgrwt>
<rscale>  0 0.14297850E+03</rscale>
<asrwt>0</asrwt>
<pdfrwt beam="2">  1        5 0.64201025E-01 0.14298083E+03</pdfrwt>
<pdfrwt beam="1">  1       -5 0.80909235E-02 0.14298083E+03</pdfrwt>
<totfact> 0.18821968E+02</totfact>
</mgrwt>
</event>
<event>
 8    1  0.1821556E-007  0.1306293E+03  0.7546771E-02  0.1226526E+00
          5   -1    0    0  501    0  0.00000000000E+00  0.00000000000E+00  0.32421767720E+02  0.32760662724E+02  0.47000000000E+01 0.  1.
         -5   -1    0    0    0  501 -0.00000000000E+00 -0.00000000000E+00 -0.61811117083E+03  0.61812903952E+03  0.47000000000E+01 0.  1.
         25    2    1    2    0    0  0.24148567674E+02 -0.29279029813E+02 -0.42032832182E+03  0.44015896830E+03  0.12499441728E+03 0.  0.
         25    2    1    2    0    0 -0.24148567674E+02  0.29279029813E+02 -0.16536108129E+03  0.21073073394E+03  0.12499096013E+03 0.  0.
          5    1    3    3  502    0 -0.12902510756E+02  0.35466054778E+02 -0.52586696277E+02  0.64898123629E+02  0.47000000000E+01 0.  1.
         -5    1    3    3    0  502  0.37051078430E+02 -0.64745084591E+02 -0.36774162554E+03  0.37526084467E+03  0.47000000000E+01 0.  1.
          5    1    4    4  503    0 -0.67188113121E+02  0.80110647681E+00 -0.13447991177E+03  0.15040552180E+03  0.47000000000E+01 0. -1.
         -5    1    4    4    0  503  0.43039545446E+02  0.28477923336E+02 -0.30881169519E+02  0.60325212147E+02  0.47000000000E+01 0. -1.
<mgrwt>
<rscale>  0 0.13062849E+03</rscale>
<asrwt>0</asrwt>
<pdfrwt beam="1">  1        5 0.50154081E-02 0.13062932E+03</pdfrwt>
<pdfrwt beam="2">  1       -5 0.95121461E-01 0.13062932E+03</pdfrwt>
<totfact> 0.16546439E+02</totfact>
</mgrwt>
</event>
<event>
 8    1  0.1821556E-007  0.1489676E+03  0.7546771E-02  0.1201748E+00
          5   -1    0    0  501    0  0.00000000000E+00  0.00000000000E+00  0.23204788307E+03  0.23209547612E+03  0.47000000000E+01 0. -1.
         -5   -1    0    0    0  501 -0.00000000000E+00 -0.00000000000E+00 -0.96583190114E+02  0.96697479867E+02  0.47000000000E+01 0. -1.
         25    2    1    2    0    0  0.43275590839E+02 -0.68506048817E+02  0.50470235245E+02  0.15728503054E+03  0.12500192278E+03 0.  0.
         25    2    1    2    0    0 -0.43275590839E+02  0.68506048817E+02  0.84994457709E+02  0.17150792545E+03  0.12500022065E+03 0.  0.
          5    1    3    3  502    0  0.77407352083E+02 -0.18052812300E+02  0.25936357854E+01  0.79665670994E+02  0.47000000000E+01 0.  1.
         -5    1    3    3    0  502 -0.34131761243E+02 -0.50453236517E+02  0.47876599460E+02  0.77619359546E+02  0.47000000000E+01 0.  1.
          5    1    4    4  503    0 -0.74523875091E+02  0.84762125850E+02  0.58715347110E+02  0.12731067482E+03  0.47000000000E+01 0.  1.
         -5    1    4    4    0  503  0.31248284252E+02 -0.16256077033E+02  0.26279110599E+02  0.44197250628E+02  0.47000000000E+01 0.  1.
<mgrwt>
<rscale>  0 0.14896721E+03</rscale>
<asrwt>0</asrwt>
<pdfrwt beam="1">  1        5 0.35712127E-01 0.14896757E+03</pdfrwt>
<pdfrwt beam="2">  1       -5 0.14871405E-01 0.14896757E+03</pdfrwt>
<totfact> 0.22501839E+02</totfact>
</mgrwt>
</event>
<event>
 8    1  0.1821556E-007  0.1492912E+03  0.7546771E-02  0.1201348E+00
         -5   -1    0    0    0  501 -0.00000000000E+00  0.00000000000E+00  0.66688392296E+03  0.66690048486E+03  0.47000000000E+01 0. -1.
          5   -1    0    0  501    0  0.00000000000E+00 -0.00000000000E+00 -0.36804333504E+02  0.37103220409E+02  0.47000000000E+01 0. -1.
         25    2    1    2    0    0 -0.80338276387E+02  0.14409165521E+02  0.42412094893E+03  0.44962835539E+03  0.12500086377E+03 0.  0.
         25    2    1    2    0    0  0.80338276387E+02 -0.14409165521E+02  0.20595864052E+03  0.25437534987E+03  0.12500397719E+03 0.  0.
          5    1    3    3  502    0 -0.67886295197E+02 -0.49313723311E+02  0.22887708562E+03  0.24381797043E+03  0.47000000000E+01 0.  1.
         -5    1    3    3    0  502 -0.12451981191E+02  0.63722888832E+02  0.19524386331E+03  0.20581038496E+03  0.47000000000E+01 0.  1.
          5    1    4    4  503    0  0.82687541075E+02  0.18504550939E+02  0.20404621640E+03  0.22099003661E+03  0.47000000000E+01 0.  1.
         -5    1    4    4    0  503 -0.23492646877E+01 -0.32913716460E+02  0.19124241251E+01  0.33385313265E+02  0.47000000000E+01 0.  1.
<mgrwt>
<rscale>  0 0.14929053E+03</rscale>
<asrwt>0</asrwt>
<pdfrwt beam="2">  1        5 0.56864702E-02 0.14929118E+03</pdfrwt>
<pdfrwt beam="1">  1       -5 0.10262180E+00 0.14929118E+03</pdfrwt>
<totfact> 0.11654253E+02</totfact>
</mgrwt>
</event>
<event>
 8    1  0.1821556E-007  0.1302700E+03  0.7546771E-02  0.1227057E+00
          5   -1    0    0  501    0  0.00000000000E+00  0.00000000000E+00  0.71272904904E+02  0.71427704524E+02  0.47000000000E+01 0.  1.
         -5   -1    0    0    0  501 -0.00000000000E+00 -0.00000000000E+00 -0.24714226349E+03  0.24718695031E+03  0.47000000000E+01 0.  1.
         25    2    1    2    0    0  0.31171758703E+02 -0.19311029451E+02 -0.11912716947E+03  0.17652335565E+03  0.12499847274E+03 0.  0.
         25    2    1    2    0    0 -0.31171758703E+02  0.19311029451E+02 -0.56742189123E+02  0.14209129918E+03  0.12500266748E+03 0.  0.
          5    1    3    3  502    0 -0.12924832437E+02 -0.41488571360E+01 -0.12801742584E+03  0.12882086643E+03  0.47000000000E+01 0.  1.
         -5    1    3    3    0  502  0.44096591140E+02 -0.15162172315E+02  0.88902563753E+01  0.47702489222E+02  0.47000000000E+01 0.  1.
          5    1    4    4  503    0 -0.38004251682E+02 -0.86078052316E+01 -0.89818671939E+02  0.98019902498E+02  0.47000000000E+01 0. -1.
         -5    1    4    4    0  503  0.68324929791E+01  0.27918834683E+02  0.33076482816E+02  0.44071396685E+02  0.47000000000E+01 0. -1.
<mgrwt>
<rscale>  0 0.13026895E+03</rscale>
<asrwt>0</asrwt>
<pdfrwt beam="1">  1        5 0.10980408E-01 0.13026996E+03</pdfrwt>
<pdfrwt beam="2">  1       -5 0.38037231E-01 0.13026996E+03</pdfrwt>
<totfact> 0.32501306E+02</totfact>
</mgrwt>
</event>
<event>
 8    1  0.1821556E-007  0.1363734E+03  0.7546771E-02  0.1218294E+00
          5   -1    0    0  501    0  0.00000000000E+00  0.00000000000E+00  0.64830255254E+03  0.64831958912E+03  0.47000000000E+01 0. -1.
         -5   -1    0    0    0  501 -0.00000000000E+00 -0.00000000000E+00 -0.37014316621E+02  0.37311521477E+02  0.47000000000E+01 0. -1.
         25    2    1    2    0    0 -0.37516406111E+02  0.39569345731E+02  0.14179184211E+03  0.19672971631E+03  0.12499776375E+03 0.  0.
         25    2    1    2    0    0  0.37516406111E+02 -0.39569345731E+02  0.46949639381E+03  0.48890139428E+03  0.12499798271E+03 0.  0.
          5    1    4    4  502    0  0.58947810875E+02 -0.23221333287E+02  0.10053098931E+03  0.11892285121E+03  0.47000000000E+01 0. -1.
         -5    1    4    4    0  502 -0.21431404764E+02 -0.16348012443E+02  0.36896540450E+03  0.36997854308E+03  0.47000000000E+01 0. -1.
          5    1    3    3  503    0  0.19168235313E+02  0.36553204067E+02  0.13269932195E+03  0.13904948047E+03  0.47000000000E+01 0. -1.
         -5    1    3    3    0  503 -0.56684641424E+02  0.30161416636E+01  0.90925201583E+01  0.57680235841E+02  0.47000000000E+01 0. -1.
<mgrwt>
<rscale>  0 0.13637337E+03</rscale>
<asrwt>0</asrwt>
<pdfrwt beam="1">  1        5 0.99763031E-01 0.13637342E+03</pdfrwt>
<pdfrwt beam="2">  1       -5 0.57186824E-02 0.13637342E+03</pdfrwt>
<totfact> 0.12021216E+02</totfact>
</mgrwt>
</event>
<event>
 8    1  0.1821556E-007  0.1338502E+03  0.7546771E-02  0.1221854E+00
         -5   -1    0    0    0  501 -0.00000000000E+00  0.00000000000E+00  0.60826251289E+02  0.61007563842E+02  0.47000000000E+01 0. -1.
          5   -1    0    0  501    0  0.00000000000E+00 -0.00000000000E+00 -0.29482762740E+03  0.29486508759E+03  0.47000000000E+01 0. -1.
         25    2    1    2    0    0  0.20709270202E+02  0.43151313889E+02 -0.10696668421E+03  0.17133620643E+03  0.12499325718E+03 0.  0.
         25    2    1    2    0    0 -0.20709270202E+02 -0.43151313889E+02 -0.12703469191E+03  0.18453644501E+03  0.12499990730E+03 0.  0.
          5    1    3    3  502    0  0.16721855440E+02  0.16814408634E+02  0.26083872264E+02  0.35564071468E+02  0.47000000000E+01 0. -1.
         -5    1    3    3    0  502  0.39874147621E+01  0.26336905255E+02 -0.13305055647E+03  0.13577213496E+03  0.47000000000E+01 0. -1.
          5    1    4    4  503    0 -0.37882939482E+02 -0.19033803155E+02  0.10371344406E+02  0.43898263646E+02  0.47000000000E+01 0.  1.
         -5    1    4    4    0  503  0.17173669280E+02 -0.24117510734E+02 -0.13740603632E+03  0.14063818136E+03  0.47000000000E+01 0.  1.
<mgrwt>
<rscale>  0 0.13384869E+03</rscale>
<asrwt>0</asrwt>
<pdfrwt beam="2">  1        5 0.45374924E-01 0.13385024E+03</pdfrwt>
<pdfrwt beam="1">  1       -5 0.93747137E-02 0.13385024E+03</pdfrwt>
<totfact> 0.30095545E+02</totfact>
</mgrwt>
</event>
<event>
 8    1  0.1821556E-007  0.1281680E+03  0.7546771E-02  0.1230201E+00
         -5   -1    0    0    0  501 -0.00000000000E+00  0.00000000000E+00  0.35675258984E+03  0.35678354833E+03  0.47000000000E+01 0.  1.
          5   -1    0    0  501    0  0.00000000000E+00 -0.00000000000E+00 -0.48266814360E+02  0.48495106644E+02  0.47000000000E+01 0.  1.
         25    2    1    2    0    0  0.28179129948E+02  0.27751382951E+01  0.19906595846E+03  0.23675642046E+03  0.12499832822E+03 0.  0.
         25    2    1    2    0    0 -0.28179129948E+02 -0.27751382951E+01  0.10941981702E+03  0.16852223451E+03  0.12500112963E+03 0.  0.
          5    1    4    4  502    0 -0.49356903187E+02 -0.37331660489E+02  0.12424447778E+02  0.63294657513E+02  0.47000000000E+01 0. -1.
         -5    1    4    4    0  502  0.21177773239E+02  0.34556522194E+02  0.96995369246E+02  0.10522757700E+03  0.47000000000E+01 0. -1.
          5    1    3    3  503    0  0.60522068097E+02  0.31240234398E+02  0.17347188698E+03  0.18642279513E+03  0.47000000000E+01 0.  1.
         -5    1    3    3    0  503 -0.32342938149E+02 -0.28465096103E+02  0.25594071475E+02  0.50333625330E+02  0.47000000000E+01 0.  1.
<mgrwt>
<rscale>  0 0.12816736E+03</rscale>
<asrwt>0</asrwt>
<pdfrwt beam="2">  1        5 0.74456059E-02 0.12816804E+03</pdfrwt>
<pdfrwt beam="1">  1       -5 0.54904958E-01 0.12816804E+03</pdfrwt>
<totfact> 0.29406698E+02</totfact>
</mgrwt>
</event>
<event>
 8    1  0.1821556E-007  0.1263556E+03  0.7546771E-02  0.1232966E+00
          5   -1    0    0  501    0  0.00000000000E+00  0.00000000000E+00  0.55014168862E+02  0.55214570320E+02  0.47000000000E+01 0. -1.
         -5   -1    0    0    0  501 -0.00000000000E+00 -0.00000000000E+00 -0.33330146647E+03  0.33333460299E+03  0.47000000000E+01 0. -1.
         25    2    1    2    0    0  0.17969809804E+02  0.42309721750E+01 -0.20957515479E+03  0.24471917165E+03  0.12499964911E+03 0.  0.
         25    2    1    2    0    0 -0.17969809804E+02 -0.42309721750E+01 -0.68712142818E+02  0.14383000166E+03  0.12499958247E+03 0.  0.
          5    1    3    3  502    0  0.55074963940E+02 -0.22337520774E+02 -0.18124668220E+03  0.19080006891E+03  0.47000000000E+01 0. -1.
         -5    1    3    3    0  502 -0.37105154136E+02  0.26568492949E+02 -0.28328472586E+02  0.53919102738E+02  0.47000000000E+01 0. -1.
          5    1    4    4  503    0  0.32940164284E+02 -0.24086761461E+02  0.15017410429E+02  0.43736016242E+02  0.47000000000E+01 0. -1.
         -5    1    4    4    0  503 -0.50909974088E+02  0.19855789286E+02 -0.83729553248E+02  0.10009398542E+03  0.47000000000E+01 0. -1.
<mgrwt>
<rscale>  0 0.12635554E+03</rscale>
<asrwt>0</asrwt>
<pdfrwt beam="1">  1        5 0.84816829E-02 0.12635556E+03</pdfrwt>
<pdfrwt beam="2">  1       -5 0.51295112E-01 0.12635556E+03</pdfrwt>
<totfact> 0.27071050E+02</totfact>
</mgrwt>
</event>
<event>
 8    1  0.1821556E-007  0.1412379E+03  0.7546771E-02  0.1211674E+00
         -5   -1    0    0    0  501 -0.00000000000E+00  0.00000000000E+00  0.21196102652E+03  0.21201312876E+03  0.47000000000E+01 0.  1.
          5   -1    0    0  501    0  0.00000000000E+00 -0.00000000000E+00 -0.94015179878E+02  0.94132587596E+02  0.47000000000E+01 0.  1.
         25    2    1    2    0    0  0.65737416383E+02  0.10823586119E+01  0.56355821884E+02  0.15206304024E+03  0.12499844053E+03 0.  0.
         25    2    1    2    0    0 -0.65737416383E+02 -0.10823586119E+01  0.61590024762E+02  0.15408267611E+03  0.12500224204E+03 0.  0.
          5    1    3    3  502    0  0.48417434591E+02  0.34582900970E+02 -0.23089285768E+02  0.63995547729E+02  0.47000000000E+01 0.  1.
         -5    1    3    3    0  502  0.17319981791E+02 -0.33500542358E+02  0.79445107652E+02  0.88067492512E+02  0.47000000000E+01 0.  1.
          5    1    4    4  503    0 -0.86218475200E+02  0.10395123344E+02 -0.10987988725E+01  0.86976901613E+02  0.47000000000E+01 0. -1.
         -5    1    4    4    0  503  0.20481058818E+02 -0.11477481956E+02  0.62688823634E+02  0.67105774498E+02  0.47000000000E+01 0. -1.
<mgrwt>
<rscale>  0 0.14123704E+03</rscale>
<asrwt>0</asrwt>
<pdfrwt beam="2">  1        5 0.14476913E-01 0.14123788E+03</pdfrwt>
<pdfrwt beam="1">  1       -5 0.32622428E-01 0.14123788E+03</pdfrwt>
<totfact> 0.27806472E+02</totfact>
</mgrwt>
</event>
<event>
 8    1  0.1821556E-007  0.2014181E+03  0.7546771E-02  0.1148552E+00
          5   -1    0    0  501    0  0.00000000000E+00  0.00000000000E+00  0.31737944787E+02  0.32084063634E+02  0.47000000000E+01 0. -1.
         -5   -1    0    0    0  501 -0.00000000000E+00 -0.00000000000E+00 -0.13411585829E+04  0.13411668183E+04  0.47000000000E+01 0. -1.
         25    2    1    2    0    0 -0.52631443004E+02 -0.14888476375E+03 -0.81191724580E+03  0.83652786247E+03  0.12503003234E+03 0.  0.
         25    2    1    2    0    0  0.52631443004E+02  0.14888476375E+03 -0.49750339232E+03  0.53672301946E+03  0.12500093033E+03 0.  0.
          5    1    3    3  502    0 -0.11142746211E+02 -0.12832159815E+03 -0.73805252849E+03  0.74922240900E+03  0.47000000000E+01 0.  1.
         -5    1    3    3    0  502 -0.41488696793E+02 -0.20563165601E+02 -0.73864717311E+02  0.87305453464E+02  0.47000000000E+01 0.  1.
          5    1    4    4  503    0  0.85624978109E+01  0.15553769574E+03 -0.40456269528E+03  0.43354164226E+03  0.47000000000E+01 0. -1.
         -5    1    4    4    0  503  0.44068945193E+02 -0.66529319902E+01 -0.92940697038E+02  0.10318137720E+03  0.47000000000E+01 0. -1.
<mgrwt>
<rscale>  0 0.20141358E+03</rscale>
<asrwt>0</asrwt>
<pdfrwt beam="1">  1        5 0.49100198E-02 0.20141810E+03</pdfrwt>
<pdfrwt beam="2">  1       -5 0.20635930E+00 0.20141810E+03</pdfrwt>
<totfact> 0.23569468E+01</totfact>
</mgrwt>
</event>
<event>
 8    1  0.1821556E-007  0.1532420E+03  0.7546771E-02  0.1196561E+00
         -5   -1    0    0    0  501 -0.00000000000E+00  0.00000000000E+00  0.88799651252E+02  0.88923945383E+02  0.47000000000E+01 0.  1.
          5   -1    0    0  501    0  0.00000000000E+00 -0.00000000000E+00 -0.31229739454E+03  0.31233275947E+03  0.47000000000E+01 0.  1.
         25    2    1    2    0    0  0.52977849274E+02 -0.71073515705E+02 -0.32908787318E+02  0.15673577978E+03  0.12500007693E+03 0.  0.
         25    2    1    2    0    0 -0.52977849274E+02  0.71073515705E+02 -0.19058895597E+03  0.24452092507E+03  0.12493292405E+03 0.  0.
          5    1    3    3  502    0  0.16800283748E+02  0.35625716162E+02 -0.15722564582E+02  0.42670015504E+02  0.47000000000E+01 0. -1.
         -5    1    3    3    0  502  0.36177565526E+02 -0.10669923187E+03 -0.17186222735E+02  0.11406576428E+03  0.47000000000E+01 0. -1.
          5    1    4    4  503    0 -0.92589220850E+02  0.49684883157E+02 -0.11070649473E+03  0.15270680865E+03  0.47000000000E+01 0. -1.
         -5    1    4    4    0  503  0.39611371576E+02  0.21388632548E+02 -0.79882461241E+02  0.91814116422E+02  0.47000000000E+01 0. -1.
<mgrwt>
<rscale>  0 0.15322832E+03</rscale>
<asrwt>0</asrwt>
<pdfrwt beam="2">  1        5 0.48058034E-01 0.15324202E+03</pdfrwt>
<pdfrwt beam="1">  1       -5 0.13673766E-01 0.15324202E+03</pdfrwt>
<totfact> 0.14333013E+02</totfact>
</mgrwt>
</event>
<event>
 8    1  0.1821556E-007  0.1315152E+03  0.7546771E-02  0.1225225E+00
         -5   -1    0    0    0  501 -0.00000000000E+00  0.00000000000E+00  0.30849565187E+03  0.30853145257E+03  0.47000000000E+01 0. -1.
          5   -1    0    0  501    0  0.00000000000E+00 -0.00000000000E+00 -0.67105705296E+02  0.67270095014E+02  0.47000000000E+01 0. -1.
         25    2    1    2    0    0  0.19824862621E+02  0.35764076294E+02  0.19725859822E+03  0.23708058375E+03  0.12499661711E+03 0.  0.
         25    2    1    2    0    0 -0.19824862621E+02 -0.35764076294E+02  0.44131348357E+02  0.13872096383E+03  0.12499534218E+03 0.  0.
          5    1    3    3  502    0  0.10862633746E+02 -0.26192819726E+02  0.16309580740E+03  0.16560915738E+03  0.47000000000E+01 0.  1.
         -5    1    3    3    0  502  0.89622288749E+01  0.61956896020E+02  0.34162790821E+02  0.71471426371E+02  0.47000000000E+01 0.  1.
          5    1    4    4  503    0 -0.61494762280E+02 -0.49945601464E+02  0.48027949818E+01  0.79506765329E+02  0.47000000000E+01 0.  1.
         -5    1    4    4    0  503  0.41669899659E+02  0.14181525170E+02  0.39328553375E+02  0.59214198503E+02  0.47000000000E+01 0.  1.
<mgrwt>
<rscale>  0 0.13151490E+03</rscale>
<asrwt>0</asrwt>
<pdfrwt beam="2">  1        5 0.10339354E-01 0.13151520E+03</pdfrwt>
<pdfrwt beam="1">  1       -5 0.47476269E-01 0.13151520E+03</pdfrwt>
<totfact> 0.22940666E+02</totfact>
</mgrwt>
</event>
<event>
 8    1  0.1821556E-007  0.1720600E+03  0.7546771E-02  0.1175717E+00
         -5   -1    0    0    0  501 -0.00000000000E+00  0.00000000000E+00  0.17802912560E+03  0.17809115521E+03  0.47000000000E+01 0.  1.
          5   -1    0    0  501    0  0.00000000000E+00 -0.00000000000E+00 -0.18355340795E+03  0.18361357132E+03  0.47000000000E+01 0.  1.
         25    2    1    2    0    0 -0.78322710128E+02  0.88571926474E+02  0.52882910618E+02  0.18000345095E+03  0.12500082815E+03 0.  0.
         25    2    1    2    0    0  0.78322710128E+02 -0.88571926474E+02 -0.58407192968E+02  0.18170127557E+03  0.12499808107E+03 0.  0.
          5    1    4    4  502    0 -0.77100612467E+01 -0.82881590361E+02 -0.43626650987E+02  0.94096640437E+02  0.47000000000E+01 0.  1.
         -5    1    4    4    0  502  0.86032771374E+02 -0.56903361138E+01 -0.14780541982E+02  0.87604635132E+02  0.47000000000E+01 0.  1.
          5    1    3    3  503    0 -0.15488466926E+01  0.48618135770E+02 -0.32218255037E+02  0.58533990206E+02  0.47000000000E+01 0. -1.
         -5    1    3    3    0  503 -0.76773863435E+02  0.39953790705E+02  0.85101165656E+02  0.12146946075E+03  0.47000000000E+01 0. -1.
<mgrwt>
<rscale>  0 0.17205949E+03</rscale>
<asrwt>0</asrwt>
<pdfrwt beam="2">  1        5 0.28248385E-01 0.17205999E+03</pdfrwt>
<pdfrwt beam="1">  1       -5 0.27398496E-01 0.17205999E+03</pdfrwt>
<totfact> 0.11919215E+02</totfact>
</mgrwt>
</event>
<event>
 8    1  0.1821556E-007  0.1257532E+03  0.7546771E-02  0.1233897E+00
          5   -1    0    0  501    0  0.00000000000E+00  0.00000000000E+00  0.10697879199E+03  0.10708198698E+03  0.47000000000E+01 0.  1.
         -5   -1    0    0    0  501 -0.00000000000E+00 -0.00000000000E+00 -0.15368922902E+03  0.15376107803E+03  0.47000000000E+01 0.  1.
         25    2    1    2    0    0 -0.51382424117E+01 -0.12773022487E+02 -0.49279581005E+02  0.13506366747E+03  0.12499666207E+03 0.  0.
         25    2    1    2    0    0  0.51382424117E+01  0.12773022487E+02  0.25691439711E+01  0.12577939754E+03  0.12499721880E+03 0.  0.
          5    1    3    3  502    0  0.46317959949E+02 -0.24021527531E+02  0.12383332275E+02  0.53831441714E+02  0.47000000000E+01 0.  1.
         -5    1    3    3    0  502 -0.51456202361E+02  0.11248505043E+02 -0.61662913280E+02  0.81232225756E+02  0.47000000000E+01 0.  1.
          5    1    4    4  503    0  0.11511224315E+02 -0.52374491078E+02  0.20733435893E+02  0.57685015080E+02  0.47000000000E+01 0. -1.
         -5    1    4    4    0  503 -0.63729819035E+01  0.65147513565E+02 -0.18164291922E+02  0.68094382463E+02  0.47000000000E+01 0. -1.
<mgrwt>
<rscale>  0 0.12575302E+03</rscale>
<asrwt>0</asrwt>
<pdfrwt beam="1">  1        5 0.16471741E-01 0.12575316E+03</pdfrwt>
<pdfrwt beam="2">  1       -5 0.23657962E-01 0.12575316E+03</pdfrwt>
<totfact> 0.39397774E+02</totfact>
</mgrwt>
</event>
<event>
 8    1  0.1821556E-007  0.2145401E+03  0.7546771E-02  0.1138026E+00
         -5   -1    0    0    0  501 -0.00000000000E+00  0.00000000000E+00  0.82004185150E+02  0.82138762969E+02  0.47000000000E+01 0.  1.
          5   -1    0    0  501    0  0.00000000000E+00 -0.00000000000E+00 -0.57481504548E+03  0.57483426003E+03  0.47000000000E+01 0.  1.
         25    2    1    2    0    0  0.16571886895E+03  0.54092223607E+02 -0.29803477401E+03  0.36720553234E+03  0.12500585699E+03 0.  0.
         25    2    1    2    0    0 -0.16571886895E+03 -0.54092223607E+02 -0.19477608632E+03  0.28976749066E+03  0.12505503854E+03 0.  0.
          5    1    3    3  502    0  0.86752493577E+02 -0.19442854060E+02 -0.64603558904E+02  0.10999877062E+03  0.47000000000E+01 0.  1.
         -5    1    3    3    0  502  0.78966375370E+02  0.73535077667E+02 -0.23343121510E+03  0.25720676171E+03  0.47000000000E+01 0.  1.
          5    1    4    4  503    0 -0.93199068239E+02 -0.13296259144E+02 -0.20317259594E+02  0.96424778275E+02  0.47000000000E+01 0. -1.
         -5    1    4    4    0  503 -0.72519800708E+02 -0.40795964463E+02 -0.17445882672E+03  0.19334271239E+03  0.47000000000E+01 0. -1.
<mgrwt>
<rscale>  0 0.21453298E+03</rscale>
<asrwt>0</asrwt>
<pdfrwt beam="2">  1        5 0.88444911E-01 0.21454015E+03</pdfrwt>
<pdfrwt beam="1">  1       -5 0.12627859E-01 0.21454015E+03</pdfrwt>
<totfact> 0.46422506E+01</totfact>
</mgrwt>
</event>
<event>
 8    1  0.1821556E-007  0.1628950E+03  0.7546771E-02  0.1185468E+00
         -5   -1    0    0    0  501 -0.00000000000E+00  0.00000000000E+00  0.24821359719E+03  0.24825809117E+03  0.47000000000E+01 0. -1.
          5   -1    0    0  501    0  0.00000000000E+00 -0.00000000000E+00 -0.11014459833E+03  0.11024483000E+03  0.47000000000E+01 0. -1.
         25    2    1    2    0    0 -0.15319745186E+02 -0.10331905634E+03  0.10027765619E+03  0.19128617658E+03  0.12500108409E+03 0.  0.
         25    2    1    2    0    0  0.15319745186E+02  0.10331905634E+03  0.37791342676E+02  0.16721674459E+03  0.12499492827E+03 0.  0.
          5    1    3    3  502    0  0.12644251646E+02  0.26475061659E+02  0.13774636844E+02  0.32751131426E+02  0.47000000000E+01 0.  1.
         -5    1    3    3    0  502 -0.27963996832E+02 -0.12979411800E+03  0.86503019342E+02  0.15853504516E+03  0.47000000000E+01 0.  1.
          5    1    4    4  503    0 -0.43239637630E+02  0.93265570773E+02  0.18406971145E+02  0.10454204676E+03  0.47000000000E+01 0.  1.
         -5    1    4    4    0  503  0.58559382817E+02  0.10053485572E+02  0.19384371531E+02  0.62674697827E+02  0.47000000000E+01 0.  1.
<mgrwt>
<rscale>  0 0.16289386E+03</rscale>
<asrwt>0</asrwt>
<pdfrwt beam="2">  1        5 0.16956456E-01 0.16289504E+03</pdfrwt>
<pdfrwt beam="1">  1       -5 0.38197840E-01 0.16289504E+03</pdfrwt>
<totfact> 0.15907298E+02</totfact>
</mgrwt>
</event>
<event>
 8    1  0.1821556E-007  0.1367017E+03  0.7546771E-02  0.1217838E+00
         -5   -1    0    0    0  501 -0.00000000000E+00  0.00000000000E+00  0.82133169348E+02  0.82267536168E+02  0.47000000000E+01 0.  1.
          5   -1    0    0  501    0  0.00000000000E+00 -0.00000000000E+00 -0.24379176647E+03  0.24383706732E+03  0.47000000000E+01 0.  1.
         25    2    1    2    0    0 -0.53052558605E+02  0.15750921405E+02 -0.38279772850E+02  0.14195877205E+03  0.12499714578E+03 0.  0.
         25    2    1    2    0    0  0.53052558605E+02 -0.15750921405E+02 -0.12337882427E+03  0.18414583144E+03  0.12499874983E+03 0.  0.
          5    1    4    4  502    0 -0.34788375689E+02 -0.23574464504E+02 -0.16231673094E+02  0.45293969479E+02  0.47000000000E+01 0. -1.
         -5    1    4    4    0  502  0.87840934294E+02  0.78235430986E+01 -0.10714715118E+03  0.13885186196E+03  0.47000000000E+01 0. -1.
          5    1    3    3  503    0 -0.68400881646E+02  0.11810723866E+02 -0.74628991859E+02  0.10202818353E+03  0.47000000000E+01 0. -1.
         -5    1    3    3    0  503  0.15348323041E+02  0.39401975390E+01  0.36349219010E+02  0.39930588518E+02  0.47000000000E+01 0. -1.
<mgrwt>
<rscale>  0 0.13670133E+03</rscale>
<asrwt>0</asrwt>
<pdfrwt beam="2">  1        5 0.37520246E-01 0.13670169E+03</pdfrwt>
<pdfrwt beam="1">  1       -5 0.12649693E-01 0.13670169E+03</pdfrwt>
<totfact> 0.26458822E+02</totfact>
</mgrwt>
</event>
<event>
 8    1  0.1821556E-007  0.2094202E+03  0.7546771E-02  0.1142026E+00
         -5   -1    0    0    0  501 -0.00000000000E+00  0.00000000000E+00  0.79966401845E+02  0.80104403275E+02  0.47000000000E+01 0.  1.
          5   -1    0    0  501    0  0.00000000000E+00 -0.00000000000E+00 -0.57688046278E+03  0.57689960854E+03  0.47000000000E+01 0.  1.
         25    2    1    2    0    0 -0.14248537349E+03  0.89055170666E+02 -0.17473580306E+03  0.27274424144E+03  0.12499566107E+03 0.  0.
         25    2    1    2    0    0  0.14248537349E+03 -0.89055170666E+02 -0.32217825787E+03  0.38425977038E+03  0.12499534473E+03 0.  0.
          5    1    4    4  502    0  0.11063610466E+03 -0.47374132791E+02 -0.30648929138E+03  0.32930598513E+03  0.47000000000E+01 0.  1.
         -5    1    4    4    0  502  0.31849268832E+02 -0.41681037875E+02 -0.15688966492E+02  0.54953785248E+02  0.47000000000E+01 0.  1.
          5    1    3    3  503    0 -0.14781602657E+03  0.34975954783E+02 -0.10740981387E+03  0.18609635472E+03  0.47000000000E+01 0. -1.
         -5    1    3    3    0  503  0.53306530781E+01  0.54079215882E+02 -0.67325989194E+02  0.86647886724E+02  0.47000000000E+01 0. -1.
<mgrwt>
<rscale>  0 0.20942015E+03</rscale>
<asrwt>0</asrwt>
<pdfrwt beam="2">  1        5 0.88762926E-01 0.20942020E+03</pdfrwt>
<pdfrwt beam="1">  1       -5 0.12314612E-01 0.20942020E+03</pdfrwt>
<totfact> 0.47853448E+01</totfact>
</mgrwt>
</event>
<event>
 8    1  0.1821556E-007  0.1335954E+03  0.7546771E-02  0.1222217E+00
         -5   -1    0    0    0  501 -0.00000000000E+00  0.00000000000E+00  0.49226185387E+03  0.49228429060E+03  0.47000000000E+01 0.  1.
          5   -1    0    0  501    0  0.00000000000E+00 -0.00000000000E+00 -0.59311040179E+02  0.59496970402E+02  0.47000000000E+01 0.  1.
         25    2    1    2    0    0 -0.32925196758E+02 -0.33729424976E+02  0.38875151980E+03  0.41106627284E+03  0.12500397523E+03 0.  0.
         25    2    1    2    0    0  0.32925196758E+02  0.33729424976E+02  0.44199293886E+02  0.14071498817E+03  0.12500155049E+03 0.  0.
          5    1    4    4  502    0  0.62513456762E+02  0.56003291291E+02  0.16063160655E+01  0.84077173853E+02  0.47000000000E+01 0. -1.
         -5    1    4    4    0  502 -0.29588260004E+02 -0.22273866315E+02  0.42592977820E+02  0.56637814314E+02  0.47000000000E+01 0. -1.
          5    1    3    3  503    0  0.27305693327E+02 -0.31002521727E+02  0.30467526542E+03  0.30749937333E+03  0.47000000000E+01 0. -1.
         -5    1    3    3    0  503 -0.60230890085E+02 -0.27269032495E+01  0.84076254387E+02  0.10356689951E+03  0.47000000000E+01 0. -1.
<mgrwt>
<rscale>  0 0.13359485E+03</rscale>
<asrwt>0</asrwt>
<pdfrwt beam="2">  1        5 0.91408032E-02 0.13359542E+03</pdfrwt>
<pdfrwt beam="1">  1       -5 0.75748625E-01 0.13359542E+03</pdfrwt>
<totfact> 0.10279435E+02</totfact>
</mgrwt>
</event>
<event>
 8    1  0.1821556E-007  0.1321973E+03  0.7546771E-02  0.1224232E+00
         -5   -1    0    0    0  501 -0.00000000000E+00  0.00000000000E+00  0.68662259801E+02  0.68822931650E+02  0.47000000000E+01 0.  1.
          5   -1    0    0  501    0  0.00000000000E+00 -0.00000000000E+00 -0.25656021443E+03  0.25660326114E+03  0.47000000000E+01 0.  1.
         25    2    1    2    0    0  0.30357936864E+02  0.30486872217E+02 -0.77820057367E+02  0.15339926697E+03  0.12499728026E+03 0.  0.
         25    2    1    2    0    0 -0.30357936864E+02 -0.30486872217E+02 -0.11007789726E+03  0.17202692582E+03  0.12500026413E+03 0.  0.
          5    1    4    4  502    0 -0.77458573523E+02 -0.88236982187E+01 -0.80472228623E+02  0.11214079473E+03  0.47000000000E+01 0.  1.
         -5    1    4    4    0  502  0.47100636659E+02 -0.21663173998E+02 -0.29605668637E+02  0.59886131089E+02  0.47000000000E+01 0.  1.
          5    1    3    3  503    0  0.56091018226E+01  0.57744245283E+02 -0.95847798142E+02  0.11213719408E+03  0.47000000000E+01 0. -1.
         -5    1    3    3    0  503  0.24748835042E+02 -0.27257373066E+02  0.18027740775E+02  0.41262072898E+02  0.47000000000E+01 0. -1.
<mgrwt>
<rscale>  0 0.13219657E+03</rscale>
<asrwt>0</asrwt>
<pdfrwt beam="2">  1        5 0.39486472E-01 0.13219728E+03</pdfrwt>
<pdfrwt beam="1">  1       -5 0.10579095E-01 0.13219728E+03</pdfrwt>
<totfact> 0.32328081E+02</totfact>
</mgrwt>
</event>
<event>
 8    1  0.1821556E-007  0.1311199E+03  0.7546771E-02  0.1225805E+00
         -5   -1    0    0    0  501 -0.00000000000E+00  0.00000000000E+00  0.12050974566E+03  0.12060136317E+03  0.47000000000E+01 0. -1.
          5   -1    0    0  501    0  0.00000000000E+00 -0.00000000000E+00 -0.14274936432E+03  0.14282671674E+03  0.47000000000E+01 0. -1.
         25    2    1    2    0    0  0.27473775352E+02  0.28504540831E+02 -0.53481577728E+01  0.13122897331E+03  0.12500049386E+03 0.  0.
         25    2    1    2    0    0 -0.27473775352E+02 -0.28504540831E+02 -0.16891460890E+02  0.13219910660E+03  0.12499586055E+03 0.  0.
          5    1    3    3  502    0  0.13487903362E+02  0.44415882343E+02 -0.57908691782E+02  0.74365319372E+02  0.47000000000E+01 0.  1.
         -5    1    3    3    0  502  0.13985871990E+02 -0.15911341513E+02  0.52560534009E+02  0.56863653940E+02  0.47000000000E+01 0.  1.
          5    1    4    4  503    0 -0.43587197192E+01  0.38896814164E+02  0.27545959871E+02  0.48091896353E+02  0.47000000000E+01 0.  1.
         -5    1    4    4    0  503 -0.23115055633E+02 -0.67401354994E+02 -0.44437420761E+02  0.84107210249E+02  0.47000000000E+01 0.  1.
<mgrwt>
<rscale>  0 0.13111884E+03</rscale>
<asrwt>0</asrwt>
<pdfrwt beam="2">  1        5 0.21974438E-01 0.13111995E+03</pdfrwt>
<pdfrwt beam="1">  1       -5 0.18552959E-01 0.13111995E+03</pdfrwt>
<totfact> 0.36979493E+02</totfact>
</mgrwt>
</event>
<event>
 8    1  0.1821556E-007  0.1604894E+03  0.7546771E-02  0.1188149E+00
          5   -1    0    0  501    0  0.00000000000E+00  0.00000000000E+00  0.21097029693E+03  0.21102264378E+03  0.47000000000E+01 0. -1.
         -5   -1    0    0    0  501 -0.00000000000E+00 -0.00000000000E+00 -0.12249930557E+03  0.12258943619E+03  0.47000000000E+01 0. -1.
         25    2    1    2    0    0  0.31818853928E+01  0.10058416144E+03  0.55251917384E+02  0.16972077837E+03  0.12500028123E+03 0.  0.
         25    2    1    2    0    0 -0.31818853928E+01 -0.10058416144E+03  0.33219073982E+02  0.16389130160E+03  0.12501821442E+03 0.  0.
          5    1    4    4  502    0  0.20428689005E+02 -0.61595049335E+02  0.76798464763E+02  0.10065473475E+03  0.47000000000E+01 0. -1.
         -5    1    4    4    0  502 -0.23610574398E+02 -0.38989112108E+02 -0.43579390781E+02  0.63236566852E+02  0.47000000000E+01 0. -1.
          5    1    3    3  503    0 -0.57161671980E+02  0.59287447769E+02  0.87840455149E+01  0.82956058622E+02  0.47000000000E+01 0.  1.
         -5    1    3    3    0  503  0.60343557373E+02  0.41296713674E+02  0.46467871869E+02  0.86764719747E+02  0.47000000000E+01 0.  1.
<mgrwt>
<rscale>  0 0.16048592E+03</rscale>
<asrwt>0</asrwt>
<pdfrwt beam="1">  1        5 0.32467928E-01 0.16048941E+03</pdfrwt>
<pdfrwt beam="2">  1       -5 0.18857007E-01 0.16048941E+03</pdfrwt>
<totfact> 0.18046921E+02</totfact>
</mgrwt>
</event>
<event>
 8    1  0.1821556E-007  0.1254626E+03  0.7546771E-02  0.1234349E+00
         -5   -1    0    0    0  501 -0.00000000000E+00  0.00000000000E+00  0.49763568959E+03  0.49765788405E+03  0.47000000000E+01 0.  1.
          5   -1    0    0  501    0  0.00000000000E+00 -0.00000000000E+00 -0.32841173576E+02  0.33175784570E+02  0.47000000000E+01 0.  1.
         25    2    1    2    0    0 -0.95911351734E+01 -0.48662107066E+01  0.28705417081E+03  0.31327335814E+03  0.12499772023E+03 0.  0.
         25    2    1    2    0    0  0.95911351734E+01  0.48662107066E+01  0.17774034520E+03  0.21756031048E+03  0.12500075400E+03 0.  0.
          5    1    3    3  502    0 -0.58476916859E+02  0.27432559575E+02  0.12302168802E+03  0.13902705080E+03  0.47000000000E+01 0.  1.
         -5    1    3    3    0  502  0.48885781686E+02 -0.32298770282E+02  0.16403248279E+03  0.17424630735E+03  0.47000000000E+01 0.  1.
          5    1    4    4  503    0  0.39170704037E+02  0.41385318227E+02  0.34603228826E+02  0.66832342954E+02  0.47000000000E+01 0.  1.
         -5    1    4    4    0  503 -0.29579568864E+02 -0.36519107520E+02  0.14313711638E+03  0.15072796752E+03  0.47000000000E+01 0.  1.
<mgrwt>
<rscale>  0 0.12546182E+03</rscale>
<asrwt>0</asrwt>
<pdfrwt beam="2">  1        5 0.50799349E-02 0.12546258E+03</pdfrwt>
<pdfrwt beam="1">  1       -5 0.76586783E-01 0.12546258E+03</pdfrwt>
<totfact> 0.26528115E+02</totfact>
</mgrwt>
</event>
<event>
 8    1  0.1821556E-007  0.1255824E+03  0.7546771E-02  0.1234162E+00
          5   -1    0    0  501    0  0.00000000000E+00  0.00000000000E+00  0.32168530417E+03  0.32171963713E+03  0.47000000000E+01 0. -1.
         -5   -1    0    0    0  501 -0.00000000000E+00 -0.00000000000E+00 -0.49556532247E+02  0.49778910076E+02  0.47000000000E+01 0. -1.
         25    2    1    2    0    0  0.11063196399E+02 -0.49032875336E+01  0.11435514405E+03  0.16984713436E+03  0.12499805412E+03 0.  0.
         25    2    1    2    0    0 -0.11063196399E+02  0.49032875336E+01  0.15777362787E+03  0.20165141285E+03  0.12499735242E+03 0.  0.
          5    1    4    4  502    0 -0.58920010437E+02  0.53820089881E+01  0.13692909840E+03  0.14923874041E+03  0.47000000000E+01 0.  1.
         -5    1    4    4    0  502  0.47856814038E+02 -0.47872145452E+00  0.20844529472E+02  0.52412672447E+02  0.47000000000E+01 0.  1.
          5    1    3    3  503    0  0.86351594007E+01 -0.21161307405E+02  0.13839462903E+03  0.14034789010E+03  0.47000000000E+01 0.  1.
         -5    1    3    3    0  503  0.24280369982E+01  0.16258019871E+02 -0.24039484981E+02  0.29499244260E+02  0.47000000000E+01 0.  1.
<mgrwt>
<rscale>  0 0.12558227E+03</rscale>
<asrwt>0</asrwt>
<pdfrwt beam="1">  1        5 0.49509794E-01 0.12558244E+03</pdfrwt>
<pdfrwt beam="2">  1       -5 0.76438288E-02 0.12558244E+03</pdfrwt>
<totfact> 0.34792817E+02</totfact>
</mgrwt>
</event>
<event>
 8    1  0.1821556E-007  0.1454594E+03  0.7546771E-02  0.1206169E+00
         -5   -1    0    0    0  501 -0.00000000000E+00  0.00000000000E+00  0.43622785511E+03  0.43625317371E+03  0.47000000000E+01 0. -1.
          5   -1    0    0  501    0  0.00000000000E+00 -0.00000000000E+00 -0.60166480936E+02  0.60349775710E+02  0.47000000000E+01 0. -1.
         25    2    1    2    0    0 -0.46287567082E+01 -0.74222304812E+02  0.29781643361E+03  0.33144087470E+03  0.12501219692E+03 0.  0.
         25    2    1    2    0    0  0.46287567082E+01  0.74222304812E+02  0.78244940565E+02  0.16516207472E+03  0.12500345707E+03 0.  0.
          5    1    3    3  502    0 -0.21219156673E+02 -0.55687316556E+02  0.30012496380E+03  0.30602028320E+03  0.47000000000E+01 0. -1.
         -5    1    3    3    0  502  0.16590399965E+02 -0.18534988256E+02 -0.23085301935E+01  0.25420591501E+02  0.47000000000E+01 0. -1.
          5    1    4    4  503    0 -0.55810057717E+02  0.20782710443E+02  0.12615856703E+02  0.61056804994E+02  0.47000000000E+01 0.  1.
         -5    1    4    4    0  503  0.60438814425E+02  0.53439594369E+02  0.65629083862E+02  0.10410526972E+03  0.47000000000E+01 0.  1.
<mgrwt>
<rscale>  0 0.14545748E+03</rscale>
<asrwt>0</asrwt>
<pdfrwt beam="2">  1        5 0.92724290E-02 0.14545936E+03</pdfrwt>
<pdfrwt beam="1">  1       -5 0.67128024E-01 0.14545936E+03</pdfrwt>
<totfact> 0.13544794E+02</totfact>
</mgrwt>
</event>
<event>
 8    1  0.1821556E-007  0.1259295E+03  0.7546771E-02  0.1233626E+00
          5   -1    0    0  501    0  0.00000000000E+00  0.00000000000E+00  0.10359310738E+03  0.10369967163E+03  0.47000000000E+01 0.  1.
         -5   -1    0    0    0  501 -0.00000000000E+00 -0.00000000000E+00 -0.15962350359E+03  0.15969268267E+03  0.47000000000E+01 0.  1.
         25    2    1    2    0    0  0.97843583751E+01  0.11657454129E+02 -0.55121055389E+02  0.13745955274E+03  0.12500067194E+03 0.  0.
         25    2    1    2    0    0 -0.97843583751E+01 -0.11657454129E+02 -0.90934082952E+00  0.12593280157E+03  0.12500645465E+03 0.  0.
          5    1    4    4  502    0  0.47413842659E+02 -0.32960196476E+02 -0.20813991746E+02  0.61561020783E+02  0.47000000000E+01 0. -1.
         -5    1    4    4    0  502 -0.57198201034E+02  0.21302742347E+02  0.19904650916E+02  0.64371780782E+02  0.47000000000E+01 0. -1.
          5    1    3    3  503    0  0.75159791536E+00 -0.11205897950E+02 -0.92048176864E+02  0.92849846055E+02  0.47000000000E+01 0. -1.
         -5    1    3    3    0  503  0.90327604597E+01  0.22863352079E+02  0.36927121475E+02  0.44609706682E+02  0.47000000000E+01 0. -1.
<mgrwt>
<rscale>  0 0.12592808E+03</rscale>
<asrwt>0</asrwt>
<pdfrwt beam="1">  1        5 0.15950920E-01 0.12592952E+03</pdfrwt>
<pdfrwt beam="2">  1       -5 0.24570981E-01 0.12592952E+03</pdfrwt>
<totfact> 0.38886170E+02</totfact>
</mgrwt>
</event>
<event>
 8    1  0.1821556E-007  0.1277836E+03  0.7546771E-02  0.1230783E+00
          5   -1    0    0  501    0  0.00000000000E+00  0.00000000000E+00  0.56661450543E+02  0.56856046096E+02  0.47000000000E+01 0.  1.
         -5   -1    0    0    0  501 -0.00000000000E+00 -0.00000000000E+00 -0.38990383576E+03  0.38993216223E+03  0.47000000000E+01 0.  1.
         25    2    1    2    0    0 -0.23538255671E+02 -0.12235036867E+02 -0.28109225916E+03  0.30877418748E+03  0.12499958036E+03 0.  0.
         25    2    1    2    0    0  0.23538255671E+02  0.12235036867E+02 -0.52150126062E+02  0.13801402084E+03  0.12499795476E+03 0.  0.
          5    1    3    3  502    0 -0.21534239866E+01  0.18361232943E+02  0.53978226542E+01  0.19824192278E+02  0.47000000000E+01 0.  1.
         -5    1    3    3    0  502 -0.21384831685E+02 -0.30596269810E+02 -0.28649008181E+03  0.28894999520E+03  0.47000000000E+01 0.  1.
          5    1    4    4  503    0 -0.41530180441E+02  0.24699597253E+02  0.70311484754E+01  0.49054592454E+02  0.47000000000E+01 0. -1.
         -5    1    4    4    0  503  0.65068436112E+02 -0.12464560386E+02 -0.59181274538E+02  0.88959428391E+02  0.47000000000E+01 0. -1.
<mgrwt>
<rscale>  0 0.12778317E+03</rscale>
<asrwt>0</asrwt>
<pdfrwt beam="1">  1        5 0.87342943E-02 0.12778357E+03</pdfrwt>
<pdfrwt beam="2">  1       -5 0.60002352E-01 0.12778357E+03</pdfrwt>
<totfact> 0.18433553E+02</totfact>
</mgrwt>
</event>
<event>
 8    1  0.1821556E-007  0.1488841E+03  0.7546771E-02  0.1201855E+00
          5   -1    0    0  501    0  0.00000000000E+00  0.00000000000E+00  0.62427815688E+02  0.62604490027E+02  0.47000000000E+01 0. -1.
         -5   -1    0    0    0  501 -0.00000000000E+00 -0.00000000000E+00 -0.39193285782E+03  0.39196103765E+03  0.47000000000E+01 0. -1.
         25    2    1    2    0    0 -0.67891162151E+02 -0.43919292148E+02 -0.23512610936E+03  0.27829978388E+03  0.12501347241E+03 0.  0.
         25    2    1    2    0    0  0.67891162151E+02  0.43919292148E+02 -0.94378932773E+02  0.17626574380E+03  0.12499646141E+03 0.  0.
          5    1    4    4  502    0  0.95843959063E+02  0.60775977345E+02 -0.59357906065E+02  0.12816097270E+03  0.47000000000E+01 0. -1.
         -5    1    4    4    0  502 -0.27952796912E+02 -0.16856685197E+02 -0.35021026709E+02  0.48104771102E+02  0.47000000000E+01 0. -1.
          5    1    3    3  503    0 -0.50101963065E+02  0.32815872034E+02 -0.54192946885E+02  0.80907685990E+02  0.47000000000E+01 0.  1.
         -5    1    3    3    0  503 -0.17789199086E+02 -0.76735164182E+02 -0.18093316247E+03  0.19739209789E+03  0.47000000000E+01 0.  1.
<mgrwt>
<rscale>  0 0.14888055E+03</rscale>
<asrwt>0</asrwt>
<pdfrwt beam="1">  1        5 0.96200376E-02 0.14888412E+03</pdfrwt>
<pdfrwt beam="2">  1       -5 0.60313119E-01 0.14888412E+03</pdfrwt>
<totfact> 0.16227025E+02</totfact>
</mgrwt>
</event>
<event>
 8    1  0.1821556E-007  0.1384448E+03  0.7546771E-02  0.1215439E+00
         -5   -1    0    0    0  501 -0.00000000000E+00  0.00000000000E+00  0.25179954126E+03  0.25184340170E+03  0.47000000000E+01 0.  1.
          5   -1    0    0  501    0  0.00000000000E+00 -0.00000000000E+00 -0.13952311741E+03  0.13960225748E+03  0.47000000000E+01 0.  1.
         25    2    1    2    0    0  0.59382423663E+02 -0.37892240701E+01  0.18813455204E+03  0.23358416314E+03  0.12500528445E+03 0.  0.
         25    2    1    2    0    0 -0.59382423663E+02  0.37892240701E+01 -0.75858128194E+02  0.15786149603E+03  0.12500066343E+03 0.  0.
          5    1    4    4  502    0 -0.68293132012E+02 -0.40289060505E+01 -0.10536659445E+03  0.12571552486E+03  0.47000000000E+01 0. -1.
         -5    1    4    4    0  502  0.89107083488E+01  0.78181301206E+01  0.29508466258E+02  0.32145971175E+02  0.47000000000E+01 0. -1.
          5    1    3    3  503    0  0.62944400182E+02  0.51639858128E+02  0.96695525030E+02  0.12649421735E+03  0.47000000000E+01 0. -1.
         -5    1    3    3    0  503 -0.35619765191E+01 -0.55429082198E+02  0.91439027009E+02  0.10708994580E+03  0.47000000000E+01 0. -1.
<mgrwt>
<rscale>  0 0.13844372E+03</rscale>
<asrwt>0</asrwt>
<pdfrwt beam="2">  1        5 0.21474557E-01 0.13844476E+03</pdfrwt>
<pdfrwt beam="1">  1       -5 0.38747852E-01 0.13844476E+03</pdfrwt>
<totfact> 0.94551181E+01</totfact>
</mgrwt>
</event>
<event>
 8    1  0.1821556E-007  0.1266252E+03  0.7546771E-02  0.1232555E+00
         -5   -1    0    0    0  501 -0.00000000000E+00  0.00000000000E+00  0.19518649076E+04  0.19518705663E+04  0.47000000000E+01 0.  1.
          5   -1    0    0  501    0  0.00000000000E+00 -0.00000000000E+00 -0.80191180444E+01  0.92949585373E+01  0.47000000000E+01 0.  1.
         25    2    1    2    0    0  0.18104372697E+02  0.90167579939E+01  0.11951103911E+04  0.12017998098E+04  0.12499946272E+03 0.  0.
         25    2    1    2    0    0 -0.18104372697E+02 -0.90167579939E+01  0.74873539850E+03  0.75936571506E+03  0.12499008767E+03 0.  0.
          5    1    4    4  502    0 -0.20269015439E+01 -0.21863354418E+02  0.19254327983E+02  0.29579278936E+02  0.47000000000E+01 0. -1.
         -5    1    4    4    0  502 -0.16077471153E+02  0.12846596424E+02  0.72948107051E+03  0.72978643613E+03  0.47000000000E+01 0. -1.
          5    1    3    3  503    0 -0.56165556462E+01 -0.55904259780E+02  0.46350919349E+03  0.46692579112E+03  0.47000000000E+01 0. -1.
         -5    1    3    3    0  503  0.23720928343E+02  0.64921017774E+02  0.73160119762E+03  0.73487401869E+03  0.47000000000E+01 0. -1.
<mgrwt>
<rscale>  0 0.12662287E+03</rscale>
<asrwt>0</asrwt>
<pdfrwt beam="2">  1        5 0.13322892E-02 0.12662518E+03</pdfrwt>
<pdfrwt beam="1">  1       -5 0.30038506E+00 0.12662518E+03</pdfrwt>
<totfact> 0.42861882E+01</totfact>
</mgrwt>
</event>
<event>
 8    1  0.1821556E-007  0.1296832E+03  0.7546771E-02  0.1227944E+00
          5   -1    0    0  501    0  0.00000000000E+00  0.00000000000E+00  0.16511431097E+04  0.16511497990E+04  0.47000000000E+01 0.  1.
         -5   -1    0    0    0  501 -0.00000000000E+00 -0.00000000000E+00 -0.98067780879E+01  0.10874874549E+02  0.47000000000E+01 0.  1.
         25    2    1    2    0    0  0.27461868295E+02  0.20962657838E+02  0.71535828091E+03  0.72700965690E+03  0.12494792483E+03 0.  0.
         25    2    1    2    0    0 -0.27461868295E+02 -0.20962657838E+02  0.92597805072E+03  0.93501501666E+03  0.12499657490E+03 0.  0.
          5    1    4    4  502    0  0.10704280865E+02  0.28202387471E+02  0.69740366571E+03  0.69807157171E+03  0.47000000000E+01 0.  1.
         -5    1    4    4    0  502 -0.38166149160E+02 -0.49165045310E+02  0.22857438501E+03  0.23694344495E+03  0.47000000000E+01 0.  1.
          5    1    3    3  503    0 -0.35956186505E+02  0.42440317124E+02  0.21326169477E+03  0.22044652032E+03  0.47000000000E+01 0.  1.
         -5    1    3    3    0  503  0.63418054800E+02 -0.21477659286E+02  0.50209658615E+03  0.50656313658E+03  0.47000000000E+01 0.  1.
<mgrwt>
<rscale>  0 0.12967147E+03</rscale>
<asrwt>0</asrwt>
<pdfrwt beam="1">  1        5 0.25410476E+00 0.12968319E+03</pdfrwt>
<pdfrwt beam="2">  1       -5 0.15914105E-02 0.12968319E+03</pdfrwt>
<totfact> 0.63811731E+01</totfact>
</mgrwt>
</event>
<event>
 8    1  0.1821556E-007  0.1407085E+03  0.7546771E-02  0.1212380E+00
         -5   -1    0    0    0  501 -0.00000000000E+00  0.00000000000E+00  0.10395713509E+04  0.10395819754E+04  0.47000000000E+01 0.  1.
          5   -1    0    0  501    0  0.00000000000E+00 -0.00000000000E+00 -0.18760297828E+02  0.19340082073E+02  0.47000000000E+01 0.  1.
         25    2    1    2    0    0 -0.63013727261E+02  0.14258238200E+02  0.52577984344E+03  0.54428239781E+03  0.12499943047E+03 0.  0.
         25    2    1    2    0    0  0.63013727261E+02 -0.14258238200E+02  0.49503120960E+03  0.51463965965E+03  0.12499621445E+03 0.  0.
          5    1    4    4  502    0  0.10913150965E+02 -0.88044238478E+01 -0.19201254458E+01  0.14912800710E+02  0.47000000000E+01 0. -1.
         -5    1    4    4    0  502  0.52100576296E+02 -0.54538143521E+01  0.49695133505E+03  0.49972685894E+03  0.47000000000E+01 0. -1.
          5    1    3    3  503    0 -0.90307210493E+02  0.36584947794E+02  0.45157234560E+03  0.46198866218E+03  0.47000000000E+01 0. -1.
         -5    1    3    3    0  503  0.27293483232E+02 -0.22326709594E+02  0.74207497846E+02  0.82293735635E+02  0.47000000000E+01 0. -1.
<mgrwt>
<rscale>  0 0.14070780E+03</rscale>
<asrwt>0</asrwt>
<pdfrwt beam="2">  1        5 0.29316155E-02 0.14070851E+03</pdfrwt>
<pdfrwt beam="1">  1       -5 0.15997948E+00 0.14070851E+03</pdfrwt>
<totfact> 0.10688798E+02</totfact>
</mgrwt>
</event>
<event>
 8    1  0.1821556E-007  0.1383310E+03  0.7546771E-02  0.1215595E+00
          5   -1    0    0  501    0  0.00000000000E+00  0.00000000000E+00  0.94426635278E+02  0.94543532036E+02  0.47000000000E+01 0.  1.
         -5   -1    0    0    0  501 -0.00000000000E+00 -0.00000000000E+00 -0.21308860086E+03  0.21314042746E+03  0.47000000000E+01 0.  1.
         25    2    1    2    0    0 -0.58023131000E+02  0.11894641719E+02 -0.93824791316E+02  0.16714834768E+03  0.12500924939E+03 0.  0.
         25    2    1    2    0    0  0.58023131000E+02 -0.11894641719E+02 -0.24837174269E+02  0.14053561182E+03  0.12500082692E+03 0.  0.
          5    1    4    4  502    0  0.75608750834E+02 -0.52526662358E+02 -0.26703473236E+02  0.95973428323E+02  0.47000000000E+01 0.  1.
         -5    1    4    4    0  502 -0.17585619833E+02  0.40632020640E+02  0.18662989675E+01  0.44562183497E+02  0.47000000000E+01 0.  1.
          5    1    3    3  503    0 -0.80178937658E+02  0.11249149354E+02 -0.11187563668E+03  0.13817906313E+03  0.47000000000E+01 0.  1.
         -5    1    3    3    0  503  0.22155806658E+02  0.64549236449E+00  0.18050845360E+02  0.28969284548E+02  0.47000000000E+01 0.  1.
<mgrwt>
<rscale>  0 0.13832914E+03</rscale>
<asrwt>0</asrwt>
<pdfrwt beam="1">  1        5 0.14540153E-01 0.13833105E+03</pdfrwt>
<pdfrwt beam="2">  1       -5 0.32795840E-01 0.13833105E+03</pdfrwt>
<totfact> 0.27107377E+02</totfact>
</mgrwt>
</event>
<event>
 8    1  0.1821556E-007  0.1253521E+03  0.7546771E-02  0.1234520E+00
          5   -1    0    0  501    0  0.00000000000E+00  0.00000000000E+00  0.22396199058E+02  0.22884049734E+02  0.47000000000E+01 0. -1.
         -5   -1    0    0    0  501 -0.00000000000E+00 -0.00000000000E+00 -0.69592402466E+03  0.69593989547E+03  0.47000000000E+01 0. -1.
         25    2    1    2    0    0  0.67044448389E+01  0.66289392262E+01 -0.35780286498E+03  0.37912495168E+03  0.12499578545E+03 0.  0.
         25    2    1    2    0    0 -0.67044448389E+01 -0.66289392262E+01 -0.31572496062E+03  0.33969899352E+03  0.12499705206E+03 0.  0.
          5    1    4    4  502    0 -0.12009753521E+02 -0.61717979633E+02 -0.11189078762E+03  0.12843278999E+03  0.47000000000E+01 0.  1.
         -5    1    4    4    0  502  0.53053086824E+01  0.55089040406E+02 -0.20383417300E+03  0.21126620353E+03  0.47000000000E+01 0.  1.
          5    1    3    3  503    0 -0.85430099416E+01  0.23840989205E+02 -0.35448762398E+03  0.35542220153E+03  0.47000000000E+01 0. -1.
         -5    1    3    3    0  503  0.15247454781E+02 -0.17212049979E+02 -0.33152410032E+01  0.23702750150E+02  0.47000000000E+01 0. -1.
<mgrwt>
<rscale>  0 0.12535181E+03</rscale>
<asrwt>0</asrwt>
<pdfrwt beam="1">  1        5 0.34843174E-02 0.12535213E+03</pdfrwt>
<pdfrwt beam="2">  1       -5 0.10710397E+00 0.12535213E+03</pdfrwt>
<totfact> 0.22212455E+02</totfact>
</mgrwt>
</event>
<event>
 8    1  0.1821556E-007  0.1293958E+03  0.7546771E-02  0.1228367E+00
         -5   -1    0    0    0  501 -0.00000000000E+00  0.00000000000E+00  0.27407393665E+03  0.27411423303E+03  0.47000000000E+01 0.  1.
          5   -1    0    0  501    0  0.00000000000E+00 -0.00000000000E+00 -0.70603910503E+02  0.70760173673E+02  0.47000000000E+01 0.  1.
         25    2    1    2    0    0  0.32321423404E+02  0.85146392400E+01  0.16542560633E+03  0.21000172354E+03  0.12497167346E+03 0.  0.
         25    2    1    2    0    0 -0.32321423404E+02 -0.85146392400E+01  0.38044419814E+02  0.13487268316E+03  0.12500435710E+03 0.  0.
          5    1    3    3  502    0  0.14290926329E+02  0.27632010117E+02 -0.96453084804E+01  0.32907150198E+02  0.47000000000E+01 0.  1.
         -5    1    3    3    0  502  0.18030497076E+02 -0.19117370877E+02  0.17507091481E+03  0.17709457334E+03  0.47000000000E+01 0.  1.
          5    1    4    4  503    0  0.39909550714E+02  0.98768733432E+00  0.46400880928E+02  0.61391200635E+02  0.47000000000E+01 0. -1.
         -5    1    4    4    0  503 -0.72230974118E+02 -0.95023265743E+01 -0.83564611141E+01  0.73481482530E+02  0.47000000000E+01 0. -1.
<mgrwt>
<rscale>  0 0.12938787E+03</rscale>
<asrwt>0</asrwt>
<pdfrwt beam="2">  1        5 0.10877260E-01 0.12939576E+03</pdfrwt>
<pdfrwt beam="1">  1       -5 0.42180341E-01 0.12939576E+03</pdfrwt>
<totfact> 0.26686411E+02</totfact>
</mgrwt>
</event>
<event>
 8    1  0.1821556E-007  0.1434407E+03  0.7546771E-02  0.1208791E+00
         -5   -1    0    0    0  501 -0.00000000000E+00  0.00000000000E+00  0.14072734257E+04  0.14072812742E+04  0.47000000000E+01 0.  1.
          5   -1    0    0  501    0  0.00000000000E+00 -0.00000000000E+00 -0.14583176533E+02  0.15321848380E+02  0.47000000000E+01 0.  1.
         25    2    1    2    0    0 -0.40308103849E+02 -0.57525175044E+02  0.80458586269E+03  0.81727207982E+03  0.12506539494E+03 0.  0.
         25    2    1    2    0    0  0.40308103849E+02  0.57525175044E+02  0.58810438649E+03  0.60533104277E+03  0.12500005170E+03 0.  0.
          5    1    3    3  502    0 -0.75649663300E+02 -0.34021526307E+01  0.35320527881E+03  0.36126237720E+03  0.47000000000E+01 0.  1.
         -5    1    3    3    0  502  0.35341559451E+02 -0.54123022413E+02  0.45138058388E+03  0.45600970262E+03  0.47000000000E+01 0.  1.
          5    1    4    4  503    0  0.50248469833E+02 -0.14466811120E+02  0.40316701879E+03  0.40657094385E+03  0.47000000000E+01 0. -1.
         -5    1    4    4    0  503 -0.99403659836E+01  0.71991986164E+02  0.18493736770E+03  0.19876009892E+03  0.47000000000E+01 0. -1.
<mgrwt>
<rscale>  0 0.14342648E+03</rscale>
<asrwt>0</asrwt>
<pdfrwt beam="2">  1        5 0.23009904E-02 0.14344073E+03</pdfrwt>
<pdfrwt beam="1">  1       -5 0.21656102E+00 0.14344073E+03</pdfrwt>
<totfact> 0.63732963E+01</totfact>
</mgrwt>
</event>
<event>
 8    1  0.1821556E-007  0.1845842E+03  0.7546771E-02  0.1163440E+00
          5   -1    0    0  501    0  0.00000000000E+00  0.00000000000E+00  0.19833119530E+03  0.19838687716E+03  0.47000000000E+01 0.  1.
         -5   -1    0    0    0  501 -0.00000000000E+00 -0.00000000000E+00 -0.24342388322E+03  0.24346925251E+03  0.47000000000E+01 0.  1.
         25    2    1    2    0    0 -0.41902343783E+02 -0.12919191833E+03 -0.14246334616E+03  0.23316760914E+03  0.12499988312E+03 0.  0.
         25    2    1    2    0    0  0.41902343783E+02  0.12919191833E+03  0.97370658246E+02  0.20868852053E+03  0.12499398121E+03 0.  0.
          5    1    4    4  502    0 -0.11926089562E+02  0.11743099238E+03  0.97844550579E+02  0.15338812099E+03  0.47000000000E+01 0.  1.
         -5    1    4    4    0  502  0.53828433345E+02  0.11760925958E+02 -0.47389233286E+00  0.55300399543E+02  0.47000000000E+01 0.  1.
          5    1    3    3  503    0  0.40160134553E+02 -0.17540184342E+02 -0.20911186892E+02  0.48783831454E+02  0.47000000000E+01 0. -1.
         -5    1    3    3    0  503 -0.82062478336E+02 -0.11165173399E+03 -0.12155215926E+03  0.18438377769E+03  0.47000000000E+01 0. -1.
<mgrwt>
<rscale>  0 0.18458321E+03</rscale>
<asrwt>0</asrwt>
<pdfrwt beam="1">  1        5 0.30520265E-01 0.18458421E+03</pdfrwt>
<pdfrwt beam="2">  1       -5 0.37457601E-01 0.18458421E+03</pdfrwt>
<totfact> 0.56069150E+01</totfact>
</mgrwt>
</event>
<event>
 8    1  0.1821556E-007  0.1419475E+03  0.7546771E-02  0.1210737E+00
          5   -1    0    0  501    0  0.00000000000E+00  0.00000000000E+00  0.17326665004E+03  0.17333038400E+03  0.47000000000E+01 0.  1.
         -5   -1    0    0    0  501 -0.00000000000E+00 -0.00000000000E+00 -0.31765490917E+03  0.31768967770E+03  0.47000000000E+01 0.  1.
         25    2    1    2    0    0  0.67243171386E+02  0.93855624115E+00 -0.26769817456E+03  0.30300398062E+03  0.12500629833E+03 0.  0.
         25    2    1    2    0    0 -0.67243171386E+02 -0.93855624115E+00  0.12330991543E+03  0.18801608108E+03  0.12498874555E+03 0.  0.
          5    1    4    4  502    0  0.33271692513E+02  0.19138409815E+02  0.42055831109E+02  0.57132015396E+02  0.47000000000E+01 0. -1.
         -5    1    4    4    0  502 -0.10051486390E+03 -0.20076966056E+02  0.81254084323E+02  0.13088406568E+03  0.47000000000E+01 0. -1.
          5    1    3    3  503    0  0.96420777732E+02  0.24646641251E+02 -0.22406084575E+03  0.24521373514E+03  0.47000000000E+01 0.  1.
         -5    1    3    3    0  503 -0.29177606346E+02 -0.23708085010E+02 -0.43637328812E+02  0.57790245482E+02  0.47000000000E+01 0.  1.
<mgrwt>
<rscale>  0 0.14194366E+03</rscale>
<asrwt>0</asrwt>
<pdfrwt beam="1">  1        5 0.26663985E-01 0.14194752E+03</pdfrwt>
<pdfrwt beam="2">  1       -5 0.48877563E-01 0.14194752E+03</pdfrwt>
<totfact> 0.38967008E+01</totfact>
</mgrwt>
</event>
<event>
 8    1  0.1821556E-007  0.1767121E+03  0.7546771E-02  0.1171025E+00
         -5   -1    0    0    0  501 -0.00000000000E+00  0.00000000000E+00  0.19173672302E+02  0.19741319853E+02  0.47000000000E+01 0.  1.
          5   -1    0    0  501    0  0.00000000000E+00 -0.00000000000E+00 -0.16045066989E+04  0.16045135827E+04  0.47000000000E+01 0.  1.
         25    2    1    2    0    0  0.12132899717E+03 -0.29662058915E+02 -0.78309368880E+03  0.80278358800E+03  0.12500080172E+03 0.  0.
         25    2    1    2    0    0 -0.12132899717E+03  0.29662058915E+02 -0.80223933784E+03  0.82147131452E+03  0.12500640825E+03 0.  0.
          5    1    3    3  502    0  0.86466840450E+02 -0.63721320225E+01 -0.72914900192E+03  0.73430067109E+03  0.47000000000E+01 0.  1.
         -5    1    3    3    0  502  0.34862156720E+02 -0.23289926893E+02 -0.53944686885E+02  0.68482916914E+02  0.47000000000E+01 0.  1.
          5    1    4    4  503    0 -0.31028986184E+02 -0.19469254553E+02 -0.49653249007E+02  0.61882024801E+02  0.47000000000E+01 0.  1.
         -5    1    4    4    0  503 -0.90300010986E+02  0.49131313468E+02 -0.75258608884E+03  0.75958928972E+03  0.47000000000E+01 0.  1.
<mgrwt>
<rscale>  0 0.17671111E+03</rscale>
<asrwt>0</asrwt>
<pdfrwt beam="2">  1        5 0.24689127E+00 0.17671210E+03</pdfrwt>
<pdfrwt beam="1">  1       -5 0.29939917E-02 0.17671210E+03</pdfrwt>
<totfact> 0.28014154E+01</totfact>
</mgrwt>
</event>
<event>
 8    1  0.1821556E-007  0.1312610E+03  0.7546771E-02  0.1225600E+00
          5   -1    0    0  501    0  0.00000000000E+00  0.00000000000E+00  0.72471263965E+03  0.72472788001E+03  0.47000000000E+01 0.  1.
         -5   -1    0    0    0  501 -0.00000000000E+00 -0.00000000000E+00 -0.24441378210E+02  0.24889173727E+02  0.47000000000E+01 0.  1.
         25    2    1    2    0    0  0.22985117285E+02 -0.32752069355E+02  0.27821937493E+03  0.30762468791E+03  0.12500365738E+03 0.  0.
         25    2    1    2    0    0 -0.22985117285E+02  0.32752069355E+02  0.42205188650E+03  0.44199236583E+03  0.12501377079E+03 0.  0.
          5    1    4    4  502    0 -0.65846933131E+02  0.25952093146E+02  0.14386201315E+03  0.16039856162E+03  0.47000000000E+01 0. -1.
         -5    1    4    4    0  502  0.42861815847E+02  0.67999762097E+01  0.27818987335E+03  0.28159380421E+03  0.47000000000E+01 0. -1.
          5    1    3    3  503    0 -0.52512132947E+00 -0.46714751671E+02  0.25585685507E+02  0.53472058862E+02  0.47000000000E+01 0. -1.
         -5    1    3    3    0  503  0.23510238614E+02  0.13962682315E+02  0.25263368943E+03  0.25415262904E+03  0.47000000000E+01 0. -1.
<mgrwt>
<rscale>  0 0.13125862E+03</rscale>
<asrwt>0</asrwt>
<pdfrwt beam="1">  1        5 0.11152987E+00 0.13126102E+03</pdfrwt>
<pdfrwt beam="2">  1       -5 0.37958302E-02 0.13126102E+03</pdfrwt>
<totfact> 0.17758007E+02</totfact>
</mgrwt>
</event>
<event>
 8    1  0.1821556E-007  0.1356267E+03  0.7546771E-02  0.1219340E+00
         -5   -1    0    0    0  501 -0.00000000000E+00  0.00000000000E+00  0.25463499038E+02  0.25893624374E+02  0.47000000000E+01 0. -1.
          5   -1    0    0  501    0  0.00000000000E+00 -0.00000000000E+00 -0.71674523776E+03  0.71676064753E+03  0.47000000000E+01 0. -1.
         25    2    1    2    0    0  0.50191708836E+02 -0.15835917574E+02 -0.35862132793E+03  0.38341081768E+03  0.12499845738E+03 0.  0.
         25    2    1    2    0    0 -0.50191708836E+02  0.15835917574E+02 -0.33266041079E+03  0.35924345422E+03  0.12499170602E+03 0.  0.
          5    1    4    4  502    0 -0.77781560497E+02 -0.28197204611E+02 -0.18768496189E+03  0.20516527099E+03  0.47000000000E+01 0. -1.
         -5    1    4    4    0  502  0.27589851661E+02  0.44033122185E+02 -0.14497544890E+03  0.15407818323E+03  0.47000000000E+01 0. -1.
          5    1    3    3  503    0  0.89320815718E+02 -0.12378852481E+02 -0.29483124132E+03  0.30834882028E+03  0.47000000000E+01 0.  1.
         -5    1    3    3    0  503 -0.39129106882E+02 -0.34570650931E+01 -0.63790086605E+02  0.75061997399E+02  0.47000000000E+01 0.  1.
<mgrwt>
<rscale>  0 0.13562513E+03</rscale>
<asrwt>0</asrwt>
<pdfrwt beam="2">  1        5 0.11030275E+00 0.13562669E+03</pdfrwt>
<pdfrwt beam="1">  1       -5 0.39517339E-02 0.13562669E+03</pdfrwt>
<totfact> 0.17277571E+02</totfact>
</mgrwt>
</event>
<event>
 8    1  0.1821556E-007  0.1588515E+03  0.7546771E-02  0.1190001E+00
         -5   -1    0    0    0  501 -0.00000000000E+00  0.00000000000E+00  0.14088076686E+04  0.14088155085E+04  0.47000000000E+01 0. -1.
          5   -1    0    0  501    0  0.00000000000E+00 -0.00000000000E+00 -0.22823489710E+02  0.23302396498E+02  0.47000000000E+01 0. -1.
         25    2    1    2    0    0 -0.48109953112E+02 -0.85397090657E+02  0.35435663849E+03  0.38833286791E+03  0.12500623334E+03 0.  0.
         25    2    1    2    0    0  0.48109953112E+02  0.85397090657E+02  0.10316275404E+04  0.10437850371E+04  0.12499836378E+03 0.  0.
          5    1    3    3  502    0  0.31155100469E+02 -0.71635677655E+02  0.17304232198E+03  0.18991589136E+03  0.47000000000E+01 0. -1.
         -5    1    3    3    0  502 -0.79265053581E+02 -0.13761413003E+02  0.18131431652E+03  0.19841697655E+03  0.47000000000E+01 0. -1.
          5    1    4    4  503    0  0.50245185502E+02  0.22621152249E+02  0.14932082103E+03  0.15923282573E+03  0.47000000000E+01 0.  1.
         -5    1    4    4    0  503 -0.21352323902E+01  0.62775938408E+02  0.88230671935E+03  0.88455221139E+03  0.47000000000E+01 0.  1.
<mgrwt>
<rscale>  0 0.15884992E+03</rscale>
<asrwt>0</asrwt>
<pdfrwt beam="2">  1        5 0.35487477E-02 0.15885147E+03</pdfrwt>
<pdfrwt beam="1">  1       -5 0.21677711E+00 0.15885147E+03</pdfrwt>
<totfact> 0.32451459E+01</totfact>
</mgrwt>
</event>
<event>
 8    1  0.1821556E-007  0.1411189E+03  0.7546771E-02  0.1211833E+00
         -5   -1    0    0    0  501 -0.00000000000E+00  0.00000000000E+00  0.41396851417E+03  0.41399519408E+03  0.47000000000E+01 0. -1.
          5   -1    0    0  501    0  0.00000000000E+00 -0.00000000000E+00 -0.48113827755E+02  0.48342842503E+02  0.47000000000E+01 0. -1.
         25    2    1    2    0    0 -0.22618442636E+02  0.61452091663E+02  0.19591414576E+03  0.24144752050E+03  0.12500639636E+03 0.  0.
         25    2    1    2    0    0  0.22618442636E+02 -0.61452091663E+02  0.16994054065E+03  0.22089051608E+03  0.12499951688E+03 0.  0.
          5    1    3    3  502    0  0.40803163369E+02  0.70643499380E+01  0.12498678607E+03  0.13175200140E+03  0.47000000000E+01 0. -1.
         -5    1    3    3    0  502 -0.63421606005E+02  0.54387741725E+02  0.70927359692E+02  0.10969551910E+03  0.47000000000E+01 0. -1.
          5    1    4    4  503    0 -0.51738232144E+02 -0.26157466629E+02  0.79607806278E+02  0.98592852409E+02  0.47000000000E+01 0. -1.
         -5    1    4    4    0  503  0.74356674780E+02 -0.35294625034E+02  0.90332734375E+02  0.12229766367E+03  0.47000000000E+01 0. -1.
<mgrwt>
<rscale>  0 0.14111741E+03</rscale>
<asrwt>0</asrwt>
<pdfrwt beam="2">  1        5 0.74217963E-02 0.14111893E+03</pdfrwt>
<pdfrwt beam="1">  1       -5 0.63707131E-01 0.14111893E+03</pdfrwt>
<totfact> 0.22099101E+02</totfact>
</mgrwt>
</event>
<event>
 8    1  0.1821556E-007  0.1520878E+03  0.7546771E-02  0.1197932E+00
         -5   -1    0    0    0  501 -0.00000000000E+00  0.00000000000E+00  0.11001854323E+03  0.11011888963E+03  0.47000000000E+01 0.  1.
          5   -1    0    0  501    0  0.00000000000E+00 -0.00000000000E+00 -0.26637327178E+03  0.26641473292E+03  0.47000000000E+01 0.  1.
         25    2    1    2    0    0  0.97973231291E+01  0.86071881438E+02  0.83956445206E+01  0.15231636825E+03  0.12500173149E+03 0.  0.
         25    2    1    2    0    0 -0.97973231291E+01 -0.86071881438E+02 -0.16475037307E+03  0.22421725431E+03  0.12500534144E+03 0.  0.
          5    1    3    3  502    0 -0.29363123273E+02 -0.54401110126E+01  0.37816195068E+02  0.48414279150E+02  0.47000000000E+01 0. -1.
         -5    1    3    3    0  502  0.39160446402E+02  0.91511992451E+02 -0.29420550547E+02  0.10390208910E+03  0.47000000000E+01 0. -1.
          5    1    4    4  503    0  0.42581611183E+02 -0.41311198840E+02 -0.18239225256E+02  0.62246028776E+02  0.47000000000E+01 0. -1.
         -5    1    4    4    0  503 -0.52378934312E+02 -0.44760682598E+02 -0.14651114781E+03  0.16197122553E+03  0.47000000000E+01 0. -1.
<mgrwt>
<rscale>  0 0.15208703E+03</rscale>
<asrwt>0</asrwt>
<pdfrwt beam="2">  1        5 0.40991412E-01 0.15208778E+03</pdfrwt>
<pdfrwt beam="1">  1       -5 0.16936838E-01 0.15208778E+03</pdfrwt>
<totfact> 0.13500052E+02</totfact>
</mgrwt>
</event>
<event>
 8    1  0.1821556E-007  0.2263926E+03  0.7546771E-02  0.1129205E+00
          5   -1    0    0  501    0  0.00000000000E+00  0.00000000000E+00  0.55224577428E+02  0.55424218101E+02  0.47000000000E+01 0.  1.
         -5   -1    0    0    0  501 -0.00000000000E+00 -0.00000000000E+00 -0.93093958421E+03  0.93095144849E+03  0.47000000000E+01 0.  1.
         25    2    1    2    0    0  0.23245681723E+02  0.18731821870E+03 -0.40268195010E+03  0.46195800250E+03  0.12499586536E+03 0.  0.
         25    2    1    2    0    0 -0.23245681723E+02 -0.18731821870E+03 -0.47303305668E+03  0.52441766410E+03  0.12500054770E+03 0.  0.
          5    1    3    3  502    0  0.11033309471E+02  0.98302681176E+01  0.56688221058E+01  0.16510409844E+02  0.47000000000E+01 0.  1.
         -5    1    3    3    0  502  0.12212372252E+02  0.17748795059E+03 -0.40835077221E+03  0.44544759265E+03  0.47000000000E+01 0.  1.
          5    1    4    4  503    0 -0.66611984426E+02 -0.15099068761E+03 -0.30161114050E+03  0.34384111780E+03  0.47000000000E+01 0.  1.
         -5    1    4    4    0  503  0.43366302703E+02 -0.36327531093E+02 -0.17142191618E+03  0.18057654630E+03  0.47000000000E+01 0.  1.
<mgrwt>
<rscale>  0 0.22639196E+03</rscale>
<asrwt>0</asrwt>
<pdfrwt beam="1">  1        5 0.85123591E-02 0.22639261E+03</pdfrwt>
<pdfrwt beam="2">  1       -5 0.14323773E+00 0.22639261E+03</pdfrwt>
<totfact> 0.27730934E+01</totfact>
</mgrwt>
</event>
<event>
 8    1  0.1821556E-007  0.2163463E+03  0.7546771E-02  0.1136637E+00
         -5   -1    0    0    0  501 -0.00000000000E+00  0.00000000000E+00  0.25140560046E+03  0.25144952961E+03  0.47000000000E+01 0.  1.
          5   -1    0    0  501    0  0.00000000000E+00 -0.00000000000E+00 -0.18641945550E+03  0.18647869419E+03  0.47000000000E+01 0.  1.
         25    2    1    2    0    0  0.44535861994E+02  0.17086978860E+03  0.23201304493E+02  0.21758369981E+03  0.12499775291E+03 0.  0.
         25    2    1    2    0    0 -0.44535861994E+02 -0.17086978860E+03  0.41784840469E+02  0.22034452400E+03  0.12500323478E+03 0.  0.
          5    1    3    3  502    0  0.17536149852E+02  0.16897013331E+03 -0.14918731507E+02  0.17059625158E+03  0.47000000000E+01 0.  1.
         -5    1    3    3    0  502  0.26999712142E+02  0.18996552810E+01  0.38120036000E+02  0.46987448224E+02  0.47000000000E+01 0.  1.
          5    1    4    4  503    0 -0.67093405556E+02 -0.30331030337E+02  0.10372340118E+02  0.74506187057E+02  0.47000000000E+01 0. -1.
         -5    1    4    4    0  503  0.22557543562E+02 -0.14053875826E+03  0.31412500352E+02  0.14583833694E+03  0.47000000000E+01 0. -1.
<mgrwt>
<rscale>  0 0.21634554E+03</rscale>
<asrwt>0</asrwt>
<pdfrwt beam="2">  1        5 0.28687852E-01 0.21634633E+03</pdfrwt>
<pdfrwt beam="1">  1       -5 0.38685720E-01 0.21634633E+03</pdfrwt>
<totfact> 0.61866464E+01</totfact>
</mgrwt>
</event>
<event>
 8    1  0.1821556E-007  0.1652709E+03  0.7546771E-02  0.1182874E+00
         -5   -1    0    0    0  501 -0.00000000000E+00  0.00000000000E+00  0.42358668505E+03  0.42361275920E+03  0.47000000000E+01 0.  1.
          5   -1    0    0  501    0  0.00000000000E+00 -0.00000000000E+00 -0.70550538906E+02  0.70706920028E+02  0.47000000000E+01 0.  1.
         25    2    1    2    0    0 -0.10811124073E+03 -0.35042732228E+00  0.24959044315E+03  0.29934407229E+03  0.12499328433E+03 0.  0.
         25    2    1    2    0    0  0.10811124073E+03  0.35042732228E+00  0.10344570299E+03  0.19497560693E+03  0.12500524253E+03 0.  0.
          5    1    3    3  502    0 -0.70961110783E+02 -0.53167279078E+02  0.19644608179E+03  0.21558152022E+03  0.47000000000E+01 0.  1.
         -5    1    3    3    0  502 -0.37150129951E+02  0.52816851755E+02  0.53144361360E+02  0.83762552069E+02  0.47000000000E+01 0.  1.
          5    1    4    4  503    0  0.46870805746E+02 -0.54040633674E+02  0.84427822395E+02  0.11075833925E+03  0.47000000000E+01 0.  1.
         -5    1    4    4    0  503  0.61240434989E+02  0.54391060996E+02  0.19017880596E+02  0.84217267684E+02  0.47000000000E+01 0.  1.
<mgrwt>
<rscale>  0 0.16526865E+03</rscale>
<asrwt>0</asrwt>
<pdfrwt beam="2">  1        5 0.10867964E-01 0.16527091E+03</pdfrwt>
<pdfrwt beam="1">  1       -5 0.65181218E-01 0.16527091E+03</pdfrwt>
<totfact> 0.11403895E+02</totfact>
</mgrwt>
</event>
<event>
 8    1  0.1821556E-007  0.1389753E+03  0.7546771E-02  0.1214715E+00
         -5   -1    0    0    0  501 -0.00000000000E+00  0.00000000000E+00  0.40895294405E+02  0.41164488391E+02  0.47000000000E+01 0.  1.
          5   -1    0    0  501    0  0.00000000000E+00 -0.00000000000E+00 -0.49879196625E+03  0.49881410926E+03  0.47000000000E+01 0.  1.
         25    2    1    2    0    0 -0.59131282031E+02  0.13803579310E+02 -0.16460861625E+03  0.21543008641E+03  0.12500831280E+03 0.  0.
         25    2    1    2    0    0  0.59131282031E+02 -0.13803579310E+02 -0.29328805559E+03  0.32454851124E+03  0.12500722090E+03 0.  0.
          5    1    3    3  502    0  0.19751555088E+02 -0.20342737903E+02 -0.10951846248E+03  0.11322691613E+03  0.47000000000E+01 0. -1.
         -5    1    3    3    0  502 -0.78882837119E+02  0.34146317213E+02 -0.55090153769E+02  0.10220317027E+03  0.47000000000E+01 0. -1.
          5    1    4    4  503    0  0.32583676832E+02  0.62512585922E+01 -0.28869653128E+03  0.29063473881E+03  0.47000000000E+01 0.  1.
         -5    1    4    4    0  503  0.26547605199E+02 -0.20054837902E+02 -0.45915243170E+01  0.33913772433E+02  0.47000000000E+01 0.  1.
<mgrwt>
<rscale>  0 0.13897502E+03</rscale>
<asrwt>0</asrwt>
<pdfrwt beam="2">  1        5 0.76759632E-01 0.13897527E+03</pdfrwt>
<pdfrwt beam="1">  1       -5 0.63139946E-02 0.13897527E+03</pdfrwt>
<totfact> 0.19004248E+02</totfact>
</mgrwt>
</event>
<event>
 8    1  0.1821556E-007  0.1915187E+03  0.7546771E-02  0.1157100E+00
         -5   -1    0    0    0  501 -0.00000000000E+00  0.00000000000E+00  0.44068545351E+03  0.44071051602E+03  0.47000000000E+01 0.  1.
          5   -1    0    0  501    0  0.00000000000E+00 -0.00000000000E+00 -0.83423258728E+02  0.83555550963E+02  0.47000000000E+01 0.  1.
         25    2    1    2    0    0  0.13535215358E+03 -0.52262669229E+02  0.16324678395E+03  0.25164656290E+03  0.12499955230E+03 0.  0.
         25    2    1    2    0    0 -0.13535215358E+03  0.52262669229E+02  0.19401541083E+03  0.27261950409E+03  0.12501128869E+03 0.  0.
          5    1    4    4  502    0 -0.11526612603E+03  0.26850255905E+02  0.56441894183E+02  0.13120592010E+03  0.47000000000E+01 0.  1.
         -5    1    4    4    0  502 -0.20086027549E+02  0.25412413324E+02  0.13757351664E+03  0.14141358398E+03  0.47000000000E+01 0.  1.
          5    1    3    3  503    0  0.31363831088E+02  0.39217934773E+02  0.26573510086E+02  0.57008576080E+02  0.47000000000E+01 0.  1.
         -5    1    3    3    0  503  0.10398832249E+03 -0.91480604002E+02  0.13667327386E+03  0.19463798681E+03  0.47000000000E+01 0.  1.
<mgrwt>
<rscale>  0 0.19151679E+03</rscale>
<asrwt>0</asrwt>
<pdfrwt beam="2">  1        5 0.12846452E-01 0.19151871E+03</pdfrwt>
<pdfrwt beam="1">  1       -5 0.67809865E-01 0.19151871E+03</pdfrwt>
<totfact> 0.80894949E+01</totfact>
</mgrwt>
</event>
<event>
 8    1  0.1821556E-007  0.1270762E+03  0.7546771E-02  0.1231877E+00
          5   -1    0    0  501    0  0.00000000000E+00  0.00000000000E+00  0.28064353929E+03  0.28068289250E+03  0.47000000000E+01 0.  1.
         -5   -1    0    0    0  501 -0.00000000000E+00 -0.00000000000E+00 -0.64352863725E+02  0.64524267293E+02  0.47000000000E+01 0.  1.
         25    2    1    2    0    0  0.10417483307E+02 -0.20413869552E+02  0.51444810825E+02  0.13709464273E+03  0.12499248968E+03 0.  0.
         25    2    1    2    0    0 -0.10417483307E+02  0.20413869552E+02  0.16484586474E+03  0.20811251707E+03  0.12494563062E+03 0.  0.
          5    1    4    4  502    0  0.18757828861E+02  0.57874091866E+02  0.36307223071E+02  0.71004021717E+02  0.47000000000E+01 0.  1.
         -5    1    4    4    0  502 -0.29175312168E+02 -0.37460222314E+02  0.12853864167E+03  0.13710849535E+03  0.47000000000E+01 0.  1.
          5    1    3    3  503    0  0.23743952586E+01 -0.44438747425E+02  0.84239478503E+02  0.95387733824E+02  0.47000000000E+01 0. -1.
         -5    1    3    3    0  503  0.80430880483E+01  0.24024877873E+02 -0.32794667679E+02  0.41706908904E+02  0.47000000000E+01 0. -1.
<mgrwt>
<rscale>  0 0.12706472E+03</rscale>
<asrwt>0</asrwt>
<pdfrwt beam="1">  1        5 0.43192141E-01 0.12707625E+03</pdfrwt>
<pdfrwt beam="2">  1       -5 0.99166526E-02 0.12707625E+03</pdfrwt>
<totfact> 0.29675722E+02</totfact>
</mgrwt>
</event>
<event>
 8    1  0.1821556E-007  0.1554060E+03  0.7546771E-02  0.1193998E+00
         -5   -1    0    0    0  501 -0.00000000000E+00  0.00000000000E+00  0.25359985833E+03  0.25364340745E+03  0.47000000000E+01 0. -1.
          5   -1    0    0  501    0  0.00000000000E+00 -0.00000000000E+00 -0.96050239309E+02  0.96165162462E+02  0.47000000000E+01 0. -1.
         25    2    1    2    0    0  0.92148210255E+02  0.45561589640E+01  0.96249889678E+02  0.18279789533E+03  0.12505589965E+03 0.  0.
         25    2    1    2    0    0 -0.92148210255E+02 -0.45561589640E+01  0.61299729344E+02  0.16701067458E+03  0.12499142918E+03 0.  0.
          5    1    3    3  502    0  0.57076329461E+02  0.48179079566E+02  0.10180492414E+03  0.12635372440E+03  0.47000000000E+01 0.  1.
         -5    1    3    3    0  502  0.35071880793E+02 -0.43622920602E+02 -0.55550344574E+01  0.56444170931E+02  0.47000000000E+01 0.  1.
          5    1    4    4  503    0  0.27728245871E+02 -0.18237254046E+02  0.21727838042E+02  0.39945487858E+02  0.47000000000E+01 0. -1.
         -5    1    4    4    0  503 -0.11987645613E+03  0.13681095082E+02  0.39571891302E+02  0.12706518672E+03  0.47000000000E+01 0. -1.
<mgrwt>
<rscale>  0 0.15539304E+03</rscale>
<asrwt>0</asrwt>
<pdfrwt beam="2">  1        5 0.14789150E-01 0.15540601E+03</pdfrwt>
<pdfrwt beam="1">  1       -5 0.39027552E-01 0.15540601E+03</pdfrwt>
<totfact> 0.19251425E+02</totfact>
</mgrwt>
</event>
<event>
 8    1  0.1821556E-007  0.1415291E+03  0.7546771E-02  0.1211287E+00
          5   -1    0    0  501    0  0.00000000000E+00  0.00000000000E+00  0.41475349536E+03  0.41478012478E+03  0.47000000000E+01 0. -1.
         -5   -1    0    0    0  501 -0.00000000000E+00 -0.00000000000E+00 -0.48563155482E+02  0.48790061184E+02  0.47000000000E+01 0. -1.
         25    2    1    2    0    0 -0.44677150864E+02  0.49088154422E+02  0.20437441411E+03  0.24859372554E+03  0.12499697806E+03 0.  0.
         25    2    1    2    0    0  0.44677150864E+02 -0.49088154422E+02  0.16181592577E+03  0.21497646042E+03  0.12499915995E+03 0.  0.
          5    1    3    3  502    0 -0.48581133386E+01 -0.55608408154E+01 -0.15887341481E+02  0.18138959041E+02  0.47000000000E+01 0.  1.
         -5    1    3    3    0  502 -0.39819037525E+02  0.54648995238E+02  0.22026175559E+03  0.23045476650E+03  0.47000000000E+01 0.  1.
          5    1    4    4  503    0  0.53530148106E+02 -0.57805846791E+02  0.17759949128E+03  0.19434675707E+03  0.47000000000E+01 0. -1.
         -5    1    4    4    0  503 -0.88529972422E+01  0.87176923688E+01 -0.15783565507E+02  0.20629703355E+02  0.47000000000E+01 0. -1.
<mgrwt>
<rscale>  0 0.14152861E+03</rscale>
<asrwt>0</asrwt>
<pdfrwt beam="1">  1        5 0.63827731E-01 0.14152909E+03</pdfrwt>
<pdfrwt beam="2">  1       -5 0.74907576E-02 0.14152909E+03</pdfrwt>
<totfact> 0.21683061E+02</totfact>
</mgrwt>
</event>
<event>
 8    1  0.1821556E-007  0.1310538E+03  0.7546771E-02  0.1225901E+00
          5   -1    0    0  501    0  0.00000000000E+00  0.00000000000E+00  0.21441868996E+03  0.21447019514E+03  0.47000000000E+01 0. -1.
         -5   -1    0    0    0  501 -0.00000000000E+00 -0.00000000000E+00 -0.90015642939E+02  0.90138260321E+02  0.47000000000E+01 0. -1.
         25    2    1    2    0    0 -0.29956821052E+02 -0.25542634320E+02  0.11370236014E+02  0.13154341982E+03  0.12499820693E+03 0.  0.
         25    2    1    2    0    0  0.29956821052E+02  0.25542634320E+02  0.11303281101E+03  0.17306503564E+03  0.12500101160E+03 0.  0.
          5    1    4    4  502    0  0.56158066542E+02 -0.16531978230E+02  0.11305802108E+02  0.59807573962E+02  0.47000000000E+01 0. -1.
         -5    1    4    4    0  502 -0.26201245491E+02  0.42074612550E+02  0.10172700890E+03  0.11325746168E+03  0.47000000000E+01 0. -1.
          5    1    3    3  503    0  0.61203264251E+01 -0.65443785549E+02 -0.20287962331E+02  0.68949538635E+02  0.47000000000E+01 0. -1.
         -5    1    3    3    0  503 -0.36077147477E+02  0.39901151229E+02  0.31658198345E+02  0.62593881186E+02  0.47000000000E+01 0. -1.
<mgrwt>
<rscale>  0 0.13105310E+03</rscale>
<asrwt>0</asrwt>
<pdfrwt beam="1">  1        5 0.33000884E-01 0.13105377E+03</pdfrwt>
<pdfrwt beam="2">  1       -5 0.13861955E-01 0.13105377E+03</pdfrwt>
<totfact> 0.28636750E+02</totfact>
</mgrwt>
</event>
<event>
 8    1  0.1821556E-007  0.2629934E+03  0.7546771E-02  0.1105358E+00
         -5   -1    0    0    0  501 -0.00000000000E+00  0.00000000000E+00  0.33155655910E+03  0.33158987000E+03  0.47000000000E+01 0. -1.
          5   -1    0    0  501    0  0.00000000000E+00 -0.00000000000E+00 -0.20856536537E+03  0.20861831566E+03  0.47000000000E+01 0. -1.
         25    2    1    2    0    0 -0.11040024884E+03 -0.20335105682E+03  0.64723467991E+02  0.27083734094E+03  0.12499548267E+03 0.  0.
         25    2    1    2    0    0  0.11040024884E+03  0.20335105682E+03  0.58267725744E+02  0.26937084472E+03  0.12500262744E+03 0.  0.
          5    1    3    3  502    0 -0.16425188746E+02 -0.91100978816E+01 -0.29539997269E+02  0.35319713298E+02  0.47000000000E+01 0.  1.
         -5    1    3    3    0  502 -0.93975060090E+02 -0.19424095894E+03  0.94263465260E+02  0.23551762765E+03  0.47000000000E+01 0.  1.
          5    1    4    4  503    0  0.61656015591E+02  0.20483361472E+03  0.49170352623E+02  0.21954062848E+03  0.47000000000E+01 0.  1.
         -5    1    4    4    0  503  0.48744233245E+02 -0.14825578939E+01  0.90973731213E+01  0.49830216238E+02  0.47000000000E+01 0.  1.
<mgrwt>
<rscale>  0 0.26299254E+03</rscale>
<asrwt>0</asrwt>
<pdfrwt beam="2">  1        5 0.32093615E-01 0.26299339E+03</pdfrwt>
<pdfrwt beam="1">  1       -5 0.51015336E-01 0.26299339E+03</pdfrwt>
<totfact> 0.29022278E+01</totfact>
</mgrwt>
</event>
<event>
 8    1  0.1821556E-007  0.2603408E+03  0.7546771E-02  0.1106939E+00
          5   -1    0    0  501    0  0.00000000000E+00  0.00000000000E+00  0.67624861363E+03  0.67626494618E+03  0.47000000000E+01 0. -1.
         -5   -1    0    0    0  501 -0.00000000000E+00 -0.00000000000E+00 -0.10052844470E+03  0.10063825413E+03  0.47000000000E+01 0. -1.
         25    2    1    2    0    0 -0.19897933983E+03  0.11206677950E+03  0.31160443438E+03  0.40604683352E+03  0.12499986696E+03 0.  0.
         25    2    1    2    0    0  0.19897933983E+03 -0.11206677950E+03  0.26411573456E+03  0.37085636679E+03  0.12500233118E+03 0.  0.
          5    1    3    3  502    0 -0.12123058445E+03  0.13261284515E+03  0.21152661050E+03  0.27757632870E+03  0.47000000000E+01 0. -1.
         -5    1    3    3    0  502 -0.77748755382E+02 -0.20546065647E+02  0.10007782388E+03  0.12847050482E+03  0.47000000000E+01 0. -1.
          5    1    4    4  503    0  0.10946393166E+03 -0.61242536044E+02  0.23051230830E+03  0.26247097903E+03  0.47000000000E+01 0. -1.
         -5    1    4    4    0  503  0.89515408171E+02 -0.50824243460E+02  0.33603426256E+02  0.10838538776E+03  0.47000000000E+01 0. -1.
<mgrwt>
<rscale>  0 0.26034049E+03</rscale>
<asrwt>0</asrwt>
<pdfrwt beam="1">  1        5 0.10404795E+00 0.26034078E+03</pdfrwt>
<pdfrwt beam="2">  1       -5 0.15475618E-01 0.26034078E+03</pdfrwt>
<totfact> 0.22590115E+01</totfact>
</mgrwt>
</event>
<event>
 8    1  0.1821556E-007  0.1321929E+03  0.7546771E-02  0.1224239E+00
         -5   -1    0    0    0  501 -0.00000000000E+00  0.00000000000E+00  0.12759489533E+02  0.13597594388E+02  0.47000000000E+01 0.  1.
          5   -1    0    0  501    0  0.00000000000E+00 -0.00000000000E+00 -0.14318283584E+04  0.14318360723E+04  0.47000000000E+01 0.  1.
         25    2    1    2    0    0  0.42750067171E+02  0.46308821200E+01 -0.51229851053E+03  0.52907814671E+03  0.12499963247E+03 0.  0.
         25    2    1    2    0    0 -0.42750067171E+02 -0.46308821200E+01 -0.90677035838E+03  0.91635552002E+03  0.12500377161E+03 0.  0.
          5    1    3    3  502    0  0.12375962317E+02 -0.22489702421E+02 -0.15014758984E+02  0.30107875143E+02  0.47000000000E+01 0. -1.
         -5    1    3    3    0  502  0.30374104853E+02  0.27120584541E+02 -0.49728375155E+03  0.49897027157E+03  0.47000000000E+01 0. -1.
          5    1    4    4  503    0 -0.72330375054E+01  0.58454116854E+02 -0.36560055967E+03  0.37034451506E+03  0.47000000000E+01 0.  1.
         -5    1    4    4    0  503 -0.35517029665E+02 -0.63084998974E+02 -0.54116979871E+03  0.54601100496E+03  0.47000000000E+01 0.  1.
<mgrwt>
<rscale>  0 0.13219190E+03</rscale>
<asrwt>0</asrwt>
<pdfrwt beam="2">  1        5 0.22034623E+00 0.13219288E+03</pdfrwt>
<pdfrwt beam="1">  1       -5 0.20280625E-02 0.13219288E+03</pdfrwt>
<totfact> 0.71918071E+01</totfact>
</mgrwt>
</event>
<event>
 8    1  0.1821556E-007  0.1264874E+03  0.7546771E-02  0.1232764E+00
         -5   -1    0    0    0  501 -0.00000000000E+00  0.00000000000E+00  0.50698139843E+03  0.50700318377E+03  0.47000000000E+01 0. -1.
          5   -1    0    0  501    0  0.00000000000E+00 -0.00000000000E+00 -0.31359379234E+02  0.31709630492E+02  0.47000000000E+01 0. -1.
         25    2    1    2    0    0  0.19299813962E+02 -0.87477958190E+00  0.23682381290E+03  0.26848572104E+03  0.12500326392E+03 0.  0.
         25    2    1    2    0    0 -0.19299813962E+02  0.87477958190E+00  0.23879820629E+03  0.27022709321E+03  0.12499940208E+03 0.  0.
          5    1    4    4  502    0  0.16929575585E+02  0.54686751070E+02  0.14610941470E+03  0.15699459333E+03  0.47000000000E+01 0.  1.
         -5    1    4    4    0  502 -0.36229389547E+02 -0.53811971488E+02  0.92688791591E+02  0.11323249988E+03  0.47000000000E+01 0.  1.
          5    1    3    3  503    0 -0.15966354756E+02  0.16088907198E+02  0.22658222495E+03  0.22776165631E+03  0.47000000000E+01 0. -1.
         -5    1    3    3    0  503  0.35266168717E+02 -0.16963686780E+02  0.10241587948E+02  0.40724064739E+02  0.47000000000E+01 0. -1.
<mgrwt>
<rscale>  0 0.12648645E+03</rscale>
<asrwt>0</asrwt>
<pdfrwt beam="2">  1        5 0.48531381E-02 0.12648741E+03</pdfrwt>
<pdfrwt beam="1">  1       -5 0.78025756E-01 0.12648741E+03</pdfrwt>
<totfact> 0.27499725E+02</totfact>
</mgrwt>
</event>
<event>
 8    1  0.1821556E-007  0.1560941E+03  0.7546771E-02  0.1193191E+00
         -5   -1    0    0    0  501 -0.00000000000E+00  0.00000000000E+00  0.24481448015E+03  0.24485959179E+03  0.47000000000E+01 0.  1.
          5   -1    0    0  501    0  0.00000000000E+00 -0.00000000000E+00 -0.11051989209E+03  0.11061978371E+03  0.47000000000E+01 0.  1.
         25    2    1    2    0    0  0.57642103597E+02 -0.73602867702E+02  0.10785269315E+02  0.15646623890E+03  0.12500147055E+03 0.  0.
         25    2    1    2    0    0 -0.57642103597E+02  0.73602867702E+02  0.12350931875E+03  0.19901313660E+03  0.12494671857E+03 0.  0.
          5    1    3    3  502    0  0.45801208354E+02 -0.11083366908E+02  0.59604634414E+02  0.76127486182E+02  0.47000000000E+01 0.  1.
         -5    1    3    3    0  502  0.11840895243E+02 -0.62519500793E+02 -0.48819365099E+02  0.80338752718E+02  0.47000000000E+01 0.  1.
          5    1    4    4  503    0  0.22406140823E+02  0.43349384067E+02  0.98026333744E+02  0.10960135197E+03  0.47000000000E+01 0.  1.
         -5    1    4    4    0  503 -0.80048244420E+02  0.30253483635E+02  0.25482985006E+02  0.89411784634E+02  0.47000000000E+01 0.  1.
<mgrwt>
<rscale>  0 0.15608312E+03</rscale>
<asrwt>0</asrwt>
<pdfrwt beam="2">  1        5 0.17014215E-01 0.15609408E+03</pdfrwt>
<pdfrwt beam="1">  1       -5 0.37674920E-01 0.15609408E+03</pdfrwt>
<totfact> 0.16040827E+02</totfact>
</mgrwt>
</event>
<event>
 8    1  0.1821556E-007  0.1292012E+03  0.7546771E-02  0.1228647E+00
         -5   -1    0    0    0  501 -0.00000000000E+00  0.00000000000E+00  0.23154653725E+03  0.23159423333E+03  0.47000000000E+01 0. -1.
          5   -1    0    0  501    0  0.00000000000E+00 -0.00000000000E+00 -0.83767357546E+02  0.83899107208E+02  0.47000000000E+01 0. -1.
         25    2    1    2    0    0 -0.32555600064E+02  0.28184254401E+01  0.13304702987E+03  0.18545492221E+03  0.12499682155E+03 0.  0.
         25    2    1    2    0    0  0.32555600064E+02 -0.28184254401E+01  0.14732149837E+02  0.13003841833E+03  0.12500057354E+03 0.  0.
          5    1    3    3  502    0  0.32151760282E+02  0.43165698275E+00  0.11289284717E+03  0.11747683584E+03  0.47000000000E+01 0.  1.
         -5    1    3    3    0  502 -0.64707360346E+02  0.23867684574E+01  0.20154182700E+02  0.67978086373E+02  0.47000000000E+01 0.  1.
          5    1    4    4  503    0  0.73125193047E+02  0.20569722151E+02 -0.10182968497E+02  0.76786653625E+02  0.47000000000E+01 0. -1.
         -5    1    4    4    0  503 -0.40569592982E+02 -0.23388147591E+02  0.24915118334E+02  0.53251764704E+02  0.47000000000E+01 0. -1.
<mgrwt>
<rscale>  0 0.12920031E+03</rscale>
<asrwt>0</asrwt>
<pdfrwt beam="2">  1        5 0.12901090E-01 0.12920122E+03</pdfrwt>
<pdfrwt beam="1">  1       -5 0.35636347E-01 0.12920122E+03</pdfrwt>
<totfact> 0.27787873E+02</totfact>
</mgrwt>
</event>
<event>
 8    1  0.1821556E-007  0.1366647E+03  0.7546771E-02  0.1217890E+00
          5   -1    0    0  501    0  0.00000000000E+00  0.00000000000E+00  0.40483334859E+03  0.40486063050E+03  0.47000000000E+01 0.  1.
         -5   -1    0    0    0  501 -0.00000000000E+00 -0.00000000000E+00 -0.98232195457E+02  0.98344568861E+02  0.47000000000E+01 0.  1.
         25    2    1    2    0    0  0.51286478654E+02 -0.20525629040E+02 -0.30001182014E+02  0.13991893246E+03  0.12500252957E+03 0.  0.
         25    2    1    2    0    0 -0.51286478654E+02  0.20525629040E+02  0.33660233514E+03  0.36328626690E+03  0.12499670137E+03 0.  0.
          5    1    3    3  502    0  0.57679962569E+01  0.50673414624E+02 -0.18735666581E+02  0.54536042511E+02  0.47000000000E+01 0.  1.
         -5    1    3    3    0  502  0.45518482398E+02 -0.71199043664E+02 -0.11265515433E+02  0.85382889952E+02  0.47000000000E+01 0.  1.
          5    1    4    4  503    0 -0.35954257851E+02 -0.26842289321E+02  0.29443843971E+03  0.29787464130E+03  0.47000000000E+01 0.  1.
         -5    1    4    4    0  503 -0.15332220804E+02  0.47367918361E+02  0.42163895436E+02  0.65411625595E+02  0.47000000000E+01 0.  1.
<mgrwt>
<rscale>  0 0.13666335E+03</rscale>
<asrwt>0</asrwt>
<pdfrwt beam="1">  1        5 0.62292797E-01 0.13666469E+03</pdfrwt>
<pdfrwt beam="2">  1       -5 0.15123388E-01 0.13666469E+03</pdfrwt>
<totfact> 0.65876966E+01</totfact>
</mgrwt>
</event>
<event>
 8    1  0.1821556E-007  0.1532758E+03  0.7546771E-02  0.1196512E+00
         -5   -1    0    0    0  501 -0.00000000000E+00  0.00000000000E+00  0.49128827770E+02  0.49353132808E+02  0.47000000000E+01 0. -1.
          5   -1    0    0  501    0  0.00000000000E+00 -0.00000000000E+00 -0.49490433620E+03  0.49492665314E+03  0.47000000000E+01 0. -1.
         25    2    1    2    0    0  0.81230504345E+02  0.35630926809E+02 -0.17086919866E+03  0.22954247748E+03  0.12500203252E+03 0.  0.
         25    2    1    2    0    0 -0.81230504345E+02 -0.35630926809E+02 -0.27490630977E+03  0.31473730847E+03  0.12497254264E+03 0.  0.
          5    1    3    3  502    0  0.90682821583E+02  0.25065019958E+02 -0.18586760712E+03  0.20837583049E+03  0.47000000000E+01 0. -1.
         -5    1    3    3    0  502 -0.94523172376E+01  0.10565906850E+02  0.14998408453E+02  0.21166646991E+02  0.47000000000E+01 0. -1.
          5    1    4    4  503    0 -0.43713633572E+02 -0.10810238190E+01 -0.25660680910E+03  0.26034821845E+03  0.47000000000E+01 0.  1.
         -5    1    4    4    0  503 -0.37516870773E+02 -0.34549902990E+02 -0.18299500670E+02  0.54389090027E+02  0.47000000000E+01 0.  1.
<mgrwt>
<rscale>  0 0.15326977E+03</rscale>
<asrwt>0</asrwt>
<pdfrwt beam="2">  1        5 0.76158096E-01 0.15327578E+03</pdfrwt>
<pdfrwt beam="1">  1       -5 0.75772525E-02 0.15327578E+03</pdfrwt>
<totfact> 0.14654511E+02</totfact>
</mgrwt>
</event>
<event>
 8    1  0.1821556E-007  0.2457424E+03  0.7546771E-02  0.1116027E+00
          5   -1    0    0  501    0  0.00000000000E+00  0.00000000000E+00  0.16369619507E+03  0.16376365372E+03  0.47000000000E+01 0. -1.
         -5   -1    0    0    0  501 -0.00000000000E+00 -0.00000000000E+00 -0.45165398751E+03  0.45167844140E+03  0.47000000000E+01 0. -1.
         25    2    1    2    0    0 -0.20960283714E+03  0.28781892051E+02 -0.27581399088E+03  0.36940855970E+03  0.12501031864E+03 0.  0.
         25    2    1    2    0    0  0.20960283714E+03 -0.28781892051E+02 -0.12143801560E+02  0.24603353543E+03  0.12499312777E+03 0.  0.
          5    1    3    3  502    0 -0.10988016954E+03 -0.38313757249E+02 -0.18534744762E+03  0.21890034717E+03  0.47000000000E+01 0.  1.
         -5    1    3    3    0  502 -0.99722667603E+02  0.67095649300E+02 -0.90466543255E+02  0.15050821252E+03  0.47000000000E+01 0.  1.
          5    1    4    4  503    0  0.14848623096E+03  0.38460181279E+02 -0.19769745414E+02  0.15472646562E+03  0.47000000000E+01 0.  1.
         -5    1    4    4    0  503  0.61116606182E+02 -0.67242073330E+02  0.76259438540E+01  0.91307069806E+02  0.47000000000E+01 0.  1.
<mgrwt>
<rscale>  0 0.24574021E+03</rscale>
<asrwt>0</asrwt>
<pdfrwt beam="1">  1        5 0.25191100E-01 0.24574240E+03</pdfrwt>
<pdfrwt beam="2">  1       -5 0.69492299E-01 0.24574240E+03</pdfrwt>
<totfact> 0.23248595E+01</totfact>
</mgrwt>
</event>
<event>
 8    1  0.1821556E-007  0.1430834E+03  0.7546771E-02  0.1209240E+00
          5   -1    0    0  501    0  0.00000000000E+00  0.00000000000E+00  0.81710212965E+03  0.81711564683E+03  0.47000000000E+01 0. -1.
         -5   -1    0    0    0  501 -0.00000000000E+00 -0.00000000000E+00 -0.25003507814E+02  0.25441411183E+02  0.47000000000E+01 0. -1.
         25    2    1    2    0    0 -0.15691969782E+02  0.67837358925E+02  0.36038100879E+03  0.38774645914E+03  0.12499879960E+03 0.  0.
         25    2    1    2    0    0  0.15691969782E+02 -0.67837358925E+02  0.43171761305E+03  0.45481059887E+03  0.12499775293E+03 0.  0.
          5    1    4    4  502    0  0.28793229574E+02 -0.60072813948E+02  0.43364432695E+03  0.43875652171E+03  0.47000000000E+01 0. -1.
         -5    1    4    4    0  502 -0.13101259792E+02 -0.77645449775E+01 -0.19267138999E+01  0.16054077155E+02  0.47000000000E+01 0. -1.
          5    1    3    3  503    0  0.40587245412E+02  0.27956895468E+02  0.52350969433E+02  0.72052942306E+02  0.47000000000E+01 0.  1.
         -5    1    3    3    0  503 -0.56279215194E+02  0.39880463457E+02  0.30803003935E+03  0.31569351684E+03  0.47000000000E+01 0.  1.
<mgrwt>
<rscale>  0 0.14308312E+03</rscale>
<asrwt>0</asrwt>
<pdfrwt beam="1">  1        5 0.12574274E+00 0.14308335E+03</pdfrwt>
<pdfrwt beam="2">  1       -5 0.38814184E-02 0.14308335E+03</pdfrwt>
<totfact> 0.12989637E+02</totfact>
</mgrwt>
</event>
<event>
 8    1  0.1821556E-007  0.1254536E+03  0.7546771E-02  0.1234369E+00
          5   -1    0    0  501    0  0.00000000000E+00  0.00000000000E+00  0.10963320261E+03  0.10973390139E+03  0.47000000000E+01 0.  1.
         -5   -1    0    0    0  501 -0.00000000000E+00 -0.00000000000E+00 -0.14667716996E+03  0.14675245207E+03  0.47000000000E+01 0.  1.
         25    2    1    2    0    0 -0.10237205547E+02  0.28276211753E+01 -0.37875170841E+02  0.13103001455E+03  0.12498616055E+03 0.  0.
         25    2    1    2    0    0  0.10237205547E+02 -0.28276211753E+01  0.83120348917E+00  0.12545633891E+03  0.12500322498E+03 0.  0.
          5    1    4    4  502    0 -0.32374478762E+02  0.46188741916E+02 -0.14768107933E+02  0.58495245677E+02  0.47000000000E+01 0. -1.
         -5    1    4    4    0  502  0.42611684309E+02 -0.49016363091E+02  0.15599311422E+02  0.66961093234E+02  0.47000000000E+01 0. -1.
          5    1    3    3  503    0 -0.16643403603E+02 -0.25273118929E+02  0.38539682122E+02  0.49225303676E+02  0.47000000000E+01 0.  1.
         -5    1    3    3    0  503  0.64061980559E+01  0.28100740105E+02 -0.76414852963E+02  0.81804710875E+02  0.47000000000E+01 0.  1.
<mgrwt>
<rscale>  0 0.12544933E+03</rscale>
<asrwt>0</asrwt>
<pdfrwt beam="1">  1        5 0.16880184E-01 0.12545359E+03</pdfrwt>
<pdfrwt beam="2">  1       -5 0.22579255E-01 0.12545359E+03</pdfrwt>
<totfact> 0.41120259E+02</totfact>
</mgrwt>
</event>
<event>
 8    1  0.1821556E-007  0.1735327E+03  0.7546771E-02  0.1174215E+00
          5   -1    0    0  501    0  0.00000000000E+00  0.00000000000E+00  0.12034561118E+04  0.12034652895E+04  0.47000000000E+01 0.  1.
         -5   -1    0    0    0  501 -0.00000000000E+00 -0.00000000000E+00 -0.30002599968E+02  0.30368503500E+02  0.47000000000E+01 0.  1.
         25    2    1    2    0    0 -0.12031224226E+03  0.35965696251E+01  0.33138427962E+03  0.37407104635E+03  0.12500254395E+03 0.  0.
         25    2    1    2    0    0  0.12031224226E+03 -0.35965696251E+01  0.84206923226E+03  0.85976274669E+03  0.12499367074E+03 0.  0.
          5    1    4    4  502    0  0.43329536923E+02  0.23093350596E+02  0.63908774951E+03  0.64098829411E+03  0.47000000000E+01 0.  1.
         -5    1    4    4    0  502  0.76982705335E+02 -0.26689920221E+02  0.20298148275E+03  0.21877445258E+03  0.47000000000E+01 0.  1.
          5    1    3    3  503    0 -0.58753314170E+02 -0.51297651432E+02  0.23216225869E+03  0.24495878292E+03  0.47000000000E+01 0.  1.
         -5    1    3    3    0  503 -0.61558928087E+02  0.54894221057E+02  0.99222020923E+02  0.12911226343E+03  0.47000000000E+01 0.  1.
<mgrwt>
<rscale>  0 0.17353113E+03</rscale>
<asrwt>0</asrwt>
<pdfrwt beam="1">  1        5 0.18517596E+00 0.17353273E+03</pdfrwt>
<pdfrwt beam="2">  1       -5 0.46446366E-02 0.17353273E+03</pdfrwt>
<totfact> 0.34931764E+01</totfact>
</mgrwt>
</event>
<event>
 8    1  0.1821556E-007  0.1590617E+03  0.7546771E-02  0.1189762E+00
         -5   -1    0    0    0  501 -0.00000000000E+00  0.00000000000E+00  0.26842217437E+04  0.26842258585E+04  0.47000000000E+01 0.  1.
          5   -1    0    0  501    0  0.00000000000E+00 -0.00000000000E+00 -0.88626904906E+01  0.10031813532E+02  0.47000000000E+01 0.  1.
         25    2    1    2    0    0  0.62015119412E+02 -0.76333688845E+02  0.14084964854E+04  0.14174486042E+04  0.12500195603E+03 0.  0.
         25    2    1    2    0    0 -0.62015119412E+02  0.76333688845E+02  0.12668625677E+04  0.12768090678E+04  0.12501169108E+03 0.  0.
          5    1    3    3  502    0  0.22166262270E+02 -0.10592725995E+03  0.10306446594E+04  0.10363215869E+04  0.47000000000E+01 0. -1.
         -5    1    3    3    0  502  0.39848857142E+02  0.29593571102E+02  0.37785182608E+03  0.38112701733E+03  0.47000000000E+01 0. -1.
          5    1    4    4  503    0 -0.15806683963E+02  0.79773431350E+02  0.11148417148E+04  0.11178138444E+04  0.47000000000E+01 0. -1.
         -5    1    4    4    0  503 -0.46208435449E+02 -0.34397425053E+01  0.15202085296E+03  0.15899522342E+03  0.47000000000E+01 0. -1.
<mgrwt>
<rscale>  0 0.15905980E+03</rscale>
<asrwt>0</asrwt>
<pdfrwt beam="2">  1        5 0.14537390E-02 0.15906172E+03</pdfrwt>
<pdfrwt beam="1">  1       -5 0.41304770E+00 0.15906172E+03</pdfrwt>
<totfact> 0.69670123E+00</totfact>
</mgrwt>
</event>
<event>
 8    1  0.1821556E-007  0.1369296E+03  0.7546771E-02  0.1217529E+00
         -5   -1    0    0    0  501 -0.00000000000E+00  0.00000000000E+00  0.51146677508E+02  0.51362171100E+02  0.47000000000E+01 0.  1.
          5   -1    0    0  501    0  0.00000000000E+00 -0.00000000000E+00 -0.39011588117E+03  0.39014419225E+03  0.47000000000E+01 0.  1.
         25    2    1    2    0    0  0.35423527974E+02  0.43239844298E+02 -0.11407029185E+03  0.17820191228E+03  0.12497751633E+03 0.  0.
         25    2    1    2    0    0 -0.35423527974E+02 -0.43239844298E+02 -0.22489891181E+03  0.26330445107E+03  0.12500081179E+03 0.  0.
          5    1    3    3  502    0  0.54013157705E+02  0.76531177440E+02 -0.58142217095E+02  0.11034967030E+03  0.47000000000E+01 0.  1.
         -5    1    3    3    0  502 -0.18589629731E+02 -0.33291333142E+02 -0.55928074758E+02  0.67852241982E+02  0.47000000000E+01 0.  1.
          5    1    4    4  503    0  0.31911261753E+02  0.21496857539E+02 -0.37849299135E+02  0.54176590477E+02  0.47000000000E+01 0. -1.
         -5    1    4    4    0  503 -0.67334789727E+02 -0.64736701837E+02 -0.18704961268E+03  0.20912786059E+03  0.47000000000E+01 0. -1.
<mgrwt>
<rscale>  0 0.13692428E+03</rscale>
<asrwt>0</asrwt>
<pdfrwt beam="2">  1        5 0.60036580E-01 0.13692959E+03</pdfrwt>
<pdfrwt beam="1">  1       -5 0.78874741E-02 0.13692959E+03</pdfrwt>
<totfact> 0.22467007E+02</totfact>
</mgrwt>
</event>
<event>
 8    1  0.1821556E-007  0.1655785E+03  0.7546771E-02  0.1182542E+00
         -5   -1    0    0    0  501 -0.00000000000E+00  0.00000000000E+00  0.32784929643E+03  0.32788298395E+03  0.47000000000E+01 0.  1.
          5   -1    0    0  501    0  0.00000000000E+00 -0.00000000000E+00 -0.90137715403E+02  0.90260166951E+02  0.47000000000E+01 0.  1.
         25    2    1    2    0    0  0.53351129239E+02  0.94573169029E+02  0.17547312507E+03  0.24125369898E+03  0.12498840889E+03 0.  0.
         25    2    1    2    0    0 -0.53351129239E+02 -0.94573169029E+02  0.62238455950E+02  0.17688945193E+03  0.12500330201E+03 0.  0.
          5    1    4    4  502    0  0.38597205025E+01  0.27428791440E+02 -0.67228829511E+00  0.28102989410E+02  0.47000000000E+01 0. -1.
         -5    1    4    4    0  502 -0.57210849742E+02 -0.12200196047E+03  0.62910744245E+02  0.14878646252E+03  0.47000000000E+01 0. -1.
          5    1    3    3  503    0  0.91938702062E+02  0.47637925053E+02  0.97637363397E+02  0.14239817966E+03  0.47000000000E+01 0.  1.
         -5    1    3    3    0  503 -0.38587572823E+02  0.46935243977E+02  0.77835761676E+02  0.98855519316E+02  0.47000000000E+01 0.  1.
<mgrwt>
<rscale>  0 0.16557573E+03</rscale>
<asrwt>0</asrwt>
<pdfrwt beam="2">  1        5 0.13879351E-01 0.16557854E+03</pdfrwt>
<pdfrwt beam="1">  1       -5 0.50450364E-01 0.16557854E+03</pdfrwt>
<totfact> 0.12894530E+02</totfact>
</mgrwt>
</event>
<event>
 8    1  0.1821556E-007  0.1367999E+03  0.7546771E-02  0.1217702E+00
         -5   -1    0    0    0  501 -0.00000000000E+00  0.00000000000E+00  0.97897201196E+02  0.98009958688E+02  0.47000000000E+01 0.  1.
          5   -1    0    0  501    0  0.00000000000E+00 -0.00000000000E+00 -0.19099228974E+03  0.19105011055E+03  0.47000000000E+01 0.  1.
         25    2    1    2    0    0 -0.16001635500E+02 -0.53229454390E+02 -0.43492124008E+02  0.14354716689E+03  0.12499918847E+03 0.  0.
         25    2    1    2    0    0  0.16001635500E+02  0.53229454390E+02 -0.49602964535E+02  0.14551290234E+03  0.12499649397E+03 0.  0.
          5    1    3    3  502    0 -0.11800391208E+02 -0.53843629174E+02 -0.85077448620E+02  0.10148225411E+03  0.47000000000E+01 0. -1.
         -5    1    3    3    0  502 -0.42012442917E+01  0.61417478402E+00  0.41585324613E+02  0.42064912782E+02  0.47000000000E+01 0. -1.
          5    1    4    4  503    0 -0.40037433305E+02  0.43245053149E+02  0.13248527301E+02  0.60586666546E+02  0.47000000000E+01 0. -1.
         -5    1    4    4    0  503  0.56039068805E+02  0.99844012407E+01 -0.62851491836E+02  0.84926235797E+02  0.47000000000E+01 0. -1.
<mgrwt>
<rscale>  0 0.13679933E+03</rscale>
<asrwt>0</asrwt>
<pdfrwt beam="2">  1        5 0.29396550E-01 0.13679994E+03</pdfrwt>
<pdfrwt beam="1">  1       -5 0.15074229E-01 0.13679994E+03</pdfrwt>
<totfact> 0.31390873E+02</totfact>
</mgrwt>
</event>
<event>
 8    1  0.1821556E-007  0.1351925E+03  0.7546771E-02  0.1219954E+00
          5   -1    0    0  501    0  0.00000000000E+00  0.00000000000E+00  0.67568222451E+01  0.82307136296E+01  0.47000000000E+01 0.  1.
         -5   -1    0    0    0  501 -0.00000000000E+00 -0.00000000000E+00 -0.28474204499E+04  0.28474243288E+04  0.47000000000E+01 0.  1.
         25    2    1    2    0    0  0.28611925245E+02 -0.42793590406E+02 -0.19622270189E+04  0.19668787192E+04  0.12500835477E+03 0.  0.
         25    2    1    2    0    0 -0.28611925245E+02  0.42793590406E+02 -0.87843660875E+03  0.88877632326E+03  0.12499017377E+03 0.  0.
          5    1    4    4  502    0 -0.58802234549E+02  0.17276399924E+02 -0.78247381189E+03  0.78488440746E+03  0.47000000000E+01 0.  1.
         -5    1    4    4    0  502  0.30190309304E+02  0.25517190482E+02 -0.95962796861E+02  0.10389191579E+03  0.47000000000E+01 0.  1.
          5    1    3    3  503    0 -0.21853669141E+02 -0.49506237115E+01 -0.71124221566E+02  0.74718380760E+02  0.47000000000E+01 0.  1.
         -5    1    3    3    0  503  0.50465594386E+02 -0.37842966695E+02 -0.18911027973E+04  0.18921603384E+04  0.47000000000E+01 0.  1.
<mgrwt>
<rscale>  0 0.13518834E+03</rscale>
<asrwt>0</asrwt>
<pdfrwt beam="1">  1        5 0.11531880E-02 0.13519254E+03</pdfrwt>
<pdfrwt beam="2">  1       -5 0.43817749E+00 0.13519254E+03</pdfrwt>
<totfact> 0.63749139E+00</totfact>
</mgrwt>
</event>
<event>
 8    1  0.1821556E-007  0.1347812E+03  0.7546771E-02  0.1220531E+00
         -5   -1    0    0    0  501 -0.00000000000E+00  0.00000000000E+00  0.12558284011E+03  0.12567075925E+03  0.47000000000E+01 0. -1.
          5   -1    0    0  501    0  0.00000000000E+00 -0.00000000000E+00 -0.38399668184E+03  0.38402544403E+03  0.47000000000E+01 0. -1.
         25    2    1    2    0    0 -0.48748238531E+01  0.50168467273E+02  0.72034078636E+02  0.15281834764E+03  0.12499559942E+03 0.  0.
         25    2    1    2    0    0  0.48748238531E+01 -0.50168467273E+02 -0.33044792037E+03  0.35687785564E+03  0.12500134701E+03 0.  0.
          5    1    3    3  502    0 -0.64508461960E+02  0.23398743369E+02  0.30584256516E+02  0.75275026419E+02  0.47000000000E+01 0.  1.
         -5    1    3    3    0  502  0.59633638107E+02  0.26769723905E+02  0.41449822120E+02  0.77543321219E+02  0.47000000000E+01 0.  1.
          5    1    4    4  503    0 -0.17278947543E+02  0.22319926537E+02 -0.14787214143E+02  0.32210135842E+02  0.47000000000E+01 0.  1.
         -5    1    4    4    0  503  0.22153771396E+02 -0.72488393810E+02 -0.31566070622E+03  0.32466771980E+03  0.47000000000E+01 0.  1.
<mgrwt>
<rscale>  0 0.13477988E+03</rscale>
<asrwt>0</asrwt>
<pdfrwt beam="2">  1        5 0.59085388E-01 0.13478121E+03</pdfrwt>
<pdfrwt beam="1">  1       -5 0.19329413E-01 0.13478121E+03</pdfrwt>
<totfact> 0.46958788E+01</totfact>
</mgrwt>
</event>
<event>
 8    1  0.1821556E-007  0.1299403E+03  0.7546771E-02  0.1227546E+00
         -5   -1    0    0    0  501 -0.00000000000E+00  0.00000000000E+00  0.41519692577E+03  0.41522352675E+03  0.47000000000E+01 0.  1.
          5   -1    0    0  501    0  0.00000000000E+00 -0.00000000000E+00 -0.44346354022E+02  0.44594720708E+02  0.47000000000E+01 0.  1.
         25    2    1    2    0    0 -0.26527050545E+01  0.35372831435E+02  0.25290473707E+03  0.28433123081E+03  0.12500067492E+03 0.  0.
         25    2    1    2    0    0  0.26527050545E+01 -0.35372831435E+02  0.11794583467E+03  0.17548701665E+03  0.12500479610E+03 0.  0.
          5    1    3    3  502    0  0.31728969359E+02 -0.36267354124E+02  0.12017483834E+03  0.12956129917E+03  0.47000000000E+01 0. -1.
         -5    1    3    3    0  502 -0.34381674413E+02  0.71640185559E+02  0.13272989873E+03  0.15476993164E+03  0.47000000000E+01 0. -1.
          5    1    4    4  503    0 -0.48908799850E+02 -0.12958181108E+02  0.10638243862E+03  0.11789528577E+03  0.47000000000E+01 0.  1.
         -5    1    4    4    0  503  0.51561504905E+02 -0.22414650327E+02  0.11563396053E+02  0.57591730879E+02  0.47000000000E+01 0.  1.
<mgrwt>
<rscale>  0 0.12993928E+03</rscale>
<asrwt>0</asrwt>
<pdfrwt beam="2">  1        5 0.68436675E-02 0.12994027E+03</pdfrwt>
<pdfrwt beam="1">  1       -5 0.63897600E-01 0.12994027E+03</pdfrwt>
<totfact> 0.24498857E+02</totfact>
</mgrwt>
</event>
<event>
 8    1  0.1821556E-007  0.1541236E+03  0.7546771E-02  0.1195496E+00
          5   -1    0    0  501    0  0.00000000000E+00  0.00000000000E+00  0.72464297595E+03  0.72465821778E+03  0.47000000000E+01 0. -1.
         -5   -1    0    0    0  501 -0.00000000000E+00 -0.00000000000E+00 -0.32596518685E+02  0.32933615507E+02  0.47000000000E+01 0. -1.
         25    2    1    2    0    0  0.57710203806E+02 -0.69271307176E+02  0.34409914319E+03  0.37703772762E+03  0.12499698429E+03 0.  0.
         25    2    1    2    0    0 -0.57710203806E+02  0.69271307176E+02  0.34794731407E+03  0.38055410567E+03  0.12500044939E+03 0.  0.
          5    1    4    4  502    0  0.25139327757E+02  0.13205131862E+02  0.19898984590E+03  0.20106071242E+03  0.47000000000E+01 0.  1.
         -5    1    4    4    0  502 -0.82849531563E+02  0.56066175314E+02  0.14895746817E+03  0.17949339324E+03  0.47000000000E+01 0.  1.
          5    1    3    3  503    0  0.94268888446E+02 -0.52618509849E+02  0.19948361561E+03  0.22687250562E+03  0.47000000000E+01 0.  1.
         -5    1    3    3    0  503 -0.36558684640E+02 -0.16652797327E+02  0.14461552758E+03  0.15016522200E+03  0.47000000000E+01 0.  1.
<mgrwt>
<rscale>  0 0.15412293E+03</rscale>
<asrwt>0</asrwt>
<pdfrwt beam="1">  1        5 0.11151063E+00 0.15412363E+03</pdfrwt>
<pdfrwt beam="2">  1       -5 0.50419523E-02 0.15412363E+03</pdfrwt>
<totfact> 0.11711567E+02</totfact>
</mgrwt>
</event>
<event>
 8    1  0.1821556E-007  0.1379085E+03  0.7546771E-02  0.1216175E+00
         -5   -1    0    0    0  501 -0.00000000000E+00  0.00000000000E+00  0.42712956896E+03  0.42715542684E+03  0.47000000000E+01 0. -1.
          5   -1    0    0  501    0  0.00000000000E+00 -0.00000000000E+00 -0.48689268786E+02  0.48915589488E+02  0.47000000000E+01 0. -1.
         25    2    1    2    0    0  0.24676274604E+02  0.52682601627E+02  0.25990334892E+03  0.29422008777E+03  0.12502533432E+03 0.  0.
         25    2    1    2    0    0 -0.24676274604E+02 -0.52682601627E+02  0.11853695125E+03  0.18185092857E+03  0.12503749983E+03 0.  0.
          5    1    4    4  502    0  0.98858436110E+00  0.29666980359E+02  0.83301471935E+02  0.88556943540E+02  0.47000000000E+01 0.  1.
         -5    1    4    4    0  502 -0.25664858965E+02 -0.82349581986E+02  0.35235479320E+02  0.93293985026E+02  0.47000000000E+01 0.  1.
          5    1    3    3  503    0  0.17805624641E+01  0.87048042532E+02  0.21981240291E+03  0.23647434234E+03  0.47000000000E+01 0.  1.
         -5    1    3    3    0  503  0.22895712140E+02 -0.34365440905E+02  0.40090946015E+02  0.57745745431E+02  0.47000000000E+01 0.  1.
<mgrwt>
<rscale>  0 0.13790573E+03</rscale>
<asrwt>0</asrwt>
<pdfrwt beam="2">  1        5 0.75100548E-02 0.13790849E+03</pdfrwt>
<pdfrwt beam="1">  1       -5 0.65731642E-01 0.13790849E+03</pdfrwt>
<totfact> 0.20050502E+02</totfact>
</mgrwt>
</event>
<event>
 8    1  0.1821556E-007  0.1891720E+03  0.7546771E-02  0.1159211E+00
          5   -1    0    0  501    0  0.00000000000E+00  0.00000000000E+00  0.68374715375E+03  0.68376330720E+03  0.47000000000E+01 0. -1.
         -5   -1    0    0    0  501 -0.00000000000E+00 -0.00000000000E+00 -0.57414416677E+02  0.57606468755E+02  0.47000000000E+01 0. -1.
         25    2    1    2    0    0 -0.25406757168E+02  0.13970385484E+03  0.20181723508E+03  0.27661237852E+03  0.12498616406E+03 0.  0.
         25    2    1    2    0    0  0.25406757168E+02 -0.13970385484E+03  0.42451550199E+03  0.46475739743E+03  0.12499342649E+03 0.  0.
          5    1    3    3  502    0 -0.15347465045E+02  0.16142103873E+03  0.15790570393E+03  0.22638153140E+03  0.47000000000E+01 0.  1.
         -5    1    3    3    0  502 -0.10059292123E+02 -0.21717183885E+02  0.43911531159E+02  0.50230847123E+02  0.47000000000E+01 0.  1.
          5    1    4    4  503    0 -0.32104300221E+02 -0.57444564736E+01  0.31649166956E+02  0.45688561390E+02  0.47000000000E+01 0.  1.
         -5    1    4    4    0  503  0.57511057390E+02 -0.13395939837E+03  0.39286633504E+03  0.41906883604E+03  0.47000000000E+01 0.  1.
<mgrwt>
<rscale>  0 0.18917075E+03</rscale>
<asrwt>0</asrwt>
<pdfrwt beam="1">  1        5 0.10520788E+00 0.18917195E+03</pdfrwt>
<pdfrwt beam="2">  1       -5 0.88490035E-02 0.18917195E+03</pdfrwt>
<totfact> 0.55189724E+01</totfact>
</mgrwt>
</event>
<event>
 8    1  0.1821556E-007  0.2385120E+03  0.7546771E-02  0.1120788E+00
         -5   -1    0    0    0  501 -0.00000000000E+00  0.00000000000E+00  0.66663193920E+03  0.66664850735E+03  0.47000000000E+01 0. -1.
          5   -1    0    0  501    0  0.00000000000E+00 -0.00000000000E+00 -0.11133254313E+03  0.11143170626E+03  0.47000000000E+01 0. -1.
         25    2    1    2    0    0  0.77205008444E+02 -0.18788617385E+03  0.46583002237E+03  0.52333968986E+03  0.12499997436E+03 0.  0.
         25    2    1    2    0    0 -0.77205008444E+02  0.18788617385E+03  0.89469373698E+02  0.25474052375E+03  0.12500455175E+03 0.  0.
          5    1    3    3  502    0 -0.10557024121E+02 -0.13234208098E+03  0.22999735210E+03  0.26560638006E+03  0.47000000000E+01 0. -1.
         -5    1    3    3    0  502  0.87762032564E+02 -0.55544092867E+02  0.23583267027E+03  0.25773330980E+03  0.47000000000E+01 0. -1.
          5    1    4    4  503    0 -0.93194736641E+02  0.14095168003E+03  0.10911702372E+03  0.20119952760E+03  0.47000000000E+01 0.  1.
         -5    1    4    4    0  503  0.15989728197E+02  0.46934493822E+02 -0.19647650019E+02  0.53540996156E+02  0.47000000000E+01 0.  1.
<mgrwt>
<rscale>  0 0.23851138E+03</rscale>
<asrwt>0</asrwt>
<pdfrwt beam="2">  1        5 0.17136986E-01 0.23851198E+03</pdfrwt>
<pdfrwt beam="1">  1       -5 0.10256766E+00 0.23851198E+03</pdfrwt>
<totfact> 0.19033779E+01</totfact>
</mgrwt>
</event>
<event>
 8    1  0.1821556E-007  0.1759552E+03  0.7546771E-02  0.1171779E+00
         -5   -1    0    0    0  501 -0.00000000000E+00  0.00000000000E+00  0.25501561873E+03  0.25505892613E+03  0.47000000000E+01 0.  1.
          5   -1    0    0  501    0  0.00000000000E+00 -0.00000000000E+00 -0.12144700863E+03  0.12153791962E+03  0.47000000000E+01 0.  1.
         25    2    1    2    0    0 -0.34753163200E+02 -0.11884392714E+03  0.73372909729E+02  0.19064055689E+03  0.12501430590E+03 0.  0.
         25    2    1    2    0    0  0.34753163200E+02  0.11884392714E+03  0.60195700376E+02  0.18595628885E+03  0.12499823058E+03 0.  0.
          5    1    3    3  502    0  0.38099385881E+02 -0.49143851262E+01  0.49646549168E+01  0.39018613304E+02  0.47000000000E+01 0. -1.
         -5    1    3    3    0  502 -0.72852549081E+02 -0.11392954201E+03  0.68408254812E+02  0.15162194359E+03  0.47000000000E+01 0. -1.
          5    1    4    4  503    0  0.16502693490E+02  0.87706187815E+02  0.98579943800E+02  0.13305942129E+03  0.47000000000E+01 0.  1.
         -5    1    4    4    0  503  0.18250469710E+02  0.31137739325E+02 -0.38384243424E+02  0.52896867565E+02  0.47000000000E+01 0.  1.
<mgrwt>
<rscale>  0 0.17595236E+03</rscale>
<asrwt>0</asrwt>
<pdfrwt beam="2">  1        5 0.18694480E-01 0.17595522E+03</pdfrwt>
<pdfrwt beam="1">  1       -5 0.39243496E-01 0.17595522E+03</pdfrwt>
<totfact> 0.12862845E+02</totfact>
</mgrwt>
</event>
<event>
 8    1  0.1821556E-007  0.1276825E+03  0.7546771E-02  0.1230940E+00
          5   -1    0    0  501    0  0.00000000000E+00  0.00000000000E+00  0.21585312070E+03  0.21590428369E+03  0.47000000000E+01 0.  1.
         -5   -1    0    0    0  501 -0.00000000000E+00 -0.00000000000E+00 -0.77424712098E+02  0.77567235631E+02  0.47000000000E+01 0.  1.
         25    2    1    2    0    0 -0.25978437907E+02  0.39725879424E+00  0.45440670288E+02  0.13551727473E+03  0.12500016073E+03 0.  0.
         25    2    1    2    0    0  0.25978437907E+02 -0.39725879424E+00  0.92987738311E+02  0.15795424459E+03  0.12501114693E+03 0.  0.
          5    1    4    4  502    0 -0.24495187625E+02  0.20263249164E+00  0.10325885106E+03  0.10622869480E+03  0.47000000000E+01 0. -1.
         -5    1    4    4    0  502  0.50473625532E+02 -0.59989128588E+00 -0.10271112747E+02  0.51725549789E+02  0.47000000000E+01 0. -1.
          5    1    3    3  503    0 -0.44158775564E+02 -0.53737575852E+02  0.31767315662E+02  0.76609247890E+02  0.47000000000E+01 0. -1.
         -5    1    3    3    0  503  0.18180337657E+02  0.54134834647E+02  0.13673354626E+02  0.58908026841E+02  0.47000000000E+01 0. -1.
<mgrwt>
<rscale>  0 0.12767982E+03</rscale>
<asrwt>0</asrwt>
<pdfrwt beam="1">  1        5 0.33223071E-01 0.12768251E+03</pdfrwt>
<pdfrwt beam="2">  1       -5 0.11926393E-01 0.12768251E+03</pdfrwt>
<totfact> 0.36590715E+02</totfact>
</mgrwt>
</event>
<event>
 8    1  0.1821556E-007  0.1375407E+03  0.7546771E-02  0.1216682E+00
         -5   -1    0    0    0  501 -0.00000000000E+00  0.00000000000E+00  0.92615404992E+02  0.92734584929E+02  0.47000000000E+01 0. -1.
          5   -1    0    0  501    0  0.00000000000E+00 -0.00000000000E+00 -0.20406402451E+03  0.20411814250E+03  0.47000000000E+01 0. -1.
         25    2    1    2    0    0 -0.55380621736E+02 -0.14910291156E+02 -0.52390048314E+02  0.14718067680E+03  0.12501241704E+03 0.  0.
         25    2    1    2    0    0  0.55380621736E+02  0.14910291156E+02 -0.59058571201E+02  0.14967205063E+03  0.12499791143E+03 0.  0.
          5    1    3    3  502    0 -0.14746083452E+02  0.48117895078E+02 -0.51323510286E+02  0.72034516115E+02  0.47000000000E+01 0. -1.
         -5    1    3    3    0  502 -0.40634538284E+02 -0.63028186234E+02 -0.10665380277E+01  0.75146160680E+02  0.47000000000E+01 0. -1.
          5    1    4    4  503    0  0.50429182915E+02  0.64389244256E+02 -0.56774743624E+02  0.99672156488E+02  0.47000000000E+01 0. -1.
         -5    1    4    4    0  503  0.49514388209E+01 -0.49478953100E+02 -0.22838275769E+01  0.49999894146E+02  0.47000000000E+01 0. -1.
<mgrwt>
<rscale>  0 0.13753737E+03</rscale>
<asrwt>0</asrwt>
<pdfrwt beam="2">  1        5 0.31407796E-01 0.13754066E+03</pdfrwt>
<pdfrwt beam="1">  1       -5 0.14261854E-01 0.13754066E+03</pdfrwt>
<totfact> 0.30518940E+02</totfact>
</mgrwt>
</event>
<event>
 8    1  0.1821556E-007  0.1618659E+03  0.7546771E-02  0.1186608E+00
          5   -1    0    0  501    0  0.00000000000E+00  0.00000000000E+00  0.34688102797E+02  0.35005063572E+02  0.47000000000E+01 0.  1.
         -5   -1    0    0    0  501 -0.00000000000E+00 -0.00000000000E+00 -0.75830112995E+03  0.75831569526E+03  0.47000000000E+01 0.  1.
         25    2    1    2    0    0  0.27765160481E+02 -0.99006072173E+02 -0.39931424005E+03  0.43087403144E+03  0.12500984840E+03 0.  0.
         25    2    1    2    0    0 -0.27765160481E+02  0.99006072173E+02 -0.32429878710E+03  0.36244672740E+03  0.12499928169E+03 0.  0.
          5    1    3    3  502    0 -0.20877613275E+02 -0.22587750442E+02 -0.12443194742E+02  0.33511256340E+02  0.47000000000E+01 0.  1.
         -5    1    3    3    0  502  0.48642773756E+02 -0.76418321731E+02 -0.38687104531E+03  0.39736277510E+03  0.47000000000E+01 0.  1.
          5    1    4    4  503    0  0.78166825465E+01 -0.11519451274E+02  0.31171273302E+01  0.15020145355E+02  0.47000000000E+01 0. -1.
         -5    1    4    4    0  503 -0.35581843027E+02  0.11052552345E+03 -0.32741591443E+03  0.34742658204E+03  0.47000000000E+01 0. -1.
<mgrwt>
<rscale>  0 0.16186386E+03</rscale>
<asrwt>0</asrwt>
<pdfrwt beam="1">  1        5 0.53621338E-02 0.16186590E+03</pdfrwt>
<pdfrwt beam="2">  1       -5 0.11668720E+00 0.16186590E+03</pdfrwt>
<totfact> 0.95706238E+01</totfact>
</mgrwt>
</event>
<event>
 8    1  0.1821556E-007  0.1639022E+03  0.7546771E-02  0.1184362E+00
         -5   -1    0    0    0  501 -0.00000000000E+00  0.00000000000E+00  0.13575411044E+03  0.13583544641E+03  0.47000000000E+01 0. -1.
          5   -1    0    0  501    0  0.00000000000E+00 -0.00000000000E+00 -0.19779377782E+03  0.19784961092E+03  0.47000000000E+01 0. -1.
         25    2    1    2    0    0  0.32884046023E+02 -0.10078346596E+03 -0.34433533190E+02  0.16747421589E+03  0.12499310895E+03 0.  0.
         25    2    1    2    0    0 -0.32884046023E+02  0.10078346596E+03 -0.27606134183E+02  0.16621084145E+03  0.12500111070E+03 0.  0.
          5    1    3    3  502    0  0.77814238854E+02 -0.44278332170E+02 -0.63752625686E+01  0.89879699827E+02  0.47000000000E+01 0.  1.
         -5    1    3    3    0  502 -0.44930192831E+02 -0.56505133793E+02 -0.28058270622E+02  0.77594516063E+02  0.47000000000E+01 0.  1.
          5    1    4    4  503    0  0.46018597242E+02  0.22966311265E+02 -0.18727801189E+02  0.54936174626E+02  0.47000000000E+01 0.  1.
         -5    1    4    4    0  503 -0.78902643264E+02  0.77817154699E+02 -0.88783329943E+01  0.11127466682E+03  0.47000000000E+01 0.  1.
<mgrwt>
<rscale>  0 0.16390072E+03</rscale>
<asrwt>0</asrwt>
<pdfrwt beam="2">  1        5 0.30440363E-01 0.16390224E+03</pdfrwt>
<pdfrwt beam="1">  1       -5 0.20895799E-01 0.16390224E+03</pdfrwt>
<totfact> 0.17032531E+02</totfact>
</mgrwt>
</event>
<event>
 8    1  0.1821556E-007  0.1261954E+03  0.7546771E-02  0.1233213E+00
         -5   -1    0    0    0  501 -0.00000000000E+00  0.00000000000E+00  0.23936100143E+04  0.23936146287E+04  0.47000000000E+01 0. -1.
          5   -1    0    0  501    0  0.00000000000E+00 -0.00000000000E+00 -0.10508533230E+02  0.11511701466E+02  0.47000000000E+01 0. -1.
         25    2    1    2    0    0  0.72069580837E+01 -0.15748039672E+02  0.19482816311E+04  0.19523643571E+04  0.12500130998E+03 0.  0.
         25    2    1    2    0    0 -0.72069580837E+01  0.15748039672E+02  0.43481984998E+03  0.45276197311E+03  0.12500064546E+03 0.  0.
          5    1    4    4  502    0  0.22536799876E+02  0.28973751475E+02  0.32953676393E+02  0.49552198852E+02  0.47000000000E+01 0.  1.
         -5    1    4    4    0  502 -0.29743757960E+02 -0.13225711803E+02  0.40186617358E+03  0.40320977426E+03  0.47000000000E+01 0.  1.
          5    1    3    3  503    0  0.70470269576E+01  0.51024375987E+02  0.11935409361E+04  0.11946611250E+04  0.47000000000E+01 0. -1.
         -5    1    3    3    0  503  0.15993112614E+00 -0.66772415658E+02  0.75474069507E+03  0.75770323206E+03  0.47000000000E+01 0. -1.
<mgrwt>
<rscale>  0 0.12619519E+03</rscale>
<asrwt>0</asrwt>
<pdfrwt beam="2">  1        5 0.16942219E-02 0.12619536E+03</pdfrwt>
<pdfrwt beam="1">  1       -5 0.36832462E+00 0.12619536E+03</pdfrwt>
<totfact> 0.10677994E+01</totfact>
</mgrwt>
</event>
<event>
 8    1  0.1821556E-007  0.1407515E+03  0.7546771E-02  0.1212327E+00
          5   -1    0    0  501    0  0.00000000000E+00  0.00000000000E+00  0.14109336080E+03  0.14117162059E+03  0.47000000000E+01 0. -1.
         -5   -1    0    0    0  501 -0.00000000000E+00 -0.00000000000E+00 -0.17001607138E+03  0.17008102342E+03  0.47000000000E+01 0. -1.
         25    2    1    2    0    0 -0.41701560969E+02 -0.49418964144E+02 -0.79565295715E+02  0.16168373981E+03  0.12501896349E+03 0.  0.
         25    2    1    2    0    0  0.41701560969E+02  0.49418964144E+02  0.50642585129E+02  0.14956890421E+03  0.12499972589E+03 0.  0.
          5    1    4    4  502    0  0.64434710194E+02  0.67622901245E+02  0.67733326594E+02  0.11547546139E+03  0.47000000000E+01 0. -1.
         -5    1    4    4    0  502 -0.22733149225E+02 -0.18203937102E+02 -0.17090741465E+02  0.34093442823E+02  0.47000000000E+01 0. -1.
          5    1    3    3  503    0 -0.31152430409E+02 -0.47079753119E+02 -0.11290692695E+03  0.12632118281E+03  0.47000000000E+01 0. -1.
         -5    1    3    3    0  503 -0.10549130560E+02 -0.23392110254E+01  0.33341631235E+02  0.35362556994E+02  0.47000000000E+01 0. -1.
<mgrwt>
<rscale>  0 0.14074727E+03</rscale>
<asrwt>0</asrwt>
<pdfrwt beam="1">  1        5 0.21717687E-01 0.14075154E+03</pdfrwt>
<pdfrwt beam="2">  1       -5 0.26167335E-01 0.14075154E+03</pdfrwt>
<totfact> 0.20245431E+02</totfact>
</mgrwt>
</event>
<event>
 8    1  0.1821556E-007  0.1253625E+03  0.7546771E-02  0.1234507E+00
         -5   -1    0    0    0  501 -0.00000000000E+00  0.00000000000E+00  0.83244144847E+02  0.83376721280E+02  0.47000000000E+01 0. -1.
          5   -1    0    0  501    0  0.00000000000E+00 -0.00000000000E+00 -0.18921296087E+03  0.18927132524E+03  0.47000000000E+01 0. -1.
         25    2    1    2    0    0  0.13099343039E+01  0.94024266828E+01 -0.44436231160E+02  0.13299845948E+03  0.12499556004E+03 0.  0.
         25    2    1    2    0    0 -0.13099343039E+01 -0.94024266828E+01 -0.61532584858E+02  0.13964958704E+03  0.12500250640E+03 0.  0.
          5    1    3    3  502    0 -0.94886185387E+01  0.61195575913E+02  0.24449449696E+01  0.62153038132E+02  0.47000000000E+01 0. -1.
         -5    1    3    3    0  502  0.10798552843E+02 -0.51793149230E+02 -0.46881176129E+02  0.70845421348E+02  0.47000000000E+01 0. -1.
          5    1    4    4  503    0 -0.45130195615E+01  0.35837908985E+02 -0.81957475845E+02  0.89687462406E+02  0.47000000000E+01 0. -1.
         -5    1    4    4    0  503  0.32030852576E+01 -0.45240335668E+02  0.20424890986E+02  0.49962124638E+02  0.47000000000E+01 0. -1.
<mgrwt>
<rscale>  0 0.12536074E+03</rscale>
<asrwt>0</asrwt>
<pdfrwt beam="2">  1        5 0.29124374E-01 0.12536247E+03</pdfrwt>
<pdfrwt beam="1">  1       -5 0.12821479E-01 0.12536247E+03</pdfrwt>
<totfact> 0.41422942E+02</totfact>
</mgrwt>
</event>
<event>
 8    1  0.1821556E-007  0.1270967E+03  0.7546771E-02  0.1231830E+00
         -5   -1    0    0    0  501 -0.00000000000E+00  0.00000000000E+00  0.26694489656E+03  0.26698626894E+03  0.47000000000E+01 0.  1.
          5   -1    0    0  501    0  0.00000000000E+00 -0.00000000000E+00 -0.67913430417E+02  0.68075869668E+02  0.47000000000E+01 0.  1.
         25    2    1    2    0    0 -0.22264085920E+02 -0.56872734791E+01  0.15524828401E+03  0.20063543965E+03  0.12499806140E+03 0.  0.
         25    2    1    2    0    0  0.22264085920E+02  0.56872734791E+01  0.43783182131E+02  0.13442669895E+03  0.12500214299E+03 0.  0.
          5    1    4    4  502    0 -0.25447659155E+02 -0.41577914675E+02  0.45828281201E+02  0.67071810047E+02  0.47000000000E+01 0. -1.
         -5    1    4    4    0  502  0.47711745075E+02  0.47265188154E+02 -0.20450990693E+01  0.67354888906E+02  0.47000000000E+01 0. -1.
          5    1    3    3  503    0  0.32667580770E+02  0.19442802151E+02  0.49996530487E+01  0.38630039082E+02  0.47000000000E+01 0.  1.
         -5    1    3    3    0  503 -0.54931666690E+02 -0.25130075630E+02  0.15024863096E+03  0.16200540057E+03  0.47000000000E+01 0.  1.
<mgrwt>
<rscale>  0 0.12709569E+03</rscale>
<asrwt>0</asrwt>
<pdfrwt beam="2">  1        5 0.10463898E-01 0.12709670E+03</pdfrwt>
<pdfrwt beam="1">  1       -5 0.41084124E-01 0.12709670E+03</pdfrwt>
<totfact> 0.29953363E+02</totfact>
</mgrwt>
</event>
<event>
 8    1  0.1821556E-007  0.1987318E+03  0.7546771E-02  0.1150815E+00
         -5   -1    0    0    0  501 -0.00000000000E+00  0.00000000000E+00  0.36250188204E+02  0.36553606454E+02  0.47000000000E+01 0. -1.
          5   -1    0    0  501    0  0.00000000000E+00 -0.00000000000E+00 -0.12087773700E+04  0.12087865073E+04  0.47000000000E+01 0. -1.
         25    2    1    2    0    0 -0.13928840379E+03 -0.66836623700E+02 -0.38672660705E+03  0.43480088063E+03  0.12500377396E+03 0.  0.
         25    2    1    2    0    0  0.13928840379E+03  0.66836623700E+02 -0.78580057472E+03  0.81053923309E+03  0.12499164551E+03 0.  0.
          5    1    4    4  502    0  0.10289416016E+03  0.97901768749E+02 -0.46728010408E+03  0.48841043211E+03  0.47000000000E+01 0.  1.
         -5    1    4    4    0  502  0.36394243629E+02 -0.31065145049E+02 -0.31852047064E+03  0.32212880098E+03  0.47000000000E+01 0.  1.
          5    1    3    3  503    0 -0.74526653929E+02 -0.29253724070E+02 -0.61590329048E+02  0.10112102229E+03  0.47000000000E+01 0. -1.
         -5    1    3    3    0  503 -0.64761749863E+02 -0.37582899630E+02 -0.32513627800E+03  0.33367985834E+03  0.47000000000E+01 0. -1.
<mgrwt>
<rscale>  0 0.19872992E+03</rscale>
<asrwt>0</asrwt>
<pdfrwt beam="2">  1        5 0.18598976E+00 0.19873182E+03</pdfrwt>
<pdfrwt beam="1">  1       -5 0.56009957E-02 0.19873182E+03</pdfrwt>
<totfact> 0.26052591E+01</totfact>
</mgrwt>
</event>
<event>
 8    1  0.1821556E-007  0.1935193E+03  0.7546771E-02  0.1155326E+00
         -5   -1    0    0    0  501 -0.00000000000E+00  0.00000000000E+00  0.53568620158E+02  0.53774409022E+02  0.47000000000E+01 0.  1.
          5   -1    0    0  501    0  0.00000000000E+00 -0.00000000000E+00 -0.70252321491E+03  0.70253893663E+03  0.47000000000E+01 0.  1.
         25    2    1    2    0    0  0.12106890338E+03 -0.84660354450E+02 -0.29260792325E+03  0.35081034185E+03  0.12499377672E+03 0.  0.
         25    2    1    2    0    0 -0.12106890338E+03  0.84660354450E+02 -0.35634667150E+03  0.40550300381E+03  0.12499872331E+03 0.  0.
          5    1    3    3  502    0 -0.19206744677E+02 -0.40756782100E+02 -0.53551413272E+02  0.70141700804E+02  0.47000000000E+01 0.  1.
         -5    1    3    3    0  502  0.14027564805E+03 -0.43903572350E+02 -0.23905650998E+03  0.28066864105E+03  0.47000000000E+01 0.  1.
          5    1    4    4  503    0 -0.65142043206E+02  0.11002713077E+03 -0.27643269966E+03  0.30460890128E+03  0.47000000000E+01 0.  1.
         -5    1    4    4    0  503 -0.55926860170E+02 -0.25366776322E+02 -0.79913971841E+02  0.10089410253E+03  0.47000000000E+01 0.  1.
<mgrwt>
<rscale>  0 0.19351854E+03</rscale>
<asrwt>0</asrwt>
<pdfrwt beam="2">  1        5 0.10809753E+00 0.19351934E+03</pdfrwt>
<pdfrwt beam="1">  1       -5 0.82583659E-02 0.19351934E+03</pdfrwt>
<totfact> 0.58503421E+01</totfact>
</mgrwt>
</event>
<event>
 8    1  0.1821556E-007  0.1598916E+03  0.7546771E-02  0.1188820E+00
          5   -1    0    0  501    0  0.00000000000E+00  0.00000000000E+00  0.68883136705E+02  0.69043294550E+02  0.47000000000E+01 0.  1.
         -5   -1    0    0    0  501 -0.00000000000E+00 -0.00000000000E+00 -0.37444047904E+03  0.37446997522E+03  0.47000000000E+01 0.  1.
         25    2    1    2    0    0 -0.95522737636E+02 -0.28554836832E+02 -0.13011025424E+03  0.20613806324E+03  0.12499700294E+03 0.  0.
         25    2    1    2    0    0  0.95522737636E+02  0.28554836832E+02 -0.17544708809E+03  0.23737520653E+03  0.12500134337E+03 0.  0.
          5    1    4    4  502    0  0.37859927435E+02  0.53930449647E+01  0.11585330523E+02  0.40233927508E+02  0.47000000000E+01 0.  1.
         -5    1    4    4    0  502  0.57662810201E+02  0.23161791867E+02 -0.18703241861E+03  0.19714127902E+03  0.47000000000E+01 0.  1.
          5    1    3    3  503    0 -0.23261037288E+02  0.58640438517E+01  0.22834928960E+02  0.33451260763E+02  0.47000000000E+01 0.  1.
         -5    1    3    3    0  503 -0.72261700348E+02 -0.34418880684E+02 -0.15294518320E+03  0.17268680248E+03  0.47000000000E+01 0.  1.
<mgrwt>
<rscale>  0 0.15989070E+03</rscale>
<asrwt>0</asrwt>
<pdfrwt beam="1">  1        5 0.10611995E-01 0.15989155E+03</pdfrwt>
<pdfrwt beam="2">  1       -5 0.57620815E-01 0.15989155E+03</pdfrwt>
<totfact> 0.15452290E+02</totfact>
</mgrwt>
</event>
<event>
 8    1  0.1821556E-007  0.1567418E+03  0.7546771E-02  0.1192425E+00
         -5   -1    0    0    0  501 -0.00000000000E+00  0.00000000000E+00  0.59367801302E+03  0.59369661709E+03  0.47000000000E+01 0.  1.
          5   -1    0    0  501    0  0.00000000000E+00 -0.00000000000E+00 -0.47305571757E+02  0.47538480405E+02  0.47000000000E+01 0.  1.
         25    2    1    2    0    0 -0.90206333294E+02 -0.28383016165E+02  0.38776668764E+03  0.41824753799E+03  0.12500088330E+03 0.  0.
         25    2    1    2    0    0  0.90206333294E+02  0.28383016165E+02  0.15860575362E+03  0.22298755950E+03  0.12499955374E+03 0.  0.
          5    1    3    3  502    0 -0.48844961708E+02 -0.77237394599E+02  0.25125690113E+03  0.26740150668E+03  0.47000000000E+01 0. -1.
         -5    1    3    3    0  502 -0.41361371586E+02  0.48854378434E+02  0.13650978650E+03  0.15084603131E+03  0.47000000000E+01 0. -1.
          5    1    4    4  503    0  0.57369788992E+00  0.33751498041E+02  0.12067984630E+03  0.12540019160E+03  0.47000000000E+01 0.  1.
         -5    1    4    4    0  503  0.89632635404E+02 -0.53684818757E+01  0.37925907319E+02  0.97587367897E+02  0.47000000000E+01 0.  1.
<mgrwt>
<rscale>  0 0.15674156E+03</rscale>
<asrwt>0</asrwt>
<pdfrwt beam="2">  1        5 0.72971273E-02 0.15674182E+03</pdfrwt>
<pdfrwt beam="1">  1       -5 0.91354427E-01 0.15674182E+03</pdfrwt>
<totfact> 0.10282532E+02</totfact>
</mgrwt>
</event>
<event>
 8    1  0.1821556E-007  0.1263829E+03  0.7546771E-02  0.1232924E+00
          5   -1    0    0  501    0  0.00000000000E+00  0.00000000000E+00  0.29378111280E+02  0.29751696126E+02  0.47000000000E+01 0.  1.
         -5   -1    0    0    0  501 -0.00000000000E+00 -0.00000000000E+00 -0.54818596473E+03  0.54820611263E+03  0.47000000000E+01 0.  1.
         25    2    1    2    0    0  0.17772439922E+02  0.55559661983E+01 -0.29499087052E+03  0.32092339864E+03  0.12500194287E+03 0.  0.
         25    2    1    2    0    0 -0.17772439922E+02 -0.55559661983E+01 -0.22381698293E+03  0.25703441012E+03  0.12500367098E+03 0.  0.
          5    1    3    3  502    0 -0.32865769226E+02 -0.41887683454E+02 -0.16577895871E+03  0.17418234688E+03  0.47000000000E+01 0.  1.
         -5    1    3    3    0  502  0.50638209148E+02  0.47443649653E+02 -0.12921191181E+03  0.14674105176E+03  0.47000000000E+01 0.  1.
          5    1    4    4  503    0  0.23739143027E+02  0.46206298034E+02 -0.14387131288E+03  0.15303468091E+03  0.47000000000E+01 0.  1.
         -5    1    4    4    0  503 -0.41511582949E+02 -0.51762264232E+02 -0.79945670044E+02  0.10399972921E+03  0.47000000000E+01 0.  1.
<mgrwt>
<rscale>  0 0.12638251E+03</rscale>
<asrwt>0</asrwt>
<pdfrwt beam="1">  1        5 0.45499970E-02 0.12638293E+03</pdfrwt>
<pdfrwt beam="2">  1       -5 0.84366582E-01 0.12638293E+03</pdfrwt>
<totfact> 0.25521293E+02</totfact>
</mgrwt>
</event>
<event>
 8    1  0.1821556E-007  0.1310249E+03  0.7546771E-02  0.1225943E+00
         -5   -1    0    0    0  501 -0.00000000000E+00  0.00000000000E+00  0.13650620782E+03  0.13658709593E+03  0.47000000000E+01 0. -1.
          5   -1    0    0  501    0  0.00000000000E+00 -0.00000000000E+00 -0.15159397956E+03  0.15166682115E+03  0.47000000000E+01 0. -1.
         25    2    1    2    0    0 -0.97672189792E+01  0.38032996170E+02  0.52104213254E+02  0.14100483000E+03  0.12500242270E+03 0.  0.
         25    2    1    2    0    0  0.97672189792E+01 -0.38032996170E+02 -0.67191984989E+02  0.14724908707E+03  0.12500249371E+03 0.  0.
          5    1    4    4  502    0  0.54933817190E+02 -0.14285655418E+02  0.66771600031E+01  0.57345258631E+02  0.47000000000E+01 0. -1.
         -5    1    4    4    0  502 -0.45166598210E+02 -0.23747340752E+02 -0.73869144992E+02  0.89903828442E+02  0.47000000000E+01 0. -1.
          5    1    3    3  503    0 -0.14761216281E+02  0.83014868267E+02  0.25125871376E+02  0.88106533651E+02  0.47000000000E+01 0.  1.
         -5    1    3    3    0  503  0.49939973021E+01 -0.44981872098E+02  0.26978341878E+02  0.52898296352E+02  0.47000000000E+01 0.  1.
<mgrwt>
<rscale>  0 0.13102491E+03</rscale>
<asrwt>0</asrwt>
<pdfrwt beam="2">  1        5 0.23333976E-01 0.13102492E+03</pdfrwt>
<pdfrwt beam="1">  1       -5 0.21012780E-01 0.13102492E+03</pdfrwt>
<totfact> 0.26172814E+02</totfact>
</mgrwt>
</event>
<event>
 8    1  0.1821556E-007  0.1551232E+03  0.7546771E-02  0.1194319E+00
          5   -1    0    0  501    0  0.00000000000E+00  0.00000000000E+00  0.20491169681E+03  0.20496559099E+03  0.47000000000E+01 0. -1.
         -5   -1    0    0    0  501 -0.00000000000E+00 -0.00000000000E+00 -0.21940078915E+03  0.21945112504E+03  0.47000000000E+01 0. -1.
         25    2    1    2    0    0  0.12516152469E+02 -0.90975946567E+02 -0.15196199913E+03  0.21714394386E+03  0.12500306496E+03 0.  0.
         25    2    1    2    0    0 -0.12516152469E+02  0.90975946567E+02  0.13747290678E+03  0.20727277217E+03  0.12501969868E+03 0.  0.
          5    1    3    3  502    0  0.19575064802E+02 -0.38234647838E+02 -0.15761130067E+03  0.16342730358E+03  0.47000000000E+01 0. -1.
         -5    1    3    3    0  502 -0.70589123338E+01 -0.52741298728E+02  0.56493015389E+01  0.53716640278E+02  0.47000000000E+01 0. -1.
          5    1    4    4  503    0 -0.37139768149E+02 -0.10361764358E+02  0.58560356961E+01  0.39282460372E+02  0.47000000000E+01 0.  1.
         -5    1    4    4    0  503  0.24623615681E+02  0.10133771092E+03  0.13161687109E+03  0.16799031180E+03  0.47000000000E+01 0.  1.
<mgrwt>
<rscale>  0 0.15511983E+03</rscale>
<asrwt>0</asrwt>
<pdfrwt beam="1">  1        5 0.31532894E-01 0.15512318E+03</pdfrwt>
<pdfrwt beam="2">  1       -5 0.33761985E-01 0.15512318E+03</pdfrwt>
<totfact> 0.61653849E+01</totfact>
</mgrwt>
</event>
<event>
 8    1  0.1821556E-007  0.1271574E+03  0.7546771E-02  0.1231770E+00
          5   -1    0    0  501    0  0.00000000000E+00  0.00000000000E+00  0.39098792109E+03  0.39101616903E+03  0.47000000000E+01 0.  1.
         -5   -1    0    0    0  501 -0.00000000000E+00 -0.00000000000E+00 -0.41208261434E+02  0.41475424174E+02  0.47000000000E+01 0.  1.
         25    2    1    2    0    0 -0.40262837226E+01  0.22476143671E+02  0.18205777936E+03  0.22201681373E+03  0.12500017023E+03 0.  0.
         25    2    1    2    0    0  0.40262837226E+01 -0.22476143671E+02  0.16772188030E+03  0.21047477947E+03  0.12509042996E+03 0.  0.
          5    1    4    4  502    0  0.84118527486E+00  0.40134625498E+02  0.11414925032E+02  0.41998646050E+02  0.47000000000E+01 0.  1.
         -5    1    4    4    0  502  0.31850984477E+01 -0.62610769169E+02  0.15630695526E+03  0.16847613342E+03  0.47000000000E+01 0.  1.
          5    1    3    3  503    0  0.79369015478E+00 -0.25895487314E+01  0.19355446476E+03  0.19363046386E+03  0.47000000000E+01 0.  1.
         -5    1    3    3    0  503 -0.48199738774E+01  0.25065692402E+02 -0.11496685398E+02  0.28386349869E+02  0.47000000000E+01 0.  1.
<mgrwt>
<rscale>  0 0.12713519E+03</rscale>
<asrwt>0</asrwt>
<pdfrwt beam="1">  1        5 0.60174710E-01 0.12715740E+03</pdfrwt>
<pdfrwt beam="2">  1       -5 0.63624566E-02 0.12715740E+03</pdfrwt>
<totfact> 0.31373106E+02</totfact>
</mgrwt>
</event>
<event>
 8    1  0.1821556E-007  0.1357412E+03  0.7546771E-02  0.1219179E+00
          5   -1    0    0  501    0  0.00000000000E+00  0.00000000000E+00  0.28133295739E+02  0.28523189322E+02  0.47000000000E+01 0.  1.
         -5   -1    0    0    0  501 -0.00000000000E+00 -0.00000000000E+00 -0.83186512272E+03  0.83187840000E+03  0.47000000000E+01 0.  1.
         25    2    1    2    0    0 -0.17180992715E+02 -0.50043021063E+02 -0.60295514711E+03  0.61804450794E+03  0.12499845558E+03 0.  0.
         25    2    1    2    0    0  0.17180992715E+02  0.50043021063E+02 -0.20077667987E+03  0.24235708139E+03  0.12500475692E+03 0.  0.
          5    1    4    4  502    0  0.38892270453E+02  0.48512535988E+02 -0.28347843640E+02  0.68496460405E+02  0.47000000000E+01 0. -1.
         -5    1    4    4    0  502 -0.21711277738E+02  0.15304850743E+01 -0.17242883623E+03  0.17386062098E+03  0.47000000000E+01 0. -1.
          5    1    3    3  503    0 -0.25918531544E+02  0.23133201191E+02 -0.40911897246E+03  0.41061823985E+03  0.47000000000E+01 0. -1.
         -5    1    3    3    0  503  0.87375388292E+01 -0.73176222254E+02 -0.19383617465E+03  0.20742626808E+03  0.47000000000E+01 0. -1.
<mgrwt>
<rscale>  0 0.13573977E+03</rscale>
<asrwt>0</asrwt>
<pdfrwt beam="1">  1        5 0.43592131E-02 0.13574122E+03</pdfrwt>
<pdfrwt beam="2">  1       -5 0.12801024E+00 0.13574122E+03</pdfrwt>
<totfact> 0.10081404E+02</totfact>
</mgrwt>
</event>
<event>
 8    1  0.1821556E-007  0.1294153E+03  0.7546771E-02  0.1228329E+00
         -5   -1    0    0    0  501 -0.00000000000E+00  0.00000000000E+00  0.56115962584E+02  0.56312443178E+02  0.47000000000E+01 0.  1.
          5   -1    0    0  501    0  0.00000000000E+00 -0.00000000000E+00 -0.30076244247E+03  0.30079916356E+03  0.47000000000E+01 0.  1.
         25    2    1    2    0    0 -0.71643427125E+01 -0.32712781857E+02 -0.10431846465E+03  0.16621823216E+03  0.12499881893E+03 0.  0.
         25    2    1    2    0    0  0.71643427125E+01  0.32712781857E+02 -0.14032801524E+03  0.19089337458E+03  0.12500749855E+03 0.  0.
          5    1    3    3  502    0  0.51214819743E+01 -0.39426293765E+02 -0.13031159933E+03  0.13632265086E+03  0.47000000000E+01 0.  1.
         -5    1    3    3    0  502 -0.12285824687E+02  0.67135119087E+01  0.25993134685E+02  0.29895581298E+02  0.47000000000E+01 0.  1.
          5    1    4    4  503    0  0.58932983123E+02  0.24625691138E+02 -0.11692515209E+03  0.13331579935E+03  0.47000000000E+01 0. -1.
         -5    1    4    4    0  503 -0.51768640410E+02  0.80870907188E+01 -0.23402863144E+02  0.57577575231E+02  0.47000000000E+01 0. -1.
<mgrwt>
<rscale>  0 0.12941324E+03</rscale>
<asrwt>0</asrwt>
<pdfrwt beam="2">  1        5 0.46289083E-01 0.12941533E+03</pdfrwt>
<pdfrwt beam="1">  1       -5 0.86511638E-02 0.12941533E+03</pdfrwt>
<totfact> 0.32771051E+02</totfact>
</mgrwt>
</event>
<event>
 8    1  0.1821556E-007  0.1273320E+03  0.7546771E-02  0.1231471E+00
          5   -1    0    0  501    0  0.00000000000E+00  0.00000000000E+00  0.46711545479E+02  0.46947401217E+02  0.47000000000E+01 0.  1.
         -5   -1    0    0    0  501 -0.00000000000E+00 -0.00000000000E+00 -0.34621238456E+03  0.34624428547E+03  0.47000000000E+01 0.  1.
         25    2    1    2    0    0 -0.16843078806E+02 -0.17409800091E+02 -0.15507117970E+03  0.20064722933E+03  0.12500179767E+03 0.  0.
         25    2    1    2    0    0  0.16843078806E+02  0.17409800091E+02 -0.14442965938E+03  0.19254445736E+03  0.12500660426E+03 0.  0.
          5    1    3    3  502    0 -0.75084743519E+00 -0.66345775046E+02 -0.12285901268E+03  0.13970952951E+03  0.47000000000E+01 0.  1.
         -5    1    3    3    0  502 -0.16092231371E+02  0.48935974956E+02 -0.32212167024E+02  0.60937699823E+02  0.47000000000E+01 0.  1.
          5    1    4    4  503    0 -0.45796362263E+02 -0.15585714473E+02 -0.27703106053E+02  0.55944377529E+02  0.47000000000E+01 0.  1.
         -5    1    4    4    0  503  0.62639441069E+02  0.32995514564E+02 -0.11672655332E+03  0.13660007983E+03  0.47000000000E+01 0.  1.
<mgrwt>
<rscale>  0 0.12733083E+03</rscale>
<asrwt>0</asrwt>
<pdfrwt beam="1">  1        5 0.72069885E-02 0.12733201E+03</pdfrwt>
<pdfrwt beam="2">  1       -5 0.53284039E-01 0.12733201E+03</pdfrwt>
<totfact> 0.33066843E+02</totfact>
</mgrwt>
</event>
<event>
 8    1  0.1821556E-007  0.1323591E+03  0.7546771E-02  0.1223998E+00
         -5   -1    0    0    0  501 -0.00000000000E+00  0.00000000000E+00  0.16002923481E+02  0.16678835689E+02  0.47000000000E+01 0. -1.
          5   -1    0    0  501    0  0.00000000000E+00 -0.00000000000E+00 -0.10739935530E+04  0.10740038370E+04  0.47000000000E+01 0. -1.
         25    2    1    2    0    0  0.35373940852E+02 -0.25345453322E+02 -0.50213456447E+03  0.51928611073E+03  0.12500094506E+03 0.  0.
         25    2    1    2    0    0 -0.35373940852E+02  0.25345453322E+02 -0.55585606500E+03  0.57139656191E+03  0.12499743305E+03 0.  0.
          5    1    3    3  502    0  0.17313551809E+02 -0.30757950041E+02 -0.49818738388E+03  0.49945827656E+03  0.47000000000E+01 0.  1.
         -5    1    3    3    0  502  0.18060389042E+02  0.54124967190E+01 -0.39471805852E+01  0.19827834165E+02  0.47000000000E+01 0.  1.
          5    1    4    4  503    0  0.44145366422E+02 -0.39175841680E+01 -0.13828352667E+03  0.14528793683E+03  0.47000000000E+01 0. -1.
         -5    1    4    4    0  503 -0.79519307274E+02  0.29263037490E+02 -0.41757253834E+03  0.42610862508E+03  0.47000000000E+01 0. -1.
<mgrwt>
<rscale>  0 0.13235832E+03</rscale>
<asrwt>0</asrwt>
<pdfrwt beam="2">  1        5 0.16528251E+00 0.13235915E+03</pdfrwt>
<pdfrwt beam="1">  1       -5 0.25147734E-02 0.13235915E+03</pdfrwt>
<totfact> 0.12242755E+02</totfact>
</mgrwt>
</event>
<event>
 8    1  0.1821556E-007  0.1344037E+03  0.7546771E-02  0.1221066E+00
         -5   -1    0    0    0  501 -0.00000000000E+00  0.00000000000E+00  0.14463380917E+03  0.14471015429E+03  0.47000000000E+01 0.  1.
          5   -1    0    0  501    0  0.00000000000E+00 -0.00000000000E+00 -0.13445523491E+03  0.13453735613E+03  0.47000000000E+01 0.  1.
         25    2    1    2    0    0  0.19856923761E+02 -0.45229712513E+02  0.42603560603E+02  0.14098788401E+03  0.12498998258E+03 0.  0.
         25    2    1    2    0    0 -0.19856923761E+02  0.45229712513E+02 -0.32424986341E+02  0.13825962642E+03  0.12499728094E+03 0.  0.
          5    1    4    4  502    0 -0.94902901463E+01  0.76320069841E+02 -0.57985512937E+02  0.96432506854E+02  0.47000000000E+01 0. -1.
         -5    1    4    4    0  502 -0.10366633615E+02 -0.31090357328E+02  0.25560526596E+02  0.41827119565E+02  0.47000000000E+01 0. -1.
          5    1    3    3  503    0 -0.36368922943E+02 -0.52346166205E+02 -0.85686266961E+01  0.64485122593E+02  0.47000000000E+01 0.  1.
         -5    1    3    3    0  503  0.56225846704E+02  0.71164536921E+01  0.51172187299E+02  0.76502761412E+02  0.47000000000E+01 0.  1.
<mgrwt>
<rscale>  0 0.13440197E+03</rscale>
<asrwt>0</asrwt>
<pdfrwt beam="2">  1        5 0.20697611E-01 0.13440366E+03</pdfrwt>
<pdfrwt beam="1">  1       -5 0.22263545E-01 0.13440366E+03</pdfrwt>
<totfact> 0.29693133E+02</totfact>
</mgrwt>
</event>
<event>
 8    1  0.1821556E-007  0.1718599E+03  0.7546771E-02  0.1175925E+00
         -5   -1    0    0    0  501 -0.00000000000E+00  0.00000000000E+00  0.13827468646E+02  0.14604413345E+02  0.47000000000E+01 0.  1.
          5   -1    0    0  501    0  0.00000000000E+00 -0.00000000000E+00 -0.22173697046E+04  0.22173746857E+04  0.47000000000E+01 0.  1.
         25    2    1    2    0    0 -0.11525731115E+03 -0.24960521983E+02 -0.82081429761E+03  0.83861311205E+03  0.12501425965E+03 0.  0.
         25    2    1    2    0    0  0.11525731115E+03  0.24960521983E+02 -0.13827279383E+04  0.13933659870E+04  0.12499978740E+03 0.  0.
          5    1    4    4  502    0  0.48548023103E+02 -0.50213655726E+02 -0.65101548273E+03  0.65476833348E+03  0.47000000000E+01 0. -1.
         -5    1    4    4    0  502  0.66709288052E+02  0.75174177709E+02 -0.73171245561E+03  0.73859765353E+03  0.47000000000E+01 0. -1.
          5    1    3    3  503    0 -0.12261122805E+03 -0.59994102490E+01 -0.79912072793E+03  0.80850821515E+03  0.47000000000E+01 0. -1.
         -5    1    3    3    0  503  0.73539168934E+01 -0.18961111734E+02 -0.21693569682E+02  0.30104896901E+02  0.47000000000E+01 0. -1.
<mgrwt>
<rscale>  0 0.17185731E+03</rscale>
<asrwt>0</asrwt>
<pdfrwt beam="2">  1        5 0.34119367E+00 0.17185994E+03</pdfrwt>
<pdfrwt beam="1">  1       -5 0.21874528E-02 0.17185994E+03</pdfrwt>
<totfact> 0.11486383E+01</totfact>
</mgrwt>
</event>
<event>
 8    1  0.1821556E-007  0.1324233E+03  0.7546771E-02  0.1223906E+00
          5   -1    0    0  501    0  0.00000000000E+00  0.00000000000E+00  0.19209771355E+03  0.19215520173E+03  0.47000000000E+01 0.  1.
         -5   -1    0    0    0  501 -0.00000000000E+00 -0.00000000000E+00 -0.92871002666E+02  0.92989855018E+02  0.47000000000E+01 0.  1.
         25    2    1    2    0    0  0.43111769435E+02 -0.71575280775E+01  0.30230621570E+02  0.13583011883E+03  0.12500430325E+03 0.  0.
         25    2    1    2    0    0 -0.43111769435E+02  0.71575280775E+01  0.68996089312E+02  0.14931493791E+03  0.12499854187E+03 0.  0.
          5    1    4    4  502    0 -0.87084906505E+01 -0.93582378529E+01 -0.35471207161E+02  0.37996196685E+02  0.47000000000E+01 0. -1.
         -5    1    4    4    0  502 -0.34403278784E+02  0.16515765930E+02  0.10446729647E+03  0.11131874122E+03  0.47000000000E+01 0. -1.
          5    1    3    3  503    0 -0.33098455847E+02  0.21502130781E+02  0.36590566815E+02  0.54026002882E+02  0.47000000000E+01 0. -1.
         -5    1    3    3    0  503  0.76210225281E+02 -0.28659658858E+02 -0.63599452445E+01  0.81804115953E+02  0.47000000000E+01 0. -1.
<mgrwt>
<rscale>  0 0.13242194E+03</rscale>
<asrwt>0</asrwt>
<pdfrwt beam="1">  1        5 0.29567059E-01 0.13242330E+03</pdfrwt>
<pdfrwt beam="2">  1       -5 0.14301411E-01 0.13242330E+03</pdfrwt>
<totfact> 0.33750104E+02</totfact>
</mgrwt>
</event>
<event>
 8    1  0.1821556E-007  0.1344171E+03  0.7546771E-02  0.1221048E+00
          5   -1    0    0  501    0  0.00000000000E+00  0.00000000000E+00  0.77185913753E+02  0.77328877413E+02  0.47000000000E+01 0. -1.
         -5   -1    0    0    0  501 -0.00000000000E+00 -0.00000000000E+00 -0.32488458676E+03  0.32491858167E+03  0.47000000000E+01 0. -1.
         25    2    1    2    0    0  0.70469897257E-01  0.49408723301E+02 -0.23038129999E+03  0.26672737701E+03  0.12500689325E+03 0.  0.
         25    2    1    2    0    0 -0.70469897257E-01 -0.49408723301E+02 -0.17317373025E+02  0.13552008207E+03  0.12499829732E+03 0.  0.
          5    1    4    4  502    0  0.23970486225E+02 -0.85828377671E+02 -0.27661167775E+01  0.89279538672E+02  0.47000000000E+01 0. -1.
         -5    1    4    4    0  502 -0.24040956122E+02  0.36419654370E+02 -0.14551256248E+02  0.46240543401E+02  0.47000000000E+01 0. -1.
          5    1    3    3  503    0 -0.37758263432E+02  0.52554323441E+02 -0.48865579533E+02  0.81225477732E+02  0.47000000000E+01 0.  1.
         -5    1    3    3    0  503  0.37828733330E+02 -0.31456001395E+01 -0.18151572045E+03  0.18550189928E+03  0.47000000000E+01 0.  1.
<mgrwt>
<rscale>  0 0.13441508E+03</rscale>
<asrwt>0</asrwt>
<pdfrwt beam="1">  1        5 0.11888368E-01 0.13441708E+03</pdfrwt>
<pdfrwt beam="2">  1       -5 0.49995855E-01 0.13441708E+03</pdfrwt>
<totfact> 0.16211817E+02</totfact>
</mgrwt>
</event>
<event>
 8    1  0.1821556E-007  0.1720350E+03  0.7546771E-02  0.1175742E+00
          5   -1    0    0  501    0  0.00000000000E+00  0.00000000000E+00  0.65318100100E+03  0.65319791034E+03  0.47000000000E+01 0. -1.
         -5   -1    0    0    0  501 -0.00000000000E+00 -0.00000000000E+00 -0.45564676423E+02  0.45806437731E+02  0.47000000000E+01 0. -1.
         25    2    1    2    0    0 -0.33780201958E+02 -0.11326759288E+03  0.33620549633E+03  0.37766409447E+03  0.12500153137E+03 0.  0.
         25    2    1    2    0    0  0.33780201958E+02  0.11326759288E+03  0.27141082825E+03  0.32134025360E+03  0.12500028502E+03 0.  0.
          5    1    4    4  502    0 -0.23179978627E+02 -0.14351708377E+02  0.77346714284E+02  0.82145524242E+02  0.47000000000E+01 0. -1.
         -5    1    4    4    0  502  0.56960180585E+02  0.12761930126E+03  0.19406411396E+03  0.23919472936E+03  0.47000000000E+01 0. -1.
          5    1    3    3  503    0 -0.16630647597E+02 -0.83154556348E+02  0.33170363128E+03  0.34240421680E+03  0.47000000000E+01 0. -1.
         -5    1    3    3    0  503 -0.17149554361E+02 -0.30113036531E+02  0.45018650523E+01  0.35259877663E+02  0.47000000000E+01 0. -1.
<mgrwt>
<rscale>  0 0.17203475E+03</rscale>
<asrwt>0</asrwt>
<pdfrwt beam="1">  1        5 0.10050928E+00 0.17203497E+03</pdfrwt>
<pdfrwt beam="2">  1       -5 0.70298480E-02 0.17203497E+03</pdfrwt>
<totfact> 0.89413885E+01</totfact>
</mgrwt>
</event>
<event>
 8    1  0.1821556E-007  0.1528626E+03  0.7546771E-02  0.1196999E+00
          5   -1    0    0  501    0  0.00000000000E+00  0.00000000000E+00  0.26779809885E+02  0.27189119468E+02  0.47000000000E+01 0.  1.
         -5   -1    0    0    0  501 -0.00000000000E+00 -0.00000000000E+00 -0.87257691008E+03  0.87258956790E+03  0.47000000000E+01 0.  1.
         25    2    1    2    0    0 -0.39430337359E+02 -0.78656469086E+02 -0.46335364933E+03  0.48791757916E+03  0.12500147226E+03 0.  0.
         25    2    1    2    0    0  0.39430337359E+02  0.78656469086E+02 -0.38244345087E+03  0.41186110821E+03  0.12499995086E+03 0.  0.
          5    1    4    4  502    0  0.60418614598E+02  0.60037115915E+02 -0.11645773506E+03  0.14435843700E+03  0.47000000000E+01 0. -1.
         -5    1    4    4    0  502 -0.20988277240E+02  0.18619353171E+02 -0.26598571581E+03  0.26750267121E+03  0.47000000000E+01 0. -1.
          5    1    3    3  503    0  0.41984471815E+02 -0.47310173320E+02 -0.15638720334E+03  0.16876017226E+03  0.47000000000E+01 0.  1.
         -5    1    3    3    0  503 -0.81414809173E+02 -0.31346295766E+02 -0.30696644599E+03  0.31915740690E+03  0.47000000000E+01 0.  1.
<mgrwt>
<rscale>  0 0.15286224E+03</rscale>
<asrwt>0</asrwt>
<pdfrwt beam="1">  1        5 0.41524304E-02 0.15286255E+03</pdfrwt>
<pdfrwt beam="2">  1       -5 0.13427504E+00 0.15286255E+03</pdfrwt>
<totfact> 0.10000811E+02</totfact>
</mgrwt>
</event>
<event>
 8    1  0.1821556E-007  0.1276842E+03  0.7546771E-02  0.1230933E+00
          5   -1    0    0  501    0  0.00000000000E+00  0.00000000000E+00  0.48877899685E+02  0.49103350982E+02  0.47000000000E+01 0. -1.
         -5   -1    0    0    0  501 -0.00000000000E+00 -0.00000000000E+00 -0.37245036824E+03  0.37248002201E+03  0.47000000000E+01 0. -1.
         25    2    1    2    0    0 -0.25786250398E+02  0.36473529875E+01 -0.23076426547E+03  0.26373358752E+03  0.12500010031E+03 0.  0.
         25    2    1    2    0    0  0.25786250398E+02 -0.36473529875E+01 -0.92808203083E+02  0.15784978547E+03  0.12499983328E+03 0.  0.
          5    1    4    4  502    0  0.15455228552E+02  0.55633855134E+02 -0.15879006739E+02  0.60068484097E+02  0.47000000000E+01 0.  1.
         -5    1    4    4    0  502  0.10331021847E+02 -0.59281208121E+02 -0.76929196344E+02  0.97781301376E+02  0.47000000000E+01 0.  1.
          5    1    3    3  503    0 -0.25656242379E+02 -0.11186875170E+02  0.38172160902E+01  0.28636516684E+02  0.47000000000E+01 0. -1.
         -5    1    3    3    0  503 -0.13000801913E+00  0.14834228157E+02 -0.23458148156E+03  0.23509707084E+03  0.47000000000E+01 0. -1.
<mgrwt>
<rscale>  0 0.12768415E+03</rscale>
<asrwt>0</asrwt>
<pdfrwt beam="1">  1        5 0.75393006E-02 0.12768422E+03</pdfrwt>
<pdfrwt beam="2">  1       -5 0.57319678E-01 0.12768422E+03</pdfrwt>
<totfact> 0.26196641E+02</totfact>
</mgrwt>
</event>
<event>
 8    1  0.1821556E-007  0.1268752E+03  0.7546771E-02  0.1232171E+00
          5   -1    0    0  501    0  0.00000000000E+00  0.00000000000E+00  0.33061614518E+03  0.33064955082E+03  0.47000000000E+01 0.  1.
         -5   -1    0    0    0  501 -0.00000000000E+00 -0.00000000000E+00 -0.49389437753E+02  0.49612564553E+02  0.47000000000E+01 0.  1.
         25    2    1    2    0    0 -0.98988437214E+01  0.19346860429E+02  0.11569026021E+03  0.17170195656E+03  0.12500014985E+03 0.  0.
         25    2    1    2    0    0  0.98988437214E+01 -0.19346860429E+02  0.16553644721E+03  0.20856015881E+03  0.12499094515E+03 0.  0.
          5    1    4    4  502    0  0.30901490330E+02  0.20545793386E+02  0.15829876955E+03  0.16265799142E+03  0.47000000000E+01 0.  1.
         -5    1    4    4    0  502 -0.21002646609E+02 -0.39892653815E+02  0.72376776620E+01  0.45902167388E+02  0.47000000000E+01 0.  1.
          5    1    3    3  503    0 -0.64305955247E+02  0.28367987447E+02  0.53551900008E+02  0.88486691578E+02  0.47000000000E+01 0.  1.
         -5    1    3    3    0  503  0.54407111525E+02 -0.90211270189E+01  0.62138360206E+02  0.83215264984E+02  0.47000000000E+01 0.  1.
<mgrwt>
<rscale>  0 0.12687297E+03</rscale>
<asrwt>0</asrwt>
<pdfrwt beam="1">  1        5 0.50883754E-01 0.12687524E+03</pdfrwt>
<pdfrwt beam="2">  1       -5 0.76181086E-02 0.12687524E+03</pdfrwt>
<totfact> 0.33147523E+02</totfact>
</mgrwt>
</event>
<event>
 8    1  0.1821556E-007  0.1272726E+03  0.7546771E-02  0.1231564E+00
         -5   -1    0    0    0  501 -0.00000000000E+00  0.00000000000E+00  0.16068802802E+03  0.16075674900E+03  0.47000000000E+01 0. -1.
          5   -1    0    0  501    0  0.00000000000E+00 -0.00000000000E+00 -0.10415690915E+03  0.10426289716E+03  0.47000000000E+01 0. -1.
         25    2    1    2    0    0 -0.19980357750E+02 -0.13170417657E+02  0.52550957718E+02  0.13769505313E+03  0.12500259958E+03 0.  0.
         25    2    1    2    0    0  0.19980357750E+02  0.13170417657E+02  0.39801611477E+01  0.12732459303E+03  0.12499214260E+03 0.  0.
          5    1    3    3  502    0  0.14557711889E+02  0.26577431713E+02  0.74414992692E+02  0.80485824772E+02  0.47000000000E+01 0. -1.
         -5    1    3    3    0  502 -0.34538069639E+02 -0.39747849370E+02 -0.21864034974E+02  0.57209228358E+02  0.47000000000E+01 0. -1.
          5    1    4    4  503    0  0.50823183226E+02  0.10579602323E+02  0.49628684927E+02  0.71972357930E+02  0.47000000000E+01 0.  1.
         -5    1    4    4    0  503 -0.30842825476E+02  0.25908153348E+01 -0.45648523779E+02  0.55352235100E+02  0.47000000000E+01 0.  1.
<mgrwt>
<rscale>  0 0.12727007E+03</rscale>
<asrwt>0</asrwt>
<pdfrwt beam="2">  1        5 0.16037579E-01 0.12727264E+03</pdfrwt>
<pdfrwt beam="1">  1       -5 0.24734674E-01 0.12727264E+03</pdfrwt>
<totfact> 0.38169501E+02</totfact>
</mgrwt>
</event>
<event>
 8    1  0.1821556E-007  0.1374153E+03  0.7546771E-02  0.1216854E+00
         -5   -1    0    0    0  501 -0.00000000000E+00  0.00000000000E+00  0.18126755951E+03  0.18132848130E+03  0.47000000000E+01 0. -1.
          5   -1    0    0  501    0  0.00000000000E+00 -0.00000000000E+00 -0.10685550550E+03  0.10695881944E+03  0.47000000000E+01 0. -1.
         25    2    1    2    0    0  0.37446968125E+02 -0.43050694121E+02  0.60618518643E+02  0.15018141762E+03  0.12499686280E+03 0.  0.
         25    2    1    2    0    0 -0.37446968125E+02  0.43050694121E+02  0.13793535369E+02  0.13810588312E+03  0.12500934224E+03 0.  0.
          5    1    4    4  502    0 -0.61018686003E+02  0.70247597851E+02  0.30660424594E+02  0.98082397410E+02  0.47000000000E+01 0.  1.
         -5    1    4    4    0  502  0.23571717878E+02 -0.27196903730E+02 -0.16866889225E+02  0.40023485710E+02  0.47000000000E+01 0.  1.
          5    1    3    3  503    0 -0.11293700655E+02 -0.29358261173E+02  0.87191518069E+02  0.92811130781E+02  0.47000000000E+01 0. -1.
         -5    1    3    3    0  503  0.48740668780E+02 -0.13692432947E+02 -0.26572999426E+02  0.57370286836E+02  0.47000000000E+01 0. -1.
<mgrwt>
<rscale>  0 0.13741249E+03</rscale>
<asrwt>0</asrwt>
<pdfrwt beam="2">  1        5 0.16451942E-01 0.13741533E+03</pdfrwt>
<pdfrwt beam="1">  1       -5 0.27899950E-01 0.13741533E+03</pdfrwt>
<totfact> 0.29692002E+02</totfact>
</mgrwt>
</event>
<event>
 8    1  0.1821556E-007  0.1526984E+03  0.7546771E-02  0.1197200E+00
         -5   -1    0    0    0  501 -0.00000000000E+00  0.00000000000E+00  0.86504417550E+02  0.86632004800E+02  0.47000000000E+01 0.  1.
          5   -1    0    0  501    0  0.00000000000E+00 -0.00000000000E+00 -0.28449462409E+03  0.28453344467E+03  0.47000000000E+01 0.  1.
         25    2    1    2    0    0  0.41562861011E+02  0.77200109833E+02 -0.55935662117E+02  0.16260777482E+03  0.12500064705E+03 0.  0.
         25    2    1    2    0    0 -0.41562861011E+02 -0.77200109833E+02 -0.14205454442E+03  0.20855767465E+03  0.12501792547E+03 0.  0.
          5    1    3    3  502    0 -0.13923837994E+02  0.78675695956E+02  0.48185669019E+01  0.80181338138E+02  0.47000000000E+01 0. -1.
         -5    1    3    3    0  502  0.55486699006E+02 -0.14755861230E+01 -0.60754229019E+02  0.82426436685E+02  0.47000000000E+01 0. -1.
          5    1    4    4  503    0 -0.67421924887E+02 -0.84598117231E+02 -0.63804549249E+02  0.12568081755E+03  0.47000000000E+01 0. -1.
         -5    1    4    4    0  503  0.25859063875E+02  0.73980073987E+01 -0.78249995175E+02  0.82876857100E+02  0.47000000000E+01 0. -1.
<mgrwt>
<rscale>  0 0.15269489E+03</rscale>
<asrwt>0</asrwt>
<pdfrwt beam="2">  1        5 0.43781204E-01 0.15269843E+03</pdfrwt>
<pdfrwt beam="1">  1       -5 0.13321173E-01 0.15269843E+03</pdfrwt>
<totfact> 0.18237700E+02</totfact>
</mgrwt>
</event>
<event>
 8    1  0.1821556E-007  0.1401133E+03  0.7546771E-02  0.1213179E+00
         -5   -1    0    0    0  501 -0.00000000000E+00  0.00000000000E+00  0.17031888022E+03  0.17038371682E+03  0.47000000000E+01 0.  1.
          5   -1    0    0  501    0  0.00000000000E+00 -0.00000000000E+00 -0.14247174313E+03  0.14254924619E+03  0.47000000000E+01 0.  1.
         25    2    1    2    0    0  0.33842636432E+02 -0.53468370670E+02  0.82439560199E+02  0.16256694775E+03  0.12501016244E+03 0.  0.
         25    2    1    2    0    0 -0.33842636432E+02  0.53468370670E+02 -0.54592423111E+02  0.15036601526E+03  0.12500166072E+03 0.  0.
          5    1    3    3  502    0  0.31624824521E+02 -0.75726623235E+02  0.55888149127E+01  0.82389173104E+02  0.47000000000E+01 0. -1.
         -5    1    3    3    0  502  0.22178119111E+01  0.22258252565E+02  0.76850745286E+02  0.80177774651E+02  0.47000000000E+01 0. -1.
          5    1    4    4  503    0 -0.29892275769E+02 -0.15452993393E+02 -0.71476858200E+02  0.79141483520E+02  0.47000000000E+01 0.  1.
         -5    1    4    4    0  503 -0.39503606621E+01  0.68921364063E+02  0.16884435090E+02  0.71224531743E+02  0.47000000000E+01 0.  1.
<mgrwt>
<rscale>  0 0.14011138E+03</rscale>
<asrwt>0</asrwt>
<pdfrwt beam="2">  1        5 0.21929679E-01 0.14011328E+03</pdfrwt>
<pdfrwt beam="1">  1       -5 0.26213854E-01 0.14011328E+03</pdfrwt>
<totfact> 0.19779965E+02</totfact>
</mgrwt>
</event>
<event>
 8    1  0.1821556E-007  0.1634315E+03  0.7546771E-02  0.1184877E+00
          5   -1    0    0  501    0  0.00000000000E+00  0.00000000000E+00  0.62546514701E+02  0.62722854697E+02  0.47000000000E+01 0. -1.
         -5   -1    0    0    0  501 -0.00000000000E+00 -0.00000000000E+00 -0.49006798390E+03  0.49009052107E+03  0.47000000000E+01 0. -1.
         25    2    1    2    0    0  0.10520166685E+03 -0.41348737780E+01 -0.31349129212E+03  0.35353286403E+03  0.12499683125E+03 0.  0.
         25    2    1    2    0    0 -0.10520166685E+03  0.41348737780E+01 -0.11403017708E+03  0.19928051174E+03  0.12500141273E+03 0.  0.
          5    1    4    4  502    0 -0.10765261061E+03  0.37154018921E+01 -0.25764482132E+02  0.11085480288E+03  0.47000000000E+01 0.  1.
         -5    1    4    4    0  502  0.24509437618E+01  0.41947188587E+00 -0.88265694948E+02  0.88425708855E+02  0.47000000000E+01 0.  1.
          5    1    3    3  503    0  0.85953426372E+02 -0.53789678274E+02 -0.25409592749E+03  0.27362045128E+03  0.47000000000E+01 0. -1.
         -5    1    3    3    0  503  0.19248240479E+02  0.49654804496E+02 -0.59395364631E+02  0.79912412745E+02  0.47000000000E+01 0. -1.
<mgrwt>
<rscale>  0 0.16343058E+03</rscale>
<asrwt>0</asrwt>
<pdfrwt beam="1">  1        5 0.96378393E-02 0.16343146E+03</pdfrwt>
<pdfrwt beam="2">  1       -5 0.75410370E-01 0.16343146E+03</pdfrwt>
<totfact> 0.10091102E+02</totfact>
</mgrwt>
</event>
<event>
 8    1  0.1821556E-007  0.1669574E+03  0.7546771E-02  0.1181061E+00
          5   -1    0    0  501    0  0.00000000000E+00  0.00000000000E+00  0.32621680455E+02  0.32958519926E+02  0.47000000000E+01 0. -1.
         -5   -1    0    0    0  501 -0.00000000000E+00 -0.00000000000E+00 -0.86241128115E+03  0.86242408817E+03  0.47000000000E+01 0. -1.
         25    2    1    2    0    0 -0.11006321797E+03 -0.11624002428E+02 -0.46920198271E+03  0.49801852236E+03  0.12499167433E+03 0.  0.
         25    2    1    2    0    0  0.11006321797E+03  0.11624002428E+02 -0.36058761798E+03  0.39736408573E+03  0.12500302798E+03 0.  0.
          5    1    4    4  502    0  0.60403339272E+02 -0.56203015880E+02 -0.18623085856E+03  0.20374338043E+03  0.47000000000E+01 0. -1.
         -5    1    4    4    0  502  0.49659878703E+02  0.67827018308E+02 -0.17435675942E+03  0.19362070530E+03  0.47000000000E+01 0. -1.
          5    1    3    3  503    0 -0.29766875568E+01  0.13336748855E+01  0.73921592429E+01  0.93473726674E+01  0.47000000000E+01 0. -1.
         -5    1    3    3    0  503 -0.10708653042E+03 -0.12957677313E+02 -0.47659414195E+03  0.48867114969E+03  0.47000000000E+01 0. -1.
<mgrwt>
<rscale>  0 0.16695531E+03</rscale>
<asrwt>0</asrwt>
<pdfrwt beam="1">  1        5 0.50456166E-02 0.16695744E+03</pdfrwt>
<pdfrwt beam="2">  1       -5 0.13270554E+00 0.16695744E+03</pdfrwt>
<totfact> 0.76641951E+01</totfact>
</mgrwt>
</event>
<event>
 8    1  0.1821556E-007  0.1447232E+03  0.7546771E-02  0.1207112E+00
          5   -1    0    0  501    0  0.00000000000E+00  0.00000000000E+00  0.85475606958E+03  0.85476899130E+03  0.47000000000E+01 0. -1.
         -5   -1    0    0    0  501 -0.00000000000E+00 -0.00000000000E+00 -0.27518919249E+02  0.27917394517E+02  0.47000000000E+01 0. -1.
         25    2    1    2    0    0 -0.71432066913E+02  0.14713510158E+02  0.26304557293E+03  0.30022955273E+03  0.12500313329E+03 0.  0.
         25    2    1    2    0    0  0.71432066913E+02 -0.14713510158E+02  0.56419157740E+03  0.58245683308E+03  0.12499919531E+03 0.  0.
          5    1    4    4  502    0  0.39788142772E+02  0.10565213523E+01  0.38559255168E+02  0.55615813414E+02  0.47000000000E+01 0. -1.
         -5    1    4    4    0  502  0.31643924141E+02 -0.15770031510E+02  0.52563232223E+03  0.52684101967E+03  0.47000000000E+01 0. -1.
          5    1    3    3  503    0 -0.19827539978E+02 -0.35978972898E+02  0.19978055023E+03  0.20401464674E+03  0.47000000000E+01 0.  1.
         -5    1    3    3    0  503 -0.51604526935E+02  0.50692483057E+02  0.63265022698E+02  0.96214905995E+02  0.47000000000E+01 0.  1.
<mgrwt>
<rscale>  0 0.14472237E+03</rscale>
<asrwt>0</asrwt>
<pdfrwt beam="1">  1        5 0.13153259E+00 0.14472322E+03</pdfrwt>
<pdfrwt beam="2">  1       -5 0.42653255E-02 0.14472322E+03</pdfrwt>
<totfact> 0.99326866E+01</totfact>
</mgrwt>
</event>
<event>
 8    1  0.1821556E-007  0.1584726E+03  0.7546771E-02  0.1190432E+00
         -5   -1    0    0    0  501 -0.00000000000E+00  0.00000000000E+00  0.20462634534E+02  0.20995461701E+02  0.47000000000E+01 0. -1.
          5   -1    0    0  501    0  0.00000000000E+00 -0.00000000000E+00 -0.13491909665E+04  0.13491991529E+04  0.47000000000E+01 0. -1.
         25    2    1    2    0    0 -0.30926221529E+02 -0.92371490606E+02 -0.44513103261E+03  0.47249890356E+03  0.12499861685E+03 0.  0.
         25    2    1    2    0    0  0.30926221529E+02  0.92371490606E+02 -0.88359729939E+03  0.89769571104E+03  0.12499791469E+03 0.  0.
          5    1    3    3  502    0  0.27300749981E+02 -0.94802651446E+00 -0.22894094559E+03  0.23061282763E+03  0.47000000000E+01 0. -1.
         -5    1    3    3    0  502 -0.58226971510E+02 -0.91423464091E+02 -0.21619008703E+03  0.24188607592E+03  0.47000000000E+01 0. -1.
          5    1    4    4  503    0  0.30433042505E+02  0.16504171893E+02 -0.52093727450E+02  0.62724829260E+02  0.47000000000E+01 0. -1.
         -5    1    4    4    0  503  0.49317902407E+00  0.75867318712E+02 -0.83150357194E+03  0.83497088178E+03  0.47000000000E+01 0. -1.
<mgrwt>
<rscale>  0 0.15847250E+03</rscale>
<asrwt>0</asrwt>
<pdfrwt beam="2">  1        5 0.20760939E+00 0.15847264E+03</pdfrwt>
<pdfrwt beam="1">  1       -5 0.31897151E-02 0.15847264E+03</pdfrwt>
<totfact> 0.44382928E+01</totfact>
</mgrwt>
</event>
<event>
 8    1  0.1821556E-007  0.1261552E+03  0.7546771E-02  0.1233275E+00
         -5   -1    0    0    0  501 -0.00000000000E+00  0.00000000000E+00  0.18304478957E+03  0.18310512005E+03  0.47000000000E+01 0. -1.
          5   -1    0    0  501    0  0.00000000000E+00 -0.00000000000E+00 -0.86836612331E+02  0.86963712209E+02  0.47000000000E+01 0. -1.
         25    2    1    2    0    0 -0.57691078842E+01 -0.16056913746E+02  0.45655275748E+02  0.13416233405E+03  0.12499608229E+03 0.  0.
         25    2    1    2    0    0  0.57691078842E+01  0.16056913746E+02  0.50552901491E+02  0.13590649821E+03  0.12499549321E+03 0.  0.
          5    1    4    4  502    0 -0.57555824732E+02  0.18871647349E+02  0.13160144936E+02  0.62161816648E+02  0.47000000000E+01 0. -1.
         -5    1    4    4    0  502  0.63324932616E+02 -0.28147336028E+01  0.37392756555E+02  0.73744681563E+02  0.47000000000E+01 0. -1.
          5    1    3    3  503    0 -0.35306545473E+02 -0.58963834008E+02  0.72363182785E+01  0.69265721511E+02  0.47000000000E+01 0.  1.
         -5    1    3    3    0  503  0.29537437589E+02  0.42906920262E+02  0.38418957469E+02  0.64896612537E+02  0.47000000000E+01 0.  1.
<mgrwt>
<rscale>  0 0.12615503E+03</rscale>
<asrwt>0</asrwt>
<pdfrwt beam="2">  1        5 0.13373897E-01 0.12615517E+03</pdfrwt>
<pdfrwt beam="1">  1       -5 0.28175155E-01 0.12615517E+03</pdfrwt>
<totfact> 0.41076808E+02</totfact>
</mgrwt>
</event>
<event>
 8    1  0.1821556E-007  0.1316569E+03  0.7546771E-02  0.1225019E+00
          5   -1    0    0  501    0  0.00000000000E+00  0.00000000000E+00  0.11020157940E+03  0.11030175929E+03  0.47000000000E+01 0. -1.
         -5   -1    0    0    0  501 -0.00000000000E+00 -0.00000000000E+00 -0.17491050295E+03  0.17497363814E+03  0.47000000000E+01 0. -1.
         25    2    1    2    0    0 -0.14776975973E+02 -0.38592015552E+02 -0.77878091981E+02  0.15296577845E+03  0.12500331789E+03 0.  0.
         25    2    1    2    0    0  0.14776975973E+02  0.38592015552E+02  0.13169168430E+02  0.13230961898E+03  0.12499882237E+03 0.  0.
          5    1    3    3  502    0  0.48682701242E+02  0.82076341606E+00 -0.57297063097E+02  0.75337391065E+02  0.47000000000E+01 0.  1.
         -5    1    3    3    0  502 -0.63459677215E+02 -0.39412778968E+02 -0.20581028884E+02  0.77628387386E+02  0.47000000000E+01 0.  1.
          5    1    4    4  503    0  0.60936033163E+02  0.38363267264E+02 -0.20461827186E+02  0.75004778411E+02  0.47000000000E+01 0.  1.
         -5    1    4    4    0  503 -0.46159057190E+02  0.22874828740E+00  0.33630995615E+02  0.57304840568E+02  0.47000000000E+01 0.  1.
<mgrwt>
<rscale>  0 0.13165581E+03</rscale>
<asrwt>0</asrwt>
<pdfrwt beam="1">  1        5 0.16966652E-01 0.13165687E+03</pdfrwt>
<pdfrwt beam="2">  1       -5 0.26921871E-01 0.13165687E+03</pdfrwt>
<totfact> 0.29631752E+02</totfact>
</mgrwt>
</event>
<event>
 8    1  0.1821556E-007  0.1456956E+03  0.7546771E-02  0.1205879E+00
          5   -1    0    0  501    0  0.00000000000E+00  0.00000000000E+00  0.35022529054E+03  0.35025682596E+03  0.47000000000E+01 0.  1.
         -5   -1    0    0    0  501 -0.00000000000E+00 -0.00000000000E+00 -0.62730002584E+02  0.62905828221E+02  0.47000000000E+01 0.  1.
         25    2    1    2    0    0  0.80967144832E+01  0.74358262951E+02  0.10454495614E+03  0.17928654679E+03  0.12497723773E+03 0.  0.
         25    2    1    2    0    0 -0.80967144832E+01 -0.74358262951E+02  0.18295033181E+03  0.23387610739E+03  0.12503000298E+03 0.  0.
          5    1    4    4  502    0  0.41563720724E+01 -0.16729552187E+02 -0.17429964916E+02  0.24960909882E+02  0.47000000000E+01 0.  1.
         -5    1    4    4    0  502 -0.12253086556E+02 -0.57628710765E+02  0.20038029673E+03  0.20891519751E+03  0.47000000000E+01 0.  1.
          5    1    3    3  503    0 -0.25501436867E+02 -0.27432877749E+02  0.20240369176E+02  0.42832798278E+02  0.47000000000E+01 0. -1.
         -5    1    3    3    0  503  0.33598151351E+02  0.10179114070E+03  0.84304586969E+02  0.13645374851E+03  0.47000000000E+01 0. -1.
<mgrwt>
<rscale>  0 0.14568429E+03</rscale>
<asrwt>0</asrwt>
<pdfrwt beam="1">  1        5 0.53896766E-01 0.14569561E+03</pdfrwt>
<pdfrwt beam="2">  1       -5 0.96667203E-02 0.14569561E+03</pdfrwt>
<totfact> 0.20396576E+02</totfact>
</mgrwt>
</event>
<event>
 8    1  0.1821556E-007  0.1255327E+03  0.7546771E-02  0.1234243E+00
         -5   -1    0    0    0  501 -0.00000000000E+00  0.00000000000E+00  0.91034222810E+02  0.91155470064E+02  0.47000000000E+01 0.  1.
          5   -1    0    0  501    0  0.00000000000E+00 -0.00000000000E+00 -0.19045527677E+03  0.19051326056E+03  0.47000000000E+01 0.  1.
         25    2    1    2    0    0 -0.10014962820E+02 -0.57365319483E+01 -0.68783590469E+01  0.12571162254E+03  0.12499157148E+03 0.  0.
         25    2    1    2    0    0  0.10014962820E+02  0.57365319483E+01 -0.92542694915E+02  0.15595710808E+03  0.12500104760E+03 0.  0.
          5    1    3    3  502    0 -0.45398929383E+02 -0.34163909061E+02 -0.39725842751E+02  0.69487179060E+02  0.47000000000E+01 0. -1.
         -5    1    3    3    0  502  0.35383966563E+02  0.28427377113E+02  0.32847483704E+02  0.56224443482E+02  0.47000000000E+01 0. -1.
          5    1    4    4  503    0  0.10500358037E+02 -0.50725969989E+02 -0.83795029619E+02  0.98625952665E+02  0.47000000000E+01 0. -1.
         -5    1    4    4    0  503 -0.48539521661E+00  0.56462501938E+02 -0.87476652968E+01  0.57331155419E+02  0.47000000000E+01 0. -1.
<mgrwt>
<rscale>  0 0.12553038E+03</rscale>
<asrwt>0</asrwt>
<pdfrwt beam="2">  1        5 0.29314599E-01 0.12553274E+03</pdfrwt>
<pdfrwt beam="1">  1       -5 0.14019052E-01 0.12553274E+03</pdfrwt>
<totfact> 0.34882272E+02</totfact>
</mgrwt>
</event>
<event>
 8    1  0.1821556E-007  0.1302360E+03  0.7546771E-02  0.1227106E+00
          5   -1    0    0  501    0  0.00000000000E+00  0.00000000000E+00  0.10174681077E+03  0.10185530670E+03  0.47000000000E+01 0.  1.
         -5   -1    0    0    0  501 -0.00000000000E+00 -0.00000000000E+00 -0.24506883736E+03  0.24511390218E+03  0.47000000000E+01 0.  1.
         25    2    1    2    0    0 -0.34201164318E+02 -0.12916590168E+02 -0.16987623303E+03  0.21405453198E+03  0.12499940068E+03 0.  0.
         25    2    1    2    0    0  0.34201164318E+02  0.12916590168E+02  0.26554206451E+02  0.13291467690E+03  0.12499851004E+03 0.  0.
          5    1    4    4  502    0  0.31446357645E+02  0.62324151932E+02 -0.10722546523E+02  0.70783022874E+02  0.47000000000E+01 0. -1.
         -5    1    4    4    0  502  0.27548066732E+01 -0.49407561764E+02  0.37276752974E+02  0.62131654023E+02  0.47000000000E+01 0. -1.
          5    1    3    3  503    0 -0.16900323985E+02 -0.50345512744E+01 -0.18709158120E+03  0.18797956648E+03  0.47000000000E+01 0.  1.
         -5    1    3    3    0  503 -0.17300840333E+02 -0.78820388939E+01  0.17215348171E+02  0.26074965503E+02  0.47000000000E+01 0.  1.
<mgrwt>
<rscale>  0 0.13023576E+03</rscale>
<asrwt>0</asrwt>
<pdfrwt beam="1">  1        5 0.15665168E-01 0.13023597E+03</pdfrwt>
<pdfrwt beam="2">  1       -5 0.37714710E-01 0.13023597E+03</pdfrwt>
<totfact> 0.17530310E+02</totfact>
</mgrwt>
</event>
<event>
 8    1  0.1821556E-007  0.1287053E+03  0.7546771E-02  0.1229392E+00
          5   -1    0    0  501    0  0.00000000000E+00  0.00000000000E+00  0.27900368244E+03  0.27904326692E+03  0.47000000000E+01 0.  1.
         -5   -1    0    0    0  501 -0.00000000000E+00 -0.00000000000E+00 -0.59263933841E+02  0.59450011390E+02  0.47000000000E+01 0.  1.
         25    2    1    2    0    0  0.78443122443E+01  0.29644559532E+02  0.11374253984E+03  0.17175854670E+03  0.12499319922E+03 0.  0.
         25    2    1    2    0    0 -0.78443122443E+01 -0.29644559532E+02  0.10599720876E+03  0.16673473162E+03  0.12499891726E+03 0.  0.
          5    1    4    4  502    0  0.37945900000E+02 -0.20339157512E+02  0.11134314666E+03  0.11946948967E+03  0.47000000000E+01 0.  1.
         -5    1    4    4    0  502 -0.45790212244E+02 -0.93054020200E+01 -0.53459378935E+01  0.47265241944E+02  0.47000000000E+01 0.  1.
          5    1    3    3  503    0 -0.26314010802E+02 -0.32790537899E+02  0.62623801054E+01  0.42766271112E+02  0.47000000000E+01 0.  1.
         -5    1    3    3    0  503  0.34158323047E+02  0.62435097432E+02  0.10748015973E+03  0.12899227558E+03  0.47000000000E+01 0.  1.
<mgrwt>
<rscale>  0 0.12870394E+03</rscale>
<asrwt>0</asrwt>
<pdfrwt beam="1">  1        5 0.42941002E-01 0.12870533E+03</pdfrwt>
<pdfrwt beam="2">  1       -5 0.91348869E-02 0.12870533E+03</pdfrwt>
<totfact> 0.34798783E+02</totfact>
</mgrwt>
</event>
<event>
 8    1  0.1821556E-007  0.1352055E+03  0.7546771E-02  0.1219931E+00
          5   -1    0    0  501    0  0.00000000000E+00  0.00000000000E+00  0.28472551824E+03  0.28476430734E+03  0.47000000000E+01 0.  1.
         -5   -1    0    0    0  501 -0.00000000000E+00 -0.00000000000E+00 -0.64269757580E+02  0.64441382196E+02  0.47000000000E+01 0.  1.
         25    2    1    2    0    0  0.50151046631E+02 -0.11856080436E+02  0.10059661506E+03  0.16852162076E+03  0.12499665428E+03 0.  0.
         25    2    1    2    0    0 -0.50151046631E+02  0.11856080436E+02  0.11985914560E+03  0.18068406878E+03  0.12499929521E+03 0.  0.
          5    1    4    4  502    0 -0.64991952478E+02 -0.57053053082E+01  0.74298365957E+01  0.65831579560E+02  0.47000000000E+01 0.  1.
         -5    1    4    4    0  502  0.14840905847E+02  0.17561385744E+02  0.11242930901E+03  0.11485248922E+03  0.47000000000E+01 0.  1.
          5    1    3    3  503    0  0.18204663840E+02 -0.65678281012E+02  0.72928561930E+02  0.99928532099E+02  0.47000000000E+01 0. -1.
         -5    1    3    3    0  503  0.31946382791E+02  0.53822200577E+02  0.27668053125E+02  0.68593088661E+02  0.47000000000E+01 0. -1.
<mgrwt>
<rscale>  0 0.13520486E+03</rscale>
<asrwt>0</asrwt>
<pdfrwt beam="1">  1        5 0.43820111E-01 0.13520547E+03</pdfrwt>
<pdfrwt beam="2">  1       -5 0.99038409E-02 0.13520547E+03</pdfrwt>
<totfact> 0.29513293E+02</totfact>
</mgrwt>
</event>
<event>
 8    1  0.1821556E-007  0.1400228E+03  0.7546771E-02  0.1213307E+00
          5   -1    0    0  501    0  0.00000000000E+00  0.00000000000E+00  0.16721405175E+04  0.16721471228E+04  0.47000000000E+01 0. -1.
         -5   -1    0    0    0  501 -0.00000000000E+00 -0.00000000000E+00 -0.32899231238E+02  0.33233257680E+02  0.47000000000E+01 0. -1.
         25    2    1    2    0    0 -0.47944570417E+02  0.41021747980E+02  0.13455171336E+03  0.19419201963E+03  0.12499964512E+03 0.  0.
         25    2    1    2    0    0  0.47944570417E+02 -0.41021747980E+02  0.15046895729E+04  0.15111883609E+04  0.12497233899E+03 0.  0.
          5    1    3    3  502    0 -0.86921103818E+02  0.26621204630E+02  0.60976208111E+02  0.10956347375E+03  0.47000000000E+01 0. -1.
         -5    1    3    3    0  502  0.38976533401E+02  0.14400543350E+02  0.73575505254E+02  0.84628545882E+02  0.47000000000E+01 0. -1.
          5    1    4    4  503    0 -0.31058796814E+02 -0.40797961008E+02  0.88003763822E+03  0.88154265760E+03  0.47000000000E+01 0. -1.
         -5    1    4    4    0  503  0.79003367231E+02 -0.22378697155E+00  0.62465193470E+03  0.62964570326E+03  0.47000000000E+01 0. -1.
<mgrwt>
<rscale>  0 0.14001668E+03</rscale>
<asrwt>0</asrwt>
<pdfrwt beam="1">  1        5 0.25727866E+00 0.14002277E+03</pdfrwt>
<pdfrwt beam="2">  1       -5 0.50876212E-02 0.14002277E+03</pdfrwt>
<totfact> 0.95461438E+00</totfact>
</mgrwt>
</event>
<event>
 8    1  0.1821556E-007  0.2405093E+03  0.7546771E-02  0.1119454E+00
         -5   -1    0    0    0  501 -0.00000000000E+00  0.00000000000E+00  0.48449865399E+03  0.48452145021E+03  0.47000000000E+01 0.  1.
          5   -1    0    0  501    0  0.00000000000E+00 -0.00000000000E+00 -0.11963341944E+03  0.11972570755E+03  0.47000000000E+01 0.  1.
         25    2    1    2    0    0  0.13809369502E+03 -0.15215190919E+03  0.19791990274E+03  0.31147555304E+03  0.12499864065E+03 0.  0.
         25    2    1    2    0    0 -0.13809369502E+03  0.15215190919E+03  0.16694533180E+03  0.29277160472E+03  0.12499758655E+03 0.  0.
          5    1    4    4  502    0 -0.37888729603E+02 -0.15204646534E+02  0.98190163184E+01  0.42252102771E+02  0.47000000000E+01 0. -1.
         -5    1    4    4    0  502 -0.10020496542E+03  0.16735655573E+03  0.15712631548E+03  0.25051950195E+03  0.47000000000E+01 0. -1.
          5    1    3    3  503    0 -0.17584368985E+01 -0.37344914085E+02 -0.67192954262E+01  0.38274974061E+02  0.47000000000E+01 0.  1.
         -5    1    3    3    0  503  0.13985213192E+03 -0.11480699511E+03  0.20463919817E+03  0.27320057898E+03  0.47000000000E+01 0.  1.
<mgrwt>
<rscale>  0 0.24050918E+03</rscale>
<asrwt>0</asrwt>
<pdfrwt beam="2">  1        5 0.18413994E-01 0.24050932E+03</pdfrwt>
<pdfrwt beam="1">  1       -5 0.74547106E-01 0.24050932E+03</pdfrwt>
<totfact> 0.35744941E+01</totfact>
</mgrwt>
</event>
<event>
 8    1  0.1821556E-007  0.1344925E+03  0.7546771E-02  0.1220941E+00
          5   -1    0    0  501    0  0.00000000000E+00  0.00000000000E+00  0.52433675496E+02  0.52643901128E+02  0.47000000000E+01 0. -1.
         -5   -1    0    0    0  501 -0.00000000000E+00 -0.00000000000E+00 -0.36896886514E+03  0.36899879870E+03  0.47000000000E+01 0. -1.
         25    2    1    2    0    0 -0.46830744385E+02  0.16425878191E+02 -0.21304980099E+03  0.25194457695E+03  0.12499169596E+03 0.  0.
         25    2    1    2    0    0  0.46830744385E+02 -0.16425878191E+02 -0.10348538865E+03  0.16969812288E+03  0.12500119659E+03 0.  0.
          5    1    4    4  502    0  0.46770118417E+02 -0.46313513109E+02 -0.44431620336E+01  0.66137864813E+02  0.47000000000E+01 0. -1.
         -5    1    4    4    0  502  0.60625968643E-01  0.29887634918E+02 -0.99042226621E+02  0.10356025807E+03  0.47000000000E+01 0. -1.
          5    1    3    3  503    0 -0.74706893364E+02 -0.16784352535E+02 -0.75453558153E+02  0.10760187658E+03  0.47000000000E+01 0.  1.
         -5    1    3    3    0  503  0.27876148979E+02  0.33210230726E+02 -0.13759624283E+03  0.14434270037E+03  0.47000000000E+01 0.  1.
<mgrwt>
<rscale>  0 0.13449027E+03</rscale>
<asrwt>0</asrwt>
<pdfrwt beam="1">  1        5 0.80851933E-02 0.13449248E+03</pdfrwt>
<pdfrwt beam="2">  1       -5 0.56782913E-01 0.13449248E+03</pdfrwt>
<totfact> 0.24163870E+02</totfact>
</mgrwt>
</event>
<event>
 8    1  0.1821556E-007  0.1855003E+03  0.7546771E-02  0.1162585E+00
          5   -1    0    0  501    0  0.00000000000E+00  0.00000000000E+00  0.83111065757E+02  0.83243854136E+02  0.47000000000E+01 0. -1.
         -5   -1    0    0    0  501 -0.00000000000E+00 -0.00000000000E+00 -0.46198081902E+03  0.46200472633E+03  0.47000000000E+01 0. -1.
         25    2    1    2    0    0 -0.43511081363E+02 -0.12995821963E+03 -0.27770372945E+03  0.33396064895E+03  0.12501200199E+03 0.  0.
         25    2    1    2    0    0  0.43511081363E+02  0.12995821963E+03 -0.10116602381E+03  0.21128793151E+03  0.12500269028E+03 0.  0.
          5    1    4    4  502    0  0.21623305783E+02  0.55644031462E+02 -0.11758702298E+03  0.13195690040E+03  0.47000000000E+01 0.  1.
         -5    1    4    4    0  502  0.21887775580E+02  0.74314188171E+02  0.16420999169E+02  0.79331031110E+02  0.47000000000E+01 0.  1.
          5    1    3    3  503    0  0.36657668105E+02 -0.14831413733E+02 -0.32413014041E+02  0.51346362514E+02  0.47000000000E+01 0. -1.
         -5    1    3    3    0  503 -0.80168749468E+02 -0.11512680590E+03 -0.24529071541E+03  0.28261428643E+03  0.47000000000E+01 0. -1.
<mgrwt>
<rscale>  0 0.18549871E+03</rscale>
<asrwt>0</asrwt>
<pdfrwt beam="1">  1        5 0.12798372E-01 0.18550028E+03</pdfrwt>
<pdfrwt beam="2">  1       -5 0.71086024E-01 0.18550028E+03</pdfrwt>
<totfact> 0.72535008E+01</totfact>
</mgrwt>
</event>
<event>
 8    1  0.1821556E-007  0.1667317E+03  0.7546771E-02  0.1181304E+00
         -5   -1    0    0    0  501 -0.00000000000E+00  0.00000000000E+00  0.12359485273E+03  0.12368418501E+03  0.47000000000E+01 0. -1.
          5   -1    0    0  501    0  0.00000000000E+00 -0.00000000000E+00 -0.23701133408E+03  0.23705793065E+03  0.47000000000E+01 0. -1.
         25    2    1    2    0    0  0.57033832340E+02  0.94418188485E+02 -0.15622522618E+02  0.16744671906E+03  0.12500675247E+03 0.  0.
         25    2    1    2    0    0 -0.57033832340E+02 -0.94418188485E+02 -0.97793958737E+02  0.19329539660E+03  0.12502719557E+03 0.  0.
          5    1    4    4  502    0 -0.86777591005E+02 -0.82876645542E+02 -0.10582431743E+03  0.16006175319E+03  0.47000000000E+01 0.  1.
         -5    1    4    4    0  502  0.29743758666E+02 -0.11541542943E+02  0.80303586886E+01  0.33233643401E+02  0.47000000000E+01 0.  1.
          5    1    3    3  503    0  0.20904647568E+02 -0.29400213149E+02 -0.12073063411E+02  0.38330479821E+02  0.47000000000E+01 0. -1.
         -5    1    3    3    0  503  0.36129184772E+02  0.12381840163E+03 -0.35494592076E+01  0.12911623924E+03  0.47000000000E+01 0. -1.
<mgrwt>
<rscale>  0 0.16672784E+03</rscale>
<asrwt>0</asrwt>
<pdfrwt beam="2">  1        5 0.36473738E-01 0.16673168E+03</pdfrwt>
<pdfrwt beam="1">  1       -5 0.19025049E-01 0.16673168E+03</pdfrwt>
<totfact> 0.14219954E+02</totfact>
</mgrwt>
</event>
<event>
 8    1  0.1821556E-007  0.1501347E+03  0.7546771E-02  0.1200312E+00
          5   -1    0    0  501    0  0.00000000000E+00  0.00000000000E+00  0.17150693545E+03  0.17157132309E+03  0.47000000000E+01 0. -1.
         -5   -1    0    0    0  501 -0.00000000000E+00 -0.00000000000E+00 -0.13221718905E+03  0.13230069947E+03  0.47000000000E+01 0. -1.
         25    2    1    2    0    0 -0.20179008788E+01 -0.83100932822E+02  0.32419098897E+02  0.15358016732E+03  0.12500413138E+03 0.  0.
         25    2    1    2    0    0  0.20179008788E+01  0.83100932822E+02  0.68706474987E+01  0.15029185524E+03  0.12502239397E+03 0.  0.
          5    1    3    3  502    0 -0.23057537640E+02 -0.46324535879E+02 -0.42670005485E+02  0.67234158242E+02  0.47000000000E+01 0.  1.
         -5    1    3    3    0  502  0.21039636761E+02 -0.36776396943E+02  0.75089104382E+02  0.86346009080E+02  0.47000000000E+01 0.  1.
          5    1    4    4  503    0  0.14886882019E+02  0.69306251890E+02 -0.52164677716E+02  0.88137502849E+02  0.47000000000E+01 0.  1.
         -5    1    4    4    0  503 -0.12868981140E+02  0.13794680933E+02  0.59035325215E+02  0.62154352389E+02  0.47000000000E+01 0.  1.
<mgrwt>
<rscale>  0 0.15013092E+03</rscale>
<asrwt>0</asrwt>
<pdfrwt beam="1">  1        5 0.26397059E-01 0.15013473E+03</pdfrwt>
<pdfrwt beam="2">  1       -5 0.20352483E-01 0.15013473E+03</pdfrwt>
<totfact> 0.22978025E+02</totfact>
</mgrwt>
</event>
<event>
 8    1  0.1821556E-007  0.1538466E+03  0.7546771E-02  0.1195828E+00
         -5   -1    0    0    0  501 -0.00000000000E+00  0.00000000000E+00  0.17764634070E+03  0.17770850392E+03  0.47000000000E+01 0.  1.
          5   -1    0    0  501    0  0.00000000000E+00 -0.00000000000E+00 -0.15738673359E+03  0.15745689540E+03  0.47000000000E+01 0.  1.
         25    2    1    2    0    0 -0.88854663307E+02 -0.12154142247E+02  0.75932281656E+02  0.17155544560E+03  0.12499074026E+03 0.  0.
         25    2    1    2    0    0  0.88854663307E+02  0.12154142247E+02 -0.55672674540E+02  0.16360995373E+03  0.12500358356E+03 0.  0.
          5    1    4    4  502    0  0.14318146874E+02 -0.17391137045E+02  0.35374221305E+02  0.42200551070E+02  0.47000000000E+01 0. -1.
         -5    1    4    4    0  502  0.74536516433E+02  0.29545279292E+02 -0.91046895845E+02  0.12140940266E+03  0.47000000000E+01 0. -1.
          5    1    3    3  503    0  0.51699779678E+01  0.42474585907E+02  0.96370052624E+01  0.44111007589E+02  0.47000000000E+01 0. -1.
         -5    1    3    3    0  503 -0.94024641275E+02 -0.54628728154E+02  0.66295276393E+02  0.12744443801E+03  0.47000000000E+01 0. -1.
<mgrwt>
<rscale>  0 0.15384397E+03</rscale>
<asrwt>0</asrwt>
<pdfrwt beam="2">  1        5 0.24223522E-01 0.15384658E+03</pdfrwt>
<pdfrwt beam="1">  1       -5 0.27340385E-01 0.15384658E+03</pdfrwt>
<totfact> 0.15564894E+02</totfact>
</mgrwt>
</event>
<event>
 8    1  0.1821556E-007  0.1285733E+03  0.7546771E-02  0.1229593E+00
         -5   -1    0    0    0  501 -0.00000000000E+00  0.00000000000E+00  0.54326535005E+03  0.54328568043E+03  0.47000000000E+01 0. -1.
          5   -1    0    0  501    0  0.00000000000E+00 -0.00000000000E+00 -0.30271395901E+02  0.30634089015E+02  0.47000000000E+01 0. -1.
         25    2    1    2    0    0  0.29958723819E+02  0.22719347307E+01  0.26783429484E+03  0.29709647145E+03  0.12501366739E+03 0.  0.
         25    2    1    2    0    0 -0.29958723819E+02 -0.22719347307E+01  0.24515965930E+03  0.27682329799E+03  0.12500077177E+03 0.  0.
          5    1    4    4  502    0 -0.43116514020E+02 -0.33230188438E+02  0.37180647621E+02  0.66089104718E+02  0.47000000000E+01 0. -1.
         -5    1    4    4    0  502  0.13157790202E+02  0.30958253708E+02  0.20797901168E+03  0.21073419328E+03  0.47000000000E+01 0. -1.
          5    1    3    3  503    0 -0.42297588621E+02  0.21649167429E+02  0.63508868827E+02  0.79455892627E+02  0.47000000000E+01 0. -1.
         -5    1    3    3    0  503  0.72256312440E+02 -0.19377232698E+02  0.20432542602E+03  0.21764057883E+03  0.47000000000E+01 0. -1.
<mgrwt>
<rscale>  0 0.12857021E+03</rscale>
<asrwt>0</asrwt>
<pdfrwt beam="2">  1        5 0.46866017E-02 0.12857334E+03</pdfrwt>
<pdfrwt beam="1">  1       -5 0.83608739E-01 0.12857334E+03</pdfrwt>
<totfact> 0.24974971E+02</totfact>
</mgrwt>
</event>
<event>
 8    1  0.1821556E-007  0.1529779E+03  0.7546771E-02  0.1196868E+00
          5   -1    0    0  501    0  0.00000000000E+00  0.00000000000E+00  0.63521294785E+02  0.63694936150E+02  0.47000000000E+01 0.  1.
         -5   -1    0    0    0  501 -0.00000000000E+00 -0.00000000000E+00 -0.39937989082E+03  0.39940754523E+03  0.47000000000E+01 0.  1.
         25    2    1    2    0    0  0.69038658466E+02  0.54796003693E+02 -0.23317412928E+03  0.27887706871E+03  0.12503322161E+03 0.  0.
         25    2    1    2    0    0 -0.69038658466E+02 -0.54796003693E+02 -0.10268446675E+03  0.18422541267E+03  0.12500385825E+03 0.  0.
          5    1    3    3  502    0  0.50687360915E+02  0.20422908516E+02 -0.14533364892E+02  0.56741628844E+02  0.47000000000E+01 0.  1.
         -5    1    3    3    0  502  0.18351297551E+02  0.34373095177E+02 -0.21864076439E+03  0.22213543987E+03  0.47000000000E+01 0.  1.
          5    1    4    4  503    0 -0.61650997166E+02  0.24281258782E+02 -0.19753002801E+02  0.69301486992E+02  0.47000000000E+01 0.  1.
         -5    1    4    4    0  503 -0.73876613003E+01 -0.79077262475E+02 -0.82931463954E+02  0.11492392568E+03  0.47000000000E+01 0.  1.
<mgrwt>
<rscale>  0 0.15297192E+03</rscale>
<asrwt>0</asrwt>
<pdfrwt beam="1">  1        5 0.97879914E-02 0.15297792E+03</pdfrwt>
<pdfrwt beam="2">  1       -5 0.61458543E-01 0.15297792E+03</pdfrwt>
<totfact> 0.15239827E+02</totfact>
</mgrwt>
</event>
<event>
 8    1  0.1821556E-007  0.1321264E+03  0.7546771E-02  0.1224336E+00
          5   -1    0    0  501    0  0.00000000000E+00  0.00000000000E+00  0.81635968566E+03  0.81637321513E+03  0.47000000000E+01 0. -1.
         -5   -1    0    0    0  501 -0.00000000000E+00 -0.00000000000E+00 -0.23360878491E+02  0.23828987470E+02  0.47000000000E+01 0. -1.
         25    2    1    2    0    0 -0.17225537554E+02  0.39184235718E+02  0.26753308841E+03  0.29838120872E+03  0.12500107539E+03 0.  0.
         25    2    1    2    0    0  0.17225537554E+02 -0.39184235718E+02  0.52546571876E+03  0.54182099388E+03  0.12499457724E+03 0.  0.
          5    1    4    4  502    0  0.63416324720E+02 -0.49804321942E+02  0.38857473480E+03  0.39688098373E+03  0.47000000000E+01 0. -1.
         -5    1    4    4    0  502 -0.46190787166E+02  0.10620086224E+02  0.13689098396E+03  0.14494001014E+03  0.47000000000E+01 0. -1.
          5    1    3    3  503    0  0.29938889888E+02  0.15306663829E+00  0.21630206653E+03  0.21841482216E+03  0.47000000000E+01 0. -1.
         -5    1    3    3    0  503 -0.47164427441E+02  0.39031169080E+02  0.51231021888E+02  0.79966386559E+02  0.47000000000E+01 0. -1.
<mgrwt>
<rscale>  0 0.13212489E+03</rscale>
<asrwt>0</asrwt>
<pdfrwt beam="1">  1        5 0.12563085E+00 0.13212643E+03</pdfrwt>
<pdfrwt beam="2">  1       -5 0.36310303E-02 0.13212643E+03</pdfrwt>
<totfact> 0.14154151E+02</totfact>
</mgrwt>
</event>
<event>
 8    1  0.1821556E-007  0.1331157E+03  0.7546771E-02  0.1222910E+00
          5   -1    0    0  501    0  0.00000000000E+00  0.00000000000E+00  0.74116448157E+02  0.74265320894E+02  0.47000000000E+01 0. -1.
         -5   -1    0    0    0  501 -0.00000000000E+00 -0.00000000000E+00 -0.32580735150E+03  0.32584125014E+03  0.47000000000E+01 0. -1.
         25    2    1    2    0    0 -0.30459143698E+02  0.34094083780E+02 -0.22928665861E+03  0.26511864040E+03  0.12500142273E+03 0.  0.
         25    2    1    2    0    0  0.30459143698E+02 -0.34094083780E+02 -0.22404244727E+02  0.13498793063E+03  0.12501849964E+03 0.  0.
          5    1    3    3  502    0 -0.47594756169E+02 -0.29100998541E+02 -0.53346945815E+02  0.77331206887E+02  0.47000000000E+01 0.  1.
         -5    1    3    3    0  502  0.17135612470E+02  0.63195082322E+02 -0.17593971280E+03  0.18778743351E+03  0.47000000000E+01 0.  1.
          5    1    4    4  503    0  0.25878271674E+02 -0.63663455970E+02 -0.56710593313E+02  0.89223886739E+02  0.47000000000E+01 0. -1.
         -5    1    4    4    0  503  0.45808720240E+01  0.29569372190E+02  0.34306348586E+02  0.45764043894E+02  0.47000000000E+01 0. -1.
<mgrwt>
<rscale>  0 0.13311170E+03</rscale>
<asrwt>0</asrwt>
<pdfrwt beam="1">  1        5 0.11416590E-01 0.13311571E+03</pdfrwt>
<pdfrwt beam="2">  1       -5 0.50138267E-01 0.13311571E+03</pdfrwt>
<totfact> 0.17253618E+02</totfact>
</mgrwt>
</event>
<event>
 8    1  0.1821556E-007  0.1578035E+03  0.7546771E-02  0.1191201E+00
          5   -1    0    0  501    0  0.00000000000E+00  0.00000000000E+00  0.32973103044E+02  0.33306388642E+02  0.47000000000E+01 0. -1.
         -5   -1    0    0    0  501 -0.00000000000E+00 -0.00000000000E+00 -0.75215861225E+03  0.75217329651E+03  0.47000000000E+01 0. -1.
         25    2    1    2    0    0 -0.97523468385E+01  0.95811602980E+02 -0.37467271188E+03  0.40654562804E+03  0.12499894045E+03 0.  0.
         25    2    1    2    0    0  0.97523468385E+01 -0.95811602980E+02 -0.34451279732E+03  0.37893405711E+03  0.12500792210E+03 0.  0.
          5    1    3    3  502    0  0.42644800978E+02  0.46058382401E+02 -0.73398076401E+02  0.96691888281E+02  0.47000000000E+01 0.  1.
         -5    1    3    3    0  502 -0.52397147816E+02  0.49753220579E+02 -0.30127463548E+03  0.30985373976E+03  0.47000000000E+01 0.  1.
          5    1    4    4  503    0  0.60595782211E+01 -0.86727747588E+02 -0.35397140588E+03  0.36452197035E+03  0.47000000000E+01 0.  1.
         -5    1    4    4    0  503  0.36927686174E+01 -0.90838553922E+01  0.94586085590E+01  0.14412086758E+02  0.47000000000E+01 0.  1.
<mgrwt>
<rscale>  0 0.15780175E+03</rscale>
<asrwt>0</asrwt>
<pdfrwt beam="1">  1        5 0.50995525E-02 0.15780352E+03</pdfrwt>
<pdfrwt beam="2">  1       -5 0.11574346E+00 0.15780352E+03</pdfrwt>
<totfact> 0.10542870E+02</totfact>
</mgrwt>
</event>
<event>
 8    1  0.1821556E-007  0.1397301E+03  0.7546771E-02  0.1213700E+00
          5   -1    0    0  501    0  0.00000000000E+00  0.00000000000E+00  0.33210134664E+02  0.33541065045E+02  0.47000000000E+01 0. -1.
         -5   -1    0    0    0  501 -0.00000000000E+00 -0.00000000000E+00 -0.61227971642E+03  0.61229775529E+03  0.47000000000E+01 0. -1.
         25    2    1    2    0    0  0.59487837578E+02  0.18985371940E+02 -0.35819994686E+03  0.38448103430E+03  0.12497686443E+03 0.  0.
         25    2    1    2    0    0 -0.59487837578E+02 -0.18985371940E+02 -0.22086963490E+03  0.26135778603E+03  0.12500099813E+03 0.  0.
          5    1    4    4  502    0 -0.28594684514E+02  0.63052383318E+01  0.65843591726E+01  0.30378541746E+02  0.47000000000E+01 0.  1.
         -5    1    4    4    0  502 -0.30893153064E+02 -0.25290610271E+02 -0.22745399407E+03  0.23097924429E+03  0.47000000000E+01 0.  1.
          5    1    3    3  503    0  0.91235090395E+02  0.31833184878E+02 -0.31279395724E+03  0.32741310766E+03  0.47000000000E+01 0. -1.
         -5    1    3    3    0  503 -0.31747252817E+02 -0.12847812939E+02 -0.45405989614E+02  0.57067926645E+02  0.47000000000E+01 0. -1.
<mgrwt>
<rscale>  0 0.13972469E+03</rscale>
<asrwt>0</asrwt>
<pdfrwt beam="1">  1        5 0.51360957E-02 0.13973009E+03</pdfrwt>
<pdfrwt beam="2">  1       -5 0.94223715E-01 0.13973009E+03</pdfrwt>
<totfact> 0.16638489E+02</totfact>
</mgrwt>
</event>
<event>
 8    1  0.1821556E-007  0.1277414E+03  0.7546771E-02  0.1230848E+00
         -5   -1    0    0    0  501 -0.00000000000E+00  0.00000000000E+00  0.47215627263E+02  0.47448977416E+02  0.47000000000E+01 0. -1.
          5   -1    0    0  501    0  0.00000000000E+00 -0.00000000000E+00 -0.36995489199E+03  0.36998474578E+03  0.47000000000E+01 0. -1.
         25    2    1    2    0    0  0.19483531165E+02 -0.17705092951E+02 -0.10663313549E+03  0.16639857667E+03  0.12499912971E+03 0.  0.
         25    2    1    2    0    0 -0.19483531165E+02  0.17705092951E+02 -0.21610612924E+03  0.25103514653E+03  0.12499482948E+03 0.  0.
          5    1    4    4  502    0  0.16551658667E+02 -0.39560534816E+02 -0.28910459813E+02  0.51931666699E+02  0.47000000000E+01 0.  1.
         -5    1    4    4    0  502 -0.36035189832E+02  0.57265627767E+02 -0.18719566942E+03  0.19910347983E+03  0.47000000000E+01 0.  1.
          5    1    3    3  503    0  0.52637194066E+02 -0.43296070302E+02 -0.10366191594E+03  0.12414953370E+03  0.47000000000E+01 0.  1.
         -5    1    3    3    0  503 -0.33153662901E+02  0.25590977351E+02 -0.29712195548E+01  0.42249042962E+02  0.47000000000E+01 0.  1.
<mgrwt>
<rscale>  0 0.12774033E+03</rscale>
<asrwt>0</asrwt>
<pdfrwt beam="2">  1        5 0.56936382E-01 0.12774138E+03</pdfrwt>
<pdfrwt beam="1">  1       -5 0.72841894E-02 0.12774138E+03</pdfrwt>
<totfact> 0.28189230E+02</totfact>
</mgrwt>
</event>
<event>
 8    1  0.1821556E-007  0.1768645E+03  0.7546771E-02  0.1170888E+00
         -5   -1    0    0    0  501 -0.00000000000E+00  0.00000000000E+00  0.10934021764E+03  0.10944118600E+03  0.47000000000E+01 0. -1.
          5   -1    0    0  501    0  0.00000000000E+00 -0.00000000000E+00 -0.28592267467E+03  0.28596130139E+03  0.47000000000E+01 0. -1.
         25    2    1    2    0    0  0.80543865653E+02  0.95720088837E+02 -0.83201790125E+02  0.19539997982E+03  0.12493584167E+03 0.  0.
         25    2    1    2    0    0 -0.80543865653E+02 -0.95720088837E+02 -0.93380666909E+02  0.20000250757E+03  0.12502561490E+03 0.  0.
          5    1    3    3  502    0 -0.26386524410E+02  0.46170710123E+02 -0.44334827035E+01  0.53569850780E+02  0.47000000000E+01 0.  1.
         -5    1    3    3    0  502  0.10693039006E+03  0.49549378714E+02 -0.78768307422E+02  0.14183012904E+03  0.47000000000E+01 0.  1.
          5    1    4    4  503    0 -0.19917030378E+02 -0.23053308842E+02  0.30949481032E+02  0.43681844327E+02  0.47000000000E+01 0. -1.
         -5    1    4    4    0  503 -0.60626835275E+02 -0.72666779995E+02 -0.12433014794E+03  0.15632066324E+03  0.47000000000E+01 0. -1.
<mgrwt>
<rscale>  0 0.17684864E+03</rscale>
<asrwt>0</asrwt>
<pdfrwt beam="2">  1        5 0.43998841E-01 0.17686451E+03</pdfrwt>
<pdfrwt beam="1">  1       -5 0.16832310E-01 0.17686451E+03</pdfrwt>
<totfact> 0.12348467E+02</totfact>
</mgrwt>
</event>
<event>
 8    1  0.1821556E-007  0.1437462E+03  0.7546771E-02  0.1208377E+00
          5   -1    0    0  501    0  0.00000000000E+00  0.00000000000E+00  0.31009342698E+02  0.31363503225E+02  0.47000000000E+01 0.  1.
         -5   -1    0    0    0  501 -0.00000000000E+00 -0.00000000000E+00 -0.98770787313E+03  0.98771905553E+03  0.47000000000E+01 0.  1.
         25    2    1    2    0    0  0.31902129704E+02  0.63398236183E+02 -0.77082660817E+03  0.78411518052E+03  0.12500349689E+03 0.  0.
         25    2    1    2    0    0 -0.31902129704E+02 -0.63398236183E+02 -0.18587192227E+03  0.23496737823E+03  0.12499686042E+03 0.  0.
          5    1    3    3  502    0 -0.94447812509E+01  0.69764061693E+02 -0.68391515376E+03  0.68754509361E+03  0.47000000000E+01 0. -1.
         -5    1    3    3    0  502  0.41346910955E+02 -0.63658255101E+01 -0.86911454403E+02  0.96570086913E+02  0.47000000000E+01 0. -1.
          5    1    4    4  503    0 -0.20142492846E+01 -0.33269699275E+02 -0.18917093353E+03  0.19214229671E+03  0.47000000000E+01 0.  1.
         -5    1    4    4    0  503 -0.29887880419E+02 -0.30128536908E+02  0.32990112645E+01  0.42825081524E+02  0.47000000000E+01 0.  1.
<mgrwt>
<rscale>  0 0.14374471E+03</rscale>
<asrwt>0</asrwt>
<pdfrwt beam="1">  1        5 0.47987722E-02 0.14374615E+03</pdfrwt>
<pdfrwt beam="2">  1       -5 0.15198314E+00 0.14374615E+03</pdfrwt>
<totfact> 0.55397893E+01</totfact>
</mgrwt>
</event>
<event>
 8    1  0.1821556E-007  0.1305160E+03  0.7546771E-02  0.1226709E+00
          5   -1    0    0  501    0  0.00000000000E+00  0.00000000000E+00  0.20318099444E+03  0.20323534757E+03  0.47000000000E+01 0.  1.
         -5   -1    0    0    0  501 -0.00000000000E+00 -0.00000000000E+00 -0.84254996829E+02  0.84385985156E+02  0.47000000000E+01 0.  1.
         25    2    1    2    0    0 -0.37312117564E+02 -0.41244914446E+01  0.47568780962E+02  0.13887230532E+03  0.12495408243E+03 0.  0.
         25    2    1    2    0    0  0.37312117564E+02  0.41244914446E+01  0.71357216651E+02  0.14874902741E+03  0.12500086096E+03 0.  0.
          5    1    4    4  502    0 -0.26549632103E+02  0.33104762636E+02 -0.72434742907E+01  0.43305498424E+02  0.47000000000E+01 0. -1.
         -5    1    4    4    0  502  0.63861749666E+02 -0.28980271191E+02  0.78600690942E+02  0.10544352899E+03  0.47000000000E+01 0. -1.
          5    1    3    3  503    0 -0.32744408449E+02  0.77010327252E+01  0.89016021511E+02  0.95275622671E+02  0.47000000000E+01 0.  1.
         -5    1    3    3    0  503 -0.45677091151E+01 -0.11825524170E+02 -0.41447240550E+02  0.43596682645E+02  0.47000000000E+01 0.  1.
<mgrwt>
<rscale>  0 0.13050478E+03</rscale>
<asrwt>0</asrwt>
<pdfrwt beam="1">  1        5 0.31272871E-01 0.13051598E+03</pdfrwt>
<pdfrwt beam="2">  1       -5 0.12976564E-01 0.13051598E+03</pdfrwt>
<totfact> 0.35791905E+02</totfact>
</mgrwt>
</event>
<event>
 8    1  0.1821556E-007  0.1342212E+03  0.7546771E-02  0.1221324E+00
          5   -1    0    0  501    0  0.00000000000E+00  0.00000000000E+00  0.30458614380E+02  0.30819104302E+02  0.47000000000E+01 0.  1.
         -5   -1    0    0    0  501 -0.00000000000E+00 -0.00000000000E+00 -0.62959241792E+03  0.62960996077E+03  0.47000000000E+01 0.  1.
         25    2    1    2    0    0 -0.11230485783E+02  0.47583901907E+02 -0.38480565802E+03  0.40754230549E+03  0.12499993916E+03 0.  0.
         25    2    1    2    0    0  0.11230485783E+02 -0.47583901907E+02 -0.21432814552E+03  0.25288675958E+03  0.12499923071E+03 0.  0.
          5    1    4    4  502    0 -0.43848723734E+02  0.17135708465E+02 -0.57614228690E+02  0.74550871391E+02  0.47000000000E+01 0.  1.
         -5    1    4    4    0  502  0.55079209517E+02 -0.64719610372E+02 -0.15671391683E+03  0.17833588819E+03  0.47000000000E+01 0.  1.
          5    1    3    3  503    0 -0.64187171810E+02  0.40924207373E+02 -0.27471125486E+03  0.28510199459E+03  0.47000000000E+01 0. -1.
         -5    1    3    3    0  503  0.52956686027E+02  0.66596945343E+01 -0.11009440316E+03  0.12244031090E+03  0.47000000000E+01 0. -1.
<mgrwt>
<rscale>  0 0.13422106E+03</rscale>
<asrwt>0</asrwt>
<pdfrwt beam="1">  1        5 0.47150206E-02 0.13422122E+03</pdfrwt>
<pdfrwt beam="2">  1       -5 0.96889441E-01 0.13422122E+03</pdfrwt>
<totfact> 0.17697685E+02</totfact>
</mgrwt>
</event>
<event>
 8    1  0.1821556E-007  0.1538590E+03  0.7546771E-02  0.1195827E+00
         -5   -1    0    0    0  501 -0.00000000000E+00  0.00000000000E+00  0.78570151394E+03  0.78571557132E+03  0.47000000000E+01 0. -1.
          5   -1    0    0  501    0  0.00000000000E+00 -0.00000000000E+00 -0.29923029780E+02  0.30289894540E+02  0.47000000000E+01 0. -1.
         25    2    1    2    0    0  0.55345801430E+02  0.70484154850E+02  0.37395650384E+03  0.40434951352E+03  0.12499555391E+03 0.  0.
         25    2    1    2    0    0 -0.55345801430E+02 -0.70484154850E+02  0.38182198032E+03  0.41165595234E+03  0.12506568122E+03 0.  0.
          5    1    4    4  502    0  0.18100805170E+02 -0.98944796969E+01  0.23904409090E+03  0.23997855585E+03  0.47000000000E+01 0. -1.
         -5    1    4    4    0  502 -0.73446606600E+02 -0.60589675153E+02  0.14277788942E+03  0.17167739649E+03  0.47000000000E+01 0. -1.
          5    1    3    3  503    0  0.19728050454E+00  0.56221796470E+02  0.32264256492E+03  0.32753815659E+03  0.47000000000E+01 0.  1.
         -5    1    3    3    0  503  0.55148520925E+02  0.14262358380E+02  0.51313938916E+02  0.76811356933E+02  0.47000000000E+01 0.  1.
<mgrwt>
<rscale>  0 0.15384477E+03</rscale>
<asrwt>0</asrwt>
<pdfrwt beam="2">  1        5 0.46328445E-02 0.15385902E+03</pdfrwt>
<pdfrwt beam="1">  1       -5 0.12090647E+00 0.15385902E+03</pdfrwt>
<totfact> 0.10982105E+02</totfact>
</mgrwt>
</event>
<event>
 8    1  0.1821556E-007  0.1951478E+03  0.7546771E-02  0.1153899E+00
          5   -1    0    0  501    0  0.00000000000E+00  0.00000000000E+00  0.87632485737E+02  0.87758432965E+02  0.47000000000E+01 0.  1.
         -5   -1    0    0    0  501 -0.00000000000E+00 -0.00000000000E+00 -0.44310318878E+03  0.44312811456E+03  0.47000000000E+01 0.  1.
         25    2    1    2    0    0 -0.14984252465E+03  0.23784058062E+01 -0.21552170493E+03  0.29074435281E+03  0.12499693753E+03 0.  0.
         25    2    1    2    0    0  0.14984252465E+03 -0.23784058062E+01 -0.13994899812E+03  0.24014219471E+03  0.12499645034E+03 0.  0.
          5    1    3    3  502    0 -0.47568394391E+00 -0.13243651287E+02  0.11729804080E+02  0.18311168133E+02  0.47000000000E+01 0. -1.
         -5    1    3    3    0  502 -0.14936684070E+03  0.15622057093E+02 -0.22725150901E+03  0.27243318468E+03  0.47000000000E+01 0. -1.
          5    1    4    4  503    0  0.71060535569E+02  0.89185406630E+01 -0.14338158160E+03  0.16034184739E+03  0.47000000000E+01 0.  1.
         -5    1    4    4    0  503  0.78781989079E+02 -0.11296946469E+02  0.34325834776E+01  0.79800347318E+02  0.47000000000E+01 0.  1.
<mgrwt>
<rscale>  0 0.19514775E+03</rscale>
<asrwt>0</asrwt>
<pdfrwt beam="1">  1        5 0.13493527E-01 0.19514782E+03</pdfrwt>
<pdfrwt beam="2">  1       -5 0.68181326E-01 0.19514782E+03</pdfrwt>
<totfact> 0.73520335E+01</totfact>
</mgrwt>
</event>
<event>
 8    1  0.1821556E-007  0.1357341E+03  0.7546771E-02  0.1219188E+00
          5   -1    0    0  501    0  0.00000000000E+00  0.00000000000E+00  0.65004357321E+02  0.65174047525E+02  0.47000000000E+01 0. -1.
         -5   -1    0    0    0  501 -0.00000000000E+00 -0.00000000000E+00 -0.29783874247E+03  0.29787582399E+03  0.47000000000E+01 0. -1.
         25    2    1    2    0    0  0.27766555862E+02 -0.45042405521E+02 -0.15711822250E+03  0.20762922048E+03  0.12499582968E+03 0.  0.
         25    2    1    2    0    0 -0.27766555862E+02  0.45042405521E+02 -0.75716162651E+02  0.15542065103E+03  0.12499136594E+03 0.  0.
          5    1    4    4  502    0  0.11819124073E+02  0.57866374108E+02 -0.92876680642E+02  0.11016522479E+03  0.47000000000E+01 0.  1.
         -5    1    4    4    0  502 -0.39585679935E+02 -0.12823968587E+02  0.17160517992E+02  0.45255426238E+02  0.47000000000E+01 0.  1.
          5    1    3    3  503    0  0.90546797777E+01 -0.82361235440E+02 -0.61830120629E+02  0.10349113076E+03  0.47000000000E+01 0.  1.
         -5    1    3    3    0  503  0.18711876084E+02  0.37318829919E+02 -0.95288101870E+02  0.10413808972E+03  0.47000000000E+01 0.  1.
<mgrwt>
<rscale>  0 0.13573311E+03</rscale>
<asrwt>0</asrwt>
<pdfrwt beam="1">  1        5 0.10016576E-01 0.13573414E+03</pdfrwt>
<pdfrwt beam="2">  1       -5 0.45837250E-01 0.13573414E+03</pdfrwt>
<totfact> 0.26384191E+02</totfact>
</mgrwt>
</event>
<event>
 8    1  0.1821556E-007  0.1284089E+03  0.7546771E-02  0.1229838E+00
          5   -1    0    0  501    0  0.00000000000E+00  0.00000000000E+00  0.11464758038E+03  0.11474387865E+03  0.47000000000E+01 0. -1.
         -5   -1    0    0    0  501 -0.00000000000E+00 -0.00000000000E+00 -0.16598655138E+03  0.16605307958E+03  0.47000000000E+01 0. -1.
         25    2    1    2    0    0  0.25025640730E+02 -0.15380161081E+02 -0.77178867986E+02  0.14981393373E+03  0.12499922010E+03 0.  0.
         25    2    1    2    0    0 -0.25025640730E+02  0.15380161081E+02  0.25839896987E+02  0.13098302450E+03  0.12500408146E+03 0.  0.
          5    1    3    3  502    0 -0.75263104959E+01  0.23524096897E+02 -0.93104126087E+02  0.96439083254E+02  0.47000000000E+01 0. -1.
         -5    1    3    3    0  502  0.32551951226E+02 -0.38904257979E+02  0.15925258100E+02  0.53374850474E+02  0.47000000000E+01 0. -1.
          5    1    4    4  503    0  0.28897568376E+02 -0.63434846934E+01 -0.35426310793E+02  0.46394210334E+02  0.47000000000E+01 0.  1.
         -5    1    4    4    0  503 -0.53923209107E+02  0.21723645775E+02  0.61266207780E+02  0.84588814165E+02  0.47000000000E+01 0.  1.
<mgrwt>
<rscale>  0 0.12840774E+03</rscale>
<asrwt>0</asrwt>
<pdfrwt beam="1">  1        5 0.17650614E-01 0.12840893E+03</pdfrwt>
<pdfrwt beam="2">  1       -5 0.25548918E-01 0.12840893E+03</pdfrwt>
<totfact> 0.30205482E+02</totfact>
</mgrwt>
</event>
<event>
 8    1  0.1821556E-007  0.1300473E+03  0.7546771E-02  0.1227391E+00
          5   -1    0    0  501    0  0.00000000000E+00  0.00000000000E+00  0.44257337453E+02  0.44506200899E+02  0.47000000000E+01 0.  1.
         -5   -1    0    0    0  501 -0.00000000000E+00 -0.00000000000E+00 -0.41655363758E+03  0.41658015192E+03  0.47000000000E+01 0.  1.
         25    2    1    2    0    0  0.31023385987E+02 -0.18006303376E+02 -0.25371755338E+03  0.28510506490E+03  0.12500249478E+03 0.  0.
         25    2    1    2    0    0 -0.31023385987E+02  0.18006303376E+02 -0.11857874675E+03  0.17598128792E+03  0.12498726767E+03 0.  0.
          5    1    4    4  502    0 -0.18604115727E+02  0.39792878946E+02 -0.13736667851E+03  0.14429580972E+03  0.47000000000E+01 0.  1.
         -5    1    4    4    0  502 -0.12419270259E+02 -0.21786575570E+02  0.18787931767E+02  0.31685478203E+02  0.47000000000E+01 0.  1.
          5    1    3    3  503    0  0.26526009700E+02 -0.28454353774E+02 -0.26531576283E+03  0.26819363051E+03  0.47000000000E+01 0. -1.
         -5    1    3    3    0  503  0.44973762867E+01  0.10448050398E+02  0.11598209456E+02  0.16911434391E+02  0.47000000000E+01 0. -1.
<mgrwt>
<rscale>  0 0.13004364E+03</rscale>
<asrwt>0</asrwt>
<pdfrwt beam="1">  1        5 0.68300043E-02 0.13004730E+03</pdfrwt>
<pdfrwt beam="2">  1       -5 0.64106355E-01 0.13004730E+03</pdfrwt>
<totfact> 0.24412406E+02</totfact>
</mgrwt>
</event>
<event>
 8    1  0.1821556E-007  0.1262629E+03  0.7546771E-02  0.1233109E+00
         -5   -1    0    0    0  501 -0.00000000000E+00  0.00000000000E+00  0.17660075406E+03  0.17666328519E+03  0.47000000000E+01 0.  1.
          5   -1    0    0  501    0  0.00000000000E+00 -0.00000000000E+00 -0.96245687472E+02  0.96360377526E+02  0.47000000000E+01 0.  1.
         25    2    1    2    0    0  0.34350139488E+01 -0.17483352913E+02  0.74550390440E+02  0.14662905802E+03  0.12499941197E+03 0.  0.
         25    2    1    2    0    0 -0.34350139488E+01  0.17483352913E+02  0.58046761437E+01  0.12639460469E+03  0.12499773950E+03 0.  0.
          5    1    4    4  502    0  0.58648585063E+02  0.21545793341E+02 -0.58201134016E+01  0.62927271199E+02  0.47000000000E+01 0. -1.
         -5    1    4    4    0  502 -0.62083599011E+02 -0.40624404280E+01  0.11624789545E+02  0.63467333491E+02  0.47000000000E+01 0. -1.
          5    1    3    3  503    0  0.48974554684E+02  0.50270362585E+01 -0.74904622909E+01  0.50019747355E+02  0.47000000000E+01 0. -1.
         -5    1    3    3    0  503 -0.45539540736E+02 -0.22510389171E+02  0.82040852731E+02  0.96609310668E+02  0.47000000000E+01 0. -1.
<mgrwt>
<rscale>  0 0.12626249E+03</rscale>
<asrwt>0</asrwt>
<pdfrwt beam="2">  1        5 0.14820661E-01 0.12626290E+03</pdfrwt>
<pdfrwt beam="1">  1       -5 0.27182979E-01 0.12626290E+03</pdfrwt>
<totfact> 0.36624792E+02</totfact>
</mgrwt>
</event>
<event>
 8    1  0.1821556E-007  0.1916052E+03  0.7546771E-02  0.1157025E+00
         -5   -1    0    0    0  501 -0.00000000000E+00  0.00000000000E+00  0.35252524774E+03  0.35255657744E+03  0.47000000000E+01 0.  1.
          5   -1    0    0  501    0  0.00000000000E+00 -0.00000000000E+00 -0.10480044478E+03  0.10490578262E+03  0.47000000000E+01 0.  1.
         25    2    1    2    0    0 -0.13321227927E+03  0.57770639787E+02  0.14326766809E+03  0.23923343681E+03  0.12499621754E+03 0.  0.
         25    2    1    2    0    0  0.13321227927E+03 -0.57770639787E+02  0.10445713486E+03  0.21822892324E+03  0.12501844561E+03 0.  0.
          5    1    3    3  502    0 -0.10519089614E+03  0.75203483803E+01  0.14746399390E+03  0.18135434863E+03  0.47000000000E+01 0.  1.
         -5    1    3    3    0  502 -0.28021383134E+02  0.50250291407E+02 -0.41963258010E+01  0.57879088188E+02  0.47000000000E+01 0.  1.
          5    1    4    4  503    0  0.28733327933E+02  0.38617689929E+02  0.17002948945E+02  0.51265196600E+02  0.47000000000E+01 0. -1.
         -5    1    4    4    0  503  0.10447895134E+03 -0.96388329716E+02  0.87454185919E+02  0.16696372664E+03  0.47000000000E+01 0. -1.
<mgrwt>
<rscale>  0 0.19160162E+03</rscale>
<asrwt>0</asrwt>
<pdfrwt beam="2">  1        5 0.16133658E-01 0.19160525E+03</pdfrwt>
<pdfrwt beam="1">  1       -5 0.54245167E-01 0.19160525E+03</pdfrwt>
<totfact> 0.87590824E+01</totfact>
</mgrwt>
</event>
<event>
 8    1  0.1821556E-007  0.1271163E+03  0.7546771E-02  0.1231800E+00
          5   -1    0    0  501    0  0.00000000000E+00  0.00000000000E+00  0.29147618237E+03  0.29151407323E+03  0.47000000000E+01 0.  1.
         -5   -1    0    0    0  501 -0.00000000000E+00 -0.00000000000E+00 -0.60513303905E+02  0.60695551316E+02  0.47000000000E+01 0.  1.
         25    2    1    2    0    0  0.19622229744E+02 -0.12161251553E+02  0.63854794428E+02  0.14224849625E+03  0.12499708787E+03 0.  0.
         25    2    1    2    0    0 -0.19622229744E+02  0.12161251553E+02  0.16710808404E+03  0.20996112829E+03  0.12500254278E+03 0.  0.
          5    1    3    3  502    0  0.48471882380E+02 -0.52093767832E+02  0.58942254422E+02  0.92517908454E+02  0.47000000000E+01 0. -1.
         -5    1    3    3    0  502 -0.28849652636E+02  0.39932516279E+02  0.49125400056E+01  0.49730587800E+02  0.47000000000E+01 0. -1.
          5    1    4    4  503    0 -0.14072614800E+02  0.12420714428E+02  0.18740389035E+03  0.18840016123E+03  0.47000000000E+01 0.  1.
         -5    1    4    4    0  503 -0.55496149446E+01 -0.25946287502E+00 -0.20295806307E+02  0.21560967062E+02  0.47000000000E+01 0.  1.
<mgrwt>
<rscale>  0 0.12711500E+03</rscale>
<asrwt>0</asrwt>
<pdfrwt beam="1">  1        5 0.44859423E-01 0.12711634E+03</pdfrwt>
<pdfrwt beam="2">  1       -5 0.93266727E-02 0.12711634E+03</pdfrwt>
<totfact> 0.30523272E+02</totfact>
</mgrwt>
</event>
<event>
 8    1  0.1821556E-007  0.1379448E+03  0.7546771E-02  0.1216126E+00
         -5   -1    0    0    0  501 -0.00000000000E+00  0.00000000000E+00  0.31661484844E+03  0.31664973117E+03  0.47000000000E+01 0.  1.
          5   -1    0    0  501    0  0.00000000000E+00 -0.00000000000E+00 -0.60272355179E+02  0.60455328953E+02  0.47000000000E+01 0.  1.
         25    2    1    2    0    0  0.26196689429E+02  0.52122547799E+02  0.14160559898E+03  0.19768009295E+03  0.12498898735E+03 0.  0.
         25    2    1    2    0    0 -0.26196689429E+02 -0.52122547799E+02  0.11473689428E+03  0.17942496717E+03  0.12500294961E+03 0.  0.
          5    1    4    4  502    0  0.27473297610E+02  0.28853653567E+02  0.26309439104E+02  0.47974910023E+02  0.47000000000E+01 0. -1.
         -5    1    4    4    0  502 -0.53669987040E+02 -0.80976201366E+02  0.88427455173E+02  0.13145005715E+03  0.47000000000E+01 0. -1.
          5    1    3    3  503    0 -0.40776924728E+02 -0.87929151779E+01  0.21387898432E+02  0.47112685627E+02  0.47000000000E+01 0. -1.
         -5    1    3    3    0  503  0.66973614157E+02  0.60915462977E+02  0.12021770055E+03  0.15056740732E+03  0.47000000000E+01 0. -1.
<mgrwt>
<rscale>  0 0.13794162E+03</rscale>
<asrwt>0</asrwt>
<pdfrwt beam="2">  1        5 0.92894281E-02 0.13794479E+03</pdfrwt>
<pdfrwt beam="1">  1       -5 0.48726735E-01 0.13794479E+03</pdfrwt>
<totfact> 0.26603099E+02</totfact>
</mgrwt>
</event>
<event>
 8    1  0.1821556E-007  0.1328733E+03  0.7546771E-02  0.1223271E+00
         -5   -1    0    0    0  501 -0.00000000000E+00  0.00000000000E+00  0.16348235227E+03  0.16354989913E+03  0.47000000000E+01 0. -1.
          5   -1    0    0  501    0  0.00000000000E+00 -0.00000000000E+00 -0.10803840137E+03  0.10814058522E+03  0.47000000000E+01 0. -1.
         25    2    1    2    0    0  0.22672468779E+02 -0.38926592257E+02  0.21540839742E+02  0.13460801098E+03  0.12500395361E+03 0.  0.
         25    2    1    2    0    0 -0.22672468779E+02  0.38926592257E+02  0.33903111154E+02  0.13708247336E+03  0.12495144309E+03 0.  0.
          5    1    4    4  502    0  0.35587582710E+02 -0.35655724339E+01  0.51339625730E+02  0.62745808785E+02  0.47000000000E+01 0. -1.
         -5    1    4    4    0  502 -0.58260051489E+02  0.42492164691E+02 -0.17436514577E+02  0.74336664575E+02  0.47000000000E+01 0. -1.
          5    1    3    3  503    0 -0.10811480825E+02 -0.55119586738E+02 -0.35307158883E+02  0.66511220318E+02  0.47000000000E+01 0.  1.
         -5    1    3    3    0  503  0.33483949604E+02  0.16192994481E+02  0.56847998625E+02  0.68096790666E+02  0.47000000000E+01 0.  1.
<mgrwt>
<rscale>  0 0.13286093E+03</rscale>
<asrwt>0</asrwt>
<pdfrwt beam="2">  1        5 0.16634349E-01 0.13287328E+03</pdfrwt>
<pdfrwt beam="1">  1       -5 0.25164187E-01 0.13287328E+03</pdfrwt>
<totfact> 0.35102233E+02</totfact>
</mgrwt>
</event>
<event>
 8    1  0.1821556E-007  0.1953905E+03  0.7546771E-02  0.1153689E+00
         -5   -1    0    0    0  501 -0.00000000000E+00  0.00000000000E+00  0.26933115934E+03  0.26937216522E+03  0.47000000000E+01 0.  1.
          5   -1    0    0  501    0  0.00000000000E+00 -0.00000000000E+00 -0.18683767611E+03  0.18689678224E+03  0.47000000000E+01 0.  1.
         25    2    1    2    0    0  0.13535180900E+03 -0.65043892775E+02  0.15340603251E+03  0.24841668315E+03  0.12500646970E+03 0.  0.
         25    2    1    2    0    0 -0.13535180900E+03  0.65043892775E+02 -0.70912549275E+02  0.20785226431E+03  0.12499261557E+03 0.  0.
          5    1    4    4  502    0 -0.23715487322E+02  0.29367399828E+02  0.33598983297E+02  0.50752834307E+02  0.47000000000E+01 0.  1.
         -5    1    4    4    0  502 -0.11163632168E+03  0.35676492946E+02 -0.10451153257E+03  0.15709943001E+03  0.47000000000E+01 0.  1.
          5    1    3    3  503    0  0.43270879476E+02 -0.76694768211E+02  0.12155971004E+03  0.15017759349E+03  0.47000000000E+01 0. -1.
         -5    1    3    3    0  503  0.92080929529E+02  0.11650875437E+02  0.31846322470E+02  0.98239089655E+02  0.47000000000E+01 0. -1.
<mgrwt>
<rscale>  0 0.19538826E+03</rscale>
<asrwt>0</asrwt>
<pdfrwt beam="2">  1        5 0.28751959E-01 0.19539047E+03</pdfrwt>
<pdfrwt beam="1">  1       -5 0.41443264E-01 0.19539047E+03</pdfrwt>
<totfact> 0.52053165E+01</totfact>
</mgrwt>
</event>
<event>
 8    1  0.1821556E-007  0.1414992E+03  0.7546771E-02  0.1211327E+00
          5   -1    0    0  501    0  0.00000000000E+00  0.00000000000E+00  0.11408167221E+03  0.11417844777E+03  0.47000000000E+01 0. -1.
         -5   -1    0    0    0  501 -0.00000000000E+00 -0.00000000000E+00 -0.20273025018E+03  0.20278472412E+03  0.47000000000E+01 0. -1.
         25    2    1    2    0    0  0.25233408632E+02  0.61314315729E+02 -0.10259839777E+03  0.17477796517E+03  0.12499894264E+03 0.  0.
         25    2    1    2    0    0 -0.25233408632E+02 -0.61314315729E+02  0.13949819800E+02  0.14218520672E+03  0.12500346121E+03 0.  0.
          5    1    3    3  502    0 -0.13925177142E+01  0.58818402991E+02 -0.12586748547E+03  0.13901891070E+03  0.47000000000E+01 0.  1.
         -5    1    3    3    0  502  0.26625926346E+02  0.24959127387E+01  0.23269087697E+02  0.35759054468E+02  0.47000000000E+01 0.  1.
          5    1    4    4  503    0 -0.82026038542E+01 -0.55487057887E+02 -0.50182750116E+02  0.75408850357E+02  0.47000000000E+01 0.  1.
         -5    1    4    4    0  503 -0.17030804778E+02 -0.58272578424E+01  0.64132569916E+02  0.66776356365E+02  0.47000000000E+01 0.  1.
<mgrwt>
<rscale>  0 0.14149824E+03</rscale>
<asrwt>0</asrwt>
<pdfrwt beam="1">  1        5 0.17562661E-01 0.14149924E+03</pdfrwt>
<pdfrwt beam="2">  1       -5 0.31200904E-01 0.14149924E+03</pdfrwt>
<totfact> 0.21369913E+02</totfact>
</mgrwt>
</event>
<event>
 8    1  0.1821556E-007  0.1305232E+03  0.7546771E-02  0.1226683E+00
          5   -1    0    0  501    0  0.00000000000E+00  0.00000000000E+00  0.13339646576E+04  0.13339729374E+04  0.47000000000E+01 0.  1.
         -5   -1    0    0    0  501 -0.00000000000E+00 -0.00000000000E+00 -0.12340387203E+02  0.13205118565E+02  0.47000000000E+01 0.  1.
         25    2    1    2    0    0 -0.13440761079E+02 -0.35053503519E+02  0.64176506107E+03  0.65490293780E+03  0.12500424857E+03 0.  0.
         25    2    1    2    0    0  0.13440761079E+02  0.35053503519E+02  0.67985920933E+03  0.69227511817E+03  0.12500757002E+03 0.  0.
          5    1    3    3  502    0 -0.33915967210E+02  0.34900559064E+02  0.15062295155E+03  0.15835941837E+03  0.47000000000E+01 0. -1.
         -5    1    3    3    0  502  0.20475206131E+02 -0.69954062583E+02  0.49114210952E+03  0.49654351943E+03  0.47000000000E+01 0. -1.
          5    1    4    4  503    0 -0.38633760873E+02  0.60487646425E+02  0.34706056591E+03  0.35443539504E+03  0.47000000000E+01 0. -1.
         -5    1    4    4    0  503  0.52074521952E+02 -0.25434142906E+02  0.33279864342E+03  0.33783972313E+03  0.47000000000E+01 0. -1.
<mgrwt>
<rscale>  0 0.13052236E+03</rscale>
<asrwt>0</asrwt>
<pdfrwt beam="1">  1        5 0.20529234E+00 0.13052316E+03</pdfrwt>
<pdfrwt beam="2">  1       -5 0.19656772E-02 0.13052316E+03</pdfrwt>
<totfact> 0.94560847E+01</totfact>
</mgrwt>
</event>
<event>
 8    1  0.1821556E-007  0.1504884E+03  0.7546771E-02  0.1199875E+00
         -5   -1    0    0    0  501 -0.00000000000E+00  0.00000000000E+00  0.58577231066E+03  0.58579116581E+03  0.47000000000E+01 0.  1.
          5   -1    0    0  501    0  0.00000000000E+00 -0.00000000000E+00 -0.38497963695E+02  0.38783800853E+02  0.47000000000E+01 0.  1.
         25    2    1    2    0    0 -0.82224292210E+02  0.16143342288E+02  0.27341341831E+03  0.31209239843E+03  0.12500130446E+03 0.  0.
         25    2    1    2    0    0  0.82224292210E+02 -0.16143342288E+02  0.27386092866E+03  0.31248256823E+03  0.12499642184E+03 0.  0.
          5    1    4    4  502    0  0.86102002144E+02  0.38799633412E+02  0.15854096278E+03  0.18459765222E+03  0.47000000000E+01 0. -1.
         -5    1    4    4    0  502 -0.38777099339E+01 -0.54942975700E+02  0.11531996588E+03  0.12788491601E+03  0.47000000000E+01 0. -1.
          5    1    3    3  503    0 -0.10922892462E+03 -0.11380315387E+02  0.22129014635E+03  0.24708680341E+03  0.47000000000E+01 0. -1.
         -5    1    3    3    0  503  0.27004632407E+02  0.27523657674E+02  0.52123271963E+02  0.65005595015E+02  0.47000000000E+01 0. -1.
<mgrwt>
<rscale>  0 0.15048742E+03</rscale>
<asrwt>0</asrwt>
<pdfrwt beam="2">  1        5 0.59462017E-02 0.15048843E+03</pdfrwt>
<pdfrwt beam="1">  1       -5 0.90142252E-01 0.15048843E+03</pdfrwt>
<totfact> 0.14825372E+02</totfact>
</mgrwt>
</event>
<event>
 8    1  0.1821556E-007  0.1480796E+03  0.7546771E-02  0.1202853E+00
         -5   -1    0    0    0  501 -0.00000000000E+00  0.00000000000E+00  0.70139805196E+02  0.70297100032E+02  0.47000000000E+01 0. -1.
          5   -1    0    0  501    0  0.00000000000E+00 -0.00000000000E+00 -0.33006421655E+03  0.33009767804E+03  0.47000000000E+01 0. -1.
         25    2    1    2    0    0  0.11336344420E+02  0.78576773652E+02 -0.83270341179E+02  0.16988680955E+03  0.12499902510E+03 0.  0.
         25    2    1    2    0    0 -0.11336344420E+02 -0.78576773652E+02 -0.17665407018E+03  0.23050796853E+03  0.12499776391E+03 0.  0.
          5    1    4    4  502    0  0.29016251786E+02 -0.78132272661E+02 -0.16993001615E+03  0.18932748159E+03  0.47000000000E+01 0. -1.
         -5    1    4    4    0  502 -0.40352596206E+02 -0.44450099110E+00 -0.67240540323E+01  0.41180486936E+02  0.47000000000E+01 0. -1.
          5    1    3    3  503    0  0.63104698187E+02  0.39632238831E+02 -0.72452720756E+02  0.10404039616E+03  0.47000000000E+01 0. -1.
         -5    1    3    3    0  503 -0.51768353767E+02  0.38944534821E+02 -0.10817620423E+02  0.65846413386E+02  0.47000000000E+01 0. -1.
<mgrwt>
<rscale>  0 0.14807937E+03</rscale>
<asrwt>0</asrwt>
<pdfrwt beam="2">  1        5 0.50793783E-01 0.14807964E+03</pdfrwt>
<pdfrwt beam="1">  1       -5 0.10805413E-01 0.14807964E+03</pdfrwt>
<totfact> 0.19155898E+02</totfact>
</mgrwt>
</event>
<event>
 8    1  0.1821556E-007  0.1306612E+03  0.7546771E-02  0.1226480E+00
          5   -1    0    0  501    0  0.00000000000E+00  0.00000000000E+00  0.11863458476E+04  0.11863551577E+04  0.47000000000E+01 0. -1.
         -5   -1    0    0    0  501 -0.00000000000E+00 -0.00000000000E+00 -0.14094384868E+02  0.14857378127E+02  0.47000000000E+01 0. -1.
         25    2    1    2    0    0  0.75545683551E+01 -0.37279309488E+02  0.53741810243E+03  0.55307232015E+03  0.12499582423E+03 0.  0.
         25    2    1    2    0    0 -0.75545683551E+01  0.37279309488E+02  0.63483336029E+03  0.64814021564E+03  0.12500210144E+03 0.  0.
          5    1    3    3  502    0  0.41543179454E+02  0.17184622710E+01  0.61842553765E+02  0.74668469436E+02  0.47000000000E+01 0.  1.
         -5    1    3    3    0  502 -0.33988611099E+02 -0.38997771759E+02  0.47557554867E+03  0.47840385071E+03  0.47000000000E+01 0.  1.
          5    1    4    4  503    0  0.28933546378E+02 -0.26967425449E+02  0.39841210888E+03  0.40039816513E+03  0.47000000000E+01 0.  1.
         -5    1    4    4    0  503 -0.36488114734E+02  0.64246734936E+02  0.23642125141E+03  0.24774205050E+03  0.47000000000E+01 0.  1.
<mgrwt>
<rscale>  0 0.13065968E+03</rscale>
<asrwt>0</asrwt>
<pdfrwt beam="1">  1        5 0.18257416E+00 0.13066118E+03</pdfrwt>
<pdfrwt beam="2">  1       -5 0.22277748E-02 0.13066118E+03</pdfrwt>
<totfact> 0.11092058E+02</totfact>
</mgrwt>
</event>
<event>
 8    1  0.1821556E-007  0.1327973E+03  0.7546771E-02  0.1223363E+00
          5   -1    0    0  501    0  0.00000000000E+00  0.00000000000E+00  0.27437200421E+03  0.27441225682E+03  0.47000000000E+01 0. -1.
         -5   -1    0    0    0  501 -0.00000000000E+00 -0.00000000000E+00 -0.79439538415E+02  0.79578453513E+02  0.47000000000E+01 0. -1.
         25    2    1    2    0    0  0.23939961432E+02 -0.37902206451E+02  0.19895137786E+02  0.13427932625E+03  0.12500168776E+03 0.  0.
         25    2    1    2    0    0 -0.23939961432E+02  0.37902206451E+02  0.17503732801E+03  0.21971138408E+03  0.12500130836E+03 0.  0.
          5    1    4    4  502    0 -0.75258530829E+02  0.27153960881E+02  0.10691618213E+03  0.13362014839E+03  0.47000000000E+01 0. -1.
         -5    1    4    4    0  502  0.51318569397E+02  0.10748245571E+02  0.68121145874E+02  0.86091235693E+02  0.47000000000E+01 0. -1.
          5    1    3    3  503    0  0.77617574878E+01  0.47025123134E+00 -0.51065569830E+02  0.51867604895E+02  0.47000000000E+01 0. -1.
         -5    1    3    3    0  503  0.16178203944E+02 -0.38372457682E+02  0.70960707616E+02  0.82411721355E+02  0.47000000000E+01 0. -1.
<mgrwt>
<rscale>  0 0.13279720E+03</rscale>
<asrwt>0</asrwt>
<pdfrwt beam="1">  1        5 0.42224859E-01 0.13279729E+03</pdfrwt>
<pdfrwt beam="2">  1       -5 0.12235250E-01 0.13279729E+03</pdfrwt>
<totfact> 0.21838062E+02</totfact>
</mgrwt>
</event>
<event>
 8    1  0.1821556E-007  0.1534755E+03  0.7546771E-02  0.1196268E+00
         -5   -1    0    0    0  501 -0.00000000000E+00  0.00000000000E+00  0.15696767681E+04  0.15696838045E+04  0.47000000000E+01 0.  1.
          5   -1    0    0  501    0  0.00000000000E+00 -0.00000000000E+00 -0.14705261273E+02  0.15438092794E+02  0.47000000000E+01 0.  1.
         25    2    1    2    0    0 -0.77322132720E+02  0.44156487022E+02  0.83280046436E+03  0.84682427463E+03  0.12500492435E+03 0.  0.
         25    2    1    2    0    0  0.77322132720E+02 -0.44156487022E+02  0.72217104245E+03  0.73829762271E+03  0.12499543029E+03 0.  0.
          5    1    4    4  502    0 -0.25631768403E+02 -0.22996306746E+02  0.34440310799E+03  0.34615229086E+03  0.47000000000E+01 0.  1.
         -5    1    4    4    0  502  0.10295390112E+03 -0.21160180276E+02  0.37776793446E+03  0.39214533185E+03  0.47000000000E+01 0.  1.
          5    1    3    3  503    0  0.25621239604E+02  0.37430467334E+02  0.16925240305E+03  0.17528820194E+03  0.47000000000E+01 0.  1.
         -5    1    3    3    0  503 -0.10294337232E+03  0.67260196882E+01  0.66354806131E+03  0.67153607269E+03  0.47000000000E+01 0.  1.
<mgrwt>
<rscale>  0 0.15347360E+03</rscale>
<asrwt>0</asrwt>
<pdfrwt beam="2">  1        5 0.23192610E-02 0.15347553E+03</pdfrwt>
<pdfrwt beam="1">  1       -5 0.24154562E+00 0.15347553E+03</pdfrwt>
<totfact> 0.44184038E+01</totfact>
</mgrwt>
</event>
<event>
 8    1  0.1821556E-007  0.1292697E+03  0.7546771E-02  0.1228544E+00
          5   -1    0    0  501    0  0.00000000000E+00  0.00000000000E+00  0.34831084751E+03  0.34834255625E+03  0.47000000000E+01 0.  1.
         -5   -1    0    0    0  501 -0.00000000000E+00 -0.00000000000E+00 -0.51705519159E+02  0.51918693276E+02  0.47000000000E+01 0.  1.
         25    2    1    2    0    0 -0.32920640891E+02  0.14966388307E+01  0.93623824964E+02  0.15961184117E+03  0.12499804285E+03 0.  0.
         25    2    1    2    0    0  0.32920640891E+02 -0.14966388307E+01  0.20298150339E+03  0.24064940836E+03  0.12499855399E+03 0.  0.
          5    1    3    3  502    0 -0.12725731457E+02 -0.30974612317E+02  0.11195216814E+03  0.11694763273E+03  0.47000000000E+01 0. -1.
         -5    1    3    3    0  502 -0.20194909434E+02  0.32471251147E+02 -0.18328343177E+02  0.42664208439E+02  0.47000000000E+01 0. -1.
          5    1    4    4  503    0  0.32006426877E+02 -0.59688439678E+02  0.13443890877E+03  0.15060886888E+03  0.47000000000E+01 0. -1.
         -5    1    4    4    0  503  0.91421401463E+00  0.58191800847E+02  0.68542594617E+02  0.90040539480E+02  0.47000000000E+01 0. -1.
<mgrwt>
<rscale>  0 0.12926954E+03</rscale>
<asrwt>0</asrwt>
<pdfrwt beam="1">  1        5 0.53605120E-01 0.12926967E+03</pdfrwt>
<pdfrwt beam="2">  1       -5 0.79735326E-02 0.12926967E+03</pdfrwt>
<totfact> 0.27625952E+02</totfact>
</mgrwt>
</event>
<event>
 8    1  0.1821556E-007  0.1289024E+03  0.7546771E-02  0.1229095E+00
         -5   -1    0    0    0  501 -0.00000000000E+00  0.00000000000E+00  0.48229018274E+02  0.48457488623E+02  0.47000000000E+01 0. -1.
          5   -1    0    0  501    0  0.00000000000E+00 -0.00000000000E+00 -0.34349525563E+03  0.34352740886E+03  0.47000000000E+01 0. -1.
         25    2    1    2    0    0 -0.29329060326E+02 -0.11396650983E+02 -0.14544705396E+03  0.19434681434E+03  0.12500304519E+03 0.  0.
         25    2    1    2    0    0  0.29329060326E+02  0.11396650983E+02 -0.14981918339E+03  0.19763808314E+03  0.12499978704E+03 0.  0.
          5    1    4    4  502    0 -0.22448182609E+02  0.30695964273E+02 -0.46517656495E+00  0.38320614744E+02  0.47000000000E+01 0.  1.
         -5    1    4    4    0  502  0.51777242936E+02 -0.19299313290E+02 -0.14935400683E+03  0.15931746839E+03  0.47000000000E+01 0.  1.
          5    1    3    3  503    0 -0.62425470299E+02  0.32452895622E+02 -0.59650980651E+02  0.92360485431E+02  0.47000000000E+01 0. -1.
         -5    1    3    3    0  503  0.33096409973E+02 -0.43849546605E+02 -0.85796073307E+02  0.10198632891E+03  0.47000000000E+01 0. -1.
<mgrwt>
<rscale>  0 0.12890165E+03</rscale>
<asrwt>0</asrwt>
<pdfrwt beam="2">  1        5 0.52865470E-01 0.12890244E+03</pdfrwt>
<pdfrwt beam="1">  1       -5 0.74398972E-02 0.12890244E+03</pdfrwt>
<totfact> 0.32000577E+02</totfact>
</mgrwt>
</event>
<event>
 8    1  0.1821556E-007  0.1486255E+03  0.7546771E-02  0.1202175E+00
          5   -1    0    0  501    0  0.00000000000E+00  0.00000000000E+00  0.15116262576E+02  0.15830078782E+02  0.47000000000E+01 0.  1.
         -5   -1    0    0    0  501 -0.00000000000E+00 -0.00000000000E+00 -0.14268592829E+04  0.14268670236E+04  0.47000000000E+01 0.  1.
         25    2    1    2    0    0 -0.69547653266E+02  0.40332957530E+02 -0.70161713538E+03  0.71718625948E+03  0.12500361026E+03 0.  0.
         25    2    1    2    0    0  0.69547653266E+02 -0.40332957530E+02 -0.71012588490E+03  0.72551084292E+03  0.12499434889E+03 0.  0.
          5    1    3    3  502    0 -0.10366912074E+02 -0.34356624710E+02 -0.37988802595E+03  0.38160824518E+03  0.47000000000E+01 0. -1.
         -5    1    3    3    0  502 -0.59180741192E+02  0.74689582240E+02 -0.32172910943E+03  0.33557801429E+03  0.47000000000E+01 0. -1.
          5    1    4    4  503    0  0.78944383828E+02 -0.28292813415E+02 -0.70302450814E+03  0.70802418608E+03  0.47000000000E+01 0.  1.
         -5    1    4    4    0  503 -0.93967305619E+01 -0.12040144115E+02 -0.71013767570E+01  0.17486656839E+02  0.47000000000E+01 0.  1.
<mgrwt>
<rscale>  0 0.14862351E+03</rscale>
<asrwt>0</asrwt>
<pdfrwt beam="1">  1        5 0.23810844E-02 0.14862546E+03</pdfrwt>
<pdfrwt beam="2">  1       -5 0.21957221E+00 0.14862546E+03</pdfrwt>
<totfact> 0.58230913E+01</totfact>
</mgrwt>
</event>
<event>
 8    1  0.1821556E-007  0.1503279E+03  0.7546771E-02  0.1200075E+00
          5   -1    0    0  501    0  0.00000000000E+00  0.00000000000E+00  0.82550995906E+02  0.82684683739E+02  0.47000000000E+01 0.  1.
         -5   -1    0    0    0  501 -0.00000000000E+00 -0.00000000000E+00 -0.27337785016E+03  0.27341824913E+03  0.47000000000E+01 0.  1.
         25    2    1    2    0    0  0.68628603086E+02  0.47556701959E+02 -0.97123150440E+02  0.17897313412E+03  0.12500780505E+03 0.  0.
         25    2    1    2    0    0 -0.68628603086E+02 -0.47556701959E+02 -0.93703703811E+02  0.17712979875E+03  0.12499222549E+03 0.  0.
          5    1    4    4  502    0  0.20401762389E+02 -0.26529488654E+02 -0.76903193545E+02  0.84001409835E+02  0.47000000000E+01 0.  1.
         -5    1    4    4    0  502 -0.89030365475E+02 -0.21027213305E+02 -0.16800510265E+02  0.93128388910E+02  0.47000000000E+01 0.  1.
          5    1    3    3  503    0  0.49623524193E+02  0.79188056778E+02 -0.23484926725E+02  0.96472142471E+02  0.47000000000E+01 0. -1.
         -5    1    3    3    0  503  0.19005078893E+02 -0.31631354820E+02 -0.73638223716E+02  0.82500991652E+02  0.47000000000E+01 0. -1.
<mgrwt>
<rscale>  0 0.15032466E+03</rscale>
<asrwt>0</asrwt>
<pdfrwt beam="1">  1        5 0.12713545E-01 0.15032790E+03</pdfrwt>
<pdfrwt beam="2">  1       -5 0.42071522E-01 0.15032790E+03</pdfrwt>
<totfact> 0.21421304E+02</totfact>
</mgrwt>
</event>
<event>
 8    1  0.1821556E-007  0.1583443E+03  0.7546771E-02  0.1190581E+00
         -5   -1    0    0    0  501 -0.00000000000E+00  0.00000000000E+00  0.27584504314E+04  0.27584544354E+04  0.47000000000E+01 0. -1.
          5   -1    0    0  501    0  0.00000000000E+00 -0.00000000000E+00 -0.96314438394E+01  0.10717028993E+02  0.47000000000E+01 0. -1.
         25    2    1    2    0    0 -0.89094482250E+02 -0.38792428308E+02  0.18273212408E+04  0.18341682513E+04  0.12501031053E+03 0.  0.
         25    2    1    2    0    0  0.89094482250E+02  0.38792428308E+02  0.92149774672E+03  0.93500321311E+03  0.12502092645E+03 0.  0.
          5    1    4    4  502    0  0.78896131871E+02 -0.83661666553E+01  0.80370534434E+03  0.80762550906E+03  0.47000000000E+01 0. -1.
         -5    1    4    4    0  502  0.10198350379E+02  0.47158594963E+02  0.11779240238E+03  0.12737770405E+03  0.47000000000E+01 0. -1.
          5    1    3    3  503    0 -0.34070558006E+02 -0.15067593205E+02  0.15479147693E+04  0.15483701296E+04  0.47000000000E+01 0.  1.
         -5    1    3    3    0  503 -0.55023924244E+02 -0.23724835102E+02  0.27940647155E+03  0.28579812173E+03  0.47000000000E+01 0.  1.
<mgrwt>
<rscale>  0 0.15834219E+03</rscale>
<asrwt>0</asrwt>
<pdfrwt beam="2">  1        5 0.15655760E-02 0.15834428E+03</pdfrwt>
<pdfrwt beam="1">  1       -5 0.42446058E+00 0.15834428E+03</pdfrwt>
<totfact> 0.51266463E+00</totfact>
</mgrwt>
</event>
<event>
 8    1  0.1821556E-007  0.1262793E+03  0.7546771E-02  0.1233090E+00
         -5   -1    0    0    0  501 -0.00000000000E+00  0.00000000000E+00  0.57393294537E+02  0.57585417059E+02  0.47000000000E+01 0.  1.
          5   -1    0    0  501    0  0.00000000000E+00 -0.00000000000E+00 -0.27931737951E+03  0.27935691955E+03  0.47000000000E+01 0.  1.
         25    2    1    2    0    0  0.31130772042E+01 -0.17641831986E+02 -0.12585756111E+03  0.17828792801E+03  0.12500213638E+03 0.  0.
         25    2    1    2    0    0 -0.31130772042E+01  0.17641831986E+02 -0.96066523866E+02  0.15865440860E+03  0.12498607472E+03 0.  0.
          5    1    3    3  502    0  0.33488947796E+02  0.24118565119E+02  0.67566367702E+00  0.41542283631E+02  0.47000000000E+01 0.  1.
         -5    1    3    3    0  502 -0.30375870592E+02 -0.41760397105E+02 -0.12653322479E+03  0.13674564438E+03  0.47000000000E+01 0.  1.
          5    1    4    4  503    0  0.47757103554E+02 -0.22629439228E+02 -0.71687147423E+02  0.89185029939E+02  0.47000000000E+01 0. -1.
         -5    1    4    4    0  503 -0.50870180758E+02  0.40271271214E+02 -0.24379376443E+02  0.69469378660E+02  0.47000000000E+01 0. -1.
<mgrwt>
<rscale>  0 0.12627532E+03</rscale>
<asrwt>0</asrwt>
<pdfrwt beam="2">  1        5 0.42989724E-01 0.12627929E+03</pdfrwt>
<pdfrwt beam="1">  1       -5 0.88475580E-02 0.12627929E+03</pdfrwt>
<totfact> 0.36432399E+02</totfact>
</mgrwt>
</event>
<event>
 8    1  0.1821556E-007  0.1362245E+03  0.7546771E-02  0.1218502E+00
          5   -1    0    0  501    0  0.00000000000E+00  0.00000000000E+00  0.16686116493E+03  0.16692734456E+03  0.47000000000E+01 0. -1.
         -5   -1    0    0    0  501 -0.00000000000E+00 -0.00000000000E+00 -0.12376021614E+03  0.12384942915E+03  0.47000000000E+01 0. -1.
         25    2    1    2    0    0  0.35480077715E+02  0.40873843406E+02 -0.24969652154E+02  0.13849178099E+03  0.12500793128E+03 0.  0.
         25    2    1    2    0    0 -0.35480077715E+02 -0.40873843406E+02  0.68070600937E+02  0.15228499272E+03  0.12501042078E+03 0.  0.
          5    1    3    3  502    0 -0.87973900929E+01  0.74495414655E+02  0.46856682895E+01  0.75306084511E+02  0.47000000000E+01 0.  1.
         -5    1    3    3    0  502  0.44277467808E+02 -0.33621571248E+02 -0.29655320443E+02  0.63185696477E+02  0.47000000000E+01 0.  1.
          5    1    4    4  503    0 -0.24401378941E+02  0.16738352286E+02 -0.27091136393E+02  0.40393308883E+02  0.47000000000E+01 0. -1.
         -5    1    4    4    0  503 -0.11078698773E+02 -0.57612195692E+02  0.95161737330E+02  0.11189168383E+03  0.47000000000E+01 0. -1.
<mgrwt>
<rscale>  0 0.13622392E+03</rscale>
<asrwt>0</asrwt>
<pdfrwt beam="1">  1        5 0.25682902E-01 0.13622449E+03</pdfrwt>
<pdfrwt beam="2">  1       -5 0.19051987E-01 0.13622449E+03</pdfrwt>
<totfact> 0.26517051E+02</totfact>
</mgrwt>
</event>
<event>
 8    1  0.1821556E-007  0.1334512E+03  0.7546771E-02  0.1222424E+00
          5   -1    0    0  501    0  0.00000000000E+00  0.00000000000E+00  0.11054521951E+03  0.11064508826E+03  0.47000000000E+01 0. -1.
         -5   -1    0    0    0  501 -0.00000000000E+00 -0.00000000000E+00 -0.16875708592E+03  0.16882252234E+03  0.47000000000E+01 0. -1.
         25    2    1    2    0    0  0.45675705559E+02  0.99179351984E+01 -0.59256170560E+02  0.14601236050E+03  0.12499472049E+03 0.  0.
         25    2    1    2    0    0 -0.45675705559E+02 -0.99179351984E+01  0.10443041434E+01  0.13345525010E+03  0.12499831076E+03 0.  0.
          5    1    3    3  502    0  0.32862829128E+01 -0.54112517482E+02 -0.11996970263E+02  0.55722360853E+02  0.47000000000E+01 0. -1.
         -5    1    3    3    0  502  0.42389422647E+02  0.64030452680E+02 -0.47259200297E+02  0.90289999642E+02  0.47000000000E+01 0. -1.
          5    1    4    4  503    0  0.22882245841E+02 -0.12640324725E+02  0.44700620241E+02  0.51996254036E+02  0.47000000000E+01 0. -1.
         -5    1    4    4    0  503 -0.68557951400E+02  0.27223895270E+01 -0.43656316097E+02  0.81458996066E+02  0.47000000000E+01 0. -1.
<mgrwt>
<rscale>  0 0.13345032E+03</rscale>
<asrwt>0</asrwt>
<pdfrwt beam="1">  1        5 0.17019673E-01 0.13345116E+03</pdfrwt>
<pdfrwt beam="2">  1       -5 0.25975345E-01 0.13345116E+03</pdfrwt>
<totfact> 0.31719771E+02</totfact>
</mgrwt>
</event>
<event>
 8    1  0.1821556E-007  0.1350040E+03  0.7546771E-02  0.1220217E+00
          5   -1    0    0  501    0  0.00000000000E+00  0.00000000000E+00  0.13015184975E+03  0.13023668452E+03  0.47000000000E+01 0.  1.
         -5   -1    0    0    0  501 -0.00000000000E+00 -0.00000000000E+00 -0.14292868611E+03  0.14300594153E+03  0.47000000000E+01 0.  1.
         25    2    1    2    0    0  0.19832362742E+02 -0.46976677409E+02 -0.26398874288E+02  0.13755316559E+03  0.12499536779E+03 0.  0.
         25    2    1    2    0    0 -0.19832362742E+02  0.46976677409E+02  0.13622037934E+02  0.13568946046E+03  0.12500375566E+03 0.  0.
          5    1    4    4  502    0  0.12971651616E+02 -0.21697039023E+02  0.46118831899E+02  0.52802101320E+02  0.47000000000E+01 0.  1.
         -5    1    4    4    0  502 -0.32804014358E+02  0.68673716432E+02 -0.32496793965E+02  0.82887359136E+02  0.47000000000E+01 0.  1.
          5    1    3    3  503    0 -0.29704883383E+02  0.58704577063E+01  0.32063375690E+02  0.44350788393E+02  0.47000000000E+01 0.  1.
         -5    1    3    3    0  503  0.49537246125E+02 -0.52847135115E+02 -0.58462249978E+02  0.93202377201E+02  0.47000000000E+01 0.  1.
<mgrwt>
<rscale>  0 0.13500202E+03</rscale>
<asrwt>0</asrwt>
<pdfrwt beam="1">  1        5 0.20035830E-01 0.13500396E+03</pdfrwt>
<pdfrwt beam="2">  1       -5 0.22001497E-01 0.13500396E+03</pdfrwt>
<totfact> 0.32315547E+02</totfact>
</mgrwt>
</event>
<event>
 8    1  0.1821556E-007  0.1382720E+03  0.7546771E-02  0.1215678E+00
          5   -1    0    0  501    0  0.00000000000E+00  0.00000000000E+00  0.43917776702E+03  0.43920291557E+03  0.47000000000E+01 0. -1.
         -5   -1    0    0    0  501 -0.00000000000E+00 -0.00000000000E+00 -0.44208962901E+02  0.44458097134E+02  0.47000000000E+01 0. -1.
         25    2    1    2    0    0  0.40839674429E+02 -0.42693771642E+02  0.23057277843E+03  0.26885491229E+03  0.12501408147E+03 0.  0.
         25    2    1    2    0    0 -0.40839674429E+02  0.42693771642E+02  0.16439602569E+03  0.21480610041E+03  0.12499988147E+03 0.  0.
          5    1    3    3  502    0  0.50184536988E+01  0.35873823677E+02  0.13549861604E+03  0.14033560151E+03  0.47000000000E+01 0.  1.
         -5    1    3    3    0  502  0.35821220730E+02 -0.78567595320E+02  0.95074162389E+02  0.12851931078E+03  0.47000000000E+01 0.  1.
          5    1    4    4  503    0 -0.79963967854E+01  0.78356196576E+02  0.13909935879E+03  0.15991984718E+03  0.47000000000E+01 0. -1.
         -5    1    4    4    0  503 -0.32843277644E+02 -0.35662424934E+02  0.25296666896E+02  0.54886253239E+02  0.47000000000E+01 0. -1.
<mgrwt>
<rscale>  0 0.13826883E+03</rscale>
<asrwt>0</asrwt>
<pdfrwt beam="1">  1        5 0.67586909E-01 0.13827204E+03</pdfrwt>
<pdfrwt beam="2">  1       -5 0.68224776E-02 0.13827204E+03</pdfrwt>
<totfact> 0.22205719E+02</totfact>
</mgrwt>
</event>
<event>
 8    1  0.1821556E-007  0.1554385E+03  0.7546771E-02  0.1193951E+00
         -5   -1    0    0    0  501 -0.00000000000E+00  0.00000000000E+00  0.27350534217E+03  0.27354572231E+03  0.47000000000E+01 0.  1.
          5   -1    0    0  501    0  0.00000000000E+00 -0.00000000000E+00 -0.88497527408E+02  0.88622245273E+02  0.47000000000E+01 0.  1.
         25    2    1    2    0    0 -0.17098096675E+02  0.90768410187E+02  0.10268053566E+03  0.18629126356E+03  0.12501957158E+03 0.  0.
         25    2    1    2    0    0  0.17098096675E+02 -0.90768410187E+02  0.82327279100E+02  0.17587670403E+03  0.12499433962E+03 0.  0.
          5    1    4    4  502    0  0.22348329745E+02 -0.35404362312E+02  0.10689498835E+03  0.11489797756E+03  0.47000000000E+01 0. -1.
         -5    1    4    4    0  502 -0.52502330700E+01 -0.55364047875E+02 -0.24567709245E+02  0.60978726470E+02  0.47000000000E+01 0. -1.
          5    1    3    3  503    0  0.51166778027E+02  0.59675437966E+02  0.65550514054E+02  0.10246051416E+03  0.47000000000E+01 0.  1.
         -5    1    3    3    0  503 -0.68264874702E+02  0.31092972221E+02  0.37130021609E+02  0.83830749396E+02  0.47000000000E+01 0.  1.
<mgrwt>
<rscale>  0 0.15543348E+03</rscale>
<asrwt>0</asrwt>
<pdfrwt beam="2">  1        5 0.13627704E-01 0.15543855E+03</pdfrwt>
<pdfrwt beam="1">  1       -5 0.42090444E-01 0.15543855E+03</pdfrwt>
<totfact> 0.19107132E+02</totfact>
</mgrwt>
</event>
<event>
 8    1  0.1821556E-007  0.1288919E+03  0.7546771E-02  0.1229132E+00
          5   -1    0    0  501    0  0.00000000000E+00  0.00000000000E+00  0.22663364149E+02  0.23145584342E+02  0.47000000000E+01 0. -1.
         -5   -1    0    0    0  501 -0.00000000000E+00 -0.00000000000E+00 -0.99143955486E+03  0.99145069517E+03  0.47000000000E+01 0. -1.
         25    2    1    2    0    0  0.68161176795E+01  0.30681010792E+02 -0.74764128228E+03  0.75867029514E+03  0.12500138346E+03 0.  0.
         25    2    1    2    0    0 -0.68161176795E+01 -0.30681010792E+02 -0.22113490843E+03  0.25592598437E+03  0.12493869643E+03 0.  0.
          5    1    4    4  502    0  0.50777279607E+02 -0.24314356466E+02 -0.16771606238E+03  0.17697538708E+03  0.47000000000E+01 0. -1.
         -5    1    4    4    0  502 -0.57593397287E+02 -0.63666543260E+01 -0.53418846057E+02  0.78950597290E+02  0.47000000000E+01 0. -1.
          5    1    3    3  503    0 -0.30437044140E+02  0.92326061947E+01 -0.66153316639E+03  0.66231403043E+03  0.47000000000E+01 0.  1.
         -5    1    3    3    0  503  0.37253161820E+02  0.21448404597E+02 -0.86108115897E+02  0.96356264709E+02  0.47000000000E+01 0.  1.
<mgrwt>
<rscale>  0 0.12887673E+03</rscale>
<asrwt>0</asrwt>
<pdfrwt beam="1">  1        5 0.35246230E-02 0.12889193E+03</pdfrwt>
<pdfrwt beam="2">  1       -5 0.15256708E+00 0.12889193E+03</pdfrwt>
<totfact> 0.88004681E+01</totfact>
</mgrwt>
</event>
<event>
 8    1  0.1821556E-007  0.1327250E+03  0.7546771E-02  0.1223469E+00
          5   -1    0    0  501    0  0.00000000000E+00  0.00000000000E+00  0.62998019225E+03  0.62999772430E+03  0.47000000000E+01 0.  1.
         -5   -1    0    0    0  501 -0.00000000000E+00 -0.00000000000E+00 -0.29867847079E+02  0.30235381412E+02  0.47000000000E+01 0.  1.
         25    2    1    2    0    0  0.10064469651E+00 -0.44612795322E+02  0.21266286227E+03  0.25068193359E+03  0.12500250879E+03 0.  0.
         25    2    1    2    0    0 -0.10064469651E+00  0.44612795322E+02  0.38744948290E+03  0.40955117212E+03  0.12499899661E+03 0.  0.
          5    1    3    3  502    0 -0.43605042831E+01 -0.68855543240E+02  0.48147352502E+02  0.84263618397E+02  0.47000000000E+01 0. -1.
         -5    1    3    3    0  502  0.44611489797E+01  0.24242747918E+02  0.16451550977E+03  0.16641831519E+03  0.47000000000E+01 0. -1.
          5    1    4    4  503    0 -0.85818078561E+01  0.57078476507E+02  0.38936008416E+03  0.39364319510E+03  0.47000000000E+01 0. -1.
         -5    1    4    4    0  503  0.84811631596E+01 -0.12465681185E+02 -0.19106012638E+01  0.15907977028E+02  0.47000000000E+01 0. -1.
<mgrwt>
<rscale>  0 0.13272422E+03</rscale>
<asrwt>0</asrwt>
<pdfrwt beam="1">  1        5 0.96949652E-01 0.13272505E+03</pdfrwt>
<pdfrwt beam="2">  1       -5 0.46246738E-02 0.13272505E+03</pdfrwt>
<totfact> 0.18178361E+02</totfact>
</mgrwt>
</event>
<event>
 8    1  0.1821556E-007  0.1469992E+03  0.7546771E-02  0.1204215E+00
          5   -1    0    0  501    0  0.00000000000E+00  0.00000000000E+00  0.13154010007E+03  0.13162404008E+03  0.47000000000E+01 0.  1.
         -5   -1    0    0    0  501 -0.00000000000E+00 -0.00000000000E+00 -0.20516502671E+03  0.20521885436E+03  0.47000000000E+01 0.  1.
         25    2    1    2    0    0  0.22738953226E+01 -0.77314139532E+02 -0.11214576565E+03  0.18488033213E+03  0.12498566990E+03 0.  0.
         25    2    1    2    0    0 -0.22738953226E+01  0.77314139532E+02  0.38520839022E+02  0.15196256231E+03  0.12500447406E+03 0.  0.
          5    1    3    3  502    0 -0.40975361642E+02 -0.88748731223E+02 -0.95999503773E+02  0.13708870223E+03  0.47000000000E+01 0.  1.
         -5    1    3    3    0  502  0.43249256964E+02  0.11434591691E+02 -0.16146261881E+02  0.47791629893E+02  0.47000000000E+01 0.  1.
          5    1    4    4  503    0 -0.32158039280E+02  0.57006470358E+02 -0.31681948996E+02  0.72867777826E+02  0.47000000000E+01 0. -1.
         -5    1    4    4    0  503  0.29884143958E+02  0.20307669174E+02  0.70202788018E+02  0.79094784486E+02  0.47000000000E+01 0. -1.
<mgrwt>
<rscale>  0 0.14699520E+03</rscale>
<asrwt>0</asrwt>
<pdfrwt beam="1">  1        5 0.20247536E-01 0.14699920E+03</pdfrwt>
<pdfrwt beam="2">  1       -5 0.31574448E-01 0.14699920E+03</pdfrwt>
<totfact> 0.16233834E+02</totfact>
</mgrwt>
</event>
<event>
 8    1  0.1821556E-007  0.1400503E+03  0.7546771E-02  0.1213270E+00
         -5   -1    0    0    0  501 -0.00000000000E+00  0.00000000000E+00  0.14031153467E+04  0.14031232185E+04  0.47000000000E+01 0.  1.
          5   -1    0    0  501    0  0.00000000000E+00 -0.00000000000E+00 -0.18399609112E+02  0.18990408513E+02  0.47000000000E+01 0.  1.
         25    2    1    2    0    0  0.60900749772E+02 -0.16736477051E+02  0.10497675298E+04  0.10590649029E+04  0.12497036051E+03 0.  0.
         25    2    1    2    0    0 -0.60900749772E+02  0.16736477051E+02  0.33494820782E+03  0.36304872407E+03  0.12500025254E+03 0.  0.
          5    1    4    4  502    0 -0.41325032277E+02  0.58764801740E+02  0.28814033362E+03  0.29699831999E+03  0.47000000000E+01 0.  1.
         -5    1    4    4    0  502 -0.19575717495E+02 -0.42028324689E+02  0.46807874201E+02  0.66050404078E+02  0.47000000000E+01 0.  1.
          5    1    3    3  503    0  0.22313623808E+01 -0.37879329491E+02  0.97247031654E+02  0.10449352969E+03  0.47000000000E+01 0. -1.
         -5    1    3    3    0  503  0.58669387391E+02  0.21142852440E+02  0.95252049812E+03  0.95457137322E+03  0.47000000000E+01 0. -1.
<mgrwt>
<rscale>  0 0.14004359E+03</rscale>
<asrwt>0</asrwt>
<pdfrwt beam="2">  1        5 0.28767612E-02 0.14005026E+03</pdfrwt>
<pdfrwt beam="1">  1       -5 0.21590991E+00 0.14005026E+03</pdfrwt>
<totfact> 0.44690846E+01</totfact>
</mgrwt>
</event>
<event>
 8    1  0.1821556E-007  0.2066002E+03  0.7546771E-02  0.1144288E+00
          5   -1    0    0  501    0  0.00000000000E+00  0.00000000000E+00  0.19196909021E+04  0.19196966556E+04  0.47000000000E+01 0. -1.
         -5   -1    0    0    0  501 -0.00000000000E+00 -0.00000000000E+00 -0.24195429742E+02  0.24647694018E+02  0.47000000000E+01 0. -1.
         25    2    1    2    0    0 -0.13430365214E+03 -0.94969138175E+02  0.65644790619E+03  0.68819147190E+03  0.12500816081E+03 0.  0.
         25    2    1    2    0    0  0.13430365214E+03  0.94969138175E+02  0.12390475661E+04  0.12561528777E+04  0.12499829138E+03 0.  0.
          5    1    3    3  502    0 -0.86423353014E+02 -0.84418397855E+02  0.23892655344E+03  0.26777499842E+03  0.47000000000E+01 0.  1.
         -5    1    3    3    0  502 -0.47880299122E+02 -0.10550740320E+02  0.41752135275E+03  0.42041647347E+03  0.47000000000E+01 0.  1.
          5    1    4    4  503    0  0.47719715258E+02  0.94474744037E+02  0.89908612920E+03  0.90530691271E+03  0.47000000000E+01 0.  1.
         -5    1    4    4    0  503  0.86583936878E+02  0.49439413783E+00  0.33996143692E+03  0.35084596498E+03  0.47000000000E+01 0.  1.
<mgrwt>
<rscale>  0 0.20659872E+03</rscale>
<asrwt>0</asrwt>
<pdfrwt beam="1">  1        5 0.29537242E+00 0.20660021E+03</pdfrwt>
<pdfrwt beam="2">  1       -5 0.37576043E-02 0.20660021E+03</pdfrwt>
<totfact> 0.97915041E+00</totfact>
</mgrwt>
</event>
<event>
 8    1  0.1821556E-007  0.1507778E+03  0.7546771E-02  0.1199526E+00
          5   -1    0    0  501    0  0.00000000000E+00  0.00000000000E+00  0.19467176564E+03  0.19472849390E+03  0.47000000000E+01 0. -1.
         -5   -1    0    0    0  501 -0.00000000000E+00 -0.00000000000E+00 -0.12242215731E+03  0.12251234468E+03  0.47000000000E+01 0. -1.
         25    2    1    2    0    0 -0.43189948641E+02 -0.72373281662E+02  0.16910357698E+01  0.15078730400E+03  0.12502274947E+03 0.  0.
         25    2    1    2    0    0  0.43189948641E+02  0.72373281662E+02  0.70558572566E+02  0.16645353458E+03  0.12500001380E+03 0.  0.
          5    1    4    4  502    0 -0.41792157273E+02  0.32916112193E+02  0.43319878186E+02  0.68765955948E+02  0.47000000000E+01 0. -1.
         -5    1    4    4    0  502  0.84982105915E+02  0.39457169469E+02  0.27238694379E+02  0.97687578635E+02  0.47000000000E+01 0. -1.
          5    1    3    3  503    0  0.10083564334E+02  0.18106101029E+02  0.34641330642E+02  0.40640139675E+02  0.47000000000E+01 0.  1.
         -5    1    3    3    0  503 -0.53273512976E+02 -0.90479382691E+02 -0.32950294872E+02  0.11014716433E+03  0.47000000000E+01 0.  1.
<mgrwt>
<rscale>  0 0.15077311E+03</rscale>
<asrwt>0</asrwt>
<pdfrwt beam="1">  1        5 0.29960804E-01 0.15077782E+03</pdfrwt>
<pdfrwt beam="2">  1       -5 0.18845479E-01 0.15077782E+03</pdfrwt>
<totfact> 0.20752194E+02</totfact>
</mgrwt>
</event>
<event>
 8    1  0.1821556E-007  0.1286697E+03  0.7546771E-02  0.1229444E+00
         -5   -1    0    0    0  501 -0.00000000000E+00  0.00000000000E+00  0.10655805436E+03  0.10666165642E+03  0.47000000000E+01 0.  1.
          5   -1    0    0  501    0  0.00000000000E+00 -0.00000000000E+00 -0.15912114710E+03  0.15919054449E+03  0.47000000000E+01 0.  1.
         25    2    1    2    0    0 -0.10578790681E+02 -0.28609271667E+02 -0.52996021766E+01  0.12877874951E+03  0.12500191721E+03 0.  0.
         25    2    1    2    0    0  0.10578790681E+02  0.28609271667E+02 -0.47263490564E+02  0.13707345140E+03  0.12499956920E+03 0.  0.
          5    1    4    4  502    0  0.15963317726E+02  0.25775988310E+02  0.39474406429E+02  0.49995478287E+02  0.47000000000E+01 0. -1.
         -5    1    4    4    0  502 -0.53845270445E+01  0.28332833574E+01 -0.86737896993E+02  0.87077973109E+02  0.47000000000E+01 0. -1.
          5    1    3    3  503    0 -0.45070014400E+02 -0.26162235277E+02  0.44008914508E+02  0.68371363223E+02  0.47000000000E+01 0.  1.
         -5    1    3    3    0  503  0.34491223719E+02 -0.24470363903E+01 -0.49308516685E+02  0.60407386290E+02  0.47000000000E+01 0.  1.
<mgrwt>
<rscale>  0 0.12866909E+03</rscale>
<asrwt>0</asrwt>
<pdfrwt beam="2">  1        5 0.24493484E-01 0.12866966E+03</pdfrwt>
<pdfrwt beam="1">  1       -5 0.16406855E-01 0.12866966E+03</pdfrwt>
<totfact> 0.37461309E+02</totfact>
</mgrwt>
</event>
<event>
 8    1  0.1821556E-007  0.1301691E+03  0.7546771E-02  0.1227209E+00
          5   -1    0    0  501    0  0.00000000000E+00  0.00000000000E+00  0.80054694532E+02  0.80192544022E+02  0.47000000000E+01 0.  1.
         -5   -1    0    0    0  501 -0.00000000000E+00 -0.00000000000E+00 -0.28982063247E+03  0.28985873975E+03  0.47000000000E+01 0.  1.
         25    2    1    2    0    0  0.27375527588E+02 -0.23802365531E+02 -0.20116951630E+03  0.23961046988E+03  0.12501212290E+03 0.  0.
         25    2    1    2    0    0 -0.27375527588E+02  0.23802365531E+02 -0.85964216441E+01  0.13044081389E+03  0.12499974139E+03 0.  0.
          5    1    3    3  502    0  0.64931799570E+01 -0.64331830791E+02 -0.50656715214E+02  0.82273559758E+02  0.47000000000E+01 0.  1.
         -5    1    3    3    0  502  0.20882347631E+02  0.40529465260E+02 -0.15051280108E+03  0.15733691012E+03  0.47000000000E+01 0.  1.
          5    1    4    4  503    0 -0.56448303404E+02 -0.26532014733E+02 -0.28614208338E+02  0.68783876612E+02  0.47000000000E+01 0.  1.
         -5    1    4    4    0  503  0.29072775816E+02  0.50334380264E+02  0.20017786694E+02  0.61656937277E+02  0.47000000000E+01 0.  1.
<mgrwt>
<rscale>  0 0.13016616E+03</rscale>
<asrwt>0</asrwt>
<pdfrwt beam="1">  1        5 0.12329642E-01 0.13016913E+03</pdfrwt>
<pdfrwt beam="2">  1       -5 0.44601324E-01 0.13016913E+03</pdfrwt>
<totfact> 0.19098694E+02</totfact>
</mgrwt>
</event>
<event>
 8    1  0.1821556E-007  0.1278783E+03  0.7546771E-02  0.1230645E+00
          5   -1    0    0  501    0  0.00000000000E+00  0.00000000000E+00  0.19873719295E+03  0.19879276109E+03  0.47000000000E+01 0. -1.
         -5   -1    0    0    0  501 -0.00000000000E+00 -0.00000000000E+00 -0.83603175633E+02  0.83735183620E+02  0.47000000000E+01 0. -1.
         25    2    1    2    0    0  0.24160189797E+02  0.11849579681E+02  0.38885379278E+02  0.13364305535E+03  0.12499706482E+03 0.  0.
         25    2    1    2    0    0 -0.24160189797E+02 -0.11849579681E+02  0.76248638036E+02  0.14888488935E+03  0.12501491177E+03 0.  0.
          5    1    4    4  502    0 -0.34234637240E+02  0.43654681589E+02  0.22550058303E+01  0.55721779071E+02  0.47000000000E+01 0. -1.
         -5    1    4    4    0  502  0.10074447442E+02 -0.55504261270E+02  0.73993632206E+02  0.93163110282E+02  0.47000000000E+01 0. -1.
          5    1    3    3  503    0  0.32637882656E+02  0.11908799870E+02 -0.40557945855E+02  0.53610520148E+02  0.47000000000E+01 0.  1.
         -5    1    3    3    0  503 -0.84776928584E+01 -0.59220188422E-01  0.79443325133E+02  0.80032535205E+02  0.47000000000E+01 0.  1.
<mgrwt>
<rscale>  0 0.12787392E+03</rscale>
<asrwt>0</asrwt>
<pdfrwt beam="1">  1        5 0.30589381E-01 0.12787828E+03</pdfrwt>
<pdfrwt beam="2">  1       -5 0.12876456E-01 0.12787828E+03</pdfrwt>
<totfact> 0.37618637E+02</totfact>
</mgrwt>
</event>
<event>
 8    1  0.1821556E-007  0.1285271E+03  0.7546771E-02  0.1229658E+00
         -5   -1    0    0    0  501 -0.00000000000E+00  0.00000000000E+00  0.12222846850E+03  0.12231879869E+03  0.47000000000E+01 0.  1.
          5   -1    0    0  501    0  0.00000000000E+00 -0.00000000000E+00 -0.14074259143E+03  0.14082104616E+03  0.47000000000E+01 0.  1.
         25    2    1    2    0    0  0.21354505198E+02 -0.20949038394E+02  0.17375502792E+02  0.12969595486E+03  0.12499702200E+03 0.  0.
         25    2    1    2    0    0 -0.21354505198E+02  0.20949038394E+02 -0.35889625721E+02  0.13344388999E+03  0.12499731773E+03 0.  0.
          5    1    3    3  502    0 -0.63343349019E+01  0.28001871442E+02  0.54755484117E+02  0.62003884102E+02  0.47000000000E+01 0.  1.
         -5    1    3    3    0  502  0.27688840100E+02 -0.48950909835E+02 -0.37379981325E+02  0.67692070759E+02  0.47000000000E+01 0.  1.
          5    1    4    4  503    0  0.21242604714E+02 -0.43813577901E+02 -0.27052899748E+01  0.48992718411E+02  0.47000000000E+01 0.  1.
         -5    1    4    4    0  503 -0.42597109912E+02  0.64762616294E+02 -0.33184335746E+02  0.84451171579E+02  0.47000000000E+01 0.  1.
<mgrwt>
<rscale>  0 0.12852699E+03</rscale>
<asrwt>0</asrwt>
<pdfrwt beam="2">  1        5 0.21665690E-01 0.12852707E+03</pdfrwt>
<pdfrwt beam="1">  1       -5 0.18817363E-01 0.12852707E+03</pdfrwt>
<totfact> 0.36725657E+02</totfact>
</mgrwt>
</event>
<event>
 8    1  0.1821556E-007  0.1370961E+03  0.7546771E-02  0.1217291E+00
         -5   -1    0    0    0  501 -0.00000000000E+00  0.00000000000E+00  0.13114567524E+03  0.13122986754E+03  0.47000000000E+01 0. -1.
          5   -1    0    0  501    0  0.00000000000E+00 -0.00000000000E+00 -0.14520404972E+03  0.14528009517E+03  0.47000000000E+01 0. -1.
         25    2    1    2    0    0  0.21384117500E+02 -0.52082044620E+02  0.94215762807E+01  0.13741769591E+03  0.12500014878E+03 0.  0.
         25    2    1    2    0    0 -0.21384117500E+02  0.52082044620E+02 -0.23479950757E+02  0.13909226680E+03  0.12500212296E+03 0.  0.
          5    1    3    3  502    0  0.28696819751E+02 -0.85402066065E+02  0.32579881776E+02  0.95919544664E+02  0.47000000000E+01 0.  1.
         -5    1    3    3    0  502 -0.73127022507E+01  0.33320021445E+02 -0.23158305495E+02  0.41498151245E+02  0.47000000000E+01 0.  1.
          5    1    4    4  503    0 -0.54163764203E+02  0.13827350305E+02  0.31530231486E+02  0.64351802357E+02  0.47000000000E+01 0. -1.
         -5    1    4    4    0  503  0.32779646703E+02  0.38254694315E+02 -0.55010182243E+02  0.74740464445E+02  0.47000000000E+01 0. -1.
<mgrwt>
<rscale>  0 0.13709569E+03</rscale>
<asrwt>0</asrwt>
<pdfrwt beam="2">  1        5 0.22351411E-01 0.13709614E+03</pdfrwt>
<pdfrwt beam="1">  1       -5 0.20188584E-01 0.13709614E+03</pdfrwt>
<totfact> 0.31089464E+02</totfact>
</mgrwt>
</event>
<event>
 8    1  0.1821556E-007  0.1523946E+03  0.7546771E-02  0.1197564E+00
          5   -1    0    0  501    0  0.00000000000E+00  0.00000000000E+00  0.54773272925E+02  0.54974552539E+02  0.47000000000E+01 0.  1.
         -5   -1    0    0    0  501 -0.00000000000E+00 -0.00000000000E+00 -0.42730332948E+03  0.42732917684E+03  0.47000000000E+01 0.  1.
         25    2    1    2    0    0 -0.82415950030E+02  0.28406730236E+02 -0.21050143828E+03  0.25986860254E+03  0.12498601493E+03 0.  0.
         25    2    1    2    0    0  0.82415950030E+02 -0.28406730236E+02 -0.16202861828E+03  0.22243512684E+03  0.12499912548E+03 0.  0.
          5    1    4    4  502    0  0.68719152066E+01 -0.51335994501E+02 -0.12443934805E+03  0.13486974788E+03  0.47000000000E+01 0. -1.
         -5    1    4    4    0  502  0.75544034824E+02  0.22929264265E+02 -0.37589270232E+02  0.87565378968E+02  0.47000000000E+01 0. -1.
          5    1    3    3  503    0 -0.11758342468E+02  0.69145148241E+02 -0.88097750067E+02  0.11270587256E+03  0.47000000000E+01 0.  1.
         -5    1    3    3    0  503 -0.70657607562E+02 -0.40738418006E+02 -0.12240368821E+03  0.14716272998E+03  0.47000000000E+01 0.  1.
<mgrwt>
<rscale>  0 0.15239191E+03</rscale>
<asrwt>0</asrwt>
<pdfrwt beam="1">  1        5 0.84441290E-02 0.15239459E+03</pdfrwt>
<pdfrwt beam="2">  1       -5 0.65756443E-01 0.15239459E+03</pdfrwt>
<totfact> 0.16929921E+02</totfact>
</mgrwt>
</event>
<event>
 8    1  0.1821556E-007  0.1435467E+03  0.7546771E-02  0.1208639E+00
         -5   -1    0    0    0  501 -0.00000000000E+00  0.00000000000E+00  0.86567073695E+02  0.86694568734E+02  0.47000000000E+01 0.  1.
          5   -1    0    0  501    0  0.00000000000E+00 -0.00000000000E+00 -0.24502824503E+03  0.24507331732E+03  0.47000000000E+01 0.  1.
         25    2    1    2    0    0 -0.57433039533E+02 -0.40968656513E+02 -0.10793321154E+03  0.17958797453E+03  0.12500111038E+03 0.  0.
         25    2    1    2    0    0  0.57433039533E+02  0.40968656513E+02 -0.50527959793E+02  0.15217991152E+03  0.12501466275E+03 0.  0.
          5    1    3    3  502    0 -0.94181062549E+02 -0.33228584720E+02 -0.98995444845E+02  0.14069967834E+03  0.47000000000E+01 0.  1.
         -5    1    3    3    0  502  0.36748023017E+02 -0.77400717932E+01 -0.89377666931E+01  0.38888296189E+02  0.47000000000E+01 0.  1.
          5    1    4    4  503    0  0.28989184049E+02 -0.22672368975E+02 -0.70369175019E+02  0.79550737895E+02  0.47000000000E+01 0. -1.
         -5    1    4    4    0  503  0.28443855483E+02  0.63641025488E+02  0.19841215225E+02  0.72629173626E+02  0.47000000000E+01 0. -1.
<mgrwt>
<rscale>  0 0.14354373E+03</rscale>
<asrwt>0</asrwt>
<pdfrwt beam="2">  1        5 0.37709927E-01 0.14354668E+03</pdfrwt>
<pdfrwt beam="1">  1       -5 0.13331286E-01 0.14354668E+03</pdfrwt>
<totfact> 0.24243597E+02</totfact>
</mgrwt>
</event>
<event>
 8    1  0.1821556E-007  0.1315152E+03  0.7546771E-02  0.1225225E+00
          5   -1    0    0  501    0  0.00000000000E+00  0.00000000000E+00  0.20740892111E+03  0.20746216656E+03  0.47000000000E+01 0. -1.
         -5   -1    0    0    0  501 -0.00000000000E+00 -0.00000000000E+00 -0.93663374576E+02  0.93781222731E+02  0.47000000000E+01 0. -1.
         25    2    1    2    0    0 -0.34502830871E+02 -0.21918867316E+02  0.67242470434E+01  0.13168702506E+03  0.12500149994E+03 0.  0.
         25    2    1    2    0    0  0.34502830871E+02  0.21918867316E+02  0.10702129949E+03  0.16955636424E+03  0.12499968011E+03 0.  0.
          5    1    3    3  502    0 -0.90501073804E+01  0.48086615725E+02  0.24557571058E+02  0.54948988633E+02  0.47000000000E+01 0.  1.
         -5    1    3    3    0  502 -0.25452723490E+02 -0.70005483041E+02 -0.17833324015E+02  0.76738036425E+02  0.47000000000E+01 0.  1.
          5    1    4    4  503    0 -0.11185582525E+02 -0.46911528474E+02  0.33966143406E+02  0.59174298965E+02  0.47000000000E+01 0.  1.
         -5    1    4    4    0  503  0.45688413396E+02  0.68830395790E+02  0.73055156082E+02  0.11038206527E+03  0.47000000000E+01 0.  1.
<mgrwt>
<rscale>  0 0.13151480E+03</rscale>
<asrwt>0</asrwt>
<pdfrwt beam="1">  1        5 0.31922226E-01 0.13151524E+03</pdfrwt>
<pdfrwt beam="2">  1       -5 0.14422911E-01 0.13151524E+03</pdfrwt>
<totfact> 0.28516392E+02</totfact>
</mgrwt>
</event>
<event>
 8    1  0.1821556E-007  0.1298432E+03  0.7546771E-02  0.1227692E+00
         -5   -1    0    0    0  501 -0.00000000000E+00  0.00000000000E+00  0.85864866862E+02  0.85993403010E+02  0.47000000000E+01 0.  1.
          5   -1    0    0  501    0  0.00000000000E+00 -0.00000000000E+00 -0.19752238706E+03  0.19757829686E+03  0.47000000000E+01 0.  1.
         25    2    1    2    0    0  0.29230923285E+02  0.19463342973E+02 -0.43505667773E+02  0.13692950899E+03  0.12499471472E+03 0.  0.
         25    2    1    2    0    0 -0.29230923285E+02 -0.19463342973E+02 -0.68151852424E+02  0.14664219088E+03  0.12500395418E+03 0.  0.
          5    1    4    4  502    0  0.27159378451E+02 -0.54404061462E+02 -0.18777235575E+02  0.63813073247E+02  0.47000000000E+01 0.  1.
         -5    1    4    4    0  502 -0.56390301737E+02  0.34940718489E+02 -0.49374616849E+02  0.82829117630E+02  0.47000000000E+01 0.  1.
          5    1    3    3  503    0  0.23532487844E+02  0.68651991817E+02 -0.30072332035E+01  0.72787412484E+02  0.47000000000E+01 0. -1.
         -5    1    3    3    0  503  0.56984354414E+01 -0.49188648844E+02 -0.40498434569E+02  0.64142096506E+02  0.47000000000E+01 0. -1.
<mgrwt>
<rscale>  0 0.12984098E+03</rscale>
<asrwt>0</asrwt>
<pdfrwt beam="2">  1        5 0.30402248E-01 0.12984320E+03</pdfrwt>
<pdfrwt beam="1">  1       -5 0.13224168E-01 0.12984320E+03</pdfrwt>
<totfact> 0.36511690E+02</totfact>
</mgrwt>
</event>
<event>
 8    1  0.1821556E-007  0.1535482E+03  0.7546771E-02  0.1196183E+00
         -5   -1    0    0    0  501 -0.00000000000E+00  0.00000000000E+00  0.10412851561E+03  0.10423453249E+03  0.47000000000E+01 0.  1.
          5   -1    0    0  501    0  0.00000000000E+00 -0.00000000000E+00 -0.27052502290E+03  0.27056584784E+03  0.47000000000E+01 0.  1.
         25    2    1    2    0    0  0.83322283167E+02 -0.31718429306E+02 -0.73276310287E+01  0.15371223427E+03  0.12500038064E+03 0.  0.
         25    2    1    2    0    0 -0.83322283167E+02  0.31718429306E+02 -0.15906887627E+03  0.22108814605E+03  0.12501359645E+03 0.  0.
          5    1    4    4  502    0 -0.11273063062E+03  0.60683846352E+01 -0.12975006550E+03  0.17205286940E+03  0.47000000000E+01 0.  1.
         -5    1    4    4    0  502  0.29408347450E+02  0.25650044671E+02 -0.29318810771E+02  0.49035276653E+02  0.47000000000E+01 0.  1.
          5    1    3    3  503    0 -0.28411176193E+02 -0.12396415991E+02 -0.23357710209E+02  0.39096530387E+02  0.47000000000E+01 0.  1.
         -5    1    3    3    0  503  0.11173345936E+03 -0.19322013315E+02  0.16030079180E+02  0.11461570389E+03  0.47000000000E+01 0.  1.
<mgrwt>
<rscale>  0 0.15354555E+03</rscale>
<asrwt>0</asrwt>
<pdfrwt beam="2">  1        5 0.41630530E-01 0.15354824E+03</pdfrwt>
<pdfrwt beam="1">  1       -5 0.16031067E-01 0.15354824E+03</pdfrwt>
<totfact> 0.14505579E+02</totfact>
</mgrwt>
</event>
<event>
 8    1  0.1821556E-007  0.1855622E+03  0.7546771E-02  0.1162534E+00
          5   -1    0    0  501    0  0.00000000000E+00  0.00000000000E+00  0.73110616494E+02  0.73261533182E+02  0.47000000000E+01 0. -1.
         -5   -1    0    0    0  501 -0.00000000000E+00 -0.00000000000E+00 -0.77136806296E+03  0.77138238154E+03  0.47000000000E+01 0.  1.
         25    2    1    2    0    0  0.45832433572E+02 -0.12923171853E+03 -0.61294822749E+03  0.64041123812E+03  0.12497829924E+03 0.  0.
         25    2    1    2    0    0 -0.45832433572E+02  0.12923171853E+03 -0.85309218973E+02  0.20423267661E+03  0.12502749422E+03 0.  0.
          5    1    4    4  502    0  0.32959749771E+02  0.56979421642E+02 -0.69883494497E+02  0.96118637104E+02  0.47000000000E+01 0.  1.
         -5    1    4    4    0  502 -0.78792183344E+02  0.72252296889E+02 -0.15425724476E+02  0.10811403950E+03  0.47000000000E+01 0.  1.
          5    1    3    3  503    0  0.40129837655E+02  0.12896768890E+02 -0.11717725374E+03  0.12461672967E+03  0.47000000000E+01 0.  1.
         -5    1    3    3    0  503  0.57025959174E+01 -0.14212848742E+03 -0.49577097375E+03  0.51579450845E+03  0.47000000000E+01 0.  1.
<mgrwt>
<rscale>  0 0.18555390E+03</rscale>
<asrwt>0</asrwt>
<pdfrwt beam="1">  1        5 0.11260498E-01 0.18556218E+03</pdfrwt>
<pdfrwt beam="2">  1       -5 0.11868471E+00 0.18556218E+03</pdfrwt>
<totfact> 0.26571914E+01</totfact>
</mgrwt>
</event>
<event>
 8    1  0.1821556E-007  0.1284587E+03  0.7546771E-02  0.1229762E+00
          5   -1    0    0  501    0  0.00000000000E+00  0.00000000000E+00  0.80123380192E+02  0.80261111713E+02  0.47000000000E+01 0. -1.
         -5   -1    0    0    0  501 -0.00000000000E+00 -0.00000000000E+00 -0.24482037958E+03  0.24486549013E+03  0.47000000000E+01 0. -1.
         25    2    1    2    0    0  0.22673076672E+02 -0.19024842857E+02 -0.14738465455E+03  0.19550654155E+03  0.12499823335E+03 0.  0.
         25    2    1    2    0    0 -0.22673076672E+02  0.19024842857E+02 -0.17312344836E+02  0.12962006029E+03  0.12500251876E+03 0.  0.
          5    1    3    3  502    0 -0.43559416336E+02 -0.13186172570E+02 -0.10987804653E+03  0.11902341369E+03  0.47000000000E+01 0.  1.
         -5    1    3    3    0  502  0.66232493008E+02 -0.58386702872E+01 -0.37506608020E+02  0.76483127851E+02  0.47000000000E+01 0.  1.
          5    1    4    4  503    0 -0.45728245843E+02 -0.26494348341E+02 -0.46585634701E+02  0.70606899963E+02  0.47000000000E+01 0.  1.
         -5    1    4    4    0  503  0.23055169171E+02  0.45519191198E+02  0.29273289865E+02  0.59013160332E+02  0.47000000000E+01 0.  1.
<mgrwt>
<rscale>  0 0.12845768E+03</rscale>
<asrwt>0</asrwt>
<pdfrwt beam="1">  1        5 0.12340739E-01 0.12845872E+03</pdfrwt>
<pdfrwt beam="2">  1       -5 0.37678738E-01 0.12845872E+03</pdfrwt>
<totfact> 0.26819889E+02</totfact>
</mgrwt>
</event>
<event>
 8    1  0.1821556E-007  0.1287156E+03  0.7546771E-02  0.1229376E+00
          5   -1    0    0  501    0  0.00000000000E+00  0.00000000000E+00  0.42650086775E+03  0.42652676375E+03  0.47000000000E+01 0. -1.
         -5   -1    0    0    0  501 -0.00000000000E+00 -0.00000000000E+00 -0.41018864018E+02  0.41287252334E+02  0.47000000000E+01 0. -1.
         25    2    1    2    0    0 -0.21996727746E+02 -0.21398139155E+02  0.13703317349E+03  0.18800478794E+03  0.12500389298E+03 0.  0.
         25    2    1    2    0    0  0.21996727746E+02  0.21398139155E+02  0.24844883024E+03  0.27980922814E+03  0.12499858604E+03 0.  0.
          5    1    4    4  502    0 -0.33733758942E+01  0.56710802957E+02  0.22086411659E+03  0.22810204478E+03  0.47000000000E+01 0.  1.
         -5    1    4    4    0  502  0.25370103640E+02 -0.35312663802E+02  0.27584713654E+02  0.51707183358E+02  0.47000000000E+01 0.  1.
          5    1    3    3  503    0 -0.12277716665E+02  0.42364790488E+02  0.10869572790E+03  0.11739833501E+03  0.47000000000E+01 0. -1.
         -5    1    3    3    0  503 -0.97190110817E+01 -0.63762929643E+02  0.28337445594E+02  0.70606452934E+02  0.47000000000E+01 0. -1.
<mgrwt>
<rscale>  0 0.12871433E+03</rscale>
<asrwt>0</asrwt>
<pdfrwt beam="1">  1        5 0.65638156E-01 0.12871562E+03</pdfrwt>
<pdfrwt beam="2">  1       -5 0.63332317E-02 0.12871562E+03</pdfrwt>
<totfact> 0.26221773E+02</totfact>
</mgrwt>
</event>
<event>
 8    1  0.1821556E-007  0.1261595E+03  0.7546771E-02  0.1233269E+00
          5   -1    0    0  501    0  0.00000000000E+00  0.00000000000E+00  0.26951298093E+02  0.27358042125E+02  0.47000000000E+01 0.  1.
         -5   -1    0    0    0  501 -0.00000000000E+00 -0.00000000000E+00 -0.67208101341E+03  0.67209744724E+03  0.47000000000E+01 0.  1.
         25    2    1    2    0    0 -0.17034419005E+02  0.79418696873E-01 -0.44790447187E+03  0.46533283545E+03  0.12500421630E+03 0.  0.
         25    2    1    2    0    0  0.17034419005E+02 -0.79418696873E-01 -0.19722524345E+03  0.23412265391E+03  0.12500177072E+03 0.  0.
          5    1    4    4  502    0  0.67909699197E+02  0.13033955687E+02 -0.14048334990E+03  0.15665016069E+03  0.47000000000E+01 0.  1.
         -5    1    4    4    0  502 -0.50875280192E+02 -0.13113374384E+02 -0.56741893550E+02  0.77472493222E+02  0.47000000000E+01 0.  1.
          5    1    3    3  503    0 -0.65482030136E+02 -0.18348225620E+02 -0.32123085102E+03  0.32838377441E+03  0.47000000000E+01 0.  1.
         -5    1    3    3    0  503  0.48447611131E+02  0.18427644317E+02 -0.12667362085E+03  0.13694906104E+03  0.47000000000E+01 0.  1.
<mgrwt>
<rscale>  0 0.12615894E+03</rscale>
<asrwt>0</asrwt>
<pdfrwt beam="1">  1        5 0.41789062E-02 0.12615955E+03</pdfrwt>
<pdfrwt beam="2">  1       -5 0.10342962E+00 0.12615955E+03</pdfrwt>
<totfact> 0.18030580E+02</totfact>
</mgrwt>
</event>
<event>
 8    1  0.1821556E-007  0.1442855E+03  0.7546771E-02  0.1207676E+00
         -5   -1    0    0    0  501 -0.00000000000E+00  0.00000000000E+00  0.85541109941E+03  0.85542401123E+03  0.47000000000E+01 0.  1.
          5   -1    0    0  501    0  0.00000000000E+00 -0.00000000000E+00 -0.25948099302E+02  0.26370321526E+02  0.47000000000E+01 0.  1.
         25    2    1    2    0    0  0.68309894092E+02  0.22933601607E+02  0.53148218548E+03  0.55071918791E+03  0.12500447489E+03 0.  0.
         25    2    1    2    0    0 -0.68309894092E+02 -0.22933601607E+02  0.29798081463E+03  0.33107514484E+03  0.12500397567E+03 0.  0.
          5    1    3    3  502    0  0.27843974546E+02 -0.47464119638E+02  0.13282694463E+03  0.14385137049E+03  0.47000000000E+01 0. -1.
         -5    1    3    3    0  502  0.40465919546E+02  0.70397721245E+02  0.39865524085E+03  0.40686781742E+03  0.47000000000E+01 0. -1.
          5    1    4    4  503    0 -0.30133647868E+01  0.22874191033E+02  0.21350184910E+03  0.21479627220E+03  0.47000000000E+01 0.  1.
         -5    1    4    4    0  503 -0.65296529305E+02 -0.45807792641E+02  0.84478965526E+02  0.11627887264E+03  0.47000000000E+01 0.  1.
<mgrwt>
<rscale>  0 0.14428541E+03</rscale>
<asrwt>0</asrwt>
<pdfrwt beam="2">  1        5 0.40254870E-02 0.14428552E+03</pdfrwt>
<pdfrwt beam="1">  1       -5 0.13163518E+00 0.14428552E+03</pdfrwt>
<totfact> 0.10891749E+02</totfact>
</mgrwt>
</event>
<event>
 8    1  0.1821556E-007  0.1456830E+03  0.7546771E-02  0.1205883E+00
         -5   -1    0    0    0  501 -0.00000000000E+00  0.00000000000E+00  0.46792128145E+02  0.47027579741E+02  0.47000000000E+01 0.  1.
          5   -1    0    0  501    0  0.00000000000E+00 -0.00000000000E+00 -0.49250978406E+03  0.49253220950E+03  0.47000000000E+01 0.  1.
         25    2    1    2    0    0 -0.37650886912E+02  0.64656014093E+02 -0.14565827921E+03  0.20600444896E+03  0.12499403684E+03 0.  0.
         25    2    1    2    0    0  0.37650886912E+02 -0.64656014093E+02 -0.30005937671E+03  0.33355534028E+03  0.12500218412E+03 0.  0.
          5    1    4    4  502    0  0.83790881479E+02 -0.38914308230E+02 -0.19750532668E+03  0.21809557370E+03  0.47000000000E+01 0. -1.
         -5    1    4    4    0  502 -0.46139994567E+02 -0.25741705863E+02 -0.10255405003E+03  0.11545976657E+03  0.47000000000E+01 0. -1.
          5    1    3    3  503    0 -0.80153715205E+02  0.57793066425E+02 -0.79415806296E+02  0.12686061989E+03  0.47000000000E+01 0.  1.
         -5    1    3    3    0  503  0.42502828293E+02  0.68629476681E+01 -0.66242472909E+02  0.79143829075E+02  0.47000000000E+01 0.  1.
<mgrwt>
<rscale>  0 0.14568125E+03</rscale>
<asrwt>0</asrwt>
<pdfrwt beam="2">  1        5 0.75790569E-01 0.14568300E+03</pdfrwt>
<pdfrwt beam="1">  1       -5 0.72186260E-02 0.14568300E+03</pdfrwt>
<totfact> 0.15835599E+02</totfact>
</mgrwt>
</event>
<event>
 8    1  0.1821556E-007  0.1790196E+03  0.7546771E-02  0.1168756E+00
          5   -1    0    0  501    0  0.00000000000E+00  0.00000000000E+00  0.19245788942E+02  0.19811370270E+02  0.47000000000E+01 0. -1.
         -5   -1    0    0    0  501 -0.00000000000E+00 -0.00000000000E+00 -0.16423808569E+04  0.16423875819E+04  0.47000000000E+01 0. -1.
         25    2    1    2    0    0  0.19641322252E+01 -0.12812934089E+03 -0.83980824907E+03  0.85867684695E+03  0.12500818559E+03 0.  0.
         25    2    1    2    0    0 -0.19641322252E+01  0.12812934089E+03 -0.78332681894E+03  0.80352210525E+03  0.12500353014E+03 0.  0.
          5    1    4    4  502    0  0.93948830439E+01  0.20671490529E+02 -0.14992377307E+02  0.27612238689E+02  0.47000000000E+01 0.  1.
         -5    1    4    4    0  502 -0.11359015269E+02  0.10745785037E+03 -0.76833444163E+03  0.77590986656E+03  0.47000000000E+01 0.  1.
          5    1    3    3  503    0  0.44936890663E+02 -0.47545429793E+01 -0.29021994196E+03  0.29375437790E+03  0.47000000000E+01 0.  1.
         -5    1    3    3    0  503 -0.42972758438E+02 -0.12337479792E+03 -0.54958830711E+03  0.56492246905E+03  0.47000000000E+01 0.  1.
<mgrwt>
<rscale>  0 0.17901883E+03</rscale>
<asrwt>0</asrwt>
<pdfrwt beam="1">  1        5 0.30049155E-02 0.17901964E+03</pdfrwt>
<pdfrwt beam="2">  1       -5 0.25271789E+00 0.17901964E+03</pdfrwt>
<totfact> 0.25634855E+01</totfact>
</mgrwt>
</event>
<event>
 8    1  0.1821556E-007  0.1278534E+03  0.7546771E-02  0.1230677E+00
          5   -1    0    0  501    0  0.00000000000E+00  0.00000000000E+00  0.15945875728E+02  0.16624107577E+02  0.47000000000E+01 0. -1.
         -5   -1    0    0    0  501 -0.00000000000E+00 -0.00000000000E+00 -0.12536711470E+04  0.12536799571E+04  0.47000000000E+01 0. -1.
         25    2    1    2    0    0  0.11412253084E+02 -0.24324460760E+02 -0.90274909503E+03  0.91175763490E+03  0.12499654918E+03 0.  0.
         25    2    1    2    0    0 -0.11412253084E+02  0.24324460760E+02 -0.33497617626E+03  0.35854642979E+03  0.12499833896E+03 0.  0.
          5    1    3    3  502    0  0.35039965546E+02 -0.29725493878E+02 -0.86746444880E+03  0.86869330843E+03  0.47000000000E+01 0.  1.
         -5    1    3    3    0  502 -0.23627712462E+02  0.54010331182E+01 -0.35284646224E+02  0.43064326467E+02  0.47000000000E+01 0.  1.
          5    1    4    4  503    0  0.43681320383E+02  0.50254731198E+01 -0.46435154160E+02  0.64121967159E+02  0.47000000000E+01 0. -1.
         -5    1    4    4    0  503 -0.55093573467E+02  0.19298987640E+02 -0.28854102210E+03  0.29442446264E+03  0.47000000000E+01 0. -1.
<mgrwt>
<rscale>  0 0.12785301E+03</rscale>
<asrwt>0</asrwt>
<pdfrwt beam="1">  1        5 0.25060620E-02 0.12785345E+03</pdfrwt>
<pdfrwt beam="2">  1       -5 0.19292526E+00 0.12785345E+03</pdfrwt>
<totfact> 0.77390241E+01</totfact>
</mgrwt>
</event>
<event>
 8    1  0.1821556E-007  0.1453973E+03  0.7546771E-02  0.1206248E+00
         -5   -1    0    0    0  501 -0.00000000000E+00  0.00000000000E+00  0.47527961206E+03  0.47530285045E+03  0.47000000000E+01 0.  1.
          5   -1    0    0  501    0  0.00000000000E+00 -0.00000000000E+00 -0.44332282299E+02  0.44580727381E+02  0.47000000000E+01 0.  1.
         25    2    1    2    0    0 -0.72446452352E+01  0.73900668235E+02  0.21323098690E+03  0.25808063358E+03  0.12499746399E+03 0.  0.
         25    2    1    2    0    0  0.72446452352E+01 -0.73900668235E+02  0.21771634286E+03  0.26180294425E+03  0.12500632791E+03 0.  0.
          5    1    4    4  502    0  0.11264841095E+02 -0.36376545111E+02 -0.23815417993E+01  0.38443613519E+02  0.47000000000E+01 0.  1.
         -5    1    4    4    0  502 -0.40201958601E+01 -0.37524123124E+02  0.22009788466E+03  0.22335933073E+03  0.47000000000E+01 0.  1.
          5    1    3    3  503    0  0.22528225574E+01  0.45645576724E+02  0.33749073098E+01  0.46065973161E+02  0.47000000000E+01 0.  1.
         -5    1    3    3    0  503 -0.94974677926E+01  0.28255091511E+02  0.20985607959E+03  0.21201466042E+03  0.47000000000E+01 0.  1.
<mgrwt>
<rscale>  0 0.14539540E+03</rscale>
<asrwt>0</asrwt>
<pdfrwt beam="2">  1        5 0.68412501E-02 0.14539730E+03</pdfrwt>
<pdfrwt beam="1">  1       -5 0.73140836E-01 0.14539730E+03</pdfrwt>
<totfact> 0.18805720E+02</totfact>
</mgrwt>
</event>
<event>
 8    1  0.1821556E-007  0.1706583E+03  0.7546771E-02  0.1177164E+00
          5   -1    0    0  501    0  0.00000000000E+00  0.00000000000E+00  0.34400500605E+03  0.34403711164E+03  0.47000000000E+01 0.  1.
         -5   -1    0    0    0  501 -0.00000000000E+00 -0.00000000000E+00 -0.10810357322E+03  0.10820569552E+03  0.47000000000E+01 0.  1.
         25    2    1    2    0    0 -0.10166039919E+03  0.56243945011E+02  0.12493175276E+02  0.17111025845E+03  0.12499769200E+03 0.  0.
         25    2    1    2    0    0  0.10166039919E+03 -0.56243945011E+02  0.22340825756E+03  0.28113254871E+03  0.12500416907E+03 0.  0.
          5    1    4    4  502    0  0.70973769146E+01 -0.63732585613E+02  0.14262184353E+03  0.15644582283E+03  0.47000000000E+01 0.  1.
         -5    1    4    4    0  502  0.94563022272E+02  0.74886406016E+01  0.80786414024E+02  0.12468672588E+03  0.47000000000E+01 0.  1.
          5    1    3    3  503    0 -0.72133844484E+01 -0.16811094130E+02  0.43699388836E+02  0.47606432188E+02  0.47000000000E+01 0.  1.
         -5    1    3    3    0  503 -0.94447014738E+02  0.73055039141E+02 -0.31206213560E+02  0.12350382626E+03  0.47000000000E+01 0.  1.
<mgrwt>
<rscale>  0 0.17065713E+03</rscale>
<asrwt>0</asrwt>
<pdfrwt beam="1">  1        5 0.52934172E-01 0.17065831E+03</pdfrwt>
<pdfrwt beam="2">  1       -5 0.16641644E-01 0.17065831E+03</pdfrwt>
<totfact> 0.84373773E+01</totfact>
</mgrwt>
</event>
<event>
 8    1  0.1821556E-007  0.1368876E+03  0.7546771E-02  0.1217582E+00
          5   -1    0    0  501    0  0.00000000000E+00  0.00000000000E+00  0.13625722978E+04  0.13625804038E+04  0.47000000000E+01 0.  1.
         -5   -1    0    0    0  501 -0.00000000000E+00 -0.00000000000E+00 -0.16805134732E+02  0.17450001529E+02  0.47000000000E+01 0.  1.
         25    2    1    2    0    0 -0.39030705313E+02  0.39871917978E+02  0.36624716235E+03  0.39099256640E+03  0.12500014899E+03 0.  0.
         25    2    1    2    0    0  0.39030705313E+02 -0.39871917978E+02  0.97952000071E+03  0.98903783890E+03  0.12499299648E+03 0.  0.
          5    1    4    4  502    0  0.10160091345E+01 -0.66154982680E+01  0.84851954397E+03  0.84855895706E+03  0.47000000000E+01 0.  1.
         -5    1    4    4    0  502  0.38014696178E+02 -0.33256419710E+02  0.13100045674E+03  0.14047888184E+03  0.47000000000E+01 0.  1.
          5    1    3    3  503    0  0.35911310976E+02  0.48276373403E+02  0.13974577721E+03  0.15222090110E+03  0.47000000000E+01 0. -1.
         -5    1    3    3    0  503 -0.74942016289E+02 -0.84044554245E+01  0.22650138514E+03  0.23877166530E+03  0.47000000000E+01 0. -1.
<mgrwt>
<rscale>  0 0.13688592E+03</rscale>
<asrwt>0</asrwt>
<pdfrwt beam="1">  1        5 0.20967674E+00 0.13688756E+03</pdfrwt>
<pdfrwt beam="2">  1       -5 0.26356340E-02 0.13688756E+03</pdfrwt>
<totfact> 0.56198166E+01</totfact>
</mgrwt>
</event>
<event>
 8    1  0.1821556E-007  0.1285715E+03  0.7546771E-02  0.1229594E+00
          5   -1    0    0  501    0  0.00000000000E+00  0.00000000000E+00  0.18231369109E+03  0.18237426343E+03  0.47000000000E+01 0.  1.
         -5   -1    0    0    0  501 -0.00000000000E+00 -0.00000000000E+00 -0.90590472675E+02  0.90712313053E+02  0.47000000000E+01 0.  1.
         25    2    1    2    0    0 -0.19822712165E+02  0.22594390886E+02  0.42309921955E+02  0.13534655031E+03  0.12500045107E+03 0.  0.
         25    2    1    2    0    0  0.19822712165E+02 -0.22594390886E+02  0.49413296465E+02  0.13774002617E+03  0.12500877779E+03 0.  0.
          5    1    4    4  502    0  0.97725492443E+00 -0.81800999411E+00  0.88682658800E+02  0.88816260557E+02  0.47000000000E+01 0. -1.
         -5    1    4    4    0  502  0.18845457240E+02 -0.21776380892E+02 -0.39269362335E+02  0.48923765611E+02  0.47000000000E+01 0. -1.
          5    1    3    3  503    0 -0.41106237029E+02 -0.35411676980E+02 -0.86192951623E+01  0.55137027834E+02  0.47000000000E+01 0. -1.
         -5    1    3    3    0  503  0.21283524864E+02  0.58006067867E+02  0.50929217118E+02  0.80209522478E+02  0.47000000000E+01 0. -1.
<mgrwt>
<rscale>  0 0.12856952E+03</rscale>
<asrwt>0</asrwt>
<pdfrwt beam="1">  1        5 0.28062291E-01 0.12857154E+03</pdfrwt>
<pdfrwt beam="2">  1       -5 0.13951028E-01 0.12857154E+03</pdfrwt>
<totfact> 0.38651616E+02</totfact>
</mgrwt>
</event>
<event>
 8    1  0.1821556E-007  0.1351629E+03  0.7546771E-02  0.1219997E+00
          5   -1    0    0  501    0  0.00000000000E+00  0.00000000000E+00  0.94016066149E+02  0.94133472761E+02  0.47000000000E+01 0. -1.
         -5   -1    0    0    0  501 -0.00000000000E+00 -0.00000000000E+00 -0.21588318561E+03  0.21593434148E+03  0.47000000000E+01 0. -1.
         25    2    1    2    0    0  0.41077058968E+02  0.30868598372E+02 -0.11025536639E+03  0.17442836229E+03  0.12501524953E+03 0.  0.
         25    2    1    2    0    0 -0.41077058968E+02 -0.30868598372E+02 -0.11611753070E+02  0.13563945195E+03  0.12499213166E+03 0.  0.
          5    1    4    4  502    0 -0.84614152178E+02 -0.27360664026E+02 -0.19095372950E+02  0.91076253507E+02  0.47000000000E+01 0.  1.
         -5    1    4    4    0  502  0.43537093210E+02 -0.35079343458E+01  0.74836198802E+01  0.44563198438E+02  0.47000000000E+01 0.  1.
          5    1    3    3  503    0  0.14526216841E+02  0.46790844854E+00 -0.12884171546E+03  0.12974400779E+03  0.47000000000E+01 0. -1.
         -5    1    3    3    0  503  0.26550842126E+02  0.30400689923E+02  0.18586349072E+02  0.44684354502E+02  0.47000000000E+01 0. -1.
<mgrwt>
<rscale>  0 0.13515755E+03</rscale>
<asrwt>0</asrwt>
<pdfrwt beam="1">  1        5 0.14476977E-01 0.13516289E+03</pdfrwt>
<pdfrwt beam="2">  1       -5 0.33225764E-01 0.13516289E+03</pdfrwt>
<totfact> 0.26413584E+02</totfact>
</mgrwt>
</event>
<event>
 8    1  0.1821556E-007  0.1529834E+03  0.7546771E-02  0.1196855E+00
         -5   -1    0    0    0  501 -0.00000000000E+00  0.00000000000E+00  0.12175522823E+04  0.12175613538E+04  0.47000000000E+01 0.  1.
          5   -1    0    0  501    0  0.00000000000E+00 -0.00000000000E+00 -0.21583197348E+02  0.22089011019E+02  0.47000000000E+01 0.  1.
         25    2    1    2    0    0 -0.45723729173E+02  0.75422338321E+02  0.81277487119E+03  0.82704678041E+03  0.12499678884E+03 0.  0.
         25    2    1    2    0    0  0.45723729173E+02 -0.75422338321E+02  0.38319421381E+03  0.41260358440E+03  0.12499889534E+03 0.  0.
          5    1    4    4  502    0  0.35134994214E+02 -0.59436017863E+02  0.68779202299E+02  0.97569343068E+02  0.47000000000E+01 0. -1.
         -5    1    4    4    0  502  0.10588734959E+02 -0.15986320458E+02  0.31441501151E+03  0.31503424133E+03  0.47000000000E+01 0. -1.
          5    1    3    3  503    0 -0.19326694842E+01 -0.16075629638E+02  0.45033072231E+03  0.45064621438E+03  0.47000000000E+01 0. -1.
         -5    1    3    3    0  503 -0.43791059689E+02  0.91497967959E+02  0.36244414888E+03  0.37640056603E+03  0.47000000000E+01 0. -1.
<mgrwt>
<rscale>  0 0.15298294E+03</rscale>
<asrwt>0</asrwt>
<pdfrwt beam="2">  1        5 0.33600975E-02 0.15298337E+03</pdfrwt>
<pdfrwt beam="1">  1       -5 0.18735540E+00 0.15298337E+03</pdfrwt>
<totfact> 0.55529511E+01</totfact>
</mgrwt>
</event>
<event>
 8    1  0.1821556E-007  0.1394987E+03  0.7546771E-02  0.1214009E+00
          5   -1    0    0  501    0  0.00000000000E+00  0.00000000000E+00  0.53504277227E+03  0.53506341508E+03  0.47000000000E+01 0.  1.
         -5   -1    0    0    0  501 -0.00000000000E+00 -0.00000000000E+00 -0.40726231332E+02  0.40996535445E+02  0.47000000000E+01 0.  1.
         25    2    1    2    0    0 -0.55898768055E+02  0.26614354362E+02  0.15144947973E+03  0.20590489998E+03  0.12500754697E+03 0.  0.
         25    2    1    2    0    0  0.55898768055E+02 -0.26614354362E+02  0.34286706121E+03  0.37015505055E+03  0.12499577454E+03 0.  0.
          5    1    4    4  502    0  0.26266251273E+02 -0.30892213172E+02  0.33677814772E+03  0.33924306267E+03  0.47000000000E+01 0. -1.
         -5    1    4    4    0  502  0.29632516782E+02  0.42778588096E+01  0.60889134961E+01  0.30911987875E+02  0.47000000000E+01 0. -1.
          5    1    3    3  503    0 -0.64378804264E+02 -0.12582842020E+02  0.20522425596E+02  0.68892802992E+02  0.47000000000E+01 0. -1.
         -5    1    3    3    0  503  0.84800362089E+01  0.39197196383E+02  0.13092705413E+03  0.13701209699E+03  0.47000000000E+01 0. -1.
<mgrwt>
<rscale>  0 0.13949605E+03</rscale>
<asrwt>0</asrwt>
<pdfrwt beam="1">  1        5 0.82336645E-01 0.13949868E+03</pdfrwt>
<pdfrwt beam="2">  1       -5 0.62879552E-02 0.13949868E+03</pdfrwt>
<totfact> 0.16293522E+02</totfact>
</mgrwt>
</event>
<event>
 8    1  0.1821556E-007  0.1258526E+03  0.7546771E-02  0.1233747E+00
         -5   -1    0    0    0  501 -0.00000000000E+00  0.00000000000E+00  0.99323251669E+02  0.99434392049E+02  0.47000000000E+01 0.  1.
          5   -1    0    0  501    0  0.00000000000E+00 -0.00000000000E+00 -0.18184739339E+03  0.18190812099E+03  0.47000000000E+01 0.  1.
         25    2    1    2    0    0 -0.63033028990E+01  0.13170457929E+02  0.83362234337E+01  0.12612843258E+03  0.12500278515E+03 0.  0.
         25    2    1    2    0    0  0.63033028990E+01 -0.13170457929E+02 -0.90860365155E+02  0.15521408046E+03  0.12499044855E+03 0.  0.
          5    1    4    4  502    0 -0.27902328955E+02 -0.39121398468E+02 -0.10001798704E+03  0.11106174639E+03  0.47000000000E+01 0.  1.
         -5    1    4    4    0  502  0.34205631854E+02  0.25950940540E+02  0.91576218867E+01  0.44152334072E+02  0.47000000000E+01 0.  1.
          5    1    3    3  503    0 -0.10726649939E+02 -0.27891422550E+02  0.55532924747E+02  0.63237553730E+02  0.47000000000E+01 0.  1.
         -5    1    3    3    0  503  0.44233470397E+01  0.41061880479E+02 -0.47196701313E+02  0.62890878849E+02  0.47000000000E+01 0.  1.
<mgrwt>
<rscale>  0 0.12584958E+03</rscale>
<asrwt>0</asrwt>
<pdfrwt beam="2">  1        5 0.27989743E-01 0.12585265E+03</pdfrwt>
<pdfrwt beam="1">  1       -5 0.15293721E-01 0.12585265E+03</pdfrwt>
<totfact> 0.32656644E+02</totfact>
</mgrwt>
</event>
<event>
 8    1  0.1821556E-007  0.2085113E+03  0.7546771E-02  0.1142752E+00
          5   -1    0    0  501    0  0.00000000000E+00  0.00000000000E+00  0.57663057855E+02  0.57854284554E+02  0.47000000000E+01 0. -1.
         -5   -1    0    0    0  501 -0.00000000000E+00 -0.00000000000E+00 -0.79929335198E+03  0.79930717031E+03  0.47000000000E+01 0. -1.
         25    2    1    2    0    0  0.10536723686E+03 -0.12941573535E+03 -0.47450931710E+03  0.51830112874E+03  0.12500512340E+03 0.  0.
         25    2    1    2    0    0 -0.10536723686E+03  0.12941573535E+03 -0.26712097702E+03  0.33886032613E+03  0.12498806783E+03 0.  0.
          5    1    3    3  502    0  0.11972282089E+03 -0.56044882856E+02 -0.27405157167E+03  0.30430402013E+03  0.47000000000E+01 0.  1.
         -5    1    3    3    0  502 -0.14355584022E+02 -0.73370852489E+02 -0.20045774543E+03  0.21399710860E+03  0.47000000000E+01 0.  1.
          5    1    4    4  503    0 -0.73701320120E+02  0.11608895850E+03 -0.10501216575E+03  0.17308430266E+03  0.47000000000E+01 0.  1.
         -5    1    4    4    0  503 -0.31665916743E+02  0.13326776847E+02 -0.16210881127E+03  0.16577602347E+03  0.47000000000E+01 0.  1.
<mgrwt>
<rscale>  0 0.20850876E+03</rscale>
<asrwt>0</asrwt>
<pdfrwt beam="1">  1        5 0.88870130E-02 0.20851131E+03</pdfrwt>
<pdfrwt beam="2">  1       -5 0.12298397E+00 0.20851131E+03</pdfrwt>
<totfact> 0.37816244E+01</totfact>
</mgrwt>
</event>
<event>
 8    1  0.1821556E-007  0.1436674E+03  0.7546771E-02  0.1208483E+00
          5   -1    0    0  501    0  0.00000000000E+00  0.00000000000E+00  0.69904029851E+03  0.69905609856E+03  0.47000000000E+01 0.  1.
         -5   -1    0    0    0  501 -0.00000000000E+00 -0.00000000000E+00 -0.29801615041E+02  0.30169956232E+02  0.47000000000E+01 0.  1.
         25    2    1    2    0    0 -0.62741742921E+01 -0.70520878298E+02  0.28858962936E+03  0.32237291872E+03  0.12501105957E+03 0.  0.
         25    2    1    2    0    0  0.62741742921E+01  0.70520878298E+02  0.38064905411E+03  0.40685313607E+03  0.12499284938E+03 0.  0.
          5    1    3    3  502    0 -0.24767413401E+02  0.17939576715E+02  0.15353665585E+02  0.34540964465E+02  0.47000000000E+01 0.  1.
         -5    1    3    3    0  502  0.18493239109E+02 -0.88460455013E+02  0.27323596377E+03  0.28783195426E+03  0.47000000000E+01 0.  1.
          5    1    4    4  503    0 -0.35859246020E+02  0.75755797954E+02  0.14656111889E+03  0.16889960929E+03  0.47000000000E+01 0. -1.
         -5    1    4    4    0  503  0.42133420312E+02 -0.52349196565E+01  0.23408793522E+03  0.23795352678E+03  0.47000000000E+01 0. -1.
<mgrwt>
<rscale>  0 0.14366345E+03</rscale>
<asrwt>0</asrwt>
<pdfrwt beam="1">  1        5 0.10757421E+00 0.14366741E+03</pdfrwt>
<pdfrwt beam="2">  1       -5 0.46144130E-02 0.14366741E+03</pdfrwt>
<totfact> 0.14512465E+02</totfact>
</mgrwt>
</event>
<event>
 8    1  0.1821556E-007  0.1460318E+03  0.7546771E-02  0.1205440E+00
          5   -1    0    0  501    0  0.00000000000E+00  0.00000000000E+00  0.22346528976E+02  0.22835440816E+02  0.47000000000E+01 0. -1.
         -5   -1    0    0    0  501 -0.00000000000E+00 -0.00000000000E+00 -0.96193189391E+03  0.96194337594E+03  0.47000000000E+01 0. -1.
         25    2    1    2    0    0 -0.70711145447E+02 -0.26449703084E+02 -0.53815439027E+03  0.55761585248E+03  0.12500255314E+03 0.  0.
         25    2    1    2    0    0  0.70711145447E+02  0.26449703084E+02 -0.40143097467E+03  0.42716296428E+03  0.12498687029E+03 0.  0.
          5    1    3    3  502    0  0.20337404458E+01 -0.62208320021E+02 -0.18494328673E+03  0.19519252159E+03  0.47000000000E+01 0. -1.
         -5    1    3    3    0  502 -0.72744885893E+02  0.35758616937E+02 -0.35321110354E+03  0.36242333089E+03  0.47000000000E+01 0. -1.
          5    1    4    4  503    0  0.17387759553E+02 -0.49061860656E+02 -0.11957647324E+03  0.13049913143E+03  0.47000000000E+01 0. -1.
         -5    1    4    4    0  503  0.53323385895E+02  0.75511563740E+02 -0.28185450143E+03  0.29666383285E+03  0.47000000000E+01 0. -1.
<mgrwt>
<rscale>  0 0.14602846E+03</rscale>
<asrwt>0</asrwt>
<pdfrwt beam="1">  1        5 0.34764201E-02 0.14603182E+03</pdfrwt>
<pdfrwt beam="2">  1       -5 0.14802798E+00 0.14603182E+03</pdfrwt>
<totfact> 0.10158912E+02</totfact>
</mgrwt>
</event>
<event>
 8    1  0.1821556E-007  0.1646088E+03  0.7546771E-02  0.1183596E+00
          5   -1    0    0  501    0  0.00000000000E+00  0.00000000000E+00  0.20138048261E+03  0.20143532157E+03  0.47000000000E+01 0.  1.
         -5   -1    0    0    0  501 -0.00000000000E+00 -0.00000000000E+00 -0.17280498247E+03  0.17286888664E+03  0.47000000000E+01 0.  1.
         25    2    1    2    0    0 -0.10064732749E+03 -0.36617985880E+02 -0.73889622419E+02  0.18040948426E+03  0.12496857321E+03 0.  0.
         25    2    1    2    0    0  0.10064732749E+03  0.36617985880E+02  0.10246512255E+03  0.19389472395E+03  0.12500120485E+03 0.  0.
          5    1    4    4  502    0 -0.85477820018E+01 -0.13904108863E+02  0.65904942005E+02  0.68058358790E+02  0.47000000000E+01 0. -1.
         -5    1    4    4    0  502  0.10919510949E+03  0.50522094743E+02  0.36560180548E+02  0.12583636516E+03  0.47000000000E+01 0. -1.
          5    1    3    3  503    0 -0.95276114297E+02  0.26071613955E+02 -0.60437797549E+02  0.11589686960E+03  0.47000000000E+01 0. -1.
         -5    1    3    3    0  503 -0.53712131925E+01 -0.62689599836E+02 -0.13451824870E+02  0.64512614666E+02  0.47000000000E+01 0. -1.
<mgrwt>
<rscale>  0 0.16460262E+03</rscale>
<asrwt>0</asrwt>
<pdfrwt beam="1">  1        5 0.30990747E-01 0.16460882E+03</pdfrwt>
<pdfrwt beam="2">  1       -5 0.26594516E-01 0.16460882E+03</pdfrwt>
<totfact> 0.10388704E+02</totfact>
</mgrwt>
</event>
<event>
 8    1  0.1821556E-007  0.1429512E+03  0.7546771E-02  0.1209413E+00
          5   -1    0    0  501    0  0.00000000000E+00  0.00000000000E+00  0.12301363811E+03  0.12310339216E+03  0.47000000000E+01 0. -1.
         -5   -1    0    0    0  501 -0.00000000000E+00 -0.00000000000E+00 -0.28473772171E+03  0.28477650915E+03  0.47000000000E+01 0. -1.
         25    2    1    2    0    0 -0.61763984485E+02  0.31534852789E+02 -0.21256330638E+03  0.25616048340E+03  0.12500318923E+03 0.  0.
         25    2    1    2    0    0  0.61763984485E+02 -0.31534852789E+02  0.50839222783E+02  0.15171941790E+03  0.12499967390E+03 0.  0.
          5    1    4    4  502    0  0.52656820500E+02 -0.78629942541E+02  0.33411028436E+02  0.10046788258E+03  0.47000000000E+01 0.  1.
         -5    1    4    4    0  502  0.91071639848E+01  0.47095089752E+02  0.17428194347E+02  0.51251535321E+02  0.47000000000E+01 0.  1.
          5    1    3    3  503    0 -0.47411358062E+02 -0.41830614320E+02 -0.65724511046E+02  0.91320526280E+02  0.47000000000E+01 0.  1.
         -5    1    3    3    0  503 -0.14352626423E+02  0.73365467109E+02 -0.14683879534E+03  0.16483995712E+03  0.47000000000E+01 0.  1.
<mgrwt>
<rscale>  0 0.14295039E+03</rscale>
<asrwt>0</asrwt>
<pdfrwt beam="1">  1        5 0.18935063E-01 0.14295116E+03</pdfrwt>
<pdfrwt beam="2">  1       -5 0.43815691E-01 0.14295116E+03</pdfrwt>
<totfact> 0.93871996E+01</totfact>
</mgrwt>
</event>
<event>
 8    1  0.1821556E-007  0.1269824E+03  0.7546771E-02  0.1232004E+00
         -5   -1    0    0    0  501 -0.00000000000E+00  0.00000000000E+00  0.36277510758E+02  0.36580702382E+02  0.47000000000E+01 0. -1.
          5   -1    0    0  501    0  0.00000000000E+00 -0.00000000000E+00 -0.44230979506E+03  0.44233476554E+03  0.47000000000E+01 0. -1.
         25    2    1    2    0    0 -0.10299949752E+02 -0.19834545032E+02 -0.20404299115E+03  0.24032910110E+03  0.12500014583E+03 0.  0.
         25    2    1    2    0    0  0.10299949752E+02  0.19834545032E+02 -0.20198929315E+03  0.23858636682E+03  0.12499712694E+03 0.  0.
          5    1    4    4  502    0 -0.15864763266E+02  0.20102181850E+02 -0.20938059628E+03  0.21099315754E+03  0.47000000000E+01 0.  1.
         -5    1    4    4    0  502  0.26164713017E+02 -0.26763681867E+00  0.73913031274E+01  0.27593209285E+02  0.47000000000E+01 0.  1.
          5    1    3    3  503    0 -0.10675205370E+02  0.52827585671E+02 -0.83117626248E+02  0.99173300896E+02  0.47000000000E+01 0.  1.
         -5    1    3    3    0  503  0.37525561855E+00 -0.72662130702E+02 -0.12092536490E+03  0.14115580020E+03  0.47000000000E+01 0.  1.
<mgrwt>
<rscale>  0 0.12698168E+03</rscale>
<asrwt>0</asrwt>
<pdfrwt beam="2">  1        5 0.68072900E-01 0.12698242E+03</pdfrwt>
<pdfrwt beam="1">  1       -5 0.56063991E-02 0.12698242E+03</pdfrwt>
<totfact> 0.29517013E+02</totfact>
</mgrwt>
</event>
<event>
 8    1  0.1821556E-007  0.1522469E+03  0.7546771E-02  0.1197743E+00
          5   -1    0    0  501    0  0.00000000000E+00  0.00000000000E+00  0.55646144877E+02  0.55844278487E+02  0.47000000000E+01 0. -1.
         -5   -1    0    0    0  501 -0.00000000000E+00 -0.00000000000E+00 -0.41680220625E+03  0.41682870479E+03  0.47000000000E+01 0. -1.
         25    2    1    2    0    0 -0.19337366605E+02  0.84732158836E+02 -0.19351565707E+03  0.24622635826E+03  0.12500254991E+03 0.  0.
         25    2    1    2    0    0  0.19337366605E+02 -0.84732158836E+02 -0.16764040431E+03  0.22644662502E+03  0.12498518447E+03 0.  0.
          5    1    4    4  502    0 -0.21948502057E+02 -0.85711492636E+02 -0.50126115750E+02  0.10179839975E+03  0.47000000000E+01 0.  1.
         -5    1    4    4    0  502  0.41285868662E+02  0.97933379977E+00 -0.11751428856E+03  0.12464822526E+03  0.47000000000E+01 0.  1.
          5    1    3    3  503    0 -0.59094011510E+02  0.48831860888E+02 -0.46732680771E+02  0.89903761245E+02  0.47000000000E+01 0.  1.
         -5    1    3    3    0  503  0.39756644904E+02  0.35900297948E+02 -0.14678297630E+03  0.15632259702E+03  0.47000000000E+01 0.  1.
<mgrwt>
<rscale>  0 0.15224331E+03</rscale>
<asrwt>0</asrwt>
<pdfrwt beam="1">  1        5 0.85782250E-02 0.15224687E+03</pdfrwt>
<pdfrwt beam="2">  1       -5 0.64140694E-01 0.15224687E+03</pdfrwt>
<totfact> 0.17408179E+02</totfact>
</mgrwt>
</event>
<event>
 8    1  0.1821556E-007  0.1251402E+03  0.7546771E-02  0.1234852E+00
          5   -1    0    0  501    0  0.00000000000E+00  0.00000000000E+00  0.31993597353E+03  0.31997049420E+03  0.47000000000E+01 0.  1.
         -5   -1    0    0    0  501 -0.00000000000E+00 -0.00000000000E+00 -0.48993154055E+02  0.49218077413E+02  0.47000000000E+01 0.  1.
         25    2    1    2    0    0 -0.33978167246E+01 -0.48024209149E+01  0.12377512254E+03  0.17600883839E+03  0.12499688726E+03 0.  0.
         25    2    1    2    0    0  0.33978167246E+01  0.48024209149E+01  0.14716769693E+03  0.19317973322E+03  0.12500187960E+03 0.  0.
          5    1    3    3  502    0 -0.21797530526E+02  0.56220031035E+02  0.69789795367E+02  0.92350039329E+02  0.47000000000E+01 0. -1.
         -5    1    3    3    0  502  0.18399713801E+02 -0.61022451950E+02  0.53985327176E+02  0.83658799060E+02  0.47000000000E+01 0. -1.
          5    1    4    4  503    0 -0.65880003831E+01  0.59323126464E+02  0.38732010924E+02  0.71308440964E+02  0.47000000000E+01 0.  1.
         -5    1    4    4    0  503  0.99858171077E+01 -0.54520705549E+02  0.10843568600E+03  0.12187129226E+03  0.47000000000E+01 0.  1.
<mgrwt>
<rscale>  0 0.12513899E+03</rscale>
<asrwt>0</asrwt>
<pdfrwt beam="1">  1        5 0.49240875E-01 0.12514023E+03</pdfrwt>
<pdfrwt beam="2">  1       -5 0.75573657E-02 0.12514023E+03</pdfrwt>
<totfact> 0.35837993E+02</totfact>
</mgrwt>
</event>
<event>
 8    1  0.1821556E-007  0.1432162E+03  0.7546771E-02  0.1209067E+00
         -5   -1    0    0    0  501 -0.00000000000E+00  0.00000000000E+00  0.10710036989E+04  0.10710140116E+04  0.47000000000E+01 0.  1.
          5   -1    0    0  501    0  0.00000000000E+00 -0.00000000000E+00 -0.29822318253E+02  0.30190406853E+02  0.47000000000E+01 0.  1.
         25    2    1    2    0    0  0.65193733421E+02  0.25211352419E+02  0.85187660982E+03  0.86383137926E+03  0.12500023308E+03 0.  0.
         25    2    1    2    0    0 -0.65193733421E+02 -0.25211352419E+02  0.18930477080E+03  0.23737303917E+03  0.12499531315E+03 0.  0.
          5    1    4    4  502    0 -0.59026801401E+02  0.40376854190E+02  0.13077034344E+03  0.14912218601E+03  0.47000000000E+01 0. -1.
         -5    1    4    4    0  502 -0.61669320193E+01 -0.65588206610E+02  0.58534427364E+02  0.88250853161E+02  0.47000000000E+01 0. -1.
          5    1    3    3  503    0  0.37699106115E+02  0.15226234543E+02  0.67804647839E+02  0.79199880611E+02  0.47000000000E+01 0. -1.
         -5    1    3    3    0  503  0.27494627306E+02  0.99851178763E+01  0.78407196198E+03  0.78463149865E+03  0.47000000000E+01 0. -1.
<mgrwt>
<rscale>  0 0.14321517E+03</rscale>
<asrwt>0</asrwt>
<pdfrwt beam="2">  1        5 0.46171574E-02 0.14321625E+03</pdfrwt>
<pdfrwt beam="1">  1       -5 0.16479888E+00 0.14321625E+03</pdfrwt>
<totfact> 0.47061003E+01</totfact>
</mgrwt>
</event>
<event>
 8    1  0.1821556E-007  0.1347782E+03  0.7546771E-02  0.1220534E+00
          5   -1    0    0  501    0  0.00000000000E+00  0.00000000000E+00  0.10255394866E+04  0.10255502565E+04  0.47000000000E+01 0.  1.
         -5   -1    0    0    0  501 -0.00000000000E+00 -0.00000000000E+00 -0.18569597243E+02  0.19155154444E+02  0.47000000000E+01 0.  1.
         25    2    1    2    0    0 -0.38704024716E+02  0.32263494081E+02  0.37392741323E+03  0.39747444108E+03  0.12500114546E+03 0.  0.
         25    2    1    2    0    0  0.38704024716E+02 -0.32263494081E+02  0.63304247610E+03  0.64723096982E+03  0.12500486859E+03 0.  0.
          5    1    3    3  502    0  0.25152420820E+02  0.59470086901E+02  0.19675223927E+03  0.20713007789E+03  0.47000000000E+01 0. -1.
         -5    1    3    3    0  502 -0.63856445536E+02 -0.27206592820E+02  0.17717517396E+03  0.19034436319E+03  0.47000000000E+01 0. -1.
          5    1    4    4  503    0  0.25875935778E+01 -0.66267963890E+02  0.18803737026E+03  0.19944493299E+03  0.47000000000E+01 0. -1.
         -5    1    4    4    0  503  0.36116431138E+02  0.34004469809E+02  0.44500510583E+03  0.44778603683E+03  0.47000000000E+01 0. -1.
<mgrwt>
<rscale>  0 0.13477729E+03</rscale>
<asrwt>0</asrwt>
<pdfrwt beam="1">  1        5 0.15782112E+00 0.13477816E+03</pdfrwt>
<pdfrwt beam="2">  1       -5 0.29027335E-02 0.13477816E+03</pdfrwt>
<totfact> 0.11133000E+02</totfact>
</mgrwt>
</event>
<event>
 8    1  0.1821556E-007  0.1547522E+03  0.7546771E-02  0.1194752E+00
          5   -1    0    0  501    0  0.00000000000E+00  0.00000000000E+00  0.43490734394E+03  0.43493273941E+03  0.47000000000E+01 0. -1.
         -5   -1    0    0    0  501 -0.00000000000E+00 -0.00000000000E+00 -0.56860360973E+02  0.57054278104E+02  0.47000000000E+01 0. -1.
         25    2    1    2    0    0 -0.86670810975E+02  0.28462790788E+02  0.14387864280E+03  0.21130381036E+03  0.12500510584E+03 0.  0.
         25    2    1    2    0    0  0.86670810975E+02 -0.28462790788E+02  0.23416834017E+03  0.28068320716E+03  0.12500516512E+03 0.  0.
          5    1    3    3  502    0  0.13897444471E+02  0.39718931373E+02  0.82832258600E+02  0.93026907597E+02  0.47000000000E+01 0. -1.
         -5    1    3    3    0  502 -0.10056825545E+03 -0.11256140585E+02  0.61046384196E+02  0.11827690277E+03  0.47000000000E+01 0. -1.
          5    1    4    4  503    0  0.27691471291E+02 -0.17784000700E+02 -0.54052580296E+01  0.33680782021E+02  0.47000000000E+01 0. -1.
         -5    1    4    4    0  503  0.58979339684E+02 -0.10678790088E+02  0.23957359820E+03  0.24700242513E+03  0.47000000000E+01 0. -1.
<mgrwt>
<rscale>  0 0.15475221E+03</rscale>
<asrwt>0</asrwt>
<pdfrwt beam="1">  1        5 0.66925691E-01 0.15475223E+03</pdfrwt>
<pdfrwt beam="2">  1       -5 0.87646182E-02 0.15475223E+03</pdfrwt>
<totfact> 0.15337537E+02</totfact>
</mgrwt>
</event>
<event>
 8    1  0.1821556E-007  0.2040845E+03  0.7546771E-02  0.1146338E+00
          5   -1    0    0  501    0  0.00000000000E+00  0.00000000000E+00  0.96559970454E+03  0.96561114296E+03  0.47000000000E+01 0.  1.
         -5   -1    0    0    0  501 -0.00000000000E+00 -0.00000000000E+00 -0.94717802878E+02  0.94834340732E+02  0.47000000000E+01 0.  1.
         25    2    1    2    0    0 -0.11947056997E+03  0.10840950303E+03  0.44029642125E+02  0.20877938519E+03  0.12499753941E+03 0.  0.
         25    2    1    2    0    0  0.11947056997E+03 -0.10840950303E+03  0.82685225954E+03  0.85166609850E+03  0.12499858717E+03 0.  0.
          5    1    3    3  502    0 -0.84043786433E+02  0.28584275074E+02  0.74682712660E+02  0.11610347277E+03  0.47000000000E+01 0. -1.
         -5    1    3    3    0  502 -0.35426783540E+02  0.79825227953E+02 -0.30653070535E+02  0.92675912421E+02  0.47000000000E+01 0. -1.
          5    1    4    4  503    0  0.12038379762E+03 -0.12109172479E+03  0.58483973623E+03  0.60927421709E+03  0.47000000000E+01 0. -1.
         -5    1    4    4    0  503 -0.91322764785E+00  0.12682221763E+02  0.24201252331E+03  0.24239188141E+03  0.47000000000E+01 0. -1.
<mgrwt>
<rscale>  0 0.20408434E+03</rscale>
<asrwt>0</asrwt>
<pdfrwt beam="1">  1        5 0.14856364E+00 0.20408450E+03</pdfrwt>
<pdfrwt beam="2">  1       -5 0.14581815E-01 0.20408450E+03</pdfrwt>
<totfact> 0.94266726E+00</totfact>
</mgrwt>
</event>
<event>
 8    1  0.1821556E-007  0.1507492E+03  0.7546771E-02  0.1199556E+00
         -5   -1    0    0    0  501 -0.00000000000E+00  0.00000000000E+00  0.53453365384E+02  0.53659596260E+02  0.47000000000E+01 0. -1.
          5   -1    0    0  501    0  0.00000000000E+00 -0.00000000000E+00 -0.43722004574E+03  0.43724530689E+03  0.47000000000E+01 0. -1.
         25    2    1    2    0    0  0.80843156132E+02 -0.23760960664E+02 -0.14936627789E+03  0.21221357712E+03  0.12499647275E+03 0.  0.
         25    2    1    2    0    0 -0.80843156132E+02  0.23760960664E+02 -0.23440040247E+03  0.27869132603E+03  0.12500042952E+03 0.  0.
          5    1    4    4  502    0 -0.78161238519E+02  0.17143184833E+01 -0.50047538466E+02  0.92946028431E+02  0.47000000000E+01 0.  1.
         -5    1    4    4    0  502 -0.26819176136E+01  0.22046642180E+02 -0.18435286400E+03  0.18574529759E+03  0.47000000000E+01 0.  1.
          5    1    3    3  503    0 -0.28386664248E+02 -0.27202834247E+02 -0.26165794960E+02  0.47460886255E+02  0.47000000000E+01 0. -1.
         -5    1    3    3    0  503  0.10922982038E+03  0.34418735831E+01 -0.12320048293E+03  0.16475269087E+03  0.47000000000E+01 0. -1.
<mgrwt>
<rscale>  0 0.15074833E+03</rscale>
<asrwt>0</asrwt>
<pdfrwt beam="2">  1        5 0.67282427E-01 0.15074915E+03</pdfrwt>
<pdfrwt beam="1">  1       -5 0.82414020E-02 0.15074915E+03</pdfrwt>
<totfact> 0.16712527E+02</totfact>
</mgrwt>
</event>
<event>
 8    1  0.1821556E-007  0.1320996E+03  0.7546771E-02  0.1224373E+00
         -5   -1    0    0    0  501 -0.00000000000E+00  0.00000000000E+00  0.57010818825E+02  0.57204225920E+02  0.47000000000E+01 0.  1.
          5   -1    0    0  501    0  0.00000000000E+00 -0.00000000000E+00 -0.37951618274E+03  0.37954528447E+03  0.47000000000E+01 0.  1.
         25    2    1    2    0    0  0.41504118177E+02  0.10147858309E+02 -0.64749515000E+02  0.14711493096E+03  0.12499892945E+03 0.  0.
         25    2    1    2    0    0 -0.41504118177E+02 -0.10147858309E+02 -0.25775584892E+03  0.28963457943E+03  0.12499816438E+03 0.  0.
          5    1    3    3  502    0 -0.26678038289E+02 -0.38094903195E+02 -0.12151653157E+02  0.48297950793E+02  0.47000000000E+01 0. -1.
         -5    1    3    3    0  502  0.68182156466E+02  0.48242761504E+02 -0.52597861843E+02  0.98816980162E+02  0.47000000000E+01 0. -1.
          5    1    4    4  503    0 -0.82046335078E+02  0.15847763349E+02 -0.16538905595E+03  0.18536014278E+03  0.47000000000E+01 0.  1.
         -5    1    4    4    0  503  0.40542216901E+02 -0.25995621659E+02 -0.92366792966E+02  0.10427443665E+03  0.47000000000E+01 0.  1.
<mgrwt>
<rscale>  0 0.13209941E+03</rscale>
<asrwt>0</asrwt>
<pdfrwt beam="2">  1        5 0.58404220E-01 0.13209960E+03</pdfrwt>
<pdfrwt beam="1">  1       -5 0.87880115E-02 0.13209960E+03</pdfrwt>
<totfact> 0.19574614E+02</totfact>
</mgrwt>
</event>
<event>
 8    1  0.1821556E-007  0.1857519E+03  0.7546771E-02  0.1162357E+00
          5   -1    0    0  501    0  0.00000000000E+00  0.00000000000E+00  0.79566457517E+02  0.79705151414E+02  0.47000000000E+01 0.  1.
         -5   -1    0    0    0  501 -0.00000000000E+00 -0.00000000000E+00 -0.43747339320E+03  0.43749863972E+03  0.47000000000E+01 0.  1.
         25    2    1    2    0    0  0.35691047390E+01  0.13735903982E+03 -0.15294667709E+03  0.24061678789E+03  0.12499403288E+03 0.  0.
         25    2    1    2    0    0 -0.35691047390E+01 -0.13735903982E+03 -0.20496025859E+03  0.27658700324E+03  0.12494566191E+03 0.  0.
          5    1    3    3  502    0 -0.22270709564E+02  0.11587184698E+03 -0.43194234411E+02  0.12573822535E+03  0.47000000000E+01 0.  1.
         -5    1    3    3    0  502  0.25839814303E+02  0.21487192836E+02 -0.10975244268E+03  0.11487856255E+03  0.47000000000E+01 0.  1.
          5    1    4    4  503    0  0.54035983347E+02 -0.80649725820E+02 -0.72171746520E+02  0.12105831969E+03  0.47000000000E+01 0. -1.
         -5    1    4    4    0  503 -0.57605088086E+02 -0.56709313995E+02 -0.13278851207E+03  0.15552868354E+03  0.47000000000E+01 0. -1.
<mgrwt>
<rscale>  0 0.18574372E+03</rscale>
<asrwt>0</asrwt>
<pdfrwt beam="1">  1        5 0.12253605E-01 0.18575186E+03</pdfrwt>
<pdfrwt beam="2">  1       -5 0.67316208E-01 0.18575186E+03</pdfrwt>
<totfact> 0.88717109E+01</totfact>
</mgrwt>
</event>
<event>
 8    1  0.1821556E-007  0.1478800E+03  0.7546771E-02  0.1203104E+00
         -5   -1    0    0    0  501 -0.00000000000E+00  0.00000000000E+00  0.11100986639E+04  0.11101086134E+04  0.47000000000E+01 0.  1.
          5   -1    0    0  501    0  0.00000000000E+00 -0.00000000000E+00 -0.25329016073E+02  0.25761386904E+02  0.47000000000E+01 0.  1.
         25    2    1    2    0    0 -0.31814830243E+02 -0.72329210832E+02  0.81426969607E+03  0.82758905406E+03  0.12499922519E+03 0.  0.
         25    2    1    2    0    0  0.31814830243E+02  0.72329210832E+02  0.27049995177E+03  0.30828094628E+03  0.12499287887E+03 0.  0.
          5    1    3    3  502    0 -0.52510648683E+02  0.16663467354E+02  0.25936655169E+03  0.26519452767E+03  0.47000000000E+01 0. -1.
         -5    1    3    3    0  502  0.20695818439E+02 -0.88992678187E+02  0.55490314438E+03  0.56239452639E+03  0.47000000000E+01 0. -1.
          5    1    4    4  503    0  0.75327466523E+02  0.32805975759E+02  0.20062492310E+03  0.21684766318E+03  0.47000000000E+01 0.  1.
         -5    1    4    4    0  503 -0.43512636279E+02  0.39523235073E+02  0.69875028668E+02  0.91433283098E+02  0.47000000000E+01 0.  1.
<mgrwt>
<rscale>  0 0.14787869E+03</rscale>
<asrwt>0</asrwt>
<pdfrwt beam="2">  1        5 0.39307978E-02 0.14788003E+03</pdfrwt>
<pdfrwt beam="1">  1       -5 0.17081837E+00 0.14788003E+03</pdfrwt>
<totfact> 0.55884315E+01</totfact>
</mgrwt>
</event>
<event>
 8    1  0.1821556E-007  0.1571054E+03  0.7546771E-02  0.1192017E+00
         -5   -1    0    0    0  501 -0.00000000000E+00  0.00000000000E+00  0.72050669411E+03  0.72052202343E+03  0.47000000000E+01 0.  1.
          5   -1    0    0  501    0  0.00000000000E+00 -0.00000000000E+00 -0.38707575200E+02  0.38991875793E+02  0.47000000000E+01 0.  1.
         25    2    1    2    0    0  0.21040503519E+02  0.92815637641E+02  0.47177090618E+03  0.49722784887E+03  0.12494118773E+03 0.  0.
         25    2    1    2    0    0 -0.21040503519E+02 -0.92815637641E+02  0.21002821272E+03  0.26228605036E+03  0.12499870677E+03 0.  0.
          5    1    3    3  502    0  0.10519663809E+02  0.12362653556E+03  0.37186779741E+03  0.39204838014E+03  0.47000000000E+01 0. -1.
         -5    1    3    3    0  502  0.10520839710E+02 -0.30810897922E+02  0.99903108771E+02  0.10517946872E+03  0.47000000000E+01 0. -1.
          5    1    4    4  503    0 -0.60538886341E+02 -0.18913762635E+02  0.47538971213E+02  0.79402335988E+02  0.47000000000E+01 0.  1.
         -5    1    4    4    0  503  0.39498382821E+02 -0.73901875007E+02  0.16248924151E+03  0.18288371437E+03  0.47000000000E+01 0.  1.
<mgrwt>
<rscale>  0 0.15709401E+03</rscale>
<asrwt>0</asrwt>
<pdfrwt beam="2">  1        5 0.59780599E-02 0.15710545E+03</pdfrwt>
<pdfrwt beam="1">  1       -5 0.11087024E+00 0.15710545E+03</pdfrwt>
<totfact> 0.89866214E+01</totfact>
</mgrwt>
</event>
<event>
 8    1  0.1821556E-007  0.1290631E+03  0.7546771E-02  0.1228853E+00
         -5   -1    0    0    0  501 -0.00000000000E+00  0.00000000000E+00  0.39485898343E+02  0.39764634639E+02  0.47000000000E+01 0. -1.
          5   -1    0    0  501    0  0.00000000000E+00 -0.00000000000E+00 -0.82798512204E+03  0.82799846155E+03  0.47000000000E+01 0. -1.
         25    2    1    2    0    0  0.39787717322E+01  0.31865676984E+02 -0.89767132349E+02  0.15721138049E+03  0.12500411238E+03 0.  0.
         25    2    1    2    0    0 -0.39787717322E+01 -0.31865676984E+02 -0.69873209135E+03  0.71055171569E+03  0.12500381273E+03 0.  0.
          5    1    4    4  502    0 -0.45464658592E+02  0.19994225091E+02 -0.15679843836E+03  0.16454374643E+03  0.47000000000E+01 0.  1.
         -5    1    4    4    0  502  0.41485886860E+02 -0.51859902076E+02 -0.54193365299E+03  0.54600796926E+03  0.47000000000E+01 0.  1.
          5    1    3    3  503    0  0.27191858091E+02  0.63876114052E+02 -0.94236549981E+02  0.11714167681E+03  0.47000000000E+01 0. -1.
         -5    1    3    3    0  503 -0.23213086358E+02 -0.32010437067E+02  0.44694176322E+01  0.40069703686E+02  0.47000000000E+01 0. -1.
<mgrwt>
<rscale>  0 0.12906301E+03</rscale>
<asrwt>0</asrwt>
<pdfrwt beam="2">  1        5 0.12740478E+00 0.12906309E+03</pdfrwt>
<pdfrwt beam="1">  1       -5 0.60972216E-02 0.12906309E+03</pdfrwt>
<totfact> 0.57475511E+01</totfact>
</mgrwt>
</event>
<event>
 8    1  0.1821556E-007  0.2185117E+03  0.7546771E-02  0.1134999E+00
         -5   -1    0    0    0  501 -0.00000000000E+00  0.00000000000E+00  0.26186320078E+03  0.26190537589E+03  0.47000000000E+01 0. -1.
          5   -1    0    0  501    0  0.00000000000E+00 -0.00000000000E+00 -0.20034010908E+03  0.20039523275E+03  0.47000000000E+01 0. -1.
         25    2    1    2    0    0 -0.12200615696E+03  0.13128876370E+03  0.10021414318E+03  0.24039604693E+03  0.12500057229E+03 0.  0.
         25    2    1    2    0    0  0.12200615696E+03 -0.13128876370E+03 -0.38691051491E+02  0.22190456171E+03  0.12498958050E+03 0.  0.
          5    1    4    4  502    0  0.50099134593E+02 -0.94974713133E+02 -0.77357883502E+02  0.13242526784E+03  0.47000000000E+01 0. -1.
         -5    1    4    4    0  502  0.71907022368E+02 -0.36314050566E+02  0.38666832011E+02  0.89479293874E+02  0.47000000000E+01 0. -1.
          5    1    3    3  503    0 -0.43264619642E+02  0.12304294179E+03  0.94003065944E+02  0.16084172109E+03  0.47000000000E+01 0. -1.
         -5    1    3    3    0  503 -0.78741537318E+02  0.82458219082E+01  0.62110772401E+01  0.79554325833E+02  0.47000000000E+01 0. -1.
<mgrwt>
<rscale>  0 0.21851018E+03</rscale>
<asrwt>0</asrwt>
<pdfrwt beam="2">  1        5 0.30829040E-01 0.21851175E+03</pdfrwt>
<pdfrwt beam="1">  1       -5 0.40294131E-01 0.21851175E+03</pdfrwt>
<totfact> 0.49474132E+01</totfact>
</mgrwt>
</event>
<event>
 8    1  0.1821556E-007  0.1357603E+03  0.7546771E-02  0.1219153E+00
          5   -1    0    0  501    0  0.00000000000E+00  0.00000000000E+00  0.11385972795E+03  0.11395669199E+03  0.47000000000E+01 0.  1.
         -5   -1    0    0    0  501 -0.00000000000E+00 -0.00000000000E+00 -0.16177510587E+03  0.16184336526E+03  0.47000000000E+01 0.  1.
         25    2    1    2    0    0 -0.52932558369E+02  0.13777667142E+01 -0.20381156844E+02  0.13728163879E+03  0.12500841099E+03 0.  0.
         25    2    1    2    0    0  0.52932558369E+02 -0.13777667142E+01 -0.27534221077E+02  0.13851841846E+03  0.12500185977E+03 0.  0.
          5    1    4    4  502    0  0.42471369390E+01 -0.22752443726E+02 -0.67709617222E+02  0.71710488299E+02  0.47000000000E+01 0.  1.
         -5    1    4    4    0  502  0.48685421430E+02  0.21374677011E+02  0.40175396145E+02  0.66807930162E+02  0.47000000000E+01 0.  1.
          5    1    3    3  503    0 -0.89980173174E+02 -0.19891096610E+02 -0.19423379267E+02  0.94294458749E+02  0.47000000000E+01 0.  1.
         -5    1    3    3    0  503  0.37047614804E+02  0.21268863324E+02 -0.95777757735E+00  0.42987180039E+02  0.47000000000E+01 0.  1.
<mgrwt>
<rscale>  0 0.13575878E+03</rscale>
<asrwt>0</asrwt>
<pdfrwt beam="1">  1        5 0.17529591E-01 0.13576029E+03</pdfrwt>
<pdfrwt beam="2">  1       -5 0.24901187E-01 0.13576029E+03</pdfrwt>
<totfact> 0.32777232E+02</totfact>
</mgrwt>
</event>
<event>
 8    1  0.1821556E-007  0.1288735E+03  0.7546771E-02  0.1229139E+00
         -5   -1    0    0    0  501 -0.00000000000E+00  0.00000000000E+00  0.13742293587E+03  0.13750328470E+03  0.47000000000E+01 0.  1.
          5   -1    0    0  501    0  0.00000000000E+00 -0.00000000000E+00 -0.12856486932E+03  0.12865075058E+03  0.47000000000E+01 0.  1.
         25    2    1    2    0    0 -0.14317813226E+02  0.27869370378E+02  0.37342457699E+02  0.13417466144E+03  0.12500671600E+03 0.  0.
         25    2    1    2    0    0  0.14317813226E+02 -0.27869370378E+02 -0.28484391147E+02  0.13197937384E+03  0.12500197198E+03 0.  0.
          5    1    4    4  502    0  0.10916672884E+02 -0.10506773360E+02 -0.77786877714E+02  0.79387998953E+02  0.47000000000E+01 0. -1.
         -5    1    4    4    0  502  0.34011403420E+01 -0.17362597017E+02  0.49302486567E+02  0.52591374887E+02  0.47000000000E+01 0. -1.
          5    1    3    3  503    0  0.48115499093E+02  0.40902423314E+02  0.29104670035E+02  0.69694198494E+02  0.47000000000E+01 0.  1.
         -5    1    3    3    0  503 -0.62433312319E+02 -0.13033052937E+02  0.82377876642E+01  0.64480462945E+02  0.47000000000E+01 0.  1.
<mgrwt>
<rscale>  0 0.12887236E+03</rscale>
<asrwt>0</asrwt>
<pdfrwt beam="2">  1        5 0.19791998E-01 0.12887351E+03</pdfrwt>
<pdfrwt beam="1">  1       -5 0.21154777E-01 0.12887351E+03</pdfrwt>
<totfact> 0.35006650E+02</totfact>
</mgrwt>
</event>
<event>
 8    1  0.1821556E-007  0.1288593E+03  0.7546771E-02  0.1229161E+00
          5   -1    0    0  501    0  0.00000000000E+00  0.00000000000E+00  0.41846511364E+03  0.41849150688E+03  0.47000000000E+01 0.  1.
         -5   -1    0    0    0  501 -0.00000000000E+00 -0.00000000000E+00 -0.40897722477E+02  0.41166900585E+02  0.47000000000E+01 0.  1.
         25    2    1    2    0    0  0.30873983398E+02  0.49176333998E+01  0.14660587949E+03  0.19518166516E+03  0.12500085017E+03 0.  0.
         25    2    1    2    0    0 -0.30873983398E+02 -0.49176333998E+01  0.23096151168E+03  0.26447674231E+03  0.12500936517E+03 0.  0.
          5    1    3    3  502    0  0.40718559625E+02  0.59493411339E+02  0.94397366629E+02  0.11887144282E+03  0.47000000000E+01 0.  1.
         -5    1    3    3    0  502 -0.98445762269E+01 -0.54575777939E+02  0.52208512860E+02  0.76310222341E+02  0.47000000000E+01 0.  1.
          5    1    4    4  503    0  0.37502503018E+02  0.22148219860E+02  0.14388094611E+03  0.15040212110E+03  0.47000000000E+01 0.  1.
         -5    1    4    4    0  503 -0.68376486416E+02 -0.27065853260E+02  0.87080565561E+02  0.11407462122E+03  0.47000000000E+01 0.  1.
<mgrwt>
<rscale>  0 0.12885727E+03</rscale>
<asrwt>0</asrwt>
<pdfrwt beam="1">  1        5 0.64401988E-01 0.12885933E+03</pdfrwt>
<pdfrwt beam="2">  1       -5 0.63146932E-02 0.12885933E+03</pdfrwt>
<totfact> 0.27497710E+02</totfact>
</mgrwt>
</event>
<event>
 8    1  0.1821556E-007  0.1366962E+03  0.7546771E-02  0.1217849E+00
         -5   -1    0    0    0  501 -0.00000000000E+00  0.00000000000E+00  0.11968912455E+03  0.11978136973E+03  0.47000000000E+01 0. -1.
          5   -1    0    0  501    0  0.00000000000E+00 -0.00000000000E+00 -0.24104852845E+03  0.24109434475E+03  0.47000000000E+01 0. -1.
         25    2    1    2    0    0 -0.55105398116E+02  0.49718168024E+01  0.46517633287E+02  0.14438424142E+03  0.12498637965E+03 0.  0.
         25    2    1    2    0    0  0.55105398116E+02 -0.49718168024E+01 -0.16787703719E+03  0.21649147306E+03  0.12499813770E+03 0.  0.
          5    1    3    3  502    0 -0.47925437918E+02 -0.38338131338E+02  0.70945202404E+02  0.93925351521E+02  0.47000000000E+01 0. -1.
         -5    1    3    3    0  502 -0.71799601976E+01  0.43309948141E+02 -0.24427569117E+02  0.50458889894E+02  0.47000000000E+01 0. -1.
          5    1    4    4  503    0 -0.32419516731E+02 -0.19610125337E+02 -0.92117395546E+02  0.99716030020E+02  0.47000000000E+01 0. -1.
         -5    1    4    4    0  503  0.87524914846E+02  0.14638308535E+02 -0.75759641648E+02  0.11677544304E+03  0.47000000000E+01 0. -1.
<mgrwt>
<rscale>  0 0.13669354E+03</rscale>
<asrwt>0</asrwt>
<pdfrwt beam="2">  1        5 0.37095009E-01 0.13669623E+03</pdfrwt>
<pdfrwt beam="1">  1       -5 0.18424332E-01 0.13669623E+03</pdfrwt>
<totfact> 0.13689140E+02</totfact>
</mgrwt>
</event>
<event>
 8    1  0.1821556E-007  0.2073729E+03  0.7546771E-02  0.1143666E+00
          5   -1    0    0  501    0  0.00000000000E+00  0.00000000000E+00  0.81312127549E+02  0.81447848876E+02  0.47000000000E+01 0.  1.
         -5   -1    0    0    0  501 -0.00000000000E+00 -0.00000000000E+00 -0.58791917844E+03  0.58793796474E+03  0.47000000000E+01 0.  1.
         25    2    1    2    0    0 -0.16051477045E+03 -0.40126201358E+02 -0.35991964494E+03  0.41538617004E+03  0.12501366277E+03 0.  0.
         25    2    1    2    0    0  0.16051477045E+03  0.40126201358E+02 -0.14668740595E+03  0.25399964357E+03  0.12499408107E+03 0.  0.
          5    1    3    3  502    0 -0.23609593835E+02  0.30687507707E+02 -0.24086050359E+02  0.45840635600E+02  0.47000000000E+01 0.  1.
         -5    1    3    3    0  502 -0.13690517661E+03 -0.70813709065E+02 -0.33583359459E+03  0.36954553444E+03  0.47000000000E+01 0.  1.
          5    1    4    4  503    0  0.90806431388E+02  0.78427126264E+02 -0.53679687828E+02  0.13153030450E+03  0.47000000000E+01 0.  1.
         -5    1    4    4    0  503  0.69708339059E+02 -0.38300924906E+02 -0.93007718118E+02  0.12246933907E+03  0.47000000000E+01 0.  1.
<mgrwt>
<rscale>  0 0.20736995E+03</rscale>
<asrwt>0</asrwt>
<pdfrwt beam="1">  1        5 0.12521444E-01 0.20737290E+03</pdfrwt>
<pdfrwt beam="2">  1       -5 0.90460987E-01 0.20737290E+03</pdfrwt>
<totfact> 0.44279921E+01</totfact>
</mgrwt>
</event>
<event>
 8    1  0.1821556E-007  0.1488927E+03  0.7546771E-02  0.1201841E+00
         -5   -1    0    0    0  501 -0.00000000000E+00  0.00000000000E+00  0.37149497418E+02  0.37445629363E+02  0.47000000000E+01 0. -1.
          5   -1    0    0  501    0  0.00000000000E+00 -0.00000000000E+00 -0.59407812526E+03  0.59409671680E+03  0.47000000000E+01 0. -1.
         25    2    1    2    0    0  0.36650123375E+02 -0.72110105544E+02 -0.27709317054E+03  0.31456265835E+03  0.12500376794E+03 0.  0.
         25    2    1    2    0    0 -0.36650123375E+02  0.72110105544E+02 -0.27983545730E+03  0.31697968782E+03  0.12500056184E+03 0.  0.
          5    1    4    4  502    0 -0.60955332118E+02  0.95189626897E+02 -0.19203074938E+03  0.22287780574E+03  0.47000000000E+01 0. -1.
         -5    1    4    4    0  502  0.24305208743E+02 -0.23079521353E+02 -0.87804707925E+02  0.94101882084E+02  0.47000000000E+01 0. -1.
          5    1    3    3  503    0  0.68573915919E+02 -0.22347159155E+02 -0.22252883159E+03  0.23397211021E+03  0.47000000000E+01 0.  1.
         -5    1    3    3    0  503 -0.31923792544E+02 -0.49762946389E+02 -0.54564338947E+02  0.80590548133E+02  0.47000000000E+01 0.  1.
<mgrwt>
<rscale>  0 0.14889204E+03</rscale>
<asrwt>0</asrwt>
<pdfrwt beam="2">  1        5 0.91420837E-01 0.14889272E+03</pdfrwt>
<pdfrwt beam="1">  1       -5 0.57395173E-02 0.14889272E+03</pdfrwt>
<totfact> 0.15162442E+02</totfact>
</mgrwt>
</event>
<event>
 8    1  0.1821556E-007  0.1371002E+03  0.7546771E-02  0.1217288E+00
          5   -1    0    0  501    0  0.00000000000E+00  0.00000000000E+00  0.14414254870E+04  0.14414331496E+04  0.47000000000E+01 0. -1.
         -5   -1    0    0    0  501 -0.00000000000E+00 -0.00000000000E+00 -0.14867147221E+02  0.15592372061E+02  0.47000000000E+01 0. -1.
         25    2    1    2    0    0 -0.52778967061E+02  0.19617899168E+02  0.43660630278E+03  0.45762596406E+03  0.12500391206E+03 0.  0.
         25    2    1    2    0    0  0.52778967061E+02 -0.19617899168E+02  0.98995203703E+03  0.99939955756E+03  0.12499583470E+03 0.  0.
          5    1    4    4  502    0  0.15293588168E+02 -0.59806910922E+02  0.25607326472E+03  0.26345088221E+03  0.47000000000E+01 0. -1.
         -5    1    4    4    0  502  0.37485378893E+02  0.40189011754E+02  0.73387877231E+03  0.73594867535E+03  0.47000000000E+01 0. -1.
          5    1    3    3  503    0 -0.57642546010E+01 -0.29313984495E+02  0.21803276802E+02  0.37282827111E+02  0.47000000000E+01 0.  1.
         -5    1    3    3    0  503 -0.47014712460E+02  0.48931883663E+02  0.41480302597E+03  0.42034313695E+03  0.47000000000E+01 0.  1.
<mgrwt>
<rscale>  0 0.13709834E+03</rscale>
<asrwt>0</asrwt>
<pdfrwt beam="1">  1        5 0.22181416E+00 0.13710018E+03</pdfrwt>
<pdfrwt beam="2">  1       -5 0.23436292E-02 0.13710018E+03</pdfrwt>
<totfact> 0.56477382E+01</totfact>
</mgrwt>
</event>
<event>
 8    1  0.1821556E-007  0.2271224E+03  0.7546771E-02  0.1128682E+00
          5   -1    0    0  501    0  0.00000000000E+00  0.00000000000E+00  0.86745857618E+03  0.86747130868E+03  0.47000000000E+01 0.  1.
         -5   -1    0    0    0  501 -0.00000000000E+00 -0.00000000000E+00 -0.59503512425E+02  0.59688843102E+02  0.47000000000E+01 0.  1.
         25    2    1    2    0    0  0.18833068862E+03  0.22148032166E+02  0.38126077305E+03  0.44378414359E+03  0.12500242169E+03 0.  0.
         25    2    1    2    0    0 -0.18833068862E+03 -0.22148032166E+02  0.42669429070E+03  0.48337600819E+03  0.12500145589E+03 0.  0.
          5    1    4    4  502    0 -0.75235899070E+02 -0.70999139598E+02  0.20687290422E+03  0.23134348236E+03  0.47000000000E+01 0. -1.
         -5    1    4    4    0  502 -0.11309478955E+03  0.48851107432E+02  0.21982138648E+03  0.25203252583E+03  0.47000000000E+01 0. -1.
          5    1    3    3  503    0 -0.87957906185E+01 -0.11987190452E+02  0.30416279832E+01  0.15887106984E+02  0.47000000000E+01 0.  1.
         -5    1    3    3    0  503  0.19712647924E+03  0.34135222617E+02  0.37821914507E+03  0.42789703661E+03  0.47000000000E+01 0.  1.
<mgrwt>
<rscale>  0 0.22712228E+03</rscale>
<asrwt>0</asrwt>
<pdfrwt beam="1">  1        5 0.13347041E+00 0.22712241E+03</pdfrwt>
<pdfrwt beam="2">  1       -5 0.91696218E-02 0.22712241E+03</pdfrwt>
<totfact> 0.29483917E+01</totfact>
</mgrwt>
</event>
<event>
 8    1  0.1821556E-007  0.1284786E+03  0.7546771E-02  0.1229733E+00
         -5   -1    0    0    0  501 -0.00000000000E+00  0.00000000000E+00  0.12785848521E+03  0.12794484061E+03  0.47000000000E+01 0.  1.
          5   -1    0    0  501    0  0.00000000000E+00 -0.00000000000E+00 -0.12896908572E+03  0.12905469798E+03  0.47000000000E+01 0.  1.
         25    2    1    2    0    0  0.28634590851E+01  0.29543875511E+02  0.18907789681E+01  0.12848590833E+03  0.12499605441E+03 0.  0.
         25    2    1    2    0    0 -0.28634590851E+01 -0.29543875511E+02 -0.30013794780E+01  0.12851363026E+03  0.12500281959E+03 0.  0.
          5    1    3    3  502    0 -0.89985659441E+01  0.53866866261E+02 -0.47132702525E+02  0.72292427800E+02  0.47000000000E+01 0.  1.
         -5    1    3    3    0  502  0.11862025029E+02 -0.24322990750E+02  0.49023481493E+02  0.56193480534E+02  0.47000000000E+01 0.  1.
          5    1    4    4  503    0 -0.54877238427E+00  0.32164178316E+02  0.41160082908E+02  0.52450719183E+02  0.47000000000E+01 0.  1.
         -5    1    4    4    0  503 -0.23146867008E+01 -0.61708053828E+02 -0.44161462386E+02  0.76062911079E+02  0.47000000000E+01 0.  1.
<mgrwt>
<rscale>  0 0.12847693E+03</rscale>
<asrwt>0</asrwt>
<pdfrwt beam="2">  1        5 0.19854626E-01 0.12847858E+03</pdfrwt>
<pdfrwt beam="1">  1       -5 0.19683765E-01 0.12847858E+03</pdfrwt>
<totfact> 0.39772473E+02</totfact>
</mgrwt>
</event>
<event>
 8    1  0.1821556E-007  0.1293229E+03  0.7546771E-02  0.1228466E+00
          5   -1    0    0  501    0  0.00000000000E+00  0.00000000000E+00  0.12344349342E+03  0.12353293515E+03  0.47000000000E+01 0. -1.
         -5   -1    0    0    0  501 -0.00000000000E+00 -0.00000000000E+00 -0.15024919934E+03  0.15032269257E+03  0.47000000000E+01 0. -1.
         25    2    1    2    0    0 -0.26059950462E+02  0.20463862999E+02 -0.56575507930E+02  0.14115050604E+03  0.12499914620E+03 0.  0.
         25    2    1    2    0    0  0.26059950462E+02 -0.20463862999E+02  0.29769802010E+02  0.13270512168E+03  0.12500606986E+03 0.  0.
          5    1    4    4  502    0 -0.88872201067E+01  0.47800390990E+02 -0.35133659918E+01  0.48972377935E+02  0.47000000000E+01 0.  1.
         -5    1    4    4    0  502  0.34947170569E+02 -0.68264253988E+02  0.33283168002E+02  0.83732743748E+02  0.47000000000E+01 0.  1.
          5    1    3    3  503    0 -0.54290706080E+01 -0.52242369052E+02 -0.15296130634E+02  0.54907208490E+02  0.47000000000E+01 0. -1.
         -5    1    3    3    0  503 -0.20630879854E+02  0.72706232050E+02 -0.41279377296E+02  0.86243297551E+02  0.47000000000E+01 0. -1.
<mgrwt>
<rscale>  0 0.12932121E+03</rscale>
<asrwt>0</asrwt>
<pdfrwt beam="1">  1        5 0.19003840E-01 0.12932288E+03</pdfrwt>
<pdfrwt beam="2">  1       -5 0.23127795E-01 0.12932288E+03</pdfrwt>
<totfact> 0.31949353E+02</totfact>
</mgrwt>
</event>
<event>
 8    1  0.1821556E-007  0.1712975E+03  0.7546771E-02  0.1176502E+00
          5   -1    0    0  501    0  0.00000000000E+00  0.00000000000E+00  0.26973229371E+04  0.26973270319E+04  0.47000000000E+01 0. -1.
         -5   -1    0    0    0  501 -0.00000000000E+00 -0.00000000000E+00 -0.10933629214E+02  0.11901018771E+02  0.47000000000E+01 0. -1.
         25    2    1    2    0    0  0.85160029602E+02  0.80402146425E+02  0.10478397407E+04  0.10617490150E+04  0.12500445143E+03 0.  0.
         25    2    1    2    0    0 -0.85160029602E+02 -0.80402146425E+02  0.16385495672E+04  0.16474790357E+04  0.12500301215E+03 0.  0.
          5    1    4    4  502    0 -0.10387713530E+03 -0.96764368601E+02  0.12359683592E+04  0.12441035637E+04  0.47000000000E+01 0.  1.
         -5    1    4    4    0  502  0.18717105702E+02  0.16362222177E+02  0.40258120799E+03  0.40337547197E+03  0.47000000000E+01 0.  1.
          5    1    3    3  503    0  0.11045243920E+03  0.45431065066E+02  0.89210733540E+03  0.90007850261E+03  0.47000000000E+01 0. -1.
         -5    1    3    3    0  503 -0.25292409595E+02  0.34971081359E+02  0.15573240529E+03  0.16167051238E+03  0.47000000000E+01 0. -1.
<mgrwt>
<rscale>  0 0.17129728E+03</rscale>
<asrwt>0</asrwt>
<pdfrwt beam="1">  1        5 0.41504768E+00 0.17129754E+03</pdfrwt>
<pdfrwt beam="2">  1       -5 0.17568256E-02 0.17129754E+03</pdfrwt>
<totfact> 0.50638081E+00</totfact>
</mgrwt>
</event>
<event>
 8    1  0.1821556E-007  0.1479107E+03  0.7546771E-02  0.1203065E+00
          5   -1    0    0  501    0  0.00000000000E+00  0.00000000000E+00  0.46946416797E+03  0.46948769420E+03  0.47000000000E+01 0.  1.
         -5   -1    0    0    0  501 -0.00000000000E+00 -0.00000000000E+00 -0.46634764374E+02  0.46871006477E+02  0.47000000000E+01 0.  1.
         25    2    1    2    0    0 -0.52024169537E+02 -0.59542874582E+02  0.22729202855E+03  0.27118029837E+03  0.12500087940E+03 0.  0.
         25    2    1    2    0    0  0.52024169537E+02  0.59542874582E+02  0.19553737505E+03  0.24517840231E+03  0.12500286313E+03 0.  0.
          5    1    3    3  502    0 -0.50937117036E+02  0.26705990990E+02  0.12221618273E+03  0.13515430133E+03  0.47000000000E+01 0. -1.
         -5    1    3    3    0  502 -0.10870525011E+01 -0.86248865572E+02  0.10507584582E+03  0.13602599704E+03  0.47000000000E+01 0. -1.
          5    1    4    4  503    0  0.98861970469E+01  0.51476958552E+02  0.19504026387E+03  0.20201586246E+03  0.47000000000E+01 0. -1.
         -5    1    4    4    0  503  0.42137972491E+02  0.80659160302E+01  0.49711117376E+00  0.43162539853E+02  0.47000000000E+01 0. -1.
<mgrwt>
<rscale>  0 0.14791031E+03</rscale>
<asrwt>0</asrwt>
<pdfrwt beam="1">  1        5 0.72245243E-01 0.14791073E+03</pdfrwt>
<pdfrwt beam="2">  1       -5 0.71945609E-02 0.14791073E+03</pdfrwt>
<totfact> 0.17852282E+02</totfact>
</mgrwt>
</event>
<event>
 8    1  0.1821556E-007  0.1315260E+03  0.7546771E-02  0.1225210E+00
         -5   -1    0    0    0  501 -0.00000000000E+00  0.00000000000E+00  0.29251205416E+02  0.29626390571E+02  0.47000000000E+01 0.  1.
          5   -1    0    0  501    0  0.00000000000E+00 -0.00000000000E+00 -0.59421435310E+03  0.59423294038E+03  0.47000000000E+01 0.  1.
         25    2    1    2    0    0  0.54435505327E+01  0.40548085468E+02 -0.24866905863E+03  0.28130855277E+03  0.12499768664E+03 0.  0.
         25    2    1    2    0    0 -0.54435505327E+01 -0.40548085468E+02 -0.31629408906E+03  0.34255077818E+03  0.12500122152E+03 0.  0.
          5    1    4    4  502    0  0.25030855600E+02 -0.72683680325E+02 -0.13084365386E+03  0.15182757613E+03  0.47000000000E+01 0. -1.
         -5    1    4    4    0  502 -0.30474406133E+02  0.32135594857E+02 -0.18545043520E+03  0.19072320205E+03  0.47000000000E+01 0. -1.
          5    1    3    3  503    0  0.10804011094E+02  0.79839815705E+02 -0.10641993062E+03  0.13356052733E+03  0.47000000000E+01 0. -1.
         -5    1    3    3    0  503 -0.53604605618E+01 -0.39291730237E+02 -0.14224912801E+03  0.14774802544E+03  0.47000000000E+01 0. -1.
<mgrwt>
<rscale>  0 0.13152515E+03</rscale>
<asrwt>0</asrwt>
<pdfrwt beam="2">  1        5 0.91447874E-01 0.13152599E+03</pdfrwt>
<pdfrwt beam="1">  1       -5 0.45304761E-02 0.13152599E+03</pdfrwt>
<totfact> 0.21561541E+02</totfact>
</mgrwt>
</event>
<event>
 8    1  0.1821556E-007  0.2028629E+03  0.7546771E-02  0.1147347E+00
         -5   -1    0    0    0  501 -0.00000000000E+00  0.00000000000E+00  0.83233337472E+02  0.83365931091E+02  0.47000000000E+01 0.  1.
          5   -1    0    0  501    0  0.00000000000E+00 -0.00000000000E+00 -0.49468859367E+03  0.49471092035E+03  0.47000000000E+01 0.  1.
         25    2    1    2    0    0  0.79744059513E+02  0.13844611741E+03 -0.19404040431E+03  0.28072233555E+03  0.12500763463E+03 0.  0.
         25    2    1    2    0    0 -0.79744059513E+02 -0.13844611741E+03 -0.21741485189E+03  0.29735451589E+03  0.12499619132E+03 0.  0.
          5    1    3    3  502    0  0.22865122197E+02  0.65847697854E+02 -0.17219448951E+03  0.18582724597E+03  0.47000000000E+01 0. -1.
         -5    1    3    3    0  502  0.56878937316E+02  0.72598419557E+02 -0.21845914797E+02  0.94895089576E+02  0.47000000000E+01 0. -1.
          5    1    4    4  503    0 -0.89764845225E+01  0.21954513374E+02 -0.46788919469E+02  0.52667550892E+02  0.47000000000E+01 0.  1.
         -5    1    4    4    0  503 -0.70767574990E+02 -0.16040063078E+03 -0.17062593242E+03  0.24468696500E+03  0.47000000000E+01 0.  1.
<mgrwt>
<rscale>  0 0.20286112E+03</rscale>
<asrwt>0</asrwt>
<pdfrwt beam="2">  1        5 0.76117853E-01 0.20286289E+03</pdfrwt>
<pdfrwt beam="1">  1       -5 0.12817046E-01 0.20286289E+03</pdfrwt>
<totfact> 0.63368086E+01</totfact>
</mgrwt>
</event>
<event>
 8    1  0.1821556E-007  0.1274209E+03  0.7546771E-02  0.1231346E+00
          5   -1    0    0  501    0  0.00000000000E+00  0.00000000000E+00  0.24700483536E+03  0.24704954704E+03  0.47000000000E+01 0. -1.
         -5   -1    0    0    0  501 -0.00000000000E+00 -0.00000000000E+00 -0.10206429227E+03  0.10217245107E+03  0.47000000000E+01 0. -1.
         25    2    1    2    0    0 -0.16382138305E+02  0.18240103850E+02 -0.31826552963E+02  0.13133551527E+03  0.12504004260E+03 0.  0.
         25    2    1    2    0    0  0.16382138305E+02 -0.18240103850E+02  0.17676709605E+03  0.21788648284E+03  0.12500734903E+03 0.  0.
          5    1    4    4  502    0 -0.21124324964E+01 -0.69627979330E+02  0.76193619441E+02  0.10334445084E+03  0.47000000000E+01 0. -1.
         -5    1    4    4    0  502  0.18494570802E+02  0.51387875480E+02  0.10057347661E+03  0.11454203200E+03  0.47000000000E+01 0. -1.
          5    1    3    3  503    0  0.30085977964E+02  0.57949336568E+02 -0.97891310384E+01  0.66190699990E+02  0.47000000000E+01 0. -1.
         -5    1    3    3    0  503 -0.46468116269E+02 -0.39709232718E+02 -0.22037421925E+02  0.65144815279E+02  0.47000000000E+01 0. -1.
<mgrwt>
<rscale>  0 0.12741289E+03</rscale>
<asrwt>0</asrwt>
<pdfrwt beam="1">  1        5 0.38012503E-01 0.12742091E+03</pdfrwt>
<pdfrwt beam="2">  1       -5 0.15713958E-01 0.12742091E+03</pdfrwt>
<totfact> 0.17023726E+02</totfact>
</mgrwt>
</event>
<event>
 8    1  0.1821556E-007  0.1260127E+03  0.7546771E-02  0.1233498E+00
          5   -1    0    0  501    0  0.00000000000E+00  0.00000000000E+00  0.64946066966E+01  0.80168520096E+01  0.47000000000E+01 0. -1.
         -5   -1    0    0    0  501 -0.00000000000E+00 -0.00000000000E+00 -0.23981811850E+04  0.23981857905E+04  0.47000000000E+01 0. -1.
         25    2    1    2    0    0  0.15891320569E+02  0.35649331839E-01 -0.15529289288E+04  0.15580331992E+04  0.12500662633E+03 0.  0.
         25    2    1    2    0    0 -0.15891320569E+02 -0.35649331839E-01 -0.83875764947E+03  0.84816944332E+03  0.12499789881E+03 0.  0.
          5    1    4    4  502    0 -0.86233011835E+01 -0.31011138763E+02 -0.56080875739E+02  0.64832142293E+02  0.47000000000E+01 0. -1.
         -5    1    4    4    0  502 -0.72680193850E+01  0.30975489431E+02 -0.78267677373E+03  0.78333730103E+03  0.47000000000E+01 0. -1.
          5    1    3    3  503    0 -0.49514817293E+02  0.82698203394E+01 -0.39271792638E+03  0.39594136783E+03  0.47000000000E+01 0.  1.
         -5    1    3    3    0  503  0.65406137861E+02 -0.82341710076E+01 -0.11602110024E+04  0.11620918314E+04  0.47000000000E+01 0.  1.
<mgrwt>
<rscale>  0 0.12601050E+03</rscale>
<asrwt>0</asrwt>
<pdfrwt beam="1">  1        5 0.11166222E-02 0.12601267E+03</pdfrwt>
<pdfrwt beam="2">  1       -5 0.36906777E+00 0.12601267E+03</pdfrwt>
<totfact> 0.20216141E+01</totfact>
</mgrwt>
</event>
<event>
 8    1  0.1821556E-007  0.1319227E+03  0.7546771E-02  0.1224654E+00
          5   -1    0    0  501    0  0.00000000000E+00  0.00000000000E+00  0.90101768724E+02  0.90224269059E+02  0.47000000000E+01 0.  1.
         -5   -1    0    0    0  501 -0.00000000000E+00 -0.00000000000E+00 -0.19622491462E+03  0.19628119400E+03  0.47000000000E+01 0.  1.
         25    2    1    2    0    0  0.32725512671E+02 -0.26262725532E+02 -0.72028365556E+02  0.15024820383E+03  0.12500298947E+03 0.  0.
         25    2    1    2    0    0 -0.32725512671E+02  0.26262725532E+02 -0.34094780344E+02  0.13625725923E+03  0.12507156637E+03 0.  0.
          5    1    4    4  502    0 -0.27601270070E+02 -0.20155883522E+02  0.37304837569E+02  0.50811717704E+02  0.47000000000E+01 0.  1.
         -5    1    4    4    0  502 -0.51242426006E+01  0.46418609054E+02 -0.71399617912E+02  0.85445541527E+02  0.47000000000E+01 0.  1.
          5    1    3    3  503    0  0.15319167732E+02 -0.64435400237E+02  0.41762094727E+00  0.66399262879E+02  0.47000000000E+01 0.  1.
         -5    1    3    3    0  503  0.17406344939E+02  0.38172674704E+02 -0.72445986503E+02  0.83848940951E+02  0.47000000000E+01 0.  1.
<mgrwt>
<rscale>  0 0.13190640E+03</rscale>
<asrwt>0</asrwt>
<pdfrwt beam="1">  1        5 0.13875563E-01 0.13192265E+03</pdfrwt>
<pdfrwt beam="2">  1       -5 0.30202200E-01 0.13192265E+03</pdfrwt>
<totfact> 0.34134149E+02</totfact>
</mgrwt>
</event>
<event>
 8    1  0.1821556E-007  0.1330892E+03  0.7546771E-02  0.1222953E+00
         -5   -1    0    0    0  501 -0.00000000000E+00  0.00000000000E+00  0.36066987398E+03  0.36070049626E+03  0.47000000000E+01 0.  1.
          5   -1    0    0  501    0  0.00000000000E+00 -0.00000000000E+00 -0.62737460948E+02  0.62913265741E+02  0.47000000000E+01 0.  1.
         25    2    1    2    0    0 -0.67939930589E+01  0.45095119889E+02  0.24807082960E+03  0.28151709518E+03  0.12503203670E+03 0.  0.
         25    2    1    2    0    0  0.67939930589E+01 -0.45095119889E+02  0.49861583440E+02  0.14209666682E+03  0.12500222813E+03 0.  0.
          5    1    3    3  502    0 -0.42242473478E+02  0.24894534540E+00  0.21179979216E+02  0.47488630839E+02  0.47000000000E+01 0.  1.
         -5    1    3    3    0  502  0.35448480419E+02  0.44846174544E+02  0.22689085038E+03  0.23402846434E+03  0.47000000000E+01 0.  1.
          5    1    4    4  503    0  0.27215074504E+01  0.18122874846E+02 -0.32788627227E+02  0.37855373079E+02  0.47000000000E+01 0.  1.
         -5    1    4    4    0  503  0.40724856085E+01 -0.63217994735E+02  0.82650210667E+02  0.10424129374E+03  0.47000000000E+01 0.  1.
<mgrwt>
<rscale>  0 0.13308221E+03</rscale>
<asrwt>0</asrwt>
<pdfrwt beam="2">  1        5 0.96677961E-02 0.13308921E+03</pdfrwt>
<pdfrwt beam="1">  1       -5 0.55503552E-01 0.13308921E+03</pdfrwt>
<totfact> 0.18575316E+02</totfact>
</mgrwt>
</event>
<event>
 8    1  0.1821556E-007  0.1575968E+03  0.7546771E-02  0.1191439E+00
          5   -1    0    0  501    0  0.00000000000E+00  0.00000000000E+00  0.10746264939E+03  0.10756538018E+03  0.47000000000E+01 0. -1.
         -5   -1    0    0    0  501 -0.00000000000E+00 -0.00000000000E+00 -0.25731939149E+03  0.25736231122E+03  0.47000000000E+01 0. -1.
         25    2    1    2    0    0  0.50753302074E+01  0.95835426107E+02 -0.13340779376E+03  0.20647482133E+03  0.12499609808E+03 0.  0.
         25    2    1    2    0    0 -0.50753302074E+01 -0.95835426107E+02 -0.16448948342E+02  0.15845287007E+03  0.12500622488E+03 0.  0.
          5    1    3    3  502    0  0.49883062984E+02  0.66156241606E+02 -0.27169535758E+02  0.87322631370E+02  0.47000000000E+01 0.  1.
         -5    1    3    3    0  502 -0.44807732777E+02  0.29679184502E+02 -0.10623825801E+03  0.11915218996E+03  0.47000000000E+01 0.  1.
          5    1    4    4  503    0 -0.42583749592E+02 -0.49792121919E+02  0.39564874792E+02  0.76681813044E+02  0.47000000000E+01 0.  1.
         -5    1    4    4    0  503  0.37508419384E+02 -0.46043304188E+02 -0.56013823134E+02  0.81771057027E+02  0.47000000000E+01 0.  1.
<mgrwt>
<rscale>  0 0.15759477E+03</rscale>
<asrwt>0</asrwt>
<pdfrwt beam="1">  1        5 0.16543919E-01 0.15759678E+03</pdfrwt>
<pdfrwt beam="2">  1       -5 0.39598802E-01 0.15759678E+03</pdfrwt>
<totfact> 0.15304067E+02</totfact>
</mgrwt>
</event>
<event>
 8    1  0.1821556E-007  0.1376750E+03  0.7546771E-02  0.1216493E+00
          5   -1    0    0  501    0  0.00000000000E+00  0.00000000000E+00  0.54235268195E+02  0.54438537051E+02  0.47000000000E+01 0. -1.
         -5   -1    0    0    0  501 -0.00000000000E+00 -0.00000000000E+00 -0.35135797379E+03  0.35138940756E+03  0.47000000000E+01 0. -1.
         25    2    1    2    0    0 -0.57622420800E+02  0.30045010432E+01 -0.16651704410E+03  0.21605900099E+03  0.12499678208E+03 0.  0.
         25    2    1    2    0    0  0.57622420800E+02 -0.30045010432E+01 -0.13060566149E+03  0.18976894361E+03  0.12500017096E+03 0.  0.
          5    1    3    3  502    0 -0.55213970479E+02 -0.41658563259E+02 -0.36218154445E+02  0.78216770198E+02  0.47000000000E+01 0.  1.
         -5    1    3    3    0  502 -0.24084503217E+01  0.44663064303E+02 -0.13029888965E+03  0.13784223080E+03  0.47000000000E+01 0.  1.
          5    1    4    4  503    0  0.47358220697E+02 -0.41669469946E+02 -0.13516334428E+03  0.14923258837E+03  0.47000000000E+01 0.  1.
         -5    1    4    4    0  503  0.10264200103E+02  0.38664968903E+02  0.45576827927E+01  0.40536355244E+02  0.47000000000E+01 0.  1.
<mgrwt>
<rscale>  0 0.13767426E+03</rscale>
<asrwt>0</asrwt>
<pdfrwt beam="1">  1        5 0.83619417E-02 0.13767503E+03</pdfrwt>
<pdfrwt beam="2">  1       -5 0.54073125E-01 0.13767503E+03</pdfrwt>
<totfact> 0.25544364E+02</totfact>
</mgrwt>
</event>
<event>
 8    1  0.1821556E-007  0.1324540E+03  0.7546771E-02  0.1223860E+00
          5   -1    0    0  501    0  0.00000000000E+00  0.00000000000E+00  0.24811987995E+02  0.25253212633E+02  0.47000000000E+01 0. -1.
         -5   -1    0    0    0  501 -0.00000000000E+00 -0.00000000000E+00 -0.75226953583E+03  0.75228421793E+03  0.47000000000E+01 0. -1.
         25    2    1    2    0    0 -0.27823440965E+02  0.33830627486E+02 -0.46578638740E+03  0.48425284488E+03  0.12500081544E+03 0.  0.
         25    2    1    2    0    0  0.27823440965E+02 -0.33830627486E+02 -0.26167116043E+03  0.29328458568E+03  0.12500158707E+03 0.  0.
          5    1    3    3  502    0 -0.50104736591E+02  0.59542082240E+02 -0.41912515880E+03  0.42631412471E+03  0.47000000000E+01 0. -1.
         -5    1    3    3    0  502  0.22281295626E+02 -0.25711454754E+02 -0.46661228603E+02  0.57938720171E+02  0.47000000000E+01 0. -1.
          5    1    4    4  503    0  0.62416604438E+02  0.86025530323E+01 -0.20428849562E+03  0.21383572169E+03  0.47000000000E+01 0.  1.
         -5    1    4    4    0  503 -0.34593163473E+02 -0.42433180519E+02 -0.57382664813E+02  0.79448863989E+02  0.47000000000E+01 0.  1.
<mgrwt>
<rscale>  0 0.13245378E+03</rscale>
<asrwt>0</asrwt>
<pdfrwt beam="1">  1        5 0.38522993E-02 0.13245396E+03</pdfrwt>
<pdfrwt beam="2">  1       -5 0.11576883E+00 0.13245396E+03</pdfrwt>
<totfact> 0.15840934E+02</totfact>
</mgrwt>
</event>
<event>
 8    1  0.1821556E-007  0.1380475E+03  0.7546771E-02  0.1215986E+00
         -5   -1    0    0    0  501 -0.00000000000E+00  0.00000000000E+00  0.19340013412E+03  0.19345723527E+03  0.47000000000E+01 0. -1.
          5   -1    0    0  501    0  0.00000000000E+00 -0.00000000000E+00 -0.99006032815E+02  0.99117528892E+02  0.47000000000E+01 0. -1.
         25    2    1    2    0    0  0.47363745080E+02  0.34457571004E+02  0.58642138769E+02  0.14998671428E+03  0.12500586175E+03 0.  0.
         25    2    1    2    0    0 -0.47363745080E+02 -0.34457571004E+02  0.35751962536E+02  0.14258804988E+03  0.12499000199E+03 0.  0.
          5    1    3    3  502    0 -0.12637136034E+02  0.92477515227E+00 -0.32811660899E+02  0.35485877574E+02  0.47000000000E+01 0. -1.
         -5    1    3    3    0  502  0.60000881114E+02  0.33532795851E+02  0.91453799668E+02  0.11450083670E+03  0.47000000000E+01 0. -1.
          5    1    4    4  503    0 -0.55383981880E+02 -0.32180334045E+02 -0.33664802880E+02  0.72514607501E+02  0.47000000000E+01 0. -1.
         -5    1    4    4    0  503  0.80202367999E+01 -0.22772369589E+01  0.69416765416E+02  0.70073442382E+02  0.47000000000E+01 0. -1.
<mgrwt>
<rscale>  0 0.13804392E+03</rscale>
<asrwt>0</asrwt>
<pdfrwt beam="2">  1        5 0.15244667E-01 0.13804751E+03</pdfrwt>
<pdfrwt beam="1">  1       -5 0.29766835E-01 0.13804751E+03</pdfrwt>
<totfact> 0.30106476E+02</totfact>
</mgrwt>
</event>
<event>
 8    1  0.1821556E-007  0.1522808E+03  0.7546771E-02  0.1197698E+00
         -5   -1    0    0    0  501 -0.00000000000E+00  0.00000000000E+00  0.12936179320E+02  0.13763529177E+02  0.47000000000E+01 0. -1.
          5   -1    0    0  501    0  0.00000000000E+00 -0.00000000000E+00 -0.17583071255E+04  0.17583134071E+04  0.47000000000E+01 0. -1.
         25    2    1    2    0    0  0.84493686999E+02 -0.20612779792E+02 -0.77338104206E+03  0.78823049769E+03  0.12500004576E+03 0.  0.
         25    2    1    2    0    0 -0.84493686999E+02  0.20612779792E+02 -0.97198990417E+03  0.98384643863E+03  0.12500148468E+03 0.  0.
          5    1    4    4  502    0 -0.11512301709E+03  0.76331568486E+00 -0.71125061352E+03  0.72052301625E+03  0.47000000000E+01 0.  1.
         -5    1    4    4    0  502  0.30629330091E+02  0.19849464108E+02 -0.26073929065E+03  0.26332342238E+03  0.47000000000E+01 0.  1.
          5    1    3    3  503    0  0.99418817286E+02 -0.53358489045E+00 -0.34437417217E+03  0.35846903130E+03  0.47000000000E+01 0. -1.
         -5    1    3    3    0  503 -0.14925130287E+02 -0.20079194902E+02 -0.42900686989E+03  0.42976146639E+03  0.47000000000E+01 0. -1.
<mgrwt>
<rscale>  0 0.15228050E+03</rscale>
<asrwt>0</asrwt>
<pdfrwt beam="2">  1        5 0.27057273E+00 0.15228080E+03</pdfrwt>
<pdfrwt beam="1">  1       -5 0.20543083E-02 0.15228080E+03</pdfrwt>
<totfact> 0.35021796E+01</totfact>
</mgrwt>
</event>
<event>
 8    1  0.1821556E-007  0.1289067E+03  0.7546771E-02  0.1229089E+00
         -5   -1    0    0    0  501 -0.00000000000E+00  0.00000000000E+00  0.90184191623E+03  0.90185416331E+03  0.47000000000E+01 0.  1.
          5   -1    0    0  501    0  0.00000000000E+00 -0.00000000000E+00 -0.18113269532E+02  0.18713111263E+02  0.47000000000E+01 0.  1.
         25    2    1    2    0    0  0.11723530156E+01 -0.31458961360E+02  0.43927036985E+03  0.45779406356E+03  0.12500362452E+03 0.  0.
         25    2    1    2    0    0 -0.11723530156E+01  0.31458961360E+02  0.44445827685E+03  0.46277321101E+03  0.12499937722E+03 0.  0.
          5    1    3    3  502    0 -0.57630866922E+02 -0.35462751391E+02  0.19467408254E+03  0.20615288495E+03  0.47000000000E+01 0.  1.
         -5    1    3    3    0  502  0.58803219938E+02  0.40037900311E+01  0.24459628731E+03  0.25164117861E+03  0.47000000000E+01 0.  1.
          5    1    4    4  503    0  0.52390960365E+02  0.69325304027E+01  0.32709463174E+03  0.33136967396E+03  0.47000000000E+01 0. -1.
         -5    1    4    4    0  503 -0.53563313380E+02  0.24526430957E+02  0.11736364511E+03  0.13140353705E+03  0.47000000000E+01 0. -1.
<mgrwt>
<rscale>  0 0.12890571E+03</rscale>
<asrwt>0</asrwt>
<pdfrwt beam="2">  1        5 0.28337412E-02 0.12890674E+03</pdfrwt>
<pdfrwt beam="1">  1       -5 0.13879196E+00 0.12890674E+03</pdfrwt>
<totfact> 0.16165953E+02</totfact>
</mgrwt>
</event>
<event>
 8    1  0.1821556E-007  0.1456086E+03  0.7546771E-02  0.1205978E+00
         -5   -1    0    0    0  501 -0.00000000000E+00  0.00000000000E+00  0.11936392879E+04  0.11936485411E+04  0.47000000000E+01 0. -1.
          5   -1    0    0  501    0  0.00000000000E+00 -0.00000000000E+00 -0.19398480437E+02  0.19959735551E+02  0.47000000000E+01 0. -1.
         25    2    1    2    0    0 -0.70390720637E+02  0.24948025684E+02  0.77697313854E+03  0.79049929272E+03  0.12499846500E+03 0.  0.
         25    2    1    2    0    0  0.70390720637E+02 -0.24948025684E+02  0.39726766894E+03  0.42310898392E+03  0.12498941536E+03 0.  0.
          5    1    4    4  502    0  0.10190345257E+03 -0.14851108704E+02  0.35235115012E+03  0.36712163116E+03  0.47000000000E+01 0. -1.
         -5    1    4    4    0  502 -0.31512731930E+02 -0.10096916980E+02  0.44916518819E+02  0.55987352759E+02  0.47000000000E+01 0. -1.
          5    1    3    3  503    0 -0.85651714186E+02  0.43211259893E+02  0.74044743017E+03  0.74665113404E+03  0.47000000000E+01 0. -1.
         -5    1    3    3    0  503  0.15260993549E+02 -0.18263234209E+02  0.36525708369E+02  0.43848158681E+02  0.47000000000E+01 0. -1.
<mgrwt>
<rscale>  0 0.14560669E+03</rscale>
<asrwt>0</asrwt>
<pdfrwt beam="2">  1        5 0.30282675E-02 0.14560863E+03</pdfrwt>
<pdfrwt beam="1">  1       -5 0.18368066E+00 0.14560863E+03</pdfrwt>
<totfact> 0.68776288E+01</totfact>
</mgrwt>
</event>
<event>
 8    1  0.1821556E-007  0.1520590E+03  0.7546771E-02  0.1197966E+00
         -5   -1    0    0    0  501 -0.00000000000E+00  0.00000000000E+00  0.22209469298E+02  0.22701333144E+02  0.47000000000E+01 0.  1.
          5   -1    0    0  501    0  0.00000000000E+00 -0.00000000000E+00 -0.10351283412E+04  0.10351390113E+04  0.47000000000E+01 0.  1.
         25    2    1    2    0    0  0.68745473182E+02 -0.52646843986E+02 -0.46635276239E+03  0.49051692220E+03  0.12499728679E+03 0.  0.
         25    2    1    2    0    0 -0.68745473182E+02  0.52646843986E+02 -0.54656610953E+03  0.56732342229E+03  0.12499489240E+03 0.  0.
          5    1    4    4  502    0 -0.80538232277E+01 -0.21723057515E+02 -0.17026497357E+02  0.29133261208E+02  0.47000000000E+01 0.  1.
         -5    1    4    4    0  502 -0.60691649954E+02  0.74369901501E+02 -0.52953961218E+03  0.53819016108E+03  0.47000000000E+01 0.  1.
          5    1    3    3  503    0  0.89463685236E+01  0.35725848788E+02 -0.61733327710E+02  0.72037958963E+02  0.47000000000E+01 0. -1.
         -5    1    3    3    0  503  0.59799104658E+02 -0.88372692774E+02 -0.40461943468E+03  0.41847896323E+03  0.47000000000E+01 0. -1.
<mgrwt>
<rscale>  0 0.15205855E+03</rscale>
<asrwt>0</asrwt>
<pdfrwt beam="2">  1        5 0.15928913E+00 0.15205904E+03</pdfrwt>
<pdfrwt beam="1">  1       -5 0.34554987E-02 0.15205904E+03</pdfrwt>
<totfact> 0.84825744E+01</totfact>
</mgrwt>
</event>
<event>
 8    1  0.1821556E-007  0.1368325E+03  0.7546771E-02  0.1217657E+00
          5   -1    0    0  501    0  0.00000000000E+00  0.00000000000E+00  0.37089959493E+02  0.37386563030E+02  0.47000000000E+01 0.  1.
         -5   -1    0    0    0  501 -0.00000000000E+00 -0.00000000000E+00 -0.51880154217E+03  0.51882283119E+03  0.47000000000E+01 0.  1.
         25    2    1    2    0    0  0.11054802568E+01  0.55647814344E+02 -0.29017412738E+03  0.32081665580E+03  0.12499760442E+03 0.  0.
         25    2    1    2    0    0 -0.11054802568E+01 -0.55647814344E+02 -0.19153745530E+03  0.23539273842E+03  0.12500097275E+03 0.  0.
          5    1    4    4  502    0 -0.16757245234E+02 -0.53067845330E+02 -0.20598867099E+03  0.21342545315E+03  0.47000000000E+01 0. -1.
         -5    1    4    4    0  502  0.15651764977E+02 -0.25799690137E+01  0.14451215692E+02  0.21967285267E+02  0.47000000000E+01 0. -1.
          5    1    3    3  503    0 -0.51166162216E+01  0.85142926318E+02 -0.27246050267E+03  0.28553863693E+03  0.47000000000E+01 0.  1.
         -5    1    3    3    0  503  0.62220964784E+01 -0.29495111975E+02 -0.17713624705E+02  0.35278018867E+02  0.47000000000E+01 0.  1.
<mgrwt>
<rscale>  0 0.13683177E+03</rscale>
<asrwt>0</asrwt>
<pdfrwt beam="1">  1        5 0.57306012E-02 0.13683254E+03</pdfrwt>
<pdfrwt beam="2">  1       -5 0.79840070E-01 0.13683254E+03</pdfrwt>
<totfact> 0.20324397E+02</totfact>
</mgrwt>
</event>
<event>
 8    1  0.1821556E-007  0.1965486E+03  0.7546771E-02  0.1152686E+00
          5   -1    0    0  501    0  0.00000000000E+00  0.00000000000E+00  0.20739039882E+03  0.20744364903E+03  0.47000000000E+01 0. -1.
         -5   -1    0    0    0  501 -0.00000000000E+00 -0.00000000000E+00 -0.18998291419E+03  0.19004104210E+03  0.47000000000E+01 0. -1.
         25    2    1    2    0    0  0.71757132684E+02 -0.13363164142E+03  0.36887548121E+02  0.19997314271E+03  0.12498825914E+03 0.  0.
         25    2    1    2    0    0 -0.71757132684E+02  0.13363164142E+03 -0.19480063492E+02  0.19751154842E+03  0.12499934882E+03 0.  0.
          5    1    3    3  502    0  0.14216730170E+02 -0.13390706579E+03  0.69031847857E+01  0.13491835177E+03  0.47000000000E+01 0.  1.
         -5    1    3    3    0  502  0.57540402514E+02  0.27542436905E+00  0.29984363335E+02  0.65054790943E+02  0.47000000000E+01 0.  1.
          5    1    4    4  503    0 -0.66150483599E+02  0.13351310741E+03 -0.56763079383E+02  0.15951731414E+03  0.47000000000E+01 0.  1.
         -5    1    4    4    0  503 -0.56066490844E+01  0.11853401199E+00  0.37283015891E+02  0.37994234276E+02  0.47000000000E+01 0.  1.
<mgrwt>
<rscale>  0 0.19654680E+03</rscale>
<asrwt>0</asrwt>
<pdfrwt beam="1">  1        5 0.31914783E-01 0.19654857E+03</pdfrwt>
<pdfrwt beam="2">  1       -5 0.29236708E-01 0.19654857E+03</pdfrwt>
<totfact> 0.85728601E+01</totfact>
</mgrwt>
</event>
<event>
 8    1  0.1821556E-007  0.1489748E+03  0.7546771E-02  0.1201739E+00
         -5   -1    0    0    0  501 -0.00000000000E+00  0.00000000000E+00  0.46498052168E+03  0.46500427475E+03  0.47000000000E+01 0. -1.
          5   -1    0    0  501    0  0.00000000000E+00 -0.00000000000E+00 -0.47730760218E+02  0.47961604133E+02  0.47000000000E+01 0. -1.
         25    2    1    2    0    0  0.65541960328E+02 -0.47673835737E+02  0.22256066216E+03  0.26781849110E+03  0.12499981061E+03 0.  0.
         25    2    1    2    0    0 -0.65541960328E+02  0.47673835737E+02  0.19468909929E+03  0.24514738779E+03  0.12499941271E+03 0.  0.
          5    1    4    4  502    0 -0.13287683939E+02  0.82574048778E+02  0.13145838337E+03  0.15587954527E+03  0.47000000000E+01 0.  1.
         -5    1    4    4    0  502 -0.52254276389E+02 -0.34900213041E+02  0.63230715926E+02  0.89267842518E+02  0.47000000000E+01 0.  1.
          5    1    3    3  503    0  0.67881504213E+02  0.25143483657E+02  0.82381361844E+02  0.10976735473E+03  0.47000000000E+01 0. -1.
         -5    1    3    3    0  503 -0.23395438846E+01 -0.72817319394E+02  0.14017930032E+03  0.15805113637E+03  0.47000000000E+01 0. -1.
<mgrwt>
<rscale>  0 0.14897473E+03</rscale>
<asrwt>0</asrwt>
<pdfrwt beam="2">  1        5 0.73627780E-02 0.14897482E+03</pdfrwt>
<pdfrwt beam="1">  1       -5 0.71555052E-01 0.14897482E+03</pdfrwt>
<totfact> 0.17581112E+02</totfact>
</mgrwt>
</event>
<event>
 8    1  0.1821556E-007  0.1466944E+03  0.7546771E-02  0.1204595E+00
          5   -1    0    0  501    0  0.00000000000E+00  0.00000000000E+00  0.17860412140E+03  0.17866595138E+03  0.47000000000E+01 0. -1.
         -5   -1    0    0    0  501 -0.00000000000E+00 -0.00000000000E+00 -0.12316678312E+03  0.12325642565E+03  0.47000000000E+01 0. -1.
         25    2    1    2    0    0  0.76729768507E+02  0.24734317793E+01  0.49294317249E+01  0.14677629905E+03  0.12500162969E+03 0.  0.
         25    2    1    2    0    0 -0.76729768507E+02 -0.24734317793E+01  0.50507906557E+02  0.15514607798E+03  0.12500272656E+03 0.  0.
          5    1    4    4  502    0 -0.53617285517E+02  0.32801171430E+02  0.81188460937E+02  0.10278320068E+03  0.47000000000E+01 0. -1.
         -5    1    4    4    0  502 -0.23112482990E+02 -0.35274603210E+02 -0.30680554380E+02  0.52362877295E+02  0.47000000000E+01 0. -1.
          5    1    3    3  503    0  0.96993673694E+02 -0.34318334646E+02  0.12796370729E+02  0.10378515276E+03  0.47000000000E+01 0. -1.
         -5    1    3    3    0  503 -0.20263905188E+02  0.36791766426E+02 -0.78669390038E+01  0.42991146291E+02  0.47000000000E+01 0. -1.
<mgrwt>
<rscale>  0 0.14669420E+03</rscale>
<asrwt>0</asrwt>
<pdfrwt beam="1">  1        5 0.27489209E-01 0.14669443E+03</pdfrwt>
<pdfrwt beam="2">  1       -5 0.18960388E-01 0.14669443E+03</pdfrwt>
<totfact> 0.24057383E+02</totfact>
</mgrwt>
</event>
<event>
 8    1  0.1821556E-007  0.1563007E+03  0.7546771E-02  0.1192940E+00
         -5   -1    0    0    0  501 -0.00000000000E+00  0.00000000000E+00  0.10165342243E+03  0.10176201792E+03  0.47000000000E+01 0. -1.
          5   -1    0    0  501    0  0.00000000000E+00 -0.00000000000E+00 -0.24141799935E+03  0.24146374554E+03  0.47000000000E+01 0. -1.
         25    2    1    2    0    0 -0.24682979156E+02 -0.90506658632E+02 -0.56976233665E+02  0.16636163471E+03  0.12501678921E+03 0.  0.
         25    2    1    2    0    0  0.24682979156E+02  0.90506658632E+02 -0.82788343255E+02  0.17686412875E+03  0.12500522206E+03 0.  0.
          5    1    4    4  502    0  0.64847593250E+02  0.17095262660E+02 -0.14546647362E+02  0.68783379571E+02  0.47000000000E+01 0. -1.
         -5    1    4    4    0  502 -0.40164614095E+02  0.73411395971E+02 -0.68241695893E+02  0.10808074918E+03  0.47000000000E+01 0. -1.
          5    1    3    3  503    0 -0.69096674736E+02 -0.42660445863E+02 -0.27870084661E+01  0.81388706324E+02  0.47000000000E+01 0.  1.
         -5    1    3    3    0  503  0.44413695581E+02 -0.47846212769E+02 -0.54189225199E+02  0.84972928390E+02  0.47000000000E+01 0.  1.
<mgrwt>
<rscale>  0 0.15629837E+03</rscale>
<asrwt>0</asrwt>
<pdfrwt beam="2">  1        5 0.37153103E-01 0.15630068E+03</pdfrwt>
<pdfrwt beam="1">  1       -5 0.15650861E-01 0.15630068E+03</pdfrwt>
<totfact> 0.19234255E+02</totfact>
</mgrwt>
</event>
<event>
 8    1  0.1821556E-007  0.1320192E+03  0.7546771E-02  0.1224491E+00
          5   -1    0    0  501    0  0.00000000000E+00  0.00000000000E+00  0.85206512308E+03  0.85207808561E+03  0.47000000000E+01 0.  1.
         -5   -1    0    0    0  501 -0.00000000000E+00 -0.00000000000E+00 -0.20187034175E+02  0.20726947406E+02  0.47000000000E+01 0.  1.
         25    2    1    2    0    0  0.29183230396E+02 -0.30862026413E+02  0.40394664777E+03  0.42497204065E+03  0.12499686190E+03 0.  0.
         25    2    1    2    0    0 -0.29183230396E+02  0.30862026413E+02  0.42793144114E+03  0.44783299236E+03  0.12499978048E+03 0.  0.
          5    1    3    3  502    0 -0.23528387502E+02 -0.58530872718E+02  0.12976402766E+03  0.14436149402E+03  0.47000000000E+01 0. -1.
         -5    1    3    3    0  502  0.52711617898E+02  0.27668846304E+02  0.27418262011E+03  0.28061054664E+03  0.47000000000E+01 0. -1.
          5    1    4    4  503    0 -0.30189127322E+02 -0.13931496375E+02  0.38208103637E+03  0.38355374898E+03  0.47000000000E+01 0.  1.
         -5    1    4    4    0  503  0.10058969263E+01  0.44793522789E+02  0.45850404771E+02  0.64279243385E+02  0.47000000000E+01 0.  1.
<mgrwt>
<rscale>  0 0.13201852E+03</rscale>
<asrwt>0</asrwt>
<pdfrwt beam="1">  1        5 0.13112944E+00 0.13201921E+03</pdfrwt>
<pdfrwt beam="2">  1       -5 0.31482271E-02 0.13201921E+03</pdfrwt>
<totfact> 0.15964942E+02</totfact>
</mgrwt>
</event>
<event>
 8    1  0.1821556E-007  0.1572988E+03  0.7546771E-02  0.1191781E+00
         -5   -1    0    0    0  501 -0.00000000000E+00  0.00000000000E+00  0.46827274607E+03  0.46829633216E+03  0.47000000000E+01 0.  1.
          5   -1    0    0  501    0  0.00000000000E+00 -0.00000000000E+00 -0.55916931629E+02  0.56114109124E+02  0.47000000000E+01 0.  1.
         25    2    1    2    0    0  0.85114183726E+02  0.43268126654E+02  0.26885879023E+03  0.31149190665E+03  0.12500241507E+03 0.  0.
         25    2    1    2    0    0 -0.85114183726E+02 -0.43268126654E+02  0.14349702422E+03  0.21291853463E+03  0.12500540538E+03 0.  0.
          5    1    3    3  502    0  0.89964182757E+02 -0.21137609760E+02  0.15926777173E+03  0.18419735567E+03  0.47000000000E+01 0. -1.
         -5    1    3    3    0  502 -0.48499990313E+01  0.64405736414E+02  0.10959101850E+03  0.12729455098E+03  0.47000000000E+01 0. -1.
          5    1    4    4  503    0 -0.10401736565E+02  0.40384239442E+02  0.59052474993E+02  0.72445619065E+02  0.47000000000E+01 0.  1.
         -5    1    4    4    0  503 -0.74712447160E+02 -0.83652366096E+02  0.84444549223E+02  0.14047291557E+03  0.47000000000E+01 0.  1.
<mgrwt>
<rscale>  0 0.15729819E+03</rscale>
<asrwt>0</asrwt>
<pdfrwt beam="2">  1        5 0.86195865E-02 0.15729878E+03</pdfrwt>
<pdfrwt beam="1">  1       -5 0.72058944E-01 0.15729878E+03</pdfrwt>
<totfact> 0.13433026E+02</totfact>
</mgrwt>
</event>
<event>
 8    1  0.1821556E-007  0.1318926E+03  0.7546771E-02  0.1224691E+00
         -5   -1    0    0    0  501 -0.00000000000E+00  0.00000000000E+00  0.45345447649E+03  0.45347883330E+03  0.47000000000E+01 0. -1.
          5   -1    0    0  501    0  0.00000000000E+00 -0.00000000000E+00 -0.48679044468E+02  0.48905412485E+02  0.47000000000E+01 0. -1.
         25    2    1    2    0    0 -0.72666002543E+01 -0.41293981985E+02  0.31874102750E+03  0.34495142882E+03  0.12505058659E+03 0.  0.
         25    2    1    2    0    0  0.72666002543E+01  0.41293981985E+02  0.86034404518E+02  0.15743281696E+03  0.12500070667E+03 0.  0.
          5    1    3    3  502    0  0.44162722444E+02  0.16467698505E+02  0.70783653094E+02  0.85170104456E+02  0.47000000000E+01 0.  1.
         -5    1    3    3    0  502 -0.51429322699E+02 -0.57761680490E+02  0.24795737441E+03  0.25978132437E+03  0.47000000000E+01 0.  1.
          5    1    4    4  503    0  0.29024798650E+02 -0.34733709199E+02  0.57278194618E+02  0.73155663281E+02  0.47000000000E+01 0.  1.
         -5    1    4    4    0  503 -0.21758198395E+02  0.76027691184E+02  0.28756209900E+02  0.84277153677E+02  0.47000000000E+01 0.  1.
<mgrwt>
<rscale>  0 0.13188073E+03</rscale>
<asrwt>0</asrwt>
<pdfrwt beam="2">  1        5 0.75083701E-02 0.13189255E+03</pdfrwt>
<pdfrwt beam="1">  1       -5 0.69781516E-01 0.13189255E+03</pdfrwt>
<totfact> 0.17286477E+02</totfact>
</mgrwt>
</event>
<event>
 8    1  0.1821556E-007  0.2894712E+03  0.7546771E-02  0.1090626E+00
          5   -1    0    0  501    0  0.00000000000E+00  0.00000000000E+00  0.80283048423E+03  0.80284424169E+03  0.47000000000E+01 0.  1.
         -5   -1    0    0    0  501 -0.00000000000E+00 -0.00000000000E+00 -0.11314930177E+03  0.11324687409E+03  0.47000000000E+01 0.  1.
         25    2    1    2    0    0 -0.57210713789E+01  0.26102924095E+03  0.21684475048E+03  0.36168388574E+03  0.12499836841E+03 0.  0.
         25    2    1    2    0    0  0.57210713789E+01 -0.26102924095E+03  0.47283643198E+03  0.55440723004E+03  0.12499636003E+03 0.  0.
          5    1    4    4  502    0 -0.18658333406E+02 -0.12452148858E+03  0.33888355859E+03  0.36154929236E+03  0.47000000000E+01 0. -1.
         -5    1    4    4    0  502  0.24379404785E+02 -0.13650775237E+03  0.13395287339E+03  0.19285793768E+03  0.47000000000E+01 0. -1.
          5    1    3    3  503    0 -0.70320542234E+01  0.90514460607E+02  0.68954577677E+01  0.91169922142E+02  0.47000000000E+01 0.  1.
         -5    1    3    3    0  503  0.13109828445E+01  0.17051478034E+03  0.20994929271E+03  0.27051396360E+03  0.47000000000E+01 0.  1.
<mgrwt>
<rscale>  0 0.28947100E+03</rscale>
<asrwt>0</asrwt>
<pdfrwt beam="1">  1        5 0.12352095E+00 0.28947122E+03</pdfrwt>
<pdfrwt beam="2">  1       -5 0.17416148E-01 0.28947122E+03</pdfrwt>
<totfact> 0.11983110E+01</totfact>
</mgrwt>
</event>
<event>
 8    1  0.1821556E-007  0.1400563E+03  0.7546771E-02  0.1213254E+00
         -5   -1    0    0    0  501 -0.00000000000E+00  0.00000000000E+00  0.21878378921E+03  0.21883426701E+03  0.47000000000E+01 0. -1.
          5   -1    0    0  501    0  0.00000000000E+00 -0.00000000000E+00 -0.10882264981E+03  0.10892409794E+03  0.47000000000E+01 0. -1.
         25    2    1    2    0    0  0.41201264342E+02 -0.47887184451E+02  0.12392208773E+03  0.18700924974E+03  0.12500019617E+03 0.  0.
         25    2    1    2    0    0 -0.41201264342E+02  0.47887184451E+02 -0.13960948336E+02  0.14074911521E+03  0.12499871494E+03 0.  0.
          5    1    3    3  502    0  0.89109547643E+01  0.14228512449E+02 -0.20219201912E+02  0.26697599280E+02  0.47000000000E+01 0. -1.
         -5    1    3    3    0  502  0.32290309578E+02 -0.62115696900E+02  0.14414128965E+03  0.16031165046E+03  0.47000000000E+01 0. -1.
          5    1    4    4  503    0  0.30529976150E+02 -0.14225842694E+02  0.20477400278E+02  0.39697203506E+02  0.47000000000E+01 0.  1.
         -5    1    4    4    0  503 -0.71731240492E+02  0.62113027145E+02 -0.34438348614E+02  0.10105191170E+03  0.47000000000E+01 0.  1.
<mgrwt>
<rscale>  0 0.14005600E+03</rscale>
<asrwt>0</asrwt>
<pdfrwt beam="2">  1        5 0.16753633E-01 0.14005633E+03</pdfrwt>
<pdfrwt beam="1">  1       -5 0.33670731E-01 0.14005633E+03</pdfrwt>
<totfact> 0.19965078E+02</totfact>
</mgrwt>
</event>
<event>
 8    1  0.1821556E-007  0.1738301E+03  0.7546771E-02  0.1173914E+00
          5   -1    0    0  501    0  0.00000000000E+00  0.00000000000E+00  0.56566174045E+02  0.56761096237E+02  0.47000000000E+01 0. -1.
         -5   -1    0    0    0  501 -0.00000000000E+00 -0.00000000000E+00 -0.70747106067E+03  0.70748667244E+03  0.47000000000E+01 0. -1.
         25    2    1    2    0    0 -0.86298800418E+02  0.84510428691E+02 -0.51517349087E+03  0.54371004433E+03  0.12500956402E+03 0.  0.
         25    2    1    2    0    0  0.86298800418E+02 -0.84510428691E+02 -0.13573139576E+03  0.22053772435E+03  0.12499752221E+03 0.  0.
          5    1    4    4  502    0 -0.18187721957E+02 -0.26530367344E+02 -0.84316305810E+02  0.90365828978E+02  0.47000000000E+01 0. -1.
         -5    1    4    4    0  502  0.10448652237E+03 -0.57980061347E+02 -0.51415089946E+02  0.13017189538E+03  0.47000000000E+01 0. -1.
          5    1    3    3  503    0 -0.99293620608E+02  0.10575448455E+03 -0.39320862352E+03  0.41914000728E+03  0.47000000000E+01 0. -1.
         -5    1    3    3    0  503  0.12994820190E+02 -0.21244055859E+02 -0.12196486735E+03  0.12457003704E+03  0.47000000000E+01 0. -1.
<mgrwt>
<rscale>  0 0.17382789E+03</rscale>
<asrwt>0</asrwt>
<pdfrwt beam="1">  1        5 0.87186837E-02 0.17383005E+03</pdfrwt>
<pdfrwt beam="2">  1       -5 0.10885789E+00 0.17383005E+03</pdfrwt>
<totfact> 0.50826799E+01</totfact>
</mgrwt>
</event>
<event>
 8    1  0.1821556E-007  0.1735224E+03  0.7546771E-02  0.1174224E+00
         -5   -1    0    0    0  501 -0.00000000000E+00  0.00000000000E+00  0.29308980360E+03  0.29312748588E+03  0.47000000000E+01 0.  1.
          5   -1    0    0  501    0  0.00000000000E+00 -0.00000000000E+00 -0.10756341471E+03  0.10766604936E+03  0.47000000000E+01 0.  1.
         25    2    1    2    0    0 -0.10295024919E+03  0.62329507846E+02  0.13563549732E+03  0.22024305135E+03  0.12500516861E+03 0.  0.
         25    2    1    2    0    0  0.10295024919E+03 -0.62329507846E+02  0.49890891572E+02  0.18055048388E+03  0.12500261921E+03 0.  0.
          5    1    4    4  502    0  0.98873376641E+01  0.36225529700E+02  0.12598338977E+02  0.39885543661E+02  0.47000000000E+01 0.  1.
         -5    1    4    4    0  502  0.93062911529E+02 -0.98555037546E+02  0.37292552595E+02  0.14066494022E+03  0.47000000000E+01 0.  1.
          5    1    3    3  503    0 -0.12837214693E+03  0.34581007980E+02  0.12021854571E+03  0.17930377283E+03  0.47000000000E+01 0.  1.
         -5    1    3    3    0  503  0.25421897732E+02  0.27748499866E+02  0.15416951610E+02  0.40939278524E+02  0.47000000000E+01 0.  1.
<mgrwt>
<rscale>  0 0.17352191E+03</rscale>
<asrwt>0</asrwt>
<pdfrwt beam="2">  1        5 0.16559012E-01 0.17352237E+03</pdfrwt>
<pdfrwt beam="1">  1       -5 0.45101532E-01 0.17352237E+03</pdfrwt>
<totfact> 0.12016262E+02</totfact>
</mgrwt>
</event>
<event>
 8    1  0.1821556E-007  0.1335595E+03  0.7546771E-02  0.1222268E+00
          5   -1    0    0  501    0  0.00000000000E+00  0.00000000000E+00  0.63324900957E+03  0.63326645112E+03  0.47000000000E+01 0.  1.
         -5   -1    0    0    0  501 -0.00000000000E+00 -0.00000000000E+00 -0.42585338251E+02  0.42843914783E+02  0.47000000000E+01 0.  1.
         25    2    1    2    0    0  0.33760223262E+02  0.32766424915E+02  0.97980454292E+02  0.16564515949E+03  0.12499903265E+03 0.  0.
         25    2    1    2    0    0 -0.33760223262E+02 -0.32766424915E+02  0.49268321702E+03  0.51046520641E+03  0.12499833337E+03 0.  0.
          5    1    4    4  502    0 -0.45472912721E-01 -0.75046648052E+02  0.22186933058E+03  0.23426500230E+03  0.47000000000E+01 0. -1.
         -5    1    4    4    0  502 -0.33714750350E+02  0.42280223137E+02  0.27081388644E+03  0.27620020411E+03  0.47000000000E+01 0. -1.
          5    1    3    3  503    0  0.78493703064E+02  0.18506749555E+02  0.37848068393E+02  0.89209458472E+02  0.47000000000E+01 0.  1.
         -5    1    3    3    0  503 -0.44733479802E+02  0.14259675360E+02  0.60132385899E+02  0.76435701020E+02  0.47000000000E+01 0.  1.
<mgrwt>
<rscale>  0 0.13355937E+03</rscale>
<asrwt>0</asrwt>
<pdfrwt beam="1">  1        5 0.97444153E-01 0.13355954E+03</pdfrwt>
<pdfrwt beam="2">  1       -5 0.65728229E-02 0.13355954E+03</pdfrwt>
<totfact> 0.10001718E+02</totfact>
</mgrwt>
</event>
<event>
 8    1  0.1821556E-007  0.1567732E+03  0.7546771E-02  0.1192390E+00
         -5   -1    0    0    0  501 -0.00000000000E+00  0.00000000000E+00  0.14288351938E+03  0.14296079921E+03  0.47000000000E+01 0.  1.
          5   -1    0    0  501    0  0.00000000000E+00 -0.00000000000E+00 -0.17204222552E+03  0.17210641291E+03  0.47000000000E+01 0.  1.
         25    2    1    2    0    0 -0.31953248694E+02  0.89061790413E+02 -0.19831028548E+02  0.15802249467E+03  0.12499930605E+03 0.  0.
         25    2    1    2    0    0  0.31953248694E+02 -0.89061790413E+02 -0.93276775931E+01  0.15704471745E+03  0.12499210013E+03 0.  0.
          5    1    4    4  502    0  0.51770802976E+02  0.12264525000E+02 -0.36779989358E+01  0.53537391517E+02  0.47000000000E+01 0.  1.
         -5    1    4    4    0  502 -0.19817554282E+02 -0.10132631541E+03 -0.56496786574E+01  0.10350732593E+03  0.47000000000E+01 0.  1.
          5    1    3    3  503    0  0.18496155894E+02  0.45191434609E+02 -0.61831934077E+02  0.78928142108E+02  0.47000000000E+01 0. -1.
         -5    1    3    3    0  503 -0.50449404588E+02  0.43870355804E+02  0.42000905529E+02  0.79094352560E+02  0.47000000000E+01 0. -1.
<mgrwt>
<rscale>  0 0.15677177E+03</rscale>
<asrwt>0</asrwt>
<pdfrwt beam="2">  1        5 0.26478917E-01 0.15677321E+03</pdfrwt>
<pdfrwt beam="1">  1       -5 0.21992962E-01 0.15677321E+03</pdfrwt>
<totfact> 0.20023702E+02</totfact>
</mgrwt>
</event>
<event>
 8    1  0.1821556E-007  0.1959609E+03  0.7546771E-02  0.1153194E+00
         -5   -1    0    0    0  501 -0.00000000000E+00  0.00000000000E+00  0.27787258303E+03  0.27791232862E+03  0.47000000000E+01 0. -1.
          5   -1    0    0  501    0  0.00000000000E+00 -0.00000000000E+00 -0.14289877794E+03  0.14297604952E+03  0.47000000000E+01 0. -1.
         25    2    1    2    0    0 -0.13799841502E+03  0.61086657521E+02  0.10603083812E+03  0.22280158001E+03  0.12499145230E+03 0.  0.
         25    2    1    2    0    0  0.13799841502E+03 -0.61086657521E+02  0.28942966970E+02  0.19808679813E+03  0.12500216790E+03 0.  0.
          5    1    4    4  502    0  0.27897014335E+02  0.32775849810E+02 -0.16546545793E+02  0.46350597809E+02  0.47000000000E+01 0. -1.
         -5    1    4    4    0  502  0.11010140068E+03 -0.93862507331E+02  0.45489512763E+02  0.15173620032E+03  0.47000000000E+01 0. -1.
          5    1    3    3  503    0  0.14217225793E+02 -0.18729335034E+02  0.11556446144E+02  0.26618770586E+02  0.47000000000E+01 0.  1.
         -5    1    3    3    0  503 -0.15221564081E+03  0.79815992555E+02  0.94474391973E+02  0.19618280942E+03  0.47000000000E+01 0.  1.
<mgrwt>
<rscale>  0 0.19595922E+03</rscale>
<asrwt>0</asrwt>
<pdfrwt beam="2">  1        5 0.21993429E-01 0.19596093E+03</pdfrwt>
<pdfrwt beam="1">  1       -5 0.42758629E-01 0.19596093E+03</pdfrwt>
<totfact> 0.81890545E+01</totfact>
</mgrwt>
</event>
<event>
 8    1  0.1821556E-007  0.1738564E+03  0.7546771E-02  0.1173885E+00
         -5   -1    0    0    0  501 -0.00000000000E+00  0.00000000000E+00  0.13209085428E+03  0.13217444452E+03  0.47000000000E+01 0.  1.
          5   -1    0    0  501    0  0.00000000000E+00 -0.00000000000E+00 -0.22907142971E+03  0.22911964104E+03  0.47000000000E+01 0.  1.
         25    2    1    2    0    0  0.82171540494E+02 -0.88595351664E+02 -0.56279173976E+02  0.18273692892E+03  0.12499656541E+03 0.  0.
         25    2    1    2    0    0 -0.82171540494E+02  0.88595351664E+02 -0.40701401456E+02  0.17855715663E+03  0.12499902279E+03 0.  0.
          5    1    3    3  502    0  0.83970090573E+01  0.23045552857E+02  0.16892674675E+02  0.30150617328E+02  0.47000000000E+01 0.  1.
         -5    1    3    3    0  502  0.73774531437E+02 -0.11164090452E+03 -0.73171848651E+02  0.15258631159E+03  0.47000000000E+01 0.  1.
          5    1    4    4  503    0 -0.52340163072E+01  0.65593804656E+02 -0.66903033346E+02  0.93957692644E+02  0.47000000000E+01 0.  1.
         -5    1    4    4    0  503 -0.76937524187E+02  0.23001547008E+02  0.26201631890E+02  0.84599463985E+02  0.47000000000E+01 0.  1.
<mgrwt>
<rscale>  0 0.17385598E+03</rscale>
<asrwt>0</asrwt>
<pdfrwt beam="2">  1        5 0.35251897E-01 0.17385642E+03</pdfrwt>
<pdfrwt beam="1">  1       -5 0.20331808E-01 0.17385642E+03</pdfrwt>
<totfact> 0.13623046E+02</totfact>
</mgrwt>
</event>
<event>
 8    1  0.1821556E-007  0.1325515E+03  0.7546771E-02  0.1223721E+00
          5   -1    0    0  501    0  0.00000000000E+00  0.00000000000E+00  0.10206037585E+03  0.10216853879E+03  0.47000000000E+01 0. -1.
         -5   -1    0    0    0  501 -0.00000000000E+00 -0.00000000000E+00 -0.22152386322E+03  0.22157371680E+03  0.47000000000E+01 0. -1.
         25    2    1    2    0    0 -0.30695827713E+02 -0.31642791956E+02 -0.13630984829E+03  0.19013224277E+03  0.12500557940E+03 0.  0.
         25    2    1    2    0    0  0.30695827713E+02  0.31642791956E+02  0.16846360917E+02  0.13361001282E+03  0.12499734208E+03 0.  0.
          5    1    4    4  502    0  0.63738886531E+02  0.35892682594E+02 -0.27199043586E+02  0.78184450449E+02  0.47000000000E+01 0.  1.
         -5    1    4    4    0  502 -0.33043058817E+02 -0.42498906382E+01  0.44045404503E+02  0.55425562372E+02  0.47000000000E+01 0.  1.
          5    1    3    3  503    0  0.39738534437E+02 -0.80515991575E+01 -0.76985802080E+01  0.41537182204E+02  0.47000000000E+01 0. -1.
         -5    1    3    3    0  503 -0.70434362150E+02 -0.23591192798E+02 -0.12861126808E+03  0.14859506057E+03  0.47000000000E+01 0. -1.
<mgrwt>
<rscale>  0 0.13254954E+03</rscale>
<asrwt>0</asrwt>
<pdfrwt beam="1">  1        5 0.15713751E-01 0.13255148E+03</pdfrwt>
<pdfrwt beam="2">  1       -5 0.34092749E-01 0.13255148E+03</pdfrwt>
<totfact> 0.21488336E+02</totfact>
</mgrwt>
</event>
<event>
 8    1  0.1821556E-007  0.1357966E+03  0.7546771E-02  0.1219102E+00
         -5   -1    0    0    0  501 -0.00000000000E+00  0.00000000000E+00  0.15865285426E+03  0.15872245640E+03  0.47000000000E+01 0.  1.
          5   -1    0    0  501    0  0.00000000000E+00 -0.00000000000E+00 -0.13999622675E+03  0.14007509952E+03  0.47000000000E+01 0.  1.
         25    2    1    2    0    0  0.36144386582E+02  0.38831596482E+02  0.71038316763E+02  0.15324836982E+03  0.12499724332E+03 0.  0.
         25    2    1    2    0    0 -0.36144386582E+02 -0.38831596482E+02 -0.52381689253E+02  0.14554918610E+03  0.12500565843E+03 0.  0.
          5    1    4    4  502    0  0.36843279049E+02  0.19575712369E+02 -0.12481600466E+02  0.43800868439E+02  0.47000000000E+01 0. -1.
         -5    1    4    4    0  502 -0.72987665631E+02 -0.58407308851E+02 -0.39900088787E+02  0.10174831766E+03  0.47000000000E+01 0. -1.
          5    1    3    3  503    0  0.53286097118E+02  0.74894305841E+02  0.64805838453E+02  0.11256310182E+03  0.47000000000E+01 0.  1.
         -5    1    3    3    0  503 -0.17141710536E+02 -0.36062709359E+02  0.62324783095E+01  0.40685268001E+02  0.47000000000E+01 0.  1.
<mgrwt>
<rscale>  0 0.13579469E+03</rscale>
<asrwt>0</asrwt>
<pdfrwt beam="2">  1        5 0.21549302E-01 0.13579663E+03</pdfrwt>
<pdfrwt beam="1">  1       -5 0.24419552E-01 0.13579663E+03</pdfrwt>
<totfact> 0.23177452E+02</totfact>
</mgrwt>
</event>
<event>
 8    1  0.1821556E-007  0.1530191E+03  0.7546771E-02  0.1196812E+00
         -5   -1    0    0    0  501 -0.00000000000E+00  0.00000000000E+00  0.66593956986E+03  0.66595615524E+03  0.47000000000E+01 0. -1.
          5   -1    0    0  501    0  0.00000000000E+00 -0.00000000000E+00 -0.46082631141E+02  0.46321689227E+02  0.47000000000E+01 0. -1.
         25    2    1    2    0    0  0.69683414707E+02  0.54168157606E+02  0.48413870479E+03  0.50774514194E+03  0.12499950445E+03 0.  0.
         25    2    1    2    0    0 -0.69683414707E+02 -0.54168157606E+02  0.13571823393E+03  0.20453270252E+03  0.12499687915E+03 0.  0.
          5    1    3    3  502    0  0.70762281249E+02  0.52603274227E+02  0.15362358829E+03  0.17719114478E+03  0.47000000000E+01 0.  1.
         -5    1    3    3    0  502 -0.10788665428E+01  0.15648833790E+01  0.33051511649E+03  0.33055399717E+03  0.47000000000E+01 0.  1.
          5    1    4    4  503    0 -0.22271116684E+02 -0.69003580018E+02  0.13649008494E+03  0.15462577399E+03  0.47000000000E+01 0.  1.
         -5    1    4    4    0  503 -0.47412298022E+02  0.14835422412E+02 -0.77185101128E+00  0.49906928536E+02  0.47000000000E+01 0.  1.
<mgrwt>
<rscale>  0 0.15301856E+03</rscale>
<asrwt>0</asrwt>
<pdfrwt beam="2">  1        5 0.71093007E-02 0.15301910E+03</pdfrwt>
<pdfrwt beam="1">  1       -5 0.10247190E+00 0.15301910E+03</pdfrwt>
<totfact> 0.80812417E+01</totfact>
</mgrwt>
</event>
<event>
 8    1  0.1821556E-007  0.1645683E+03  0.7546771E-02  0.1183634E+00
         -5   -1    0    0    0  501 -0.00000000000E+00  0.00000000000E+00  0.51445829925E+02  0.51660075655E+02  0.47000000000E+01 0. -1.
          5   -1    0    0  501    0  0.00000000000E+00 -0.00000000000E+00 -0.53309443512E+03  0.53311515337E+03  0.47000000000E+01 0. -1.
         25    2    1    2    0    0 -0.15365449973E+02 -0.10592910455E+03 -0.20503839264E+03  0.26291202407E+03  0.12499967080E+03 0.  0.
         25    2    1    2    0    0  0.15365449973E+02  0.10592910455E+03 -0.27661021255E+03  0.32186320495E+03  0.12500256305E+03 0.  0.
          5    1    3    3  502    0  0.15687511487E+02 -0.43274006182E+02 -0.45420985245E-01  0.46269100820E+02  0.47000000000E+01 0. -1.
         -5    1    3    3    0  502 -0.31052961460E+02 -0.62655098371E+02 -0.20499297166E+03  0.21664292325E+03  0.47000000000E+01 0. -1.
          5    1    4    4  503    0 -0.30851705558E+02  0.29579382278E+02 -0.19870048040E+03  0.20329962740E+03  0.47000000000E+01 0. -1.
         -5    1    4    4    0  503  0.46217155532E+02  0.76349722275E+02 -0.77909732154E+02  0.11856357755E+03  0.47000000000E+01 0. -1.
<mgrwt>
<rscale>  0 0.16456771E+03</rscale>
<asrwt>0</asrwt>
<pdfrwt beam="2">  1        5 0.82032599E-01 0.16456826E+03</pdfrwt>
<pdfrwt beam="1">  1       -5 0.79328176E-02 0.16456826E+03</pdfrwt>
<totfact> 0.11658872E+02</totfact>
</mgrwt>
</event>
<event>
 8    1  0.1821556E-007  0.1332561E+03  0.7546771E-02  0.1222703E+00
          5   -1    0    0  501    0  0.00000000000E+00  0.00000000000E+00  0.10933756019E+04  0.10933857036E+04  0.47000000000E+01 0. -1.
         -5   -1    0    0    0  501 -0.00000000000E+00 -0.00000000000E+00 -0.16454215735E+02  0.17112311809E+02  0.47000000000E+01 0. -1.
         25    2    1    2    0    0 -0.33746503988E+02  0.31518984268E+02  0.43771493550E+03  0.45754949645E+03  0.12499961614E+03 0.  0.
         25    2    1    2    0    0  0.33746503988E+02 -0.31518984268E+02  0.63920645067E+03  0.65294851897E+03  0.12499843576E+03 0.  0.
          5    1    4    4  502    0 -0.29513239133E+02  0.18745028990E+02  0.74020939214E+02  0.81997541659E+02  0.47000000000E+01 0.  1.
         -5    1    4    4    0  502  0.63259743121E+02 -0.50264013259E+02  0.56518551146E+03  0.57095097731E+03  0.47000000000E+01 0.  1.
          5    1    3    3  503    0 -0.79008512008E+02  0.37461982517E+01  0.28431633239E+03  0.29515122537E+03  0.47000000000E+01 0. -1.
         -5    1    3    3    0  503  0.45262008020E+02  0.27772786017E+02  0.15339860311E+03  0.16239827108E+03  0.47000000000E+01 0. -1.
<mgrwt>
<rscale>  0 0.13325578E+03</rscale>
<asrwt>0</asrwt>
<pdfrwt beam="1">  1        5 0.16826303E+00 0.13325606E+03</pdfrwt>
<pdfrwt beam="2">  1       -5 0.25828177E-02 0.13325606E+03</pdfrwt>
<totfact> 0.11173216E+02</totfact>
</mgrwt>
</event>
<event>
 8    1  0.1821556E-007  0.1472934E+03  0.7546771E-02  0.1203847E+00
          5   -1    0    0  501    0  0.00000000000E+00  0.00000000000E+00  0.22039213224E+03  0.22044224176E+03  0.47000000000E+01 0.  1.
         -5   -1    0    0    0  501 -0.00000000000E+00 -0.00000000000E+00 -0.10607164239E+03  0.10617571907E+03  0.47000000000E+01 0.  1.
         25    2    1    2    0    0 -0.50825451349E+02  0.59032003392E+02  0.13005441122E+02  0.14786643146E+03  0.12500934415E+03 0.  0.
         25    2    1    2    0    0  0.50825451349E+02 -0.59032003392E+02  0.10131504873E+03  0.17875152936E+03  0.12497746285E+03 0.  0.
          5    1    4    4  502    0  0.36320052553E+02  0.20918110356E+02  0.86205569372E+02  0.95969806445E+02  0.47000000000E+01 0. -1.
         -5    1    4    4    0  502  0.14505398796E+02 -0.79950113749E+02  0.15109479354E+02  0.82781722916E+02  0.47000000000E+01 0. -1.
          5    1    3    3  503    0 -0.41838002496E+01 -0.77987104490E+01 -0.46040083568E+02  0.47117972836E+02  0.47000000000E+01 0.  1.
         -5    1    3    3    0  503 -0.46641651100E+02  0.66830713841E+02  0.59045524690E+02  0.10074845863E+03  0.47000000000E+01 0.  1.
<mgrwt>
<rscale>  0 0.14728662E+03</rscale>
<asrwt>0</asrwt>
<pdfrwt beam="1">  1        5 0.33918342E-01 0.14729338E+03</pdfrwt>
<pdfrwt beam="2">  1       -5 0.16330575E-01 0.14729338E+03</pdfrwt>
<totfact> 0.20966113E+02</totfact>
</mgrwt>
</event>
<event>
 8    1  0.1821556E-007  0.1304460E+03  0.7546771E-02  0.1226797E+00
         -5   -1    0    0    0  501 -0.00000000000E+00  0.00000000000E+00  0.14668575953E+02  0.15403152940E+02  0.47000000000E+01 0. -1.
          5   -1    0    0  501    0  0.00000000000E+00 -0.00000000000E+00 -0.11331561863E+04  0.11331659333E+04  0.47000000000E+01 0. -1.
         25    2    1    2    0    0 -0.36170227502E+02  0.88840271465E+01 -0.58463724300E+03  0.59901255096E+03  0.12501247545E+03 0.  0.
         25    2    1    2    0    0  0.36170227502E+02 -0.88840271465E+01 -0.53385036731E+03  0.54955653531E+03  0.12501583710E+03 0.  0.
          5    1    4    4  502    0  0.86123076030E+01  0.39834912167E+02 -0.61809987935E+02  0.74185960114E+02  0.47000000000E+01 0. -1.
         -5    1    4    4    0  502  0.27557919899E+02 -0.48718939314E+02 -0.47204037938E+03  0.47537057519E+03  0.47000000000E+01 0. -1.
          5    1    3    3  503    0  0.86829226395E+01  0.16277513743E+01  0.23269554465E+01  0.10273628461E+02  0.47000000000E+01 0.  1.
         -5    1    3    3    0  503 -0.44853150141E+02  0.72562757721E+01 -0.58696419844E+03  0.58873892250E+03  0.47000000000E+01 0.  1.
<mgrwt>
<rscale>  0 0.13044524E+03</rscale>
<asrwt>0</asrwt>
<pdfrwt beam="2">  1        5 0.17438891E+00 0.13044605E+03</pdfrwt>
<pdfrwt beam="1">  1       -5 0.23139606E-02 0.13044605E+03</pdfrwt>
<totfact> 0.11937186E+02</totfact>
</mgrwt>
</event>
<event>
 8    1  0.1821556E-007  0.2165758E+03  0.7546771E-02  0.1136468E+00
         -5   -1    0    0    0  501 -0.00000000000E+00  0.00000000000E+00  0.29805875093E+03  0.29809580508E+03  0.47000000000E+01 0. -1.
          5   -1    0    0  501    0  0.00000000000E+00 -0.00000000000E+00 -0.15754089188E+03  0.15761098507E+03  0.47000000000E+01 0. -1.
         25    2    1    2    0    0  0.80609834912E+02  0.15737574450E+03  0.60696421225E+02  0.22492032861E+03  0.12506009848E+03 0.  0.
         25    2    1    2    0    0 -0.80609834912E+02 -0.15737574450E+03  0.79821437817E+02  0.23078646154E+03  0.12500343377E+03 0.  0.
          5    1    3    3  502    0  0.89462424847E+01  0.11169602184E+03 -0.12256273581E+02  0.11281995742E+03  0.47000000000E+01 0.  1.
         -5    1    3    3    0  502  0.71663592427E+02  0.45679722651E+02  0.72952694805E+02  0.11210037119E+03  0.47000000000E+01 0.  1.
          5    1    4    4  503    0 -0.34857529241E+02  0.13686874298E+02  0.34925224169E+01  0.37903371692E+02  0.47000000000E+01 0. -1.
         -5    1    4    4    0  503 -0.45752305671E+02 -0.17106261879E+03  0.76328915400E+02  0.19288308985E+03  0.47000000000E+01 0. -1.
<mgrwt>
<rscale>  0 0.21656767E+03</rscale>
<asrwt>0</asrwt>
<pdfrwt beam="2">  1        5 0.24245303E-01 0.21657585E+03</pdfrwt>
<pdfrwt beam="1">  1       -5 0.45863434E-01 0.21657585E+03</pdfrwt>
<totfact> 0.60257391E+01</totfact>
</mgrwt>
</event>
<event>
 8    1  0.1821556E-007  0.2615406E+03  0.7546771E-02  0.1106222E+00
          5   -1    0    0  501    0  0.00000000000E+00  0.00000000000E+00  0.18360520471E+04  0.18360580627E+04  0.47000000000E+01 0. -1.
         -5   -1    0    0    0  501 -0.00000000000E+00 -0.00000000000E+00 -0.37813041579E+02  0.38104017025E+02  0.47000000000E+01 0. -1.
         25    2    1    2    0    0 -0.14205896739E+03  0.18054851954E+03  0.77100752869E+03  0.81415831419E+03  0.12499053217E+03 0.  0.
         25    2    1    2    0    0  0.14205896739E+03 -0.18054851954E+03  0.10272314768E+04  0.10600037655E+04  0.12499983151E+03 0.  0.
          5    1    4    4  502    0  0.64835157164E+02 -0.16842749330E+03  0.64246942158E+03  0.66735332903E+03  0.47000000000E+01 0. -1.
         -5    1    4    4    0  502  0.77223810226E+02 -0.12121026243E+02  0.38476205524E+03  0.39265043651E+03  0.47000000000E+01 0. -1.
          5    1    3    3  503    0 -0.11011206015E+03  0.10284088343E+03  0.64677208484E+03  0.66410626621E+03  0.47000000000E+01 0.  1.
         -5    1    3    3    0  503 -0.31946907242E+02  0.77707636105E+02  0.12423544386E+03  0.15005204798E+03  0.47000000000E+01 0.  1.
<mgrwt>
<rscale>  0 0.26153947E+03</rscale>
<asrwt>0</asrwt>
<pdfrwt beam="1">  1        5 0.28249243E+00 0.26154058E+03</pdfrwt>
<pdfrwt beam="2">  1       -5 0.58402358E-02 0.26154058E+03</pdfrwt>
<totfact> 0.58984371E+00</totfact>
</mgrwt>
</event>
<event>
 8    1  0.1821556E-007  0.1566325E+03  0.7546771E-02  0.1192557E+00
          5   -1    0    0  501    0  0.00000000000E+00  0.00000000000E+00  0.14825244954E+04  0.14825319456E+04  0.47000000000E+01 0.  1.
         -5   -1    0    0    0  501 -0.00000000000E+00 -0.00000000000E+00 -0.16913649190E+02  0.17554530154E+02  0.47000000000E+01 0.  1.
         25    2    1    2    0    0 -0.72118165317E+02 -0.60889486816E+02  0.58221942103E+03  0.60291639561E+03  0.12498066448E+03 0.  0.
         25    2    1    2    0    0  0.72118165317E+02  0.60889486816E+02  0.88339142523E+03  0.89717008010E+03  0.12500073239E+03 0.  0.
          5    1    4    4  502    0  0.68068626318E+02  0.92835231263E+02  0.78805921077E+03  0.79643651833E+03  0.47000000000E+01 0. -1.
         -5    1    4    4    0  502  0.40495389994E+01 -0.31945744448E+02  0.95332214459E+02  0.10073356178E+03  0.47000000000E+01 0. -1.
          5    1    3    3  503    0  0.23961256005E+02 -0.37589549250E+02  0.86623001276E+02  0.97533329443E+02  0.47000000000E+01 0. -1.
         -5    1    3    3    0  503 -0.96079421322E+02 -0.23299937566E+02  0.49559641976E+03  0.50538306617E+03  0.47000000000E+01 0. -1.
<mgrwt>
<rscale>  0 0.15662850E+03</rscale>
<asrwt>0</asrwt>
<pdfrwt beam="1">  1        5 0.22813062E+00 0.15663251E+03</pdfrwt>
<pdfrwt beam="2">  1       -5 0.26519708E-02 0.15663251E+03</pdfrwt>
<totfact> 0.43706466E+01</totfact>
</mgrwt>
</event>
<event>
 8    1  0.1821556E-007  0.1271011E+03  0.7546771E-02  0.1231833E+00
         -5   -1    0    0    0  501 -0.00000000000E+00  0.00000000000E+00  0.36433566256E+03  0.36436597675E+03  0.47000000000E+01 0.  1.
          5   -1    0    0  501    0  0.00000000000E+00 -0.00000000000E+00 -0.49676273020E+02  0.49898117210E+02  0.47000000000E+01 0.  1.
         25    2    1    2    0    0 -0.22481085750E+02 -0.41236657429E+01  0.22610097324E+03  0.25937681837E+03  0.12502911649E+03 0.  0.
         25    2    1    2    0    0  0.22481085750E+02  0.41236657429E+01  0.88558416297E+02  0.15488727559E+03  0.12500028483E+03 0.  0.
          5    1    3    3  502    0  0.83367320140E+01 -0.49452560620E+02  0.18207925662E+03  0.18891797835E+03  0.47000000000E+01 0.  1.
         -5    1    3    3    0  502 -0.30817817764E+02  0.45328894877E+02  0.44021716626E+02  0.70458840022E+02  0.47000000000E+01 0.  1.
          5    1    4    4  503    0 -0.44039920986E+00 -0.20270271473E+02  0.11189388203E+03  0.11381304271E+03  0.47000000000E+01 0.  1.
         -5    1    4    4    0  503  0.22921484959E+02  0.24393937216E+02 -0.23335465729E+02  0.41074232877E+02  0.47000000000E+01 0.  1.
<mgrwt>
<rscale>  0 0.12709399E+03</rscale>
<asrwt>0</asrwt>
<pdfrwt beam="2">  1        5 0.76619004E-02 0.12710108E+03</pdfrwt>
<pdfrwt beam="1">  1       -5 0.56071037E-01 0.12710108E+03</pdfrwt>
<totfact> 0.26684599E+02</totfact>
</mgrwt>
</event>
<event>
 8    1  0.1821556E-007  0.1298287E+03  0.7546771E-02  0.1227710E+00
          5   -1    0    0  501    0  0.00000000000E+00  0.00000000000E+00  0.69197591799E+03  0.69199187934E+03  0.47000000000E+01 0.  1.
         -5   -1    0    0    0  501 -0.00000000000E+00 -0.00000000000E+00 -0.27742164100E+02  0.28137478014E+02  0.47000000000E+01 0.  1.
         25    2    1    2    0    0  0.22725823234E+02  0.26718877464E+02  0.20294683670E+03  0.24092051570E+03  0.12499965961E+03 0.  0.
         25    2    1    2    0    0 -0.22725823234E+02 -0.26718877464E+02  0.46128691719E+03  0.47920884166E+03  0.12500052999E+03 0.  0.
          5    1    4    4  502    0 -0.46560821315E+01 -0.76267353838E+02  0.25580126795E+03  0.26701079950E+03  0.47000000000E+01 0. -1.
         -5    1    4    4    0  502 -0.18069741102E+02  0.49548476374E+02  0.20548564924E+03  0.21219804216E+03  0.47000000000E+01 0. -1.
          5    1    3    3  503    0  0.61767989354E+02  0.44337261867E+02  0.17124522952E+03  0.18742490745E+03  0.47000000000E+01 0.  1.
         -5    1    3    3    0  503 -0.39042166120E+02 -0.17618384404E+02  0.31701607179E+02  0.53495608250E+02  0.47000000000E+01 0.  1.
<mgrwt>
<rscale>  0 0.12982850E+03</rscale>
<asrwt>0</asrwt>
<pdfrwt beam="1">  1        5 0.10648945E+00 0.12982871E+03</pdfrwt>
<pdfrwt beam="2">  1       -5 0.42996627E-02 0.12982871E+03</pdfrwt>
<totfact> 0.16175125E+02</totfact>
</mgrwt>
</event>
<event>
 8    1  0.1821556E-007  0.1858259E+03  0.7546771E-02  0.1162283E+00
         -5   -1    0    0    0  501 -0.00000000000E+00  0.00000000000E+00  0.14518143988E+03  0.14525749718E+03  0.47000000000E+01 0.  1.
          5   -1    0    0  501    0  0.00000000000E+00 -0.00000000000E+00 -0.29426618598E+03  0.29430371763E+03  0.47000000000E+01 0.  1.
         25    2    1    2    0    0 -0.10377871757E+03 -0.90201040440E+02  0.21817855069E+02  0.18710234649E+03  0.12500007738E+03 0.  0.
         25    2    1    2    0    0  0.10377871757E+03  0.90201040440E+02 -0.17090260117E+03  0.25245886832E+03  0.12498612400E+03 0.  0.
          5    1    4    4  502    0  0.18708947737E+02  0.95818608443E+02 -0.69694201556E+02  0.12004416762E+03  0.47000000000E+01 0. -1.
         -5    1    4    4    0  502  0.85069769835E+02 -0.56175680023E+01 -0.10120839961E+03  0.13241470070E+03  0.47000000000E+01 0. -1.
          5    1    3    3  503    0  0.20099509292E+02 -0.44194088925E+02 -0.12776818404E+02  0.50422662149E+02  0.47000000000E+01 0. -1.
         -5    1    3    3    0  503 -0.12387822686E+03 -0.46006951515E+02  0.34594673473E+02  0.13667968434E+03  0.47000000000E+01 0. -1.
<mgrwt>
<rscale>  0 0.18582356E+03</rscale>
<asrwt>0</asrwt>
<pdfrwt beam="2">  1        5 0.45280458E-01 0.18582591E+03</pdfrwt>
<pdfrwt beam="1">  1       -5 0.22344344E-01 0.18582591E+03</pdfrwt>
<totfact> 0.69465373E+01</totfact>
</mgrwt>
</event>
<event>
 8    1  0.1821556E-007  0.1503819E+03  0.7546771E-02  0.1200005E+00
         -5   -1    0    0    0  501 -0.00000000000E+00  0.00000000000E+00  0.66595003717E+02  0.66760650986E+02  0.47000000000E+01 0.  1.
          5   -1    0    0  501    0  0.00000000000E+00 -0.00000000000E+00 -0.69203749360E+03  0.69205345353E+03  0.47000000000E+01 0.  1.
         25    2    1    2    0    0  0.20619461948E+02 -0.81025584530E+02 -0.41762608872E+02  0.15607319084E+03  0.12499767134E+03 0.  0.
         25    2    1    2    0    0 -0.20619461948E+02  0.81025584530E+02 -0.58367988101E+03  0.60274091368E+03  0.12499639181E+03 0.  0.
          5    1    3    3  502    0  0.77687184263E+01 -0.64855203647E+02 -0.85368907160E+02  0.10759410177E+03  0.47000000000E+01 0.  1.
         -5    1    3    3    0  502  0.12850743521E+02 -0.16170380882E+02  0.43606298288E+02  0.48479089072E+02  0.47000000000E+01 0.  1.
          5    1    4    4  503    0 -0.35694511055E+02 -0.94912044846E+01 -0.34471176110E+03  0.34671669894E+03  0.47000000000E+01 0.  1.
         -5    1    4    4    0  503  0.15075049107E+02  0.90516789014E+02 -0.23896811990E+03  0.25602421473E+03  0.47000000000E+01 0.  1.
<mgrwt>
<rscale>  0 0.15038167E+03</rscale>
<asrwt>0</asrwt>
<pdfrwt beam="2">  1        5 0.10648127E+00 0.15038193E+03</pdfrwt>
<pdfrwt beam="1">  1       -5 0.10259355E-01 0.15038193E+03</pdfrwt>
<totfact> 0.38816446E+01</totfact>
</mgrwt>
</event>
<event>
 8    1  0.1821556E-007  0.1261629E+03  0.7546771E-02  0.1233268E+00
          5   -1    0    0  501    0  0.00000000000E+00  0.00000000000E+00  0.86409160322E+02  0.86536888016E+02  0.47000000000E+01 0. -1.
         -5   -1    0    0    0  501 -0.00000000000E+00 -0.00000000000E+00 -0.36436893846E+03  0.36439924988E+03  0.47000000000E+01 0. -1.
         25    2    1    2    0    0  0.15884737453E+02 -0.61151629824E+01 -0.29761909631E+03  0.32325070576E+03  0.12499668868E+03 0.  0.
         25    2    1    2    0    0 -0.15884737453E+02  0.61151629824E+01  0.19659318178E+02  0.12768543213E+03  0.12500944239E+03 0.  0.
          5    1    3    3  502    0 -0.36426645651E+02 -0.32069969764E+02 -0.22358827750E+03  0.22884315875E+03  0.47000000000E+01 0.  1.
         -5    1    3    3    0  502  0.52311383104E+02  0.25954806782E+02 -0.74030818818E+02  0.94407547008E+02  0.47000000000E+01 0.  1.
          5    1    4    4  503    0  0.19712531113E+02 -0.78177833952E+00  0.65777077736E+02  0.68832470649E+02  0.47000000000E+01 0.  1.
         -5    1    4    4    0  503 -0.35597268566E+02  0.68969413220E+01 -0.46117759557E+02  0.58852961485E+02  0.47000000000E+01 0.  1.
<mgrwt>
<rscale>  0 0.12615975E+03</rscale>
<asrwt>0</asrwt>
<pdfrwt beam="1">  1        5 0.13305874E-01 0.12616291E+03</pdfrwt>
<pdfrwt beam="2">  1       -5 0.56068916E-01 0.12616291E+03</pdfrwt>
<totfact> 0.10161039E+02</totfact>
</mgrwt>
</event>
<event>
 8    1  0.1821556E-007  0.1346054E+03  0.7546771E-02  0.1220780E+00
         -5   -1    0    0    0  501 -0.00000000000E+00  0.00000000000E+00  0.12937748796E+03  0.12946283015E+03  0.47000000000E+01 0.  1.
          5   -1    0    0  501    0  0.00000000000E+00 -0.00000000000E+00 -0.19155018118E+03  0.19160783364E+03  0.47000000000E+01 0.  1.
         25    2    1    2    0    0  0.38539174064E+02 -0.31732310086E+02  0.52268298155E+02  0.14439195319E+03  0.12499941485E+03 0.  0.
         25    2    1    2    0    0 -0.38539174064E+02  0.31732310086E+02 -0.11444099138E+03  0.17667871060E+03  0.12500567520E+03 0.  0.
          5    1    3    3  502    0 -0.10353482589E+02 -0.70872139316E+02  0.26769972325E+02  0.76607937912E+02  0.47000000000E+01 0. -1.
         -5    1    3    3    0  502  0.48892656652E+02  0.39139829230E+02  0.25498325829E+02  0.67784015275E+02  0.47000000000E+01 0. -1.
          5    1    4    4  503    0 -0.58797222887E+02 -0.64069492151E+01 -0.11902872221E+03  0.13299657563E+03  0.47000000000E+01 0.  1.
         -5    1    4    4    0  503  0.20258048824E+02  0.38139259301E+02  0.45877308317E+01  0.43682134979E+02  0.47000000000E+01 0.  1.
<mgrwt>
<rscale>  0 0.13460399E+03</rscale>
<asrwt>0</asrwt>
<pdfrwt beam="2">  1        5 0.29480258E-01 0.13460545E+03</pdfrwt>
<pdfrwt beam="1">  1       -5 0.19915228E-01 0.13460545E+03</pdfrwt>
<totfact> 0.18613476E+02</totfact>
</mgrwt>
</event>
<event>
 8    1  0.1821556E-007  0.1292152E+03  0.7546771E-02  0.1228625E+00
          5   -1    0    0  501    0  0.00000000000E+00  0.00000000000E+00  0.15496244226E+03  0.15503370121E+03  0.47000000000E+01 0.  1.
         -5   -1    0    0    0  501 -0.00000000000E+00 -0.00000000000E+00 -0.10762397488E+03  0.10772655183E+03  0.47000000000E+01 0.  1.
         25    2    1    2    0    0 -0.32677274166E+02  0.19144596733E+01  0.21623108709E+02  0.13101111182E+03  0.12499953275E+03 0.  0.
         25    2    1    2    0    0  0.32677274166E+02 -0.19144596733E+01  0.25715358675E+02  0.13174914122E+03  0.12500034855E+03 0.  0.
          5    1    4    4  502    0  0.57116783987E+02  0.45171599584E+02  0.28686033239E+02  0.78407773371E+02  0.47000000000E+01 0. -1.
         -5    1    4    4    0  502 -0.24439509821E+02 -0.47086059257E+02 -0.29706745640E+01  0.53341367849E+02  0.47000000000E+01 0. -1.
          5    1    3    3  503    0 -0.47856151104E+02 -0.50058404993E+02  0.30720786291E+02  0.75907258014E+02  0.47000000000E+01 0.  1.
         -5    1    3    3    0  503  0.15178876938E+02  0.51972864666E+02 -0.90976775820E+01  0.55103853804E+02  0.47000000000E+01 0.  1.
<mgrwt>
<rscale>  0 0.12921496E+03</rscale>
<asrwt>0</asrwt>
<pdfrwt beam="1">  1        5 0.23853748E-01 0.12921516E+03</pdfrwt>
<pdfrwt beam="2">  1       -5 0.16570907E-01 0.12921516E+03</pdfrwt>
<totfact> 0.38750684E+02</totfact>
</mgrwt>
</event>
<event>
 8    1  0.1821556E-007  0.2038305E+03  0.7546771E-02  0.1146548E+00
          5   -1    0    0  501    0  0.00000000000E+00  0.00000000000E+00  0.40590289524E+03  0.40593010527E+03  0.47000000000E+01 0. -1.
         -5   -1    0    0    0  501 -0.00000000000E+00 -0.00000000000E+00 -0.10344951653E+03  0.10355622854E+03  0.47000000000E+01 0. -1.
         25    2    1    2    0    0 -0.13092817233E+03 -0.93688779998E+02  0.17842055419E+03  0.27088410352E+03  0.12499811828E+03 0.  0.
         25    2    1    2    0    0  0.13092817233E+03  0.93688779998E+02  0.12403282452E+03  0.23860223029E+03  0.12500843545E+03 0.  0.
          5    1    4    4  502    0  0.12125937858E+03  0.79445017235E+02  0.36903244007E+02  0.14966391374E+03  0.47000000000E+01 0. -1.
         -5    1    4    4    0  502  0.96687937469E+01  0.14243762764E+02  0.87129580515E+02  0.88938316551E+02  0.47000000000E+01 0. -1.
          5    1    3    3  503    0 -0.14170748221E+03 -0.64338691519E+02  0.18147991316E+03  0.23911822729E+03  0.47000000000E+01 0.  1.
         -5    1    3    3    0  503  0.10779309881E+02 -0.29350088480E+02 -0.30593589700E+01  0.31765876229E+02  0.47000000000E+01 0.  1.
<mgrwt>
<rscale>  0 0.20382894E+03</rscale>
<asrwt>0</asrwt>
<pdfrwt beam="1">  1        5 0.62456900E-01 0.20383052E+03</pdfrwt>
<pdfrwt beam="2">  1       -5 0.15925612E-01 0.20383052E+03</pdfrwt>
<totfact> 0.66958236E+01</totfact>
</mgrwt>
</event>
<event>
 8    1  0.1821556E-007  0.1586514E+03  0.7546771E-02  0.1190229E+00
          5   -1    0    0  501    0  0.00000000000E+00  0.00000000000E+00  0.81076121672E+02  0.81212237411E+02  0.47000000000E+01 0. -1.
         -5   -1    0    0    0  501 -0.00000000000E+00 -0.00000000000E+00 -0.33293491599E+03  0.33296808899E+03  0.47000000000E+01 0. -1.
         25    2    1    2    0    0  0.61954665432E+02 -0.75541320692E+02 -0.18023322991E+03  0.24011001063E+03  0.12499571328E+03 0.  0.
         25    2    1    2    0    0 -0.61954665432E+02  0.75541320692E+02 -0.71625564409E+02  0.17407031577E+03  0.12500152661E+03 0.  0.
          5    1    4    4  502    0  0.31214078388E+02  0.44113484113E+02 -0.34997733815E+01  0.54356752882E+02  0.47000000000E+01 0. -1.
         -5    1    4    4    0  502 -0.93168743820E+02  0.31427836579E+02 -0.68125791028E+02  0.11971356289E+03  0.47000000000E+01 0. -1.
          5    1    3    3  503    0  0.10033927861E+03 -0.59341157795E+02 -0.13524939567E+03  0.17861644064E+03  0.47000000000E+01 0. -1.
         -5    1    3    3    0  503 -0.38384613173E+02 -0.16200162897E+02 -0.44983834243E+02  0.61493569985E+02  0.47000000000E+01 0. -1.
<mgrwt>
<rscale>  0 0.15865021E+03</rscale>
<asrwt>0</asrwt>
<pdfrwt beam="1">  1        5 0.12486272E-01 0.15865136E+03</pdfrwt>
<pdfrwt beam="2">  1       -5 0.51233778E-01 0.15865136E+03</pdfrwt>
<totfact> 0.14888386E+02</totfact>
</mgrwt>
</event>
<event>
 8    1  0.1821556E-007  0.1364383E+03  0.7546771E-02  0.1218209E+00
         -5   -1    0    0    0  501 -0.00000000000E+00  0.00000000000E+00  0.28484963141E+02  0.28870107813E+02  0.47000000000E+01 0. -1.
          5   -1    0    0  501    0  0.00000000000E+00 -0.00000000000E+00 -0.73352606364E+03  0.73354112089E+03  0.47000000000E+01 0. -1.
         25    2    1    2    0    0 -0.88280194736E+01  0.53925925630E+02 -0.22286841713E+03  0.26130653172E+03  0.12499933113E+03 0.  0.
         25    2    1    2    0    0  0.88280194736E+01 -0.53925925630E+02 -0.48217268337E+03  0.50110469699E+03  0.12501792419E+03 0.  0.
          5    1    4    4  502    0  0.53088936828E+02 -0.34788480328E+02 -0.12119786799E+03  0.13689297565E+03  0.47000000000E+01 0. -1.
         -5    1    4    4    0  502 -0.44260917355E+02 -0.19137445302E+02 -0.36097481538E+03  0.36421172134E+03  0.47000000000E+01 0. -1.
          5    1    3    3  503    0 -0.18848556656E+02  0.43085069796E+02 -0.10551817288E+02  0.48425429016E+02  0.47000000000E+01 0. -1.
         -5    1    3    3    0  503  0.10020537183E+02  0.10840855835E+02 -0.21231659984E+03  0.21288110270E+03  0.47000000000E+01 0. -1.
<mgrwt>
<rscale>  0 0.13643408E+03</rscale>
<asrwt>0</asrwt>
<pdfrwt beam="2">  1        5 0.11288093E+00 0.13643834E+03</pdfrwt>
<pdfrwt beam="1">  1       -5 0.44130873E-02 0.13643834E+03</pdfrwt>
<totfact> 0.13630404E+02</totfact>
</mgrwt>
</event>
<event>
 8    1  0.1821556E-007  0.1342662E+03  0.7546771E-02  0.1221262E+00
          5   -1    0    0  501    0  0.00000000000E+00  0.00000000000E+00  0.83748299460E+02  0.83880079056E+02  0.47000000000E+01 0.  1.
         -5   -1    0    0    0  501 -0.00000000000E+00 -0.00000000000E+00 -0.23540744810E+03  0.23545436208E+03  0.47000000000E+01 0.  1.
         25    2    1    2    0    0  0.40398225026E+02  0.27746256645E+02 -0.12291634903E+03  0.18203250406E+03  0.12500212930E+03 0.  0.
         25    2    1    2    0    0 -0.40398225026E+02 -0.27746256645E+02 -0.28742799606E+02  0.13730193708E+03  0.12499520812E+03 0.  0.
          5    1    4    4  502    0 -0.11399375565E+01 -0.49312725823E+02 -0.63405318020E+02  0.80469675897E+02  0.47000000000E+01 0.  1.
         -5    1    4    4    0  502 -0.39258287469E+02  0.21566469178E+02  0.34662518414E+02  0.56832261178E+02  0.47000000000E+01 0.  1.
          5    1    3    3  503    0 -0.22294289616E+02 -0.36786203920E+02 -0.30299725943E+02  0.52824459681E+02  0.47000000000E+01 0. -1.
         -5    1    3    3    0  503  0.62692514642E+02  0.64532460565E+02 -0.92616623090E+02  0.12920804438E+03  0.47000000000E+01 0. -1.
<mgrwt>
<rscale>  0 0.13426456E+03</rscale>
<asrwt>0</asrwt>
<pdfrwt beam="1">  1        5 0.12898100E-01 0.13426617E+03</pdfrwt>
<pdfrwt beam="2">  1       -5 0.36230276E-01 0.13426617E+03</pdfrwt>
<totfact> 0.27260838E+02</totfact>
</mgrwt>
</event>
<event>
 8    1  0.1821556E-007  0.1259039E+03  0.7546771E-02  0.1233663E+00
          5   -1    0    0  501    0  0.00000000000E+00  0.00000000000E+00  0.11401423863E+02  0.12332171995E+02  0.47000000000E+01 0. -1.
         -5   -1    0    0    0  501 -0.00000000000E+00 -0.00000000000E+00 -0.16955747723E+04  0.16955812863E+04  0.47000000000E+01 0. -1.
         25    2    1    2    0    0 -0.11753075898E+02  0.94166496709E+01 -0.12358481650E+04  0.12422449396E+04  0.12499997921E+03 0.  0.
         25    2    1    2    0    0  0.11753075898E+02 -0.94166496709E+01 -0.44832518337E+03  0.46566851869E+03  0.12499956468E+03 0.  0.
          5    1    4    4  502    0 -0.58091253989E+01  0.35018435639E+02 -0.38262002396E+03  0.38429182858E+03  0.47000000000E+01 0. -1.
         -5    1    4    4    0  502  0.17562201297E+02 -0.44435085310E+02 -0.65705159403E+02  0.81376690109E+02  0.47000000000E+01 0. -1.
          5    1    3    3  503    0 -0.64547421542E+02 -0.14767087539E+02 -0.56982499794E+03  0.57367852913E+03  0.47000000000E+01 0.  1.
         -5    1    3    3    0  503  0.52794345645E+02  0.24183737210E+02 -0.66602316708E+03  0.66856641043E+03  0.47000000000E+01 0.  1.
<mgrwt>
<rscale>  0 0.12590384E+03</rscale>
<asrwt>0</asrwt>
<pdfrwt beam="1">  1        5 0.18261636E-02 0.12590394E+03</pdfrwt>
<pdfrwt beam="2">  1       -5 0.26092956E+00 0.12590394E+03</pdfrwt>
<totfact> 0.46169396E+01</totfact>
</mgrwt>
</event>
<event>
 8    1  0.1821556E-007  0.1473415E+03  0.7546771E-02  0.1203784E+00
          5   -1    0    0  501    0  0.00000000000E+00  0.00000000000E+00  0.99586770752E+02  0.99697617368E+02  0.47000000000E+01 0.  1.
         -5   -1    0    0    0  501 -0.00000000000E+00 -0.00000000000E+00 -0.36366836219E+03  0.36369873200E+03  0.47000000000E+01 0.  1.
         25    2    1    2    0    0 -0.77601985168E+02 -0.80745907993E+01 -0.27879057940E+03  0.31532242656E+03  0.12496710932E+03 0.  0.
         25    2    1    2    0    0  0.77601985168E+02  0.80745907993E+01  0.14708987958E+02  0.14807392281E+03  0.12498906020E+03 0.  0.
          5    1    4    4  502    0  0.19230309316E+02 -0.32733121180E+02  0.54323627556E+02  0.66441015415E+02  0.47000000000E+01 0.  1.
         -5    1    4    4    0  502  0.58371675852E+02  0.40807711980E+02 -0.39614639597E+02  0.81632907391E+02  0.47000000000E+01 0.  1.
          5    1    3    3  503    0 -0.59893332366E+02  0.42909060778E+02 -0.23290448006E+03  0.24432557293E+03  0.47000000000E+01 0.  1.
         -5    1    3    3    0  503 -0.17708652802E+02 -0.50983651577E+02 -0.45886099339E+02  0.70996853626E+02  0.47000000000E+01 0.  1.
<mgrwt>
<rscale>  0 0.14733689E+03</rscale>
<asrwt>0</asrwt>
<pdfrwt beam="1">  1        5 0.15331905E-01 0.14734155E+03</pdfrwt>
<pdfrwt beam="2">  1       -5 0.55959841E-01 0.14734155E+03</pdfrwt>
<totfact> 0.83148667E+01</totfact>
</mgrwt>
</event>
<event>
 8    1  0.1821556E-007  0.1818698E+03  0.7546771E-02  0.1166006E+00
          5   -1    0    0  501    0  0.00000000000E+00  0.00000000000E+00  0.15461409399E+03  0.15468551342E+03  0.47000000000E+01 0.  1.
         -5   -1    0    0    0  501 -0.00000000000E+00 -0.00000000000E+00 -0.21449115304E+03  0.21454264083E+03  0.47000000000E+01 0.  1.
         25    2    1    2    0    0 -0.74361447716E+02  0.10918519091E+03 -0.19329160231E+02  0.18289310605E+03  0.12500096394E+03 0.  0.
         25    2    1    2    0    0  0.74361447716E+02 -0.10918519091E+03 -0.40547898816E+02  0.18633504820E+03  0.12500234905E+03 0.  0.
          5    1    3    3  502    0  0.32149485220E+02  0.45073624504E+02  0.61546207309E+01  0.55903402242E+02  0.47000000000E+01 0.  1.
         -5    1    3    3    0  502 -0.10651093294E+03  0.64111566403E+02 -0.25483780962E+02  0.12698970381E+03  0.47000000000E+01 0.  1.
          5    1    4    4  503    0 -0.16874395663E+02 -0.79539015421E+02  0.15684507071E+01  0.81460114416E+02  0.47000000000E+01 0.  1.
         -5    1    4    4    0  503  0.91235843379E+02 -0.29646175487E+02 -0.42116349524E+02  0.10487493378E+03  0.47000000000E+01 0.  1.
<mgrwt>
<rscale>  0 0.18186955E+03</rscale>
<asrwt>0</asrwt>
<pdfrwt beam="1">  1        5 0.23796238E-01 0.18186978E+03</pdfrwt>
<pdfrwt beam="2">  1       -5 0.33008093E-01 0.18186978E+03</pdfrwt>
<totfact> 0.11690830E+02</totfact>
</mgrwt>
</event>
<event>
 8    1  0.1821556E-007  0.1544083E+03  0.7546771E-02  0.1195159E+00
          5   -1    0    0  501    0  0.00000000000E+00  0.00000000000E+00  0.82559605280E+03  0.82560943090E+03  0.47000000000E+01 0. -1.
         -5   -1    0    0    0  501 -0.00000000000E+00 -0.00000000000E+00 -0.29581945219E+02  0.29952987880E+02  0.47000000000E+01 0. -1.
         25    2    1    2    0    0  0.45157886671E+02  0.78603360825E+02  0.32352301663E+03  0.35848118092E+03  0.12499556682E+03 0.  0.
         25    2    1    2    0    0 -0.45157886671E+02 -0.78603360825E+02  0.47249109095E+03  0.49708123786E+03  0.12499681173E+03 0.  0.
          5    1    3    3  502    0  0.72761375563E+02  0.63451494178E+02  0.12806071531E+03  0.16044297022E+03  0.47000000000E+01 0. -1.
         -5    1    3    3    0  502 -0.27603488892E+02  0.15151866647E+02  0.19546230131E+03  0.19803821070E+03  0.47000000000E+01 0. -1.
          5    1    4    4  503    0 -0.42114415778E+02 -0.28532937271E+02  0.49615097637E+02  0.71214467906E+02  0.47000000000E+01 0.  1.
         -5    1    4    4    0  503 -0.30434708922E+01 -0.50070423554E+02  0.42287599332E+03  0.42586676996E+03  0.47000000000E+01 0.  1.
<mgrwt>
<rscale>  0 0.15440806E+03</rscale>
<asrwt>0</asrwt>
<pdfrwt beam="1">  1        5 0.12704434E+00 0.15440831E+03</pdfrwt>
<pdfrwt beam="2">  1       -5 0.45806395E-02 0.15440831E+03</pdfrwt>
<totfact> 0.98583009E+01</totfact>
</mgrwt>
</event>
<event>
 8    1  0.1821556E-007  0.1527946E+03  0.7546771E-02  0.1197081E+00
          5   -1    0    0  501    0  0.00000000000E+00  0.00000000000E+00  0.49748223104E+03  0.49750443234E+03  0.47000000000E+01 0. -1.
         -5   -1    0    0    0  501 -0.00000000000E+00 -0.00000000000E+00 -0.48104164084E+02  0.48333224621E+02  0.47000000000E+01 0. -1.
         25    2    1    2    0    0  0.83964345669E+02 -0.25876080773E+02  0.17964558193E+03  0.23583620124E+03  0.12500638307E+03 0.  0.
         25    2    1    2    0    0 -0.83964345669E+02  0.25876080773E+02  0.26973248502E+03  0.31000145572E+03  0.12500282466E+03 0.  0.
          5    1    3    3  502    0  0.10196858299E+03  0.18340260677E+02  0.13556794149E+03  0.17068893883E+03  0.47000000000E+01 0.  1.
         -5    1    3    3    0  502 -0.18004237325E+02 -0.44216341450E+02  0.44077640447E+02  0.65147262416E+02  0.47000000000E+01 0.  1.
          5    1    4    4  503    0 -0.27513417709E+02  0.50634457357E+02  0.35722622002E+02  0.67963461865E+02  0.47000000000E+01 0.  1.
         -5    1    4    4    0  503 -0.56450927960E+02 -0.24758376584E+02  0.23400986302E+03  0.24203799385E+03  0.47000000000E+01 0.  1.
<mgrwt>
<rscale>  0 0.15279384E+03</rscale>
<asrwt>0</asrwt>
<pdfrwt beam="1">  1        5 0.76555055E-01 0.15279456E+03</pdfrwt>
<pdfrwt beam="2">  1       -5 0.74199685E-02 0.15279456E+03</pdfrwt>
<totfact> 0.14994211E+02</totfact>
</mgrwt>
</event>
<event>
 8    1  0.1821556E-007  0.1423426E+03  0.7546771E-02  0.1210216E+00
         -5   -1    0    0    0  501 -0.00000000000E+00  0.00000000000E+00  0.16918894627E+03  0.16925421572E+03  0.47000000000E+01 0. -1.
          5   -1    0    0  501    0  0.00000000000E+00 -0.00000000000E+00 -0.13285010972E+03  0.13293322253E+03  0.47000000000E+01 0. -1.
         25    2    1    2    0    0  0.40616987535E+00 -0.68077668007E+02  0.65840195315E+02  0.15681980060E+03  0.12499113842E+03 0.  0.
         25    2    1    2    0    0 -0.40616987535E+00  0.68077668007E+02 -0.29501358768E+02  0.14536763765E+03  0.12500674403E+03 0.  0.
          5    1    3    3  502    0  0.25864551654E+02 -0.67303539962E+02 -0.13370707408E+02  0.73482020524E+02  0.47000000000E+01 0. -1.
         -5    1    3    3    0  502 -0.25458381779E+02 -0.77412804563E+00  0.79210902723E+02  0.83337780072E+02  0.47000000000E+01 0. -1.
          5    1    4    4  503    0 -0.55592343175E+02  0.11926697389E+02 -0.33920561695E+02  0.66373558260E+02  0.47000000000E+01 0.  1.
         -5    1    4    4    0  503  0.55186173300E+02  0.56150970618E+02  0.44192029273E+01  0.78994079394E+02  0.47000000000E+01 0.  1.
<mgrwt>
<rscale>  0 0.14233919E+03</rscale>
<asrwt>0</asrwt>
<pdfrwt beam="2">  1        5 0.20449892E-01 0.14234261E+03</pdfrwt>
<pdfrwt beam="1">  1       -5 0.26040483E-01 0.14234261E+03</pdfrwt>
<totfact> 0.22966741E+02</totfact>
</mgrwt>
</event>
<event>
 8    1  0.1821556E-007  0.1675583E+03  0.7546771E-02  0.1180422E+00
          5   -1    0    0  501    0  0.00000000000E+00  0.00000000000E+00  0.12627192925E+03  0.12635936893E+03  0.47000000000E+01 0.  1.
         -5   -1    0    0    0  501 -0.00000000000E+00 -0.00000000000E+00 -0.26153280648E+03  0.26157503486E+03  0.47000000000E+01 0.  1.
         25    2    1    2    0    0 -0.91770656572E+02 -0.63449624457E+02 -0.14289394093E+03  0.22021456218E+03  0.12501226655E+03 0.  0.
         25    2    1    2    0    0  0.91770656572E+02  0.63449624457E+02  0.76330637020E+01  0.16771984162E+03  0.12499589338E+03 0.  0.
          5    1    3    3  502    0 -0.44649190577E+02  0.33393009497E+02 -0.27655854243E+02  0.62414578236E+02  0.47000000000E+01 0.  1.
         -5    1    3    3    0  502 -0.47121465995E+02 -0.96842633954E+02 -0.11523808668E+03  0.15779998394E+03  0.47000000000E+01 0.  1.
          5    1    4    4  503    0 -0.23850040753E+02  0.92901891220E+01  0.28131681941E+02  0.38322494526E+02  0.47000000000E+01 0. -1.
         -5    1    4    4    0  503  0.11562069732E+03  0.54159435335E+02 -0.20498618239E+02  0.12939734710E+03  0.47000000000E+01 0. -1.
<mgrwt>
<rscale>  0 0.16755522E+03</rscale>
<asrwt>0</asrwt>
<pdfrwt beam="1">  1        5 0.19436425E-01 0.16755827E+03</pdfrwt>
<pdfrwt beam="2">  1       -5 0.40245791E-01 0.16755827E+03</pdfrwt>
<totfact> 0.11196164E+02</totfact>
</mgrwt>
</event>
<event>
 8    1  0.1821556E-007  0.1984410E+03  0.7546771E-02  0.1151062E+00
          5   -1    0    0  501    0  0.00000000000E+00  0.00000000000E+00  0.15903736381E+03  0.15910679774E+03  0.47000000000E+01 0.  1.
         -5   -1    0    0    0  501 -0.00000000000E+00 -0.00000000000E+00 -0.24986237864E+03  0.24990657907E+03  0.47000000000E+01 0.  1.
         25    2    1    2    0    0  0.14527180605E+03 -0.51472741458E+02 -0.65476298045E+02  0.20895993874E+03  0.12499507848E+03 0.  0.
         25    2    1    2    0    0 -0.14527180605E+03  0.51472741458E+02 -0.25348716789E+02  0.20005343807E+03  0.12500191955E+03 0.  0.
          5    1    3    3  502    0  0.57349646589E+02  0.30849772448E+02  0.10997470925E+02  0.66209703146E+02  0.47000000000E+01 0. -1.
         -5    1    3    3    0  502  0.87922159466E+02 -0.82322513905E+02 -0.76473768970E+02  0.14275023559E+03  0.47000000000E+01 0. -1.
          5    1    4    4  503    0  0.48942430191E+01  0.47469551092E+02 -0.23364823658E+01  0.48008968386E+02  0.47000000000E+01 0.  1.
         -5    1    4    4    0  503 -0.15016604907E+03  0.40031903654E+01 -0.23012234423E+02  0.15204446968E+03  0.47000000000E+01 0.  1.
<mgrwt>
<rscale>  0 0.19843990E+03</rscale>
<asrwt>0</asrwt>
<pdfrwt beam="1">  1        5 0.24476028E-01 0.19844098E+03</pdfrwt>
<pdfrwt beam="2">  1       -5 0.38449107E-01 0.19844098E+03</pdfrwt>
<totfact> 0.83391578E+01</totfact>
</mgrwt>
</event>
<event>
 8    1  0.1821556E-007  0.1260979E+03  0.7546771E-02  0.1233364E+00
          5   -1    0    0  501    0  0.00000000000E+00  0.00000000000E+00  0.56269160173E+02  0.56465107691E+02  0.47000000000E+01 0.  1.
         -5   -1    0    0    0  501 -0.00000000000E+00 -0.00000000000E+00 -0.33193959763E+03  0.33197287009E+03  0.47000000000E+01 0.  1.
         25    2    1    2    0    0  0.15658820438E+02  0.54800936457E+01 -0.21323674895E+03  0.24773034426E+03  0.12500072912E+03 0.  0.
         25    2    1    2    0    0 -0.15658820438E+02 -0.54800936457E+01 -0.62433688508E+02  0.14070763352E+03  0.12500177034E+03 0.  0.
          5    1    3    3  502    0  0.55377940063E+02  0.43031157224E+02 -0.13460087549E+03  0.15184822166E+03  0.47000000000E+01 0.  1.
         -5    1    3    3    0  502 -0.39719119625E+02 -0.37551063579E+02 -0.78635873459E+02  0.95882122600E+02  0.47000000000E+01 0.  1.
          5    1    4    4  503    0  0.27585056836E+02  0.36735799109E+02  0.89719563702E+01  0.47042962257E+02  0.47000000000E+01 0. -1.
         -5    1    4    4    0  503 -0.43243877273E+02 -0.42215892755E+02 -0.71405644878E+02  0.93664671265E+02  0.47000000000E+01 0. -1.
<mgrwt>
<rscale>  0 0.12609761E+03</rscale>
<asrwt>0</asrwt>
<pdfrwt beam="1">  1        5 0.86744263E-02 0.12609787E+03</pdfrwt>
<pdfrwt beam="2">  1       -5 0.51085262E-01 0.12609787E+03</pdfrwt>
<totfact> 0.26252558E+02</totfact>
</mgrwt>
</event>
<event>
 8    1  0.1821556E-007  0.1268932E+03  0.7546771E-02  0.1232141E+00
          5   -1    0    0  501    0  0.00000000000E+00  0.00000000000E+00  0.12854553381E+03  0.12863142797E+03  0.47000000000E+01 0.  1.
         -5   -1    0    0    0  501 -0.00000000000E+00 -0.00000000000E+00 -0.13611919961E+03  0.13620031756E+03  0.47000000000E+01 0.  1.
         25    2    1    2    0    0 -0.14604090265E+02 -0.16226404198E+02 -0.41458747560E+02  0.13349427125E+03  0.12500126824E+03 0.  0.
         25    2    1    2    0    0  0.14604090265E+02  0.16226404198E+02  0.33885081760E+02  0.13133747428E+03  0.12499903095E+03 0.  0.
          5    1    4    4  502    0  0.39453586279E+02 -0.35927597373E+02  0.47727429148E+02  0.71745210407E+02  0.47000000000E+01 0. -1.
         -5    1    4    4    0  502 -0.24849496014E+02  0.52154001571E+02 -0.13842347388E+02  0.59592263871E+02  0.47000000000E+01 0. -1.
          5    1    3    3  503    0 -0.49170780603E+02 -0.53588668848E+02 -0.10234831597E+02  0.73595875372E+02  0.47000000000E+01 0. -1.
         -5    1    3    3    0  503  0.34566690338E+02  0.37362264650E+02 -0.31223915963E+02  0.59898395879E+02  0.47000000000E+01 0. -1.
<mgrwt>
<rscale>  0 0.12689268E+03</rscale>
<asrwt>0</asrwt>
<pdfrwt beam="1">  1        5 0.19789083E-01 0.12689323E+03</pdfrwt>
<pdfrwt beam="2">  1       -5 0.20954262E-01 0.12689323E+03</pdfrwt>
<totfact> 0.35444210E+02</totfact>
</mgrwt>
</event>
<event>
 8    1  0.1821556E-007  0.1253156E+03  0.7546771E-02  0.1234583E+00
         -5   -1    0    0    0  501 -0.00000000000E+00  0.00000000000E+00  0.28423064087E+03  0.28426949751E+03  0.47000000000E+01 0.  1.
          5   -1    0    0  501    0  0.00000000000E+00 -0.00000000000E+00 -0.55275179813E+02  0.55474638380E+02  0.47000000000E+01 0.  1.
         25    2    1    2    0    0 -0.48512744895E+01 -0.74417265020E+01  0.10496505433E+03  0.16345567305E+03  0.12498472012E+03 0.  0.
         25    2    1    2    0    0  0.48512744895E+01  0.74417265020E+01  0.12399040673E+03  0.17628846283E+03  0.12500034804E+03 0.  0.
          5    1    3    3  502    0  0.39546333473E+02  0.42543458746E+02  0.48114429969E+02  0.75570806165E+02  0.47000000000E+01 0.  1.
         -5    1    3    3    0  502 -0.44397607962E+02 -0.49985185248E+02  0.56850624362E+02  0.87884866885E+02  0.47000000000E+01 0.  1.
          5    1    4    4  503    0  0.63890548931E+02  0.11794064241E+02  0.54952170612E+02  0.85222844643E+02  0.47000000000E+01 0.  1.
         -5    1    4    4    0  503 -0.59039274442E+02 -0.43523377395E+01  0.69038236118E+02  0.91065618192E+02  0.47000000000E+01 0.  1.
<mgrwt>
<rscale>  0 0.12531171E+03</rscale>
<asrwt>0</asrwt>
<pdfrwt beam="2">  1        5 0.85222057E-02 0.12531561E+03</pdfrwt>
<pdfrwt beam="1">  1       -5 0.43746123E-01 0.12531561E+03</pdfrwt>
<totfact> 0.37378542E+02</totfact>
</mgrwt>
</event>
<event>
 8    1  0.1821556E-007  0.5700502E+03  0.7546771E-02  0.9969569E-01
          5   -1    0    0  501    0  0.00000000000E+00  0.00000000000E+00  0.40941782547E+03  0.40944480191E+03  0.47000000000E+01 0. -1.
         -5   -1    0    0    0  501 -0.00000000000E+00 -0.00000000000E+00 -0.80194577611E+03  0.80195954874E+03  0.47000000000E+01 0. -1.
         25    2    1    2    0    0 -0.17296513317E+03 -0.52859664109E+03 -0.25789434678E+03  0.62567303586E+03  0.12500362971E+03 0.  0.
         25    2    1    2    0    0  0.17296513317E+03  0.52859664109E+03 -0.13463360386E+03  0.58573131480E+03  0.12499447819E+03 0.  0.
          5    1    3    3  502    0 -0.71871622509E+02 -0.32381832932E+03 -0.20899195155E+03  0.39207597011E+03  0.47000000000E+01 0.  1.
         -5    1    3    3    0  502 -0.10109351066E+03 -0.20477831177E+03 -0.48902395228E+02  0.23359706575E+03  0.47000000000E+01 0.  1.
          5    1    4    4  503    0  0.10399776822E+03  0.41390684813E+03 -0.14662951692E+03  0.45128341423E+03  0.47000000000E+01 0. -1.
         -5    1    4    4    0  503  0.68967364943E+02  0.11468979296E+03  0.11995913061E+02  0.13444790057E+03  0.47000000000E+01 0. -1.
<mgrwt>
<rscale>  0 0.57004972E+03</rscale>
<asrwt>0</asrwt>
<pdfrwt beam="1">  1        5 0.62990492E-01 0.57005022E+03</pdfrwt>
<pdfrwt beam="2">  1       -5 0.12337941E+00 0.57005022E+03</pdfrwt>
<totfact> 0.96516824E-01</totfact>
</mgrwt>
</event>
<event>
 8    1  0.1821556E-007  0.1386316E+03  0.7546771E-02  0.1215184E+00
          5   -1    0    0  501    0  0.00000000000E+00  0.00000000000E+00  0.10122394662E+03  0.10133300237E+03  0.47000000000E+01 0. -1.
         -5   -1    0    0    0  501 -0.00000000000E+00 -0.00000000000E+00 -0.19017723479E+03  0.19023530333E+03  0.47000000000E+01 0. -1.
         25    2    1    2    0    0  0.48362441629E+02 -0.35376817660E+02 -0.36549988196E+02  0.14336883355E+03  0.12501310255E+03 0.  0.
         25    2    1    2    0    0 -0.48362441629E+02  0.35376817660E+02 -0.52403299972E+02  0.14819947215E+03  0.12500613069E+03 0.  0.
          5    1    4    4  502    0  0.55979658835E+01 -0.12443365810E+02  0.33187179584E+02  0.36189134605E+02  0.47000000000E+01 0. -1.
         -5    1    4    4    0  502 -0.53960407512E+02  0.47820183470E+02 -0.85590479556E+02  0.11201033754E+03  0.47000000000E+01 0. -1.
          5    1    3    3  503    0  0.39947949439E+02 -0.56586021217E+02 -0.72596277545E+02  0.10044961909E+03  0.47000000000E+01 0. -1.
         -5    1    3    3    0  503  0.84144921894E+01  0.21209203557E+02  0.36046289349E+02  0.42919214463E+02  0.47000000000E+01 0. -1.
<mgrwt>
<rscale>  0 0.13863003E+03</rscale>
<asrwt>0</asrwt>
<pdfrwt beam="1">  1        5 0.15585771E-01 0.13863160E+03</pdfrwt>
<pdfrwt beam="2">  1       -5 0.29270892E-01 0.13863160E+03</pdfrwt>
<totfact> 0.29931628E+02</totfact>
</mgrwt>
</event>
<event>
 8    1  0.1821556E-007  0.1297521E+03  0.7546771E-02  0.1227825E+00
         -5   -1    0    0    0  501 -0.00000000000E+00  0.00000000000E+00  0.10655250609E+03  0.10665611354E+03  0.47000000000E+01 0.  1.
          5   -1    0    0  501    0  0.00000000000E+00 -0.00000000000E+00 -0.15851878169E+03  0.15858844267E+03  0.47000000000E+01 0.  1.
         25    2    1    2    0    0 -0.86159886505E+01 -0.33699054409E+02 -0.16962243886E+02  0.13085378004E+03  0.12500053002E+03 0.  0.
         25    2    1    2    0    0  0.86159886505E+01  0.33699054409E+02 -0.35004031713E+02  0.13439077617E+03  0.12500294778E+03 0.  0.
          5    1    4    4  502    0 -0.44209250635E+02  0.19334106527E+02  0.23718376118E+02  0.53971445067E+02  0.47000000000E+01 0.  1.
         -5    1    4    4    0  502  0.52825239286E+02  0.14364947882E+02 -0.58722407831E+02  0.80419331101E+02  0.47000000000E+01 0.  1.
          5    1    3    3  503    0  0.55570360124E+02 -0.32925040935E+02 -0.20974874973E+01  0.64796702838E+02  0.47000000000E+01 0. -1.
         -5    1    3    3    0  503 -0.64186348774E+02 -0.77401347362E+00 -0.14864756389E+02  0.66057077201E+02  0.47000000000E+01 0. -1.
<mgrwt>
<rscale>  0 0.12975148E+03</rscale>
<asrwt>0</asrwt>
<pdfrwt beam="2">  1        5 0.24400833E-01 0.12975207E+03</pdfrwt>
<pdfrwt beam="1">  1       -5 0.16406022E-01 0.12975207E+03</pdfrwt>
<totfact> 0.37853546E+02</totfact>
</mgrwt>
</event>
<event>
 8    1  0.1821556E-007  0.1398838E+03  0.7546771E-02  0.1213486E+00
          5   -1    0    0  501    0  0.00000000000E+00  0.00000000000E+00  0.73630694426E+03  0.73632194465E+03  0.47000000000E+01 0. -1.
         -5   -1    0    0    0  501 -0.00000000000E+00 -0.00000000000E+00 -0.29453635856E+02  0.29826274744E+02  0.47000000000E+01 0. -1.
         25    2    1    2    0    0  0.32220485988E+02 -0.53886567786E+02  0.22996320820E+03  0.26916639777E+03  0.12500220261E+03 0.  0.
         25    2    1    2    0    0 -0.32220485988E+02  0.53886567786E+02  0.47689010020E+03  0.49698182162E+03  0.12499936578E+03 0.  0.
          5    1    3    3  502    0 -0.20574565547E+02 -0.77948579935E+02  0.14859047034E+03  0.16911685823E+03  0.47000000000E+01 0.  1.
         -5    1    3    3    0  502  0.52795051535E+02  0.24062012149E+02  0.81372737867E+02  0.10004953954E+03  0.47000000000E+01 0.  1.
          5    1    4    4  503    0 -0.66320348889E+02  0.63446899271E+02  0.23267034333E+03  0.25016289967E+03  0.47000000000E+01 0.  1.
         -5    1    4    4    0  503  0.34099862901E+02 -0.95603314848E+01  0.24421975687E+03  0.24681892195E+03  0.47000000000E+01 0.  1.
<mgrwt>
<rscale>  0 0.13988315E+03</rscale>
<asrwt>0</asrwt>
<pdfrwt beam="1">  1        5 0.11330781E+00 0.13988378E+03</pdfrwt>
<pdfrwt beam="2">  1       -5 0.45611468E-02 0.13988378E+03</pdfrwt>
<totfact> 0.12888875E+02</totfact>
</mgrwt>
</event>
<event>
 8    1  0.1821556E-007  0.1280277E+03  0.7546771E-02  0.1230415E+00
         -5   -1    0    0    0  501 -0.00000000000E+00  0.00000000000E+00  0.12500435819E+03  0.12509268390E+03  0.47000000000E+01 0.  1.
          5   -1    0    0  501    0  0.00000000000E+00 -0.00000000000E+00 -0.13401874985E+03  0.13410113837E+03  0.47000000000E+01 0.  1.
         25    2    1    2    0    0 -0.26703827384E+02 -0.71464750537E+01  0.15128393891E+02  0.12891843966E+03  0.12500771688E+03 0.  0.
         25    2    1    2    0    0  0.26703827384E+02  0.71464750537E+01 -0.24142785554E+02  0.13027538261E+03  0.12499853886E+03 0.  0.
          5    1    3    3  502    0 -0.14782071909E+02  0.57392870455E+02  0.20532203323E+02  0.62897635904E+02  0.47000000000E+01 0.  1.
         -5    1    3    3    0  502 -0.11921755475E+02 -0.64539345509E+02 -0.54038094321E+01  0.66020803757E+02  0.47000000000E+01 0.  1.
          5    1    4    4  503    0 -0.21193977802E+02  0.22096688493E+02 -0.60611263020E+02  0.68068080202E+02  0.47000000000E+01 0. -1.
         -5    1    4    4    0  503  0.47897805187E+02 -0.14950213440E+02  0.36468477467E+02  0.62207302403E+02  0.47000000000E+01 0. -1.
<mgrwt>
<rscale>  0 0.12802547E+03</rscale>
<asrwt>0</asrwt>
<pdfrwt beam="2">  1        5 0.20631401E-01 0.12802771E+03</pdfrwt>
<pdfrwt beam="1">  1       -5 0.19244572E-01 0.12802771E+03</pdfrwt>
<totfact> 0.38558513E+02</totfact>
</mgrwt>
</event>
<event>
 8    1  0.1821556E-007  0.1799668E+03  0.7546771E-02  0.1167839E+00
         -5   -1    0    0    0  501 -0.00000000000E+00  0.00000000000E+00  0.52815653256E+02  0.53024364484E+02  0.47000000000E+01 0. -1.
          5   -1    0    0  501    0  0.00000000000E+00 -0.00000000000E+00 -0.79610294475E+03  0.79611681846E+03  0.47000000000E+01 0. -1.
         25    2    1    2    0    0 -0.34304684816E+02 -0.12482370535E+03 -0.16735216152E+03  0.24574303433E+03  0.12500049656E+03 0.  0.
         25    2    1    2    0    0  0.34304684816E+02  0.12482370535E+03 -0.57593512997E+03  0.60339814861E+03  0.12502113022E+03 0.  0.
          5    1    3    3  502    0 -0.35703062752E+02 -0.12263526443E+03 -0.65260164516E+02  0.14350991549E+03  0.47000000000E+01 0. -1.
         -5    1    3    3    0  502  0.13983779352E+01 -0.21884409144E+01 -0.10209199701E+03  0.10223311884E+03  0.47000000000E+01 0. -1.
          5    1    4    4  503    0 -0.45178284390E+02  0.44682832689E+02 -0.26574936799E+03  0.27328089854E+03  0.47000000000E+01 0. -1.
         -5    1    4    4    0  503  0.79482969206E+02  0.80140872658E+02 -0.31018576198E+03  0.33011725008E+03  0.47000000000E+01 0. -1.
<mgrwt>
<rscale>  0 0.17996322E+03</rscale>
<asrwt>0</asrwt>
<pdfrwt beam="2">  1        5 0.12249449E+00 0.17996681E+03</pdfrwt>
<pdfrwt beam="1">  1       -5 0.81426076E-02 0.17996681E+03</pdfrwt>
<totfact> 0.42821744E+01</totfact>
</mgrwt>
</event>
<event>
 8    1  0.1821556E-007  0.1265855E+03  0.7546771E-02  0.1232614E+00
         -5   -1    0    0    0  501 -0.00000000000E+00  0.00000000000E+00  0.22896136997E+03  0.22900960447E+03  0.47000000000E+01 0. -1.
          5   -1    0    0  501    0  0.00000000000E+00 -0.00000000000E+00 -0.80695979052E+02  0.80832734924E+02  0.47000000000E+01 0. -1.
         25    2    1    2    0    0  0.16725166161E+02 -0.10906342580E+02  0.13086460601E+03  0.18206646385E+03  0.12499589058E+03 0.  0.
         25    2    1    2    0    0 -0.16725166161E+02  0.10906342580E+02  0.17400784910E+02  0.12777587554E+03  0.12500083025E+03 0.  0.
          5    1    3    3  502    0  0.12097488194E+02 -0.66977691375E+02  0.55781080941E+02  0.88124794204E+02  0.47000000000E+01 0. -1.
         -5    1    3    3    0  502  0.46276779666E+01  0.56071348795E+02  0.75083525067E+02  0.93941669644E+02  0.47000000000E+01 0. -1.
          5    1    4    4  503    0 -0.44088716606E+02  0.41731395451E+02 -0.27354313976E+02  0.66750826148E+02  0.47000000000E+01 0.  1.
         -5    1    4    4    0  503  0.27363550445E+02 -0.30825052871E+02  0.44755098887E+02  0.61025049396E+02  0.47000000000E+01 0.  1.
<mgrwt>
<rscale>  0 0.12658427E+03</rscale>
<asrwt>0</asrwt>
<pdfrwt beam="2">  1        5 0.12428996E-01 0.12658549E+03</pdfrwt>
<pdfrwt beam="1">  1       -5 0.35239056E-01 0.12658549E+03</pdfrwt>
<totfact> 0.30142354E+02</totfact>
</mgrwt>
</event>
<event>
 8    1  0.1821556E-007  0.1419224E+03  0.7546771E-02  0.1210767E+00
         -5   -1    0    0    0  501 -0.00000000000E+00  0.00000000000E+00  0.64093949905E+03  0.64095673134E+03  0.47000000000E+01 0. -1.
          5   -1    0    0  501    0  0.00000000000E+00 -0.00000000000E+00 -0.31868119649E+02  0.32212839831E+02  0.47000000000E+01 0. -1.
         25    2    1    2    0    0  0.61538142190E+02 -0.27028050542E+02  0.35185071884E+03  0.37939338186E+03  0.12499180528E+03 0.  0.
         25    2    1    2    0    0 -0.61538142190E+02  0.27028050542E+02  0.25722066056E+03  0.29377618931E+03  0.12499809089E+03 0.  0.
          5    1    4    4  502    0  0.51161861871E-01 -0.45681966918E+02  0.96545599790E+02  0.10691111990E+03  0.47000000000E+01 0.  1.
         -5    1    4    4    0  502 -0.61589304052E+02  0.72710017460E+02  0.16067506077E+03  0.18686506941E+03  0.47000000000E+01 0.  1.
          5    1    3    3  503    0  0.34094816626E+02  0.39393395527E+02  0.63942664263E+02  0.82613863515E+02  0.47000000000E+01 0. -1.
         -5    1    3    3    0  503  0.27443325564E+02 -0.66421446069E+02  0.28790805458E+03  0.29677951834E+03  0.47000000000E+01 0. -1.
<mgrwt>
<rscale>  0 0.14192106E+03</rscale>
<asrwt>0</asrwt>
<pdfrwt beam="2">  1        5 0.49306304E-02 0.14192245E+03</pdfrwt>
<pdfrwt beam="1">  1       -5 0.98633913E-01 0.14192245E+03</pdfrwt>
<totfact> 0.16028722E+02</totfact>
</mgrwt>
</event>
<event>
 8    1  0.1821556E-007  0.1296501E+03  0.7546771E-02  0.1227994E+00
          5   -1    0    0  501    0  0.00000000000E+00  0.00000000000E+00  0.50200604329E+03  0.50202804453E+03  0.47000000000E+01 0. -1.
         -5   -1    0    0    0  501 -0.00000000000E+00 -0.00000000000E+00 -0.34215878494E+02  0.34537173323E+02  0.47000000000E+01 0. -1.
         25    2    1    2    0    0  0.23459091707E+00  0.34322127454E+02  0.18978026859E+03  0.22981018733E+03  0.12497243051E+03 0.  0.
         25    2    1    2    0    0 -0.23459091707E+00 -0.34322127454E+02  0.27800989620E+03  0.30675503053E+03  0.12502432924E+03 0.  0.
          5    1    3    3  502    0  0.21625207190E+02  0.69131195297E+02  0.61626034285E+02  0.95218852392E+02  0.47000000000E+01 0. -1.
         -5    1    3    3    0  502 -0.21390616273E+02 -0.34809067844E+02  0.12815423431E+03  0.13459133494E+03  0.47000000000E+01 0. -1.
          5    1    4    4  503    0  0.89897608852E+01  0.32984854252E+02  0.20105766085E+03  0.20399776812E+03  0.47000000000E+01 0.  1.
         -5    1    4    4    0  503 -0.92243518023E+01 -0.67306981706E+02  0.76952235352E+02  0.10275726241E+03  0.47000000000E+01 0.  1.
<mgrwt>
<rscale>  0 0.12963758E+03</rscale>
<asrwt>0</asrwt>
<pdfrwt beam="1">  1        5 0.77258106E-01 0.12965009E+03</pdfrwt>
<pdfrwt beam="2">  1       -5 0.52903888E-02 0.12965009E+03</pdfrwt>
<totfact> 0.24594224E+02</totfact>
</mgrwt>
</event>
<event>
 8    1  0.1821556E-007  0.1308952E+03  0.7546771E-02  0.1226140E+00
         -5   -1    0    0    0  501 -0.00000000000E+00  0.00000000000E+00  0.22494004439E+03  0.22498914101E+03  0.47000000000E+01 0. -1.
          5   -1    0    0  501    0  0.00000000000E+00 -0.00000000000E+00 -0.81036070382E+02  0.81172253283E+02  0.47000000000E+01 0. -1.
         25    2    1    2    0    0 -0.33685067176E+02  0.19287497462E+02  0.10996096471E+03  0.17095309927E+03  0.12500742811E+03 0.  0.
         25    2    1    2    0    0  0.33685067176E+02 -0.19287497462E+02  0.33943009302E+02  0.13520829501E+03  0.12498985499E+03 0.  0.
          5    1    4    4  502    0  0.62130057813E+02 -0.49365447398E+02  0.45989133339E+02  0.91837801944E+02  0.47000000000E+01 0. -1.
         -5    1    4    4    0  502 -0.28444990637E+02  0.30077949936E+02 -0.12046124036E+02  0.43370493069E+02  0.47000000000E+01 0. -1.
          5    1    3    3  503    0  0.35094059779E+02  0.47414628354E+01 -0.50475988714E+01  0.36078286489E+02  0.47000000000E+01 0.  1.
         -5    1    3    3    0  503 -0.68779126955E+02  0.14546034626E+02  0.11500856358E+03  0.13487481279E+03  0.47000000000E+01 0.  1.
<mgrwt>
<rscale>  0 0.13089099E+03</rscale>
<asrwt>0</asrwt>
<pdfrwt beam="2">  1        5 0.12481340E-01 0.13089518E+03</pdfrwt>
<pdfrwt beam="1">  1       -5 0.34620412E-01 0.13089518E+03</pdfrwt>
<totfact> 0.31379150E+02</totfact>
</mgrwt>
</event>
<event>
 8    1  0.1821556E-007  0.1342184E+03  0.7546771E-02  0.1221328E+00
         -5   -1    0    0    0  501 -0.00000000000E+00  0.00000000000E+00  0.12052830338E+04  0.12052921976E+04  0.47000000000E+01 0.  1.
          5   -1    0    0  501    0  0.00000000000E+00 -0.00000000000E+00 -0.24908523908E+02  0.25348068236E+02  0.47000000000E+01 0.  1.
         25    2    1    2    0    0 -0.26431276171E+02 -0.41113807255E+02  0.98198254401E+03  0.99111265720E+03  0.12500250002E+03 0.  0.
         25    2    1    2    0    0  0.26431276171E+02  0.41113807255E+02  0.19839196586E+03  0.23952760861E+03  0.12500058263E+03 0.  0.
          5    1    4    4  502    0  0.23641599947E+01  0.74587823566E+02  0.62539423506E+02  0.97479239683E+02  0.47000000000E+01 0. -1.
         -5    1    4    4    0  502  0.24067116177E+02 -0.33474016310E+02  0.13585254236E+03  0.14204836892E+03  0.47000000000E+01 0. -1.
          5    1    3    3  503    0 -0.48062000096E+02 -0.63252970190E+02  0.37636009258E+03  0.38468156101E+03  0.47000000000E+01 0. -1.
         -5    1    3    3    0  503  0.21630723925E+02  0.22139162935E+02  0.60562245143E+03  0.60643109619E+03  0.47000000000E+01 0. -1.
<mgrwt>
<rscale>  0 0.13421797E+03</rscale>
<asrwt>0</asrwt>
<pdfrwt beam="2">  1        5 0.38665971E-02 0.13421841E+03</pdfrwt>
<pdfrwt beam="1">  1       -5 0.18546265E+00 0.13421841E+03</pdfrwt>
<totfact> 0.43870331E+01</totfact>
</mgrwt>
</event>
<event>
 8    1  0.1821556E-007  0.1799860E+03  0.7546771E-02  0.1167822E+00
          5   -1    0    0  501    0  0.00000000000E+00  0.00000000000E+00  0.23804564804E+03  0.23809204218E+03  0.47000000000E+01 0. -1.
         -5   -1    0    0    0  501 -0.00000000000E+00 -0.00000000000E+00 -0.14293779811E+03  0.14301504861E+03  0.47000000000E+01 0. -1.
         25    2    1    2    0    0 -0.29614916253E+01 -0.12946641250E+03  0.55009295576E+01  0.18004899081E+03  0.12496822183E+03 0.  0.
         25    2    1    2    0    0  0.29614916253E+01  0.12946641250E+03  0.89606920373E+02  0.20105809998E+03  0.12499854795E+03 0.  0.
          5    1    4    4  502    0  0.19521907579E+02  0.13913047379E+03  0.10546449459E+03  0.17573628889E+03  0.47000000000E+01 0.  1.
         -5    1    4    4    0  502 -0.16560415954E+02 -0.96640612832E+01 -0.15857574220E+02  0.25321811096E+02  0.47000000000E+01 0.  1.
          5    1    3    3  503    0  0.34652728460E+02 -0.61529443135E+02 -0.48103247468E+02  0.85572754888E+02  0.47000000000E+01 0.  1.
         -5    1    3    3    0  503 -0.37614220086E+02 -0.67936969369E+02  0.53604177025E+02  0.94476235924E+02  0.47000000000E+01 0.  1.
<mgrwt>
<rscale>  0 0.17998073E+03</rscale>
<asrwt>0</asrwt>
<pdfrwt beam="1">  1        5 0.36631918E-01 0.17998600E+03</pdfrwt>
<pdfrwt beam="2">  1       -5 0.21999942E-01 0.17998600E+03</pdfrwt>
<totfact> 0.10974574E+02</totfact>
</mgrwt>
</event>
<event>
 8    1  0.1821556E-007  0.1306434E+03  0.7546771E-02  0.1226509E+00
          5   -1    0    0  501    0  0.00000000000E+00  0.00000000000E+00  0.52407579077E+02  0.52617908973E+02  0.47000000000E+01 0.  1.
         -5   -1    0    0    0  501 -0.00000000000E+00 -0.00000000000E+00 -0.32671895062E+03  0.32675275468E+03  0.47000000000E+01 0.  1.
         25    2    1    2    0    0  0.35912031412E+02  0.12276874604E+02 -0.15182227864E+03  0.20028611784E+03  0.12499651619E+03 0.  0.
         25    2    1    2    0    0 -0.35912031412E+02 -0.12276874604E+02 -0.12248909290E+03  0.17908454581E+03  0.12500920374E+03 0.  0.
          5    1    4    4  502    0 -0.65213737253E+02 -0.11333708029E+02 -0.15625387933E+02  0.68172774714E+02  0.47000000000E+01 0.  1.
         -5    1    4    4    0  502  0.29301705841E+02 -0.94316657539E+00 -0.10686370497E+03  0.11091177110E+03  0.47000000000E+01 0.  1.
          5    1    3    3  503    0  0.77900365428E+02 -0.89338066851E+01 -0.67292692448E+02  0.10343440575E+03  0.47000000000E+01 0.  1.
         -5    1    3    3    0  503 -0.41988334016E+02  0.21210681289E+02 -0.84529586190E+02  0.96851712095E+02  0.47000000000E+01 0.  1.
<mgrwt>
<rscale>  0 0.13064036E+03</rscale>
<asrwt>0</asrwt>
<pdfrwt beam="1">  1        5 0.80814842E-02 0.13064340E+03</pdfrwt>
<pdfrwt beam="2">  1       -5 0.50283233E-01 0.13064340E+03</pdfrwt>
<totfact> 0.31057797E+02</totfact>
</mgrwt>
</event>
<event>
 8    1  0.1821556E-007  0.1329199E+03  0.7546771E-02  0.1223187E+00
          5   -1    0    0  501    0  0.00000000000E+00  0.00000000000E+00  0.10336903238E+03  0.10347582740E+03  0.47000000000E+01 0.  1.
         -5   -1    0    0    0  501 -0.00000000000E+00 -0.00000000000E+00 -0.18287948338E+03  0.18293986837E+03  0.47000000000E+01 0.  1.
         25    2    1    2    0    0 -0.39805942855E+02 -0.21417729843E+02 -0.76710095742E+02  0.15346705518E+03  0.12499786398E+03 0.  0.
         25    2    1    2    0    0  0.39805942855E+02  0.21417729843E+02 -0.28003552516E+01  0.13294864059E+03  0.12499706719E+03 0.  0.
          5    1    3    3  502    0 -0.43092004292E+02 -0.49488795843E+02  0.58776819019E+01  0.66050729689E+02  0.47000000000E+01 0.  1.
         -5    1    3    3    0  502  0.32860614371E+01  0.28071066000E+02 -0.82587777644E+02  0.87416325491E+02  0.47000000000E+01 0.  1.
          5    1    4    4  503    0 -0.31914412959E+02  0.36070181619E+02 -0.27364712620E+02  0.55592312898E+02  0.47000000000E+01 0.  1.
         -5    1    4    4    0  503  0.71720355814E+02 -0.14652451776E+02  0.24564357368E+02  0.77356327693E+02  0.47000000000E+01 0.  1.
<mgrwt>
<rscale>  0 0.13291971E+03</rscale>
<asrwt>0</asrwt>
<pdfrwt beam="1">  1        5 0.15915788E-01 0.13291989E+03</pdfrwt>
<pdfrwt beam="2">  1       -5 0.28148165E-01 0.13291989E+03</pdfrwt>
<totfact> 0.30650121E+02</totfact>
</mgrwt>
</event>
<event>
 8    1  0.1821556E-007  0.1424810E+03  0.7546771E-02  0.1210037E+00
          5   -1    0    0  501    0  0.00000000000E+00  0.00000000000E+00  0.38360852785E+03  0.38363731914E+03  0.47000000000E+01 0. -1.
         -5   -1    0    0    0  501 -0.00000000000E+00 -0.00000000000E+00 -0.52954050323E+02  0.53162218215E+02  0.47000000000E+01 0. -1.
         25    2    1    2    0    0 -0.53074231058E+02 -0.43102027516E+02  0.15271233377E+03  0.20884284212E+03  0.12497846630E+03 0.  0.
         25    2    1    2    0    0  0.53074231058E+02  0.43102027516E+02  0.17794214375E+03  0.22795669524E+03  0.12500475832E+03 0.  0.
          5    1    4    4  502    0  0.30209778105E+02 -0.13132300536E+02 -0.63432561520E+01  0.33873513386E+02  0.47000000000E+01 0. -1.
         -5    1    4    4    0  502  0.22864452953E+02  0.56234328051E+02  0.18428539990E+03  0.19408318185E+03  0.47000000000E+01 0. -1.
          5    1    3    3  503    0 -0.28540193296E+02 -0.27520086053E+02  0.17005110987E+03  0.17467503468E+03  0.47000000000E+01 0.  1.
         -5    1    3    3    0  503 -0.24534037762E+02 -0.15581941463E+02 -0.17338776101E+02  0.34167807441E+02  0.47000000000E+01 0.  1.
<mgrwt>
<rscale>  0 0.14247528E+03</rscale>
<asrwt>0</asrwt>
<pdfrwt beam="1">  1        5 0.59034926E-01 0.14248105E+03</pdfrwt>
<pdfrwt beam="2">  1       -5 0.81650043E-02 0.14248105E+03</pdfrwt>
<totfact> 0.22260229E+02</totfact>
</mgrwt>
</event>
<event>
 8    1  0.1821556E-007  0.1324907E+03  0.7546771E-02  0.1223810E+00
         -5   -1    0    0    0  501 -0.00000000000E+00  0.00000000000E+00  0.91444757980E+03  0.91445965805E+03  0.47000000000E+01 0. -1.
          5   -1    0    0  501    0  0.00000000000E+00 -0.00000000000E+00 -0.26155627208E+02  0.26574552388E+02  0.47000000000E+01 0. -1.
         25    2    1    2    0    0  0.10478913284E+02  0.42640177627E+02  0.68968838694E+03  0.70229897669E+03  0.12500315681E+03 0.  0.
         25    2    1    2    0    0 -0.10478913284E+02 -0.42640177627E+02  0.19860356566E+03  0.23873523375E+03  0.12499257246E+03 0.  0.
          5    1    4    4  502    0  0.39128702708E+02 -0.20997226191E+02  0.14756969059E+02  0.47029746110E+02  0.47000000000E+01 0.  1.
         -5    1    4    4    0  502 -0.49607615992E+02 -0.21642951436E+02  0.18384659660E+03  0.19170548764E+03  0.47000000000E+01 0.  1.
          5    1    3    3  503    0 -0.11680086960E+02  0.67760221111E+02  0.20189756911E+03  0.21333680041E+03  0.47000000000E+01 0.  1.
         -5    1    3    3    0  503  0.22159000243E+02 -0.25120043484E+02  0.48779081783E+03  0.48896217628E+03  0.47000000000E+01 0.  1.
<mgrwt>
<rscale>  0 0.13248819E+03</rscale>
<asrwt>0</asrwt>
<pdfrwt beam="2">  1        5 0.40570973E-02 0.13249068E+03</pdfrwt>
<pdfrwt beam="1">  1       -5 0.14071738E+00 0.13249068E+03</pdfrwt>
<totfact> 0.87811459E+01</totfact>
</mgrwt>
</event>
<event>
 8    1  0.1821556E-007  0.1336078E+03  0.7546771E-02  0.1222199E+00
          5   -1    0    0  501    0  0.00000000000E+00  0.00000000000E+00  0.81736951207E+03  0.81738302482E+03  0.47000000000E+01 0. -1.
         -5   -1    0    0    0  501 -0.00000000000E+00 -0.00000000000E+00 -0.21650312504E+02  0.22154593915E+02  0.47000000000E+01 0. -1.
         25    2    1    2    0    0  0.39308568967E+02  0.26090553738E+02  0.42268330378E+03  0.44329699847E+03  0.12500069188E+03 0.  0.
         25    2    1    2    0    0 -0.39308568967E+02 -0.26090553738E+02  0.37303589578E+03  0.39624062026E+03  0.12499987605E+03 0.  0.
          5    1    4    4  502    0 -0.67195224542E+02 -0.39941848556E+02  0.13451481183E+03  0.15564984442E+03  0.47000000000E+01 0. -1.
         -5    1    4    4    0  502  0.27886655575E+02  0.13851294818E+02  0.23852108395E+03  0.24059077584E+03  0.47000000000E+01 0. -1.
          5    1    3    3  503    0  0.83956505152E+02  0.92572575763E+01  0.24199125862E+03  0.25635181065E+03  0.47000000000E+01 0. -1.
         -5    1    3    3    0  503 -0.44647936184E+02  0.16833296162E+02  0.18069204517E+03  0.18694518783E+03  0.47000000000E+01 0. -1.
<mgrwt>
<rscale>  0 0.13360764E+03</rscale>
<asrwt>0</asrwt>
<pdfrwt beam="1">  1        5 0.12578898E+00 0.13360783E+03</pdfrwt>
<pdfrwt beam="2">  1       -5 0.33706478E-02 0.13360783E+03</pdfrwt>
<totfact> 0.15981882E+02</totfact>
</mgrwt>
</event>
<event>
 8    1  0.1821556E-007  0.1337463E+03  0.7546771E-02  0.1222003E+00
          5   -1    0    0  501    0  0.00000000000E+00  0.00000000000E+00  0.21314214085E+03  0.21319395444E+03  0.47000000000E+01 0. -1.
         -5   -1    0    0    0  501 -0.00000000000E+00 -0.00000000000E+00 -0.15993572367E+03  0.16000476776E+03  0.47000000000E+01 0. -1.
         25    2    1    2    0    0 -0.35826843000E+02  0.31270843137E+02 -0.10208633310E+03  0.16825484214E+03  0.12500657657E+03 0.  0.
         25    2    1    2    0    0  0.35826843000E+02 -0.31270843137E+02  0.15529275029E+03  0.20494388006E+03  0.12499890949E+03 0.  0.
          5    1    4    4  502    0  0.35754537486E+01 -0.77189622018E+02  0.91378019697E+02  0.11976249037E+03  0.47000000000E+01 0. -1.
         -5    1    4    4    0  502  0.32251389251E+02  0.45918778881E+02  0.63914730588E+02  0.85181389686E+02  0.47000000000E+01 0. -1.
          5    1    3    3  503    0  0.28219755475E+02  0.63128722803E+01 -0.94503768162E+02  0.98940685020E+02  0.47000000000E+01 0. -1.
         -5    1    3    3    0  503 -0.64046598475E+02  0.24957970857E+02 -0.75825649403E+01  0.69314157115E+02  0.47000000000E+01 0. -1.
<mgrwt>
<rscale>  0 0.13374451E+03</rscale>
<asrwt>0</asrwt>
<pdfrwt beam="1">  1        5 0.32800395E-01 0.13374630E+03</pdfrwt>
<pdfrwt beam="2">  1       -5 0.24614793E-01 0.13374630E+03</pdfrwt>
<totfact> 0.10089776E+02</totfact>
</mgrwt>
</event>
<event>
 8    1  0.1821556E-007  0.1317596E+03  0.7546771E-02  0.1224877E+00
          5   -1    0    0  501    0  0.00000000000E+00  0.00000000000E+00  0.34669742364E+02  0.34986869474E+02  0.47000000000E+01 0. -1.
         -5   -1    0    0    0  501 -0.00000000000E+00 -0.00000000000E+00 -0.49807976520E+03  0.49810193987E+03  0.47000000000E+01 0. -1.
         25    2    1    2    0    0 -0.41489328017E+02 -0.35020653009E+01 -0.23413760690E+03  0.26865276590E+03  0.12498104200E+03 0.  0.
         25    2    1    2    0    0  0.41489328017E+02  0.35020653009E+01 -0.22927241594E+03  0.26443604345E+03  0.12500780601E+03 0.  0.
          5    1    4    4  502    0  0.79348393021E+02 -0.16809420862E+02 -0.18742472283E+03  0.20427638344E+03  0.47000000000E+01 0. -1.
         -5    1    4    4    0  502 -0.37859065004E+02  0.20311486163E+02 -0.41847693109E+02  0.60159660003E+02  0.47000000000E+01 0. -1.
          5    1    3    3  503    0  0.24742347955E+02  0.43071226086E+01 -0.18222792617E+03  0.18401044037E+03  0.47000000000E+01 0. -1.
         -5    1    3    3    0  503 -0.66231675972E+02 -0.78091879096E+01 -0.51909680724E+02  0.84642325527E+02  0.47000000000E+01 0. -1.
<mgrwt>
<rscale>  0 0.13175321E+03</rscale>
<asrwt>0</asrwt>
<pdfrwt beam="1">  1        5 0.53599070E-02 0.13175956E+03</pdfrwt>
<pdfrwt beam="2">  1       -5 0.76653751E-01 0.13175956E+03</pdfrwt>
<totfact> 0.24643772E+02</totfact>
</mgrwt>
</event>
<event>
 8    1  0.1821556E-007  0.1731876E+03  0.7546771E-02  0.1174573E+00
          5   -1    0    0  501    0  0.00000000000E+00  0.00000000000E+00  0.58808518619E+02  0.58996032597E+02  0.47000000000E+01 0. -1.
         -5   -1    0    0    0  501 -0.00000000000E+00 -0.00000000000E+00 -0.69547588366E+03  0.69549176469E+03  0.47000000000E+01 0. -1.
         25    2    1    2    0    0  0.65338304835E+02  0.10049973022E+03 -0.51366739516E+03  0.54206616124E+03  0.12494895142E+03 0.  0.
         25    2    1    2    0    0 -0.65338304835E+02 -0.10049973022E+03 -0.12299996988E+03  0.21242163604E+03  0.12499867605E+03 0.  0.
          5    1    4    4  502    0  0.13800816793E+02 -0.74495381429E+02 -0.10061271445E+03  0.12603583898E+03  0.47000000000E+01 0. -1.
         -5    1    4    4    0  502 -0.79139121628E+02 -0.26004348794E+02 -0.22387255426E+02  0.86385797061E+02  0.47000000000E+01 0. -1.
          5    1    3    3  503    0  0.81632056866E+01  0.46332190118E+01  0.49114350265E+01  0.11589514205E+02  0.47000000000E+01 0.  1.
         -5    1    3    3    0  503  0.57175099148E+02  0.95866511211E+02 -0.51857883019E+03  0.53047664704E+03  0.47000000000E+01 0.  1.
<mgrwt>
<rscale>  0 0.17317867E+03</rscale>
<asrwt>0</asrwt>
<pdfrwt beam="1">  1        5 0.90631106E-02 0.17318764E+03</pdfrwt>
<pdfrwt beam="2">  1       -5 0.10701193E+00 0.17318764E+03</pdfrwt>
<totfact> 0.49540887E+01</totfact>
</mgrwt>
</event>
<event>
 8    1  0.1821556E-007  0.1546671E+03  0.7546771E-02  0.1194853E+00
          5   -1    0    0  501    0  0.00000000000E+00  0.00000000000E+00  0.46905314996E+02  0.47140201260E+02  0.47000000000E+01 0.  1.
         -5   -1    0    0    0  501 -0.00000000000E+00 -0.00000000000E+00 -0.52678490276E+03  0.52680586916E+03  0.47000000000E+01 0.  1.
         25    2    1    2    0    0 -0.60672068663E+02 -0.67933321065E+02 -0.29341505006E+03  0.33168397671E+03  0.12500333105E+03 0.  0.
         25    2    1    2    0    0  0.60672068663E+02  0.67933321065E+02 -0.18646453771E+03  0.24226209371E+03  0.12500344876E+03 0.  0.
          5    1    4    4  502    0 -0.25738985539E+02 -0.14703557265E+02 -0.65829628293E+02  0.72348600083E+02  0.47000000000E+01 0. -1.
         -5    1    4    4    0  502  0.86411054202E+02  0.82636878330E+02 -0.12063490941E+03  0.16991349363E+03  0.47000000000E+01 0. -1.
          5    1    3    3  503    0 -0.46430461912E+02  0.29839925258E+02 -0.94697044170E+02  0.10970792636E+03  0.47000000000E+01 0. -1.
         -5    1    3    3    0  503 -0.14241606751E+02 -0.97773246322E+02 -0.19871800589E+03  0.22197605034E+03  0.47000000000E+01 0. -1.
<mgrwt>
<rscale>  0 0.15466703E+03</rscale>
<asrwt>0</asrwt>
<pdfrwt beam="1">  1        5 0.72358837E-02 0.15466706E+03</pdfrwt>
<pdfrwt beam="2">  1       -5 0.81063508E-01 0.15466706E+03</pdfrwt>
<totfact> 0.13765365E+02</totfact>
</mgrwt>
</event>
<event>
 8    1  0.1821556E-007  0.1354035E+03  0.7546771E-02  0.1219652E+00
         -5   -1    0    0    0  501 -0.00000000000E+00  0.00000000000E+00  0.15805636001E+03  0.15812622471E+03  0.47000000000E+01 0.  1.
          5   -1    0    0  501    0  0.00000000000E+00 -0.00000000000E+00 -0.12744865125E+03  0.12753528416E+03  0.47000000000E+01 0.  1.
         25    2    1    2    0    0 -0.23097297097E+01 -0.51995262719E+02  0.58358760403E+02  0.14744436904E+03  0.12500101939E+03 0.  0.
         25    2    1    2    0    0  0.23097297097E+01  0.51995262719E+02 -0.27751051636E+02  0.13821713983E+03  0.12500005871E+03 0.  0.
          5    1    4    4  502    0 -0.37767096805E+02  0.46437724781E+02  0.30337892706E+02  0.67270302644E+02  0.47000000000E+01 0. -1.
         -5    1    4    4    0  502  0.40076826515E+02  0.55575379385E+01 -0.58088944342E+02  0.70946837182E+02  0.47000000000E+01 0. -1.
          5    1    3    3  503    0 -0.15758134893E+02 -0.90191604552E+02  0.54113162000E+02  0.10645735601E+03  0.47000000000E+01 0. -1.
         -5    1    3    3    0  503  0.13448405183E+02  0.38196341833E+02  0.42455984035E+01  0.40987013030E+02  0.47000000000E+01 0. -1.
<mgrwt>
<rscale>  0 0.13540324E+03</rscale>
<asrwt>0</asrwt>
<pdfrwt beam="2">  1        5 0.19619523E-01 0.13540346E+03</pdfrwt>
<pdfrwt beam="1">  1       -5 0.24328401E-01 0.13540346E+03</pdfrwt>
<totfact> 0.27797322E+02</totfact>
</mgrwt>
</event>
<event>
 8    1  0.1821556E-007  0.1267772E+03  0.7546771E-02  0.1232319E+00
         -5   -1    0    0    0  501 -0.00000000000E+00  0.00000000000E+00  0.63052896434E+03  0.63054648114E+03  0.47000000000E+01 0.  1.
          5   -1    0    0  501    0  0.00000000000E+00 -0.00000000000E+00 -0.27175343156E+02  0.27578783071E+02  0.47000000000E+01 0.  1.
         25    2    1    2    0    0  0.14955547952E+02  0.14955145920E+02  0.38845370839E+03  0.40861807338E+03  0.12500048608E+03 0.  0.
         25    2    1    2    0    0 -0.14955547952E+02 -0.14955145920E+02  0.21489991279E+03  0.24950719083E+03  0.12499816381E+03 0.  0.
          5    1    3    3  502    0  0.63509107346E+02  0.28981705901E+02  0.16059804289E+03  0.17517753102E+03  0.47000000000E+01 0. -1.
         -5    1    3    3    0  502 -0.48553559394E+02 -0.14026559980E+02  0.22785566550E+03  0.23344054236E+03  0.47000000000E+01 0. -1.
          5    1    4    4  503    0 -0.49739390494E+02  0.38273068006E+02  0.10233007845E+03  0.12013479786E+03  0.47000000000E+01 0. -1.
         -5    1    4    4    0  503  0.34783842542E+02 -0.53228213927E+02  0.11256983434E+03  0.12937239297E+03  0.47000000000E+01 0. -1.
<mgrwt>
<rscale>  0 0.12677658E+03</rscale>
<asrwt>0</asrwt>
<pdfrwt beam="2">  1        5 0.42132034E-02 0.12677715E+03</pdfrwt>
<pdfrwt beam="1">  1       -5 0.97036835E-01 0.12677715E+03</pdfrwt>
<totfact> 0.20811676E+02</totfact>
</mgrwt>
</event>
<event>
 8    1  0.1821556E-007  0.1411433E+03  0.7546771E-02  0.1211807E+00
         -5   -1    0    0    0  501 -0.00000000000E+00  0.00000000000E+00  0.25894996229E+03  0.25899261181E+03  0.47000000000E+01 0.  1.
          5   -1    0    0  501    0  0.00000000000E+00 -0.00000000000E+00 -0.10504937535E+03  0.10515446382E+03  0.47000000000E+01 0.  1.
         25    2    1    2    0    0 -0.59746811239E+02  0.26812708749E+02  0.17130157487E+03  0.22195870131E+03  0.12503132700E+03 0.  0.
         25    2    1    2    0    0  0.59746811239E+02 -0.26812708749E+02 -0.17400987925E+02  0.14218837431E+03  0.12500454634E+03 0.  0.
          5    1    3    3  502    0 -0.76091672654E+02 -0.97814102928E+01  0.44330287463E+02  0.88729268120E+02  0.47000000000E+01 0. -1.
         -5    1    3    3    0  502  0.16344861416E+02  0.36594119042E+02  0.12697128741E+03  0.13322943319E+03  0.47000000000E+01 0. -1.
          5    1    4    4  503    0  0.15349259601E+02 -0.59600272342E+02 -0.48648154196E+02  0.78590871863E+02  0.47000000000E+01 0.  1.
         -5    1    4    4    0  503  0.44397551638E+02  0.32787563593E+02  0.31247166271E+02  0.63597502449E+02  0.47000000000E+01 0.  1.
<mgrwt>
<rscale>  0 0.14113738E+03</rscale>
<asrwt>0</asrwt>
<pdfrwt beam="2">  1        5 0.16172807E-01 0.14114332E+03</pdfrwt>
<pdfrwt beam="1">  1       -5 0.39849820E-01 0.14114332E+03</pdfrwt>
<totfact> 0.15193292E+02</totfact>
</mgrwt>
</event>
<event>
 8    1  0.1821556E-007  0.1644537E+03  0.7546771E-02  0.1183759E+00
         -5   -1    0    0    0  501 -0.00000000000E+00  0.00000000000E+00  0.96004805517E+03  0.96005955973E+03  0.47000000000E+01 0. -1.
          5   -1    0    0  501    0  0.00000000000E+00 -0.00000000000E+00 -0.29329016562E+02  0.29703218891E+02  0.47000000000E+01 0. -1.
         25    2    1    2    0    0  0.33770515340E+02  0.10138935246E+03  0.57148256473E+03  0.59467307398E+03  0.12499397834E+03 0.  0.
         25    2    1    2    0    0 -0.33770515340E+02 -0.10138935246E+03  0.35923647387E+03  0.39508970464E+03  0.12499912822E+03 0.  0.
          5    1    3    3  502    0 -0.40061889763E+02  0.27924116267E+02  0.29759981908E+03  0.30161640141E+03  0.47000000000E+01 0. -1.
         -5    1    3    3    0  502  0.73832405104E+02  0.73465236195E+02  0.27388274565E+03  0.29305667257E+03  0.47000000000E+01 0. -1.
          5    1    4    4  503    0  0.25681623757E+02 -0.23437983099E+02  0.16865681119E+02  0.38928473514E+02  0.47000000000E+01 0. -1.
         -5    1    4    4    0  503 -0.59452139098E+02 -0.77951369364E+02  0.34237079275E+03  0.35616123113E+03  0.47000000000E+01 0. -1.
<mgrwt>
<rscale>  0 0.16445276E+03</rscale>
<asrwt>0</asrwt>
<pdfrwt beam="2">  1        5 0.45418271E-02 0.16445373E+03</pdfrwt>
<pdfrwt beam="1">  1       -5 0.14772934E+00 0.16445373E+03</pdfrwt>
<totfact> 0.68188881E+01</totfact>
</mgrwt>
</event>
<event>
 8    1  0.1821556E-007  0.1599267E+03  0.7546771E-02  0.1188783E+00
         -5   -1    0    0    0  501 -0.00000000000E+00  0.00000000000E+00  0.14254099410E+03  0.14261845954E+03  0.47000000000E+01 0.  1.
          5   -1    0    0  501    0  0.00000000000E+00 -0.00000000000E+00 -0.18856204832E+03  0.18862061411E+03  0.47000000000E+01 0.  1.
         25    2    1    2    0    0 -0.14463724776E+02  0.98694370315E+02  0.13758093085E+02  0.16050508438E+03  0.12499127538E+03 0.  0.
         25    2    1    2    0    0  0.14463724776E+02 -0.98694370315E+02 -0.59779147300E+02  0.17073398926E+03  0.12500708208E+03 0.  0.
          5    1    3    3  502    0 -0.11761142210E+02  0.83709356461E+02 -0.47590083198E+02  0.97120990749E+02  0.47000000000E+01 0.  1.
         -5    1    3    3    0  502 -0.27025825656E+01  0.14985013853E+02  0.61348176283E+02  0.63384093635E+02  0.47000000000E+01 0.  1.
          5    1    4    4  503    0 -0.61644345345E+01 -0.10502771140E+03  0.17850742914E+01  0.10532851895E+03  0.47000000000E+01 0. -1.
         -5    1    4    4    0  503  0.20628159310E+02  0.63333410840E+01 -0.61564221592E+02  0.65405470306E+02  0.47000000000E+01 0. -1.
<mgrwt>
<rscale>  0 0.15992361E+03</rscale>
<asrwt>0</asrwt>
<pdfrwt beam="2">  1        5 0.29020010E-01 0.15992670E+03</pdfrwt>
<pdfrwt beam="1">  1       -5 0.21939848E-01 0.15992670E+03</pdfrwt>
<totfact> 0.16938110E+02</totfact>
</mgrwt>
</event>
<event>
 8    1  0.1821556E-007  0.1457241E+03  0.7546771E-02  0.1205829E+00
          5   -1    0    0  501    0  0.00000000000E+00  0.00000000000E+00  0.56274511769E+03  0.56276474435E+03  0.47000000000E+01 0.  1.
         -5   -1    0    0    0  501 -0.00000000000E+00 -0.00000000000E+00 -0.49650104734E+02  0.49872065328E+02  0.47000000000E+01 0.  1.
         25    2    1    2    0    0 -0.39909159931E+02  0.63376633175E+02  0.10586042515E+03  0.18011452125E+03  0.12500188988E+03 0.  0.
         25    2    1    2    0    0  0.39909159931E+02 -0.63376633175E+02  0.40723458781E+03  0.43252228843E+03  0.12500472712E+03 0.  0.
          5    1    4    4  502    0 -0.44925502519E+01 -0.52154209955E+02  0.50695386523E+02  0.73022988425E+02  0.47000000000E+01 0.  1.
         -5    1    4    4    0  502  0.44401710182E+02 -0.11222423220E+02  0.35653920128E+03  0.35949930000E+03  0.47000000000E+01 0.  1.
          5    1    3    3  503    0 -0.36438320625E+02  0.39922254422E+02 -0.15455844207E+02  0.56413745915E+02  0.47000000000E+01 0.  1.
         -5    1    3    3    0  503 -0.34708393058E+01  0.23454378754E+02  0.12131626936E+03  0.12370077534E+03  0.47000000000E+01 0.  1.
<mgrwt>
<rscale>  0 0.14572352E+03</rscale>
<asrwt>0</asrwt>
<pdfrwt beam="1">  1        5 0.86594757E-01 0.14572412E+03</pdfrwt>
<pdfrwt beam="2">  1       -5 0.76570611E-02 0.14572412E+03</pdfrwt>
<totfact> 0.10508438E+02</totfact>
</mgrwt>
</event>
<event>
 8    1  0.1821556E-007  0.1362146E+03  0.7546771E-02  0.1218519E+00
         -5   -1    0    0    0  501 -0.00000000000E+00  0.00000000000E+00  0.21036338693E+04  0.21036391197E+04  0.47000000000E+01 0.  1.
          5   -1    0    0  501    0  0.00000000000E+00 -0.00000000000E+00 -0.84656546179E+01  0.96828357473E+01  0.47000000000E+01 0.  1.
         25    2    1    2    0    0  0.35641910546E+02 -0.40729359803E+02  0.12264331638E+04  0.12339743626E+04  0.12500078319E+03 0.  0.
         25    2    1    2    0    0 -0.35641910546E+02  0.40729359803E+02  0.86873505084E+03  0.87934759281E+03  0.12498949515E+03 0.  0.
          5    1    4    4  502    0  0.20566387792E+02  0.46337156136E+02  0.15048748501E+03  0.15886686719E+03  0.47000000000E+01 0.  1.
         -5    1    4    4    0  502 -0.56208298338E+02 -0.56077963329E+01  0.71824756582E+03  0.72048072562E+03  0.47000000000E+01 0.  1.
          5    1    3    3  503    0  0.50997640703E+02 -0.77931980749E+02  0.95355816935E+03  0.95810720972E+03  0.47000000000E+01 0. -1.
         -5    1    3    3    0  503 -0.15355730157E+02  0.37202620946E+02  0.27287499445E+03  0.27586715290E+03  0.47000000000E+01 0. -1.
<mgrwt>
<rscale>  0 0.13621203E+03</rscale>
<asrwt>0</asrwt>
<pdfrwt beam="2">  1        5 0.13964399E-02 0.13621462E+03</pdfrwt>
<pdfrwt beam="1">  1       -5 0.32373041E+00 0.13621462E+03</pdfrwt>
<totfact> 0.28829533E+01</totfact>
</mgrwt>
</event>
<event>
 8    1  0.1821556E-007  0.1337190E+03  0.7546771E-02  0.1222049E+00
         -5   -1    0    0    0  501 -0.00000000000E+00  0.00000000000E+00  0.94591251920E+02  0.94707945495E+02  0.47000000000E+01 0. -1.
          5   -1    0    0  501    0  0.00000000000E+00 -0.00000000000E+00 -0.19035809032E+03  0.19041610370E+03  0.47000000000E+01 0. -1.
         25    2    1    2    0    0 -0.26990690201E+02 -0.38981817227E+02 -0.61061928795E+02  0.14700111596E+03  0.12503075427E+03 0.  0.
         25    2    1    2    0    0  0.26990690201E+02  0.38981817227E+02 -0.34704909605E+02  0.13812293324E+03  0.12500173801E+03 0.  0.
          5    1    4    4  502    0 -0.24513798084E+02  0.40505294633E+02 -0.63158837334E+02  0.79074230462E+02  0.47000000000E+01 0. -1.
         -5    1    4    4    0  502  0.51504488285E+02 -0.15234774059E+01  0.28453927729E+02  0.59048702781E+02  0.47000000000E+01 0. -1.
          5    1    3    3  503    0 -0.74014611173E+02 -0.24337401596E+02 -0.58345603050E+02  0.97451378537E+02  0.47000000000E+01 0.  1.
         -5    1    3    3    0  503  0.47023920972E+02 -0.14644415631E+02 -0.27163257447E+01  0.49549737420E+02  0.47000000000E+01 0.  1.
<mgrwt>
<rscale>  0 0.13371221E+03</rscale>
<asrwt>0</asrwt>
<pdfrwt beam="2">  1        5 0.29299299E-01 0.13371899E+03</pdfrwt>
<pdfrwt beam="1">  1       -5 0.14565939E-01 0.13371899E+03</pdfrwt>
<totfact> 0.33352766E+02</totfact>
</mgrwt>
</event>
<event>
 8    1  0.1821556E-007  0.1314894E+03  0.7546771E-02  0.1225280E+00
          5   -1    0    0  501    0  0.00000000000E+00  0.00000000000E+00  0.12251986077E+04  0.12252076225E+04  0.47000000000E+01 0.  1.
         -5   -1    0    0    0  501 -0.00000000000E+00 -0.00000000000E+00 -0.14120435622E+02  0.14882093339E+02  0.47000000000E+01 0.  1.
         25    2    1    2    0    0  0.49234128754E+01 -0.40478666837E+02  0.50217910557E+03  0.51910819527E+03  0.12500680727E+03 0.  0.
         25    2    1    2    0    0 -0.49234128754E+01  0.40478666837E+02  0.70889906651E+03  0.72098152060E+03  0.12495480819E+03 0.  0.
          5    1    3    3  502    0  0.55978479966E+02  0.12688729464E+02  0.22618039347E+03  0.23339720321E+03  0.47000000000E+01 0.  1.
         -5    1    3    3    0  502 -0.51055067090E+02 -0.53167396300E+02  0.27599871210E+03  0.28571099207E+03  0.47000000000E+01 0.  1.
          5    1    4    4  503    0  0.99206878273E-01 -0.26409189479E+02  0.51604096218E+03  0.51673767017E+03  0.47000000000E+01 0. -1.
         -5    1    4    4    0  503 -0.50226197537E+01  0.66887856316E+02  0.19285810433E+03  0.20424385043E+03  0.47000000000E+01 0. -1.
<mgrwt>
<rscale>  0 0.13147705E+03</rscale>
<asrwt>0</asrwt>
<pdfrwt beam="1">  1        5 0.18855137E+00 0.13148941E+03</pdfrwt>
<pdfrwt beam="2">  1       -5 0.22316573E-02 0.13148941E+03</pdfrwt>
<totfact> 0.10068448E+02</totfact>
</mgrwt>
</event>
<event>
 8    1  0.1821556E-007  0.1268543E+03  0.7546771E-02  0.1232202E+00
          5   -1    0    0  501    0  0.00000000000E+00  0.00000000000E+00  0.76046062923E+02  0.76191165407E+02  0.47000000000E+01 0. -1.
         -5   -1    0    0    0  501 -0.00000000000E+00 -0.00000000000E+00 -0.21917023438E+03  0.21922062321E+03  0.47000000000E+01 0. -1.
         25    2    1    2    0    0 -0.74448141611E+01  0.20258341592E+02 -0.99674031206E+02  0.16132861488E+03  0.12500473519E+03 0.  0.
         25    2    1    2    0    0  0.74448141611E+01 -0.20258341592E+02 -0.43450140255E+02  0.13408317374E+03  0.12499822851E+03 0.  0.
          5    1    3    3  502    0  0.46384278123E+02 -0.20339619194E+02 -0.72321253428E+02  0.88417504281E+02  0.47000000000E+01 0.  1.
         -5    1    3    3    0  502 -0.53829092284E+02  0.40597960786E+02 -0.27352777779E+02  0.72911110596E+02  0.47000000000E+01 0.  1.
          5    1    4    4  503    0  0.10020326520E+02 -0.66264388171E+02 -0.54450889554E+02  0.86477543076E+02  0.47000000000E+01 0.  1.
         -5    1    4    4    0  503 -0.25755123588E+01  0.46006046579E+02  0.11000749299E+02  0.47605630663E+02  0.47000000000E+01 0.  1.
<mgrwt>
<rscale>  0 0.12685268E+03</rscale>
<asrwt>0</asrwt>
<pdfrwt beam="1">  1        5 0.11714432E-01 0.12685428E+03</pdfrwt>
<pdfrwt beam="2">  1       -5 0.33733535E-01 0.12685428E+03</pdfrwt>
<totfact> 0.36552734E+02</totfact>
</mgrwt>
</event>
<event>
 8    1  0.1821556E-007  0.1535777E+03  0.7546771E-02  0.1196149E+00
          5   -1    0    0  501    0  0.00000000000E+00  0.00000000000E+00  0.43149930651E+02  0.43405143879E+02  0.47000000000E+01 0. -1.
         -5   -1    0    0    0  501 -0.00000000000E+00 -0.00000000000E+00 -0.67715612307E+03  0.67717243373E+03  0.47000000000E+01 0. -1.
         25    2    1    2    0    0  0.49670066850E+02 -0.74125786672E+02 -0.47634085944E+03  0.50048648504E+03  0.12499743815E+03 0.  0.
         25    2    1    2    0    0 -0.49670066850E+02  0.74125786672E+02 -0.15766533298E+03  0.22009109257E+03  0.12497993446E+03 0.  0.
          5    1    3    3  502    0 -0.20192709710E+02  0.12333017107E+02 -0.21755438797E+02  0.32484426325E+02  0.47000000000E+01 0.  1.
         -5    1    3    3    0  502  0.69862776561E+02 -0.86458803779E+02 -0.45458542065E+03  0.46800205872E+03  0.47000000000E+01 0.  1.
          5    1    4    4  503    0 -0.44755805733E+02  0.10765501263E+03 -0.13766628394E+03  0.18046268208E+03  0.47000000000E+01 0. -1.
         -5    1    4    4    0  503 -0.49142611168E+01 -0.33529225957E+02 -0.19999049041E+02  0.39628410492E+02  0.47000000000E+01 0. -1.
<mgrwt>
<rscale>  0 0.15357413E+03</rscale>
<asrwt>0</asrwt>
<pdfrwt beam="1">  1        5 0.66593378E-02 0.15357769E+03</pdfrwt>
<pdfrwt beam="2">  1       -5 0.10419874E+00 0.15357769E+03</pdfrwt>
<totfact> 0.86762531E+01</totfact>
</mgrwt>
</event>
<event>
 8    1  0.1821556E-007  0.1849499E+03  0.7546771E-02  0.1163097E+00
         -5   -1    0    0    0  501 -0.00000000000E+00  0.00000000000E+00  0.13104020222E+03  0.13112446224E+03  0.47000000000E+01 0.  1.
          5   -1    0    0  501    0  0.00000000000E+00 -0.00000000000E+00 -0.26146172956E+03  0.26150396943E+03  0.47000000000E+01 0.  1.
         25    2    1    2    0    0 -0.49346113421E+00  0.13631176201E+03 -0.55697665480E+02  0.19315457300E+03  0.12500127665E+03 0.  0.
         25    2    1    2    0    0  0.49346113421E+00 -0.13631176201E+03 -0.74723861859E+02  0.19947385867E+03  0.12500009918E+03 0.  0.
          5    1    3    3  502    0 -0.15152732069E+02  0.54124159754E+02 -0.87157761896E+02  0.10381519839E+03  0.47000000000E+01 0. -1.
         -5    1    3    3    0  502  0.14659270935E+02  0.82187602257E+02  0.31460096416E+02  0.89339374610E+02  0.47000000000E+01 0. -1.
          5    1    4    4  503    0 -0.47642356924E+02 -0.12599735709E+03 -0.62285079388E+02  0.14848114116E+03  0.47000000000E+01 0.  1.
         -5    1    4    4    0  503  0.48135818058E+02 -0.10314404920E+02 -0.12438782471E+02  0.50992717503E+02  0.47000000000E+01 0.  1.
<mgrwt>
<rscale>  0 0.18494968E+03</rscale>
<asrwt>0</asrwt>
<pdfrwt beam="2">  1        5 0.40234612E-01 0.18494988E+03</pdfrwt>
<pdfrwt beam="1">  1       -5 0.20169762E-01 0.18494988E+03</pdfrwt>
<totfact> 0.10759367E+02</totfact>
</mgrwt>
</event>
<event>
 8    1  0.1821556E-007  0.1798979E+03  0.7546771E-02  0.1167902E+00
         -5   -1    0    0    0  501 -0.00000000000E+00  0.00000000000E+00  0.16760631668E+02  0.17407147208E+02  0.47000000000E+01 0. -1.
          5   -1    0    0  501    0  0.00000000000E+00 -0.00000000000E+00 -0.18970915203E+04  0.18970973424E+04  0.47000000000E+01 0. -1.
         25    2    1    2    0    0  0.95755748659E+02  0.86993574711E+02 -0.98065032253E+03  0.99701470179E+03  0.12500486013E+03 0.  0.
         25    2    1    2    0    0 -0.95755748659E+02 -0.86993574711E+02 -0.89968056612E+03  0.91748978780E+03  0.12500137689E+03 0.  0.
          5    1    3    3  502    0  0.91844169491E+02  0.64586936004E+02 -0.95801323333E+03  0.96458191410E+03  0.47000000000E+01 0.  1.
         -5    1    3    3    0  502  0.39115791683E+01  0.22406638706E+02 -0.22637089203E+02  0.32432787689E+02  0.47000000000E+01 0.  1.
          5    1    4    4  503    0 -0.12174207259E+03 -0.86062749802E+02 -0.67646541776E+03  0.69271601726E+03  0.47000000000E+01 0.  1.
         -5    1    4    4    0  503  0.25986323934E+02 -0.93082490852E+00 -0.22321514836E+03  0.22477377054E+03  0.47000000000E+01 0.  1.
<mgrwt>
<rscale>  0 0.17989731E+03</rscale>
<asrwt>0</asrwt>
<pdfrwt beam="2">  1        5 0.29191025E+00 0.17989792E+03</pdfrwt>
<pdfrwt beam="1">  1       -5 0.26287400E-02 0.17989792E+03</pdfrwt>
<totfact> 0.17947809E+01</totfact>
</mgrwt>
</event>
<event>
 8    1  0.1821556E-007  0.1448184E+03  0.7546771E-02  0.1206989E+00
         -5   -1    0    0    0  501 -0.00000000000E+00  0.00000000000E+00  0.11251233660E+03  0.11261046082E+03  0.47000000000E+01 0. -1.
          5   -1    0    0  501    0  0.00000000000E+00 -0.00000000000E+00 -0.19376051463E+03  0.19381750961E+03  0.47000000000E+01 0. -1.
         25    2    1    2    0    0  0.73121646767E+02  0.70830175259E+00 -0.10350480827E+02  0.14518636529E+03  0.12499868517E+03 0.  0.
         25    2    1    2    0    0 -0.73121646767E+02 -0.70830175259E+00 -0.70897697205E+02  0.16124160514E+03  0.12500037937E+03 0.  0.
          5    1    4    4  502    0 -0.65255083177E+02 -0.57265890456E+02 -0.49713757915E+02  0.10015565793E+03  0.47000000000E+01 0.  1.
         -5    1    4    4    0  502 -0.78665635902E+01  0.56557588704E+02 -0.21183939290E+02  0.61085947210E+02  0.47000000000E+01 0.  1.
          5    1    3    3  503    0  0.94911265236E+02 -0.28937778961E+02 -0.29256342347E+02  0.10355465652E+03  0.47000000000E+01 0.  1.
         -5    1    3    3    0  503 -0.21789618469E+02  0.29646080714E+02  0.18905861521E+02  0.41631708763E+02  0.47000000000E+01 0.  1.
<mgrwt>
<rscale>  0 0.14481804E+03</rscale>
<asrwt>0</asrwt>
<pdfrwt beam="2">  1        5 0.29821242E-01 0.14481841E+03</pdfrwt>
<pdfrwt beam="1">  1       -5 0.17321522E-01 0.14481841E+03</pdfrwt>
<totfact> 0.24147802E+02</totfact>
</mgrwt>
</event>
<event>
 8    1  0.1821556E-007  0.1397740E+03  0.7546771E-02  0.1213642E+00
          5   -1    0    0  501    0  0.00000000000E+00  0.00000000000E+00  0.11356037424E+04  0.11356134685E+04  0.47000000000E+01 0.  1.
         -5   -1    0    0    0  501 -0.00000000000E+00 -0.00000000000E+00 -0.16884241932E+02  0.17526198265E+02  0.47000000000E+01 0.  1.
         25    2    1    2    0    0 -0.62050077502E+02  0.75649006299E+01  0.54286167000E+03  0.56056718774E+03  0.12501735630E+03 0.  0.
         25    2    1    2    0    0  0.62050077502E+02 -0.75649006299E+01  0.57585783047E+03  0.59257247899E+03  0.12498984800E+03 0.  0.
          5    1    3    3  502    0 -0.60094232061E+02 -0.30670249726E+02  0.13607172879E+03  0.15195257918E+03  0.47000000000E+01 0. -1.
         -5    1    3    3    0  502 -0.19558454411E+01  0.38235150356E+02  0.40678994121E+03  0.40861460855E+03  0.47000000000E+01 0. -1.
          5    1    4    4  503    0  0.29296013684E+02 -0.58176329650E+01  0.54923506555E+03  0.55006667641E+03  0.47000000000E+01 0. -1.
         -5    1    4    4    0  503  0.32754063818E+02 -0.17472676648E+01  0.26622764927E+02  0.42505802583E+02  0.47000000000E+01 0. -1.
<mgrwt>
<rscale>  0 0.13976788E+03</rscale>
<asrwt>0</asrwt>
<pdfrwt beam="1">  1        5 0.17475838E+00 0.13977403E+03</pdfrwt>
<pdfrwt beam="2">  1       -5 0.26477054E-02 0.13977403E+03</pdfrwt>
<totfact> 0.97693443E+01</totfact>
</mgrwt>
</event>
<event>
 8    1  0.1821556E-007  0.1534780E+03  0.7546771E-02  0.1196263E+00
         -5   -1    0    0    0  501 -0.00000000000E+00  0.00000000000E+00  0.13863531689E+03  0.13871496347E+03  0.47000000000E+01 0.  1.
          5   -1    0    0  501    0  0.00000000000E+00 -0.00000000000E+00 -0.26139606482E+03  0.26143831530E+03  0.47000000000E+01 0.  1.
         25    2    1    2    0    0 -0.88692548824E+02 -0.80518864375E+01  0.57059323487E+02  0.16374101837E+03  0.12499661439E+03 0.  0.
         25    2    1    2    0    0  0.88692548824E+02  0.80518864375E+01 -0.17982007142E+03  0.23641226039E+03  0.12499719072E+03 0.  0.
          5    1    4    4  502    0  0.77316628720E+02  0.60941172044E+02 -0.10559402057E+03  0.14444332698E+03  0.47000000000E+01 0. -1.
         -5    1    4    4    0  502  0.11375920104E+02 -0.52889285606E+02 -0.74226050843E+02  0.91968933417E+02  0.47000000000E+01 0. -1.
          5    1    3    3  503    0 -0.96039671903E+02 -0.30031509447E+02  0.81616927869E+02  0.12964923083E+03  0.47000000000E+01 0. -1.
         -5    1    3    3    0  503  0.73471230784E+01  0.21979623010E+02 -0.24557604382E+02  0.34091787547E+02  0.47000000000E+01 0. -1.
<mgrwt>
<rscale>  0 0.15347789E+03</rscale>
<asrwt>0</asrwt>
<pdfrwt beam="2">  1        5 0.40224156E-01 0.15347801E+03</pdfrwt>
<pdfrwt beam="1">  1       -5 0.21337887E-01 0.15347801E+03</pdfrwt>
<totfact> 0.91603900E+01</totfact>
</mgrwt>
</event>
<event>
 8    1  0.1821556E-007  0.1576164E+03  0.7546771E-02  0.1191415E+00
          5   -1    0    0  501    0  0.00000000000E+00  0.00000000000E+00  0.94453926508E+02  0.94570789533E+02  0.47000000000E+01 0. -1.
         -5   -1    0    0    0  501 -0.00000000000E+00 -0.00000000000E+00 -0.28512230819E+03  0.28516104332E+03  0.47000000000E+01 0. -1.
         25    2    1    2    0    0 -0.39139769715E+02  0.87671209805E+02 -0.14854657212E+03  0.21658414475E+03  0.12499778025E+03 0.  0.
         25    2    1    2    0    0  0.39139769715E+02 -0.87671209805E+02 -0.42121809567E+02  0.16314768810E+03  0.12499903476E+03 0.  0.
          5    1    3    3  502    0  0.22915879733E+02  0.35561650636E+02 -0.12503010837E+03  0.13207719916E+03  0.47000000000E+01 0.  1.
         -5    1    3    3    0  502 -0.62055649449E+02  0.52109559169E+02 -0.23516463746E+02  0.84506945587E+02  0.47000000000E+01 0.  1.
          5    1    4    4  503    0 -0.37767825927E+02 -0.66993068890E+02 -0.28852495809E+02  0.82274154319E+02  0.47000000000E+01 0.  1.
         -5    1    4    4    0  503  0.76907595642E+02 -0.20678140915E+02 -0.13269313759E+02  0.80873533785E+02  0.47000000000E+01 0.  1.
<mgrwt>
<rscale>  0 0.15761613E+03</rscale>
<asrwt>0</asrwt>
<pdfrwt beam="1">  1        5 0.14543343E-01 0.15761637E+03</pdfrwt>
<pdfrwt beam="2">  1       -5 0.43876939E-01 0.15761637E+03</pdfrwt>
<totfact> 0.15660143E+02</totfact>
</mgrwt>
</event>
<event>
 8    1  0.1821556E-007  0.1535929E+03  0.7546771E-02  0.1196131E+00
         -5   -1    0    0    0  501 -0.00000000000E+00  0.00000000000E+00  0.11249541883E+03  0.11259355780E+03  0.47000000000E+01 0. -1.
          5   -1    0    0  501    0  0.00000000000E+00 -0.00000000000E+00 -0.20974365984E+03  0.20979631275E+03  0.47000000000E+01 0. -1.
         25    2    1    2    0    0  0.27929761330E+02  0.84739520731E+02 -0.42761045759E+02  0.15941864183E+03  0.12499975355E+03 0.  0.
         25    2    1    2    0    0 -0.27929761330E+02 -0.84739520731E+02 -0.54487195249E+02  0.16297122871E+03  0.12501963446E+03 0.  0.
          5    1    3    3  502    0  0.59251142303E+02  0.53592882739E+02  0.20033620284E+02  0.82500490217E+02  0.47000000000E+01 0.  1.
         -5    1    3    3    0  502 -0.31321380973E+02  0.31146637993E+02 -0.62794666043E+02  0.76918151615E+02  0.47000000000E+01 0.  1.
          5    1    4    4  503    0  0.22298201765E+02 -0.79079848966E+02 -0.71922454242E+02  0.10929666847E+03  0.47000000000E+01 0.  1.
         -5    1    4    4    0  503 -0.50227963095E+02 -0.56596717653E+01  0.17435258993E+02  0.53674560243E+02  0.47000000000E+01 0.  1.
<mgrwt>
<rscale>  0 0.15358882E+03</rscale>
<asrwt>0</asrwt>
<pdfrwt beam="2">  1        5 0.32279855E-01 0.15359286E+03</pdfrwt>
<pdfrwt beam="1">  1       -5 0.17318587E-01 0.15359286E+03</pdfrwt>
<totfact> 0.21065525E+02</totfact>
</mgrwt>
</event>
<event>
 8    1  0.1821556E-007  0.1394532E+03  0.7546771E-02  0.1214067E+00
         -5   -1    0    0    0  501 -0.00000000000E+00  0.00000000000E+00  0.28727789526E+02  0.29109721591E+02  0.47000000000E+01 0.  1.
          5   -1    0    0  501    0  0.00000000000E+00 -0.00000000000E+00 -0.75253565928E+03  0.75255033618E+03  0.47000000000E+01 0.  1.
         25    2    1    2    0    0 -0.59446078524E+02  0.16980367794E+02 -0.23414952190E+03  0.27253108047E+03  0.12500008830E+03 0.  0.
         25    2    1    2    0    0  0.59446078524E+02 -0.16980367794E+02 -0.48965834785E+03  0.50912897730E+03  0.12499939505E+03 0.  0.
          5    1    4    4  502    0  0.21189109190E+02 -0.49251251420E+02 -0.41883124843E+03  0.42227522870E+03  0.47000000000E+01 0. -1.
         -5    1    4    4    0  502  0.38256969335E+02  0.32270883626E+02 -0.70827099421E+02  0.86853748595E+02  0.47000000000E+01 0. -1.
          5    1    3    3  503    0  0.13641981885E+02  0.95990580128E+01  0.82554967700E+01  0.19196062393E+02  0.47000000000E+01 0.  1.
         -5    1    3    3    0  503 -0.73088060410E+02  0.73813097817E+01 -0.24240501867E+03  0.25333501808E+03  0.47000000000E+01 0.  1.
<mgrwt>
<rscale>  0 0.13945303E+03</rscale>
<asrwt>0</asrwt>
<pdfrwt beam="2">  1        5 0.11580521E+00 0.13945319E+03</pdfrwt>
<pdfrwt beam="1">  1       -5 0.44501689E-02 0.13945319E+03</pdfrwt>
<totfact> 0.12697697E+02</totfact>
</mgrwt>
</event>
<event>
 8    1  0.1821556E-007  0.1271199E+03  0.7546771E-02  0.1231794E+00
          5   -1    0    0  501    0  0.00000000000E+00  0.00000000000E+00  0.21339809878E+02  0.21851258216E+02  0.47000000000E+01 0. -1.
         -5   -1    0    0    0  501 -0.00000000000E+00 -0.00000000000E+00 -0.75050137608E+03  0.75051609277E+03  0.47000000000E+01 0. -1.
         25    2    1    2    0    0 -0.16140081743E+02 -0.16549124810E+02 -0.38800162056E+03  0.40829488873E+03  0.12500033133E+03 0.  0.
         25    2    1    2    0    0  0.16140081743E+02  0.16549124810E+02 -0.34115994564E+03  0.36407246225E+03  0.12499709393E+03 0.  0.
          5    1    4    4  502    0  0.65666706298E+02 -0.10846448493E+02 -0.22641642799E+03  0.23604289996E+03  0.47000000000E+01 0.  1.
         -5    1    4    4    0  502 -0.49526624555E+02  0.27395573303E+02 -0.11474351765E+03  0.12802956229E+03  0.47000000000E+01 0.  1.
          5    1    3    3  503    0 -0.51918359462E+02  0.35677825140E+02 -0.17601967446E+03  0.18701186875E+03  0.47000000000E+01 0.  1.
         -5    1    3    3    0  503  0.35778277719E+02 -0.52226949950E+02 -0.21198194610E+03  0.22128301998E+03  0.47000000000E+01 0.  1.
<mgrwt>
<rscale>  0 0.12711906E+03</rscale>
<asrwt>0</asrwt>
<pdfrwt beam="1">  1        5 0.33235225E-02 0.12711986E+03</pdfrwt>
<pdfrwt beam="2">  1       -5 0.11550220E+00 0.12711986E+03</pdfrwt>
<totfact> 0.19975904E+02</totfact>
</mgrwt>
</event>
<event>
 8    1  0.1821556E-007  0.2053514E+03  0.7546771E-02  0.1145302E+00
          5   -1    0    0  501    0  0.00000000000E+00  0.00000000000E+00  0.19092307383E+03  0.19098091559E+03  0.47000000000E+01 0.  1.
         -5   -1    0    0    0  501 -0.00000000000E+00 -0.00000000000E+00 -0.30172196744E+03  0.30175857177E+03  0.47000000000E+01 0.  1.
         25    2    1    2    0    0  0.50653597039E+02 -0.15484288689E+03 -0.18300913239E+03  0.27506641673E+03  0.12500833797E+03 0.  0.
         25    2    1    2    0    0 -0.50653597039E+02  0.15484288689E+03  0.72210238774E+02  0.21767307064E+03  0.12500056233E+03 0.  0.
          5    1    4    4  502    0 -0.36364094626E+02  0.17527840152E+03  0.56263696971E+02  0.18770338040E+03  0.47000000000E+01 0.  1.
         -5    1    4    4    0  502 -0.14289502412E+02 -0.20435514626E+02  0.15946541803E+02  0.29969690234E+02  0.47000000000E+01 0.  1.
          5    1    3    3  503    0  0.81972541579E+01 -0.48421694924E+02 -0.14671243199E+03  0.15478528101E+03  0.47000000000E+01 0.  1.
         -5    1    3    3    0  503  0.42456342881E+02 -0.10642119197E+03 -0.36296700391E+02  0.12028113572E+03  0.47000000000E+01 0.  1.
<mgrwt>
<rscale>  0 0.20535020E+03</rscale>
<asrwt>0</asrwt>
<pdfrwt beam="1">  1        5 0.29380046E-01 0.20535138E+03</pdfrwt>
<pdfrwt beam="2">  1       -5 0.46426029E-01 0.20535138E+03</pdfrwt>
<totfact> 0.39856566E+01</totfact>
</mgrwt>
</event>
<event>
 8    1  0.1821556E-007  0.1295041E+03  0.7546771E-02  0.1228195E+00
          5   -1    0    0  501    0  0.00000000000E+00  0.00000000000E+00  0.39100261413E+02  0.39381727267E+02  0.47000000000E+01 0. -1.
         -5   -1    0    0    0  501 -0.00000000000E+00 -0.00000000000E+00 -0.69573108059E+03  0.69574695580E+03  0.47000000000E+01 0. -1.
         25    2    1    2    0    0  0.48020748620E+01  0.33514671397E+02 -0.55666671539E+03  0.57153123831E+03  0.12499532477E+03 0.  0.
         25    2    1    2    0    0 -0.48020748620E+01 -0.33514671397E+02 -0.99964103785E+02  0.16359744476E+03  0.12500003505E+03 0.  0.
          5    1    4    4  502    0  0.16174339136E+02 -0.72586682634E+02 -0.29363761304E+02  0.80092173277E+02  0.47000000000E+01 0.  1.
         -5    1    4    4    0  502 -0.20976413998E+02  0.39072011237E+02 -0.70600342481E+02  0.83505271479E+02  0.47000000000E+01 0.  1.
          5    1    3    3  503    0  0.30472470798E+02 -0.74584578226E+01 -0.47815439967E+03  0.47920550915E+03  0.47000000000E+01 0.  1.
         -5    1    3    3    0  503 -0.25670395936E+02  0.40973129220E+02 -0.78512315720E+02  0.92325729162E+02  0.47000000000E+01 0.  1.
<mgrwt>
<rscale>  0 0.12950292E+03</rscale>
<asrwt>0</asrwt>
<pdfrwt beam="1">  1        5 0.60382977E-02 0.12950406E+03</pdfrwt>
<pdfrwt beam="2">  1       -5 0.10705841E+00 0.12950406E+03</pdfrwt>
<totfact> 0.90724796E+01</totfact>
</mgrwt>
</event>
<event>
 8    1  0.1821556E-007  0.1693729E+03  0.7546771E-02  0.1178507E+00
          5   -1    0    0  501    0  0.00000000000E+00  0.00000000000E+00  0.22447258568E+03  0.22452178451E+03  0.47000000000E+01 0. -1.
         -5   -1    0    0    0  501 -0.00000000000E+00 -0.00000000000E+00 -0.13445614072E+03  0.13453826138E+03  0.47000000000E+01 0. -1.
         25    2    1    2    0    0  0.58071050556E+02  0.98417477284E+02  0.47247787144E+01  0.16942393247E+03  0.12499559437E+03 0.  0.
         25    2    1    2    0    0 -0.58071050556E+02 -0.98417477284E+02  0.85291666250E+02  0.18963611343E+03  0.12501576075E+03 0.  0.
          5    1    4    4  502    0 -0.96427672992E+01 -0.10135703728E+02  0.87573355386E+02  0.88808209219E+02  0.47000000000E+01 0. -1.
         -5    1    4    4    0  502 -0.48428283257E+02 -0.88281773557E+02 -0.22816891353E+01  0.10082790421E+03  0.47000000000E+01 0. -1.
          5    1    3    3  503    0  0.32597613937E+02 -0.83209774100E+01  0.41467239234E+02  0.53604710886E+02  0.47000000000E+01 0. -1.
         -5    1    3    3    0  503  0.25473436619E+02  0.10673845469E+03 -0.36742460520E+02  0.11581922159E+03  0.47000000000E+01 0. -1.
<mgrwt>
<rscale>  0 0.16936920E+03</rscale>
<asrwt>0</asrwt>
<pdfrwt beam="1">  1        5 0.34544345E-01 0.16937292E+03</pdfrwt>
<pdfrwt beam="2">  1       -5 0.20695662E-01 0.16937292E+03</pdfrwt>
<totfact> 0.13618391E+02</totfact>
</mgrwt>
</event>
<event>
 8    1  0.1821556E-007  0.1518255E+03  0.7546771E-02  0.1198248E+00
         -5   -1    0    0    0  501 -0.00000000000E+00  0.00000000000E+00  0.32317928450E+02  0.32657901024E+02  0.47000000000E+01 0. -1.
          5   -1    0    0  501    0  0.00000000000E+00 -0.00000000000E+00 -0.70917890510E+03  0.70919447928E+03  0.47000000000E+01 0. -1.
         25    2    1    2    0    0  0.47030848670E+01 -0.86043439916E+02 -0.33932604460E+03  0.37174320966E+03  0.12500102730E+03 0.  0.
         25    2    1    2    0    0 -0.47030848670E+01  0.86043439916E+02 -0.33753493205E+03  0.37010917064E+03  0.12500150111E+03 0.  0.
          5    1    3    3  502    0  0.25615756795E+02 -0.10734089529E+03 -0.31210521597E+03  0.33107399571E+03  0.47000000000E+01 0.  1.
         -5    1    3    3    0  502 -0.20912671928E+02  0.21297455370E+02 -0.27220828630E+02  0.40669213955E+02  0.47000000000E+01 0.  1.
          5    1    4    4  503    0  0.38323950155E+02  0.65093508370E+02 -0.29916649038E+03  0.30859126519E+03  0.47000000000E+01 0. -1.
         -5    1    4    4    0  503 -0.43027035022E+02  0.20949931546E+02 -0.38368441673E+02  0.61517905450E+02  0.47000000000E+01 0. -1.
<mgrwt>
<rscale>  0 0.15182535E+03</rscale>
<asrwt>0</asrwt>
<pdfrwt beam="2">  1        5 0.10913179E+00 0.15182545E+03</pdfrwt>
<pdfrwt beam="1">  1       -5 0.49993393E-02 0.15182545E+03</pdfrwt>
<totfact> 0.12476157E+02</totfact>
</mgrwt>
</event>
<event>
 8    1  0.1821556E-007  0.1254120E+03  0.7546771E-02  0.1234427E+00
         -5   -1    0    0    0  501 -0.00000000000E+00  0.00000000000E+00  0.54775958189E+03  0.54777974547E+03  0.47000000000E+01 0.  1.
          5   -1    0    0  501    0  0.00000000000E+00 -0.00000000000E+00 -0.33439700504E+02  0.33768381213E+02  0.47000000000E+01 0.  1.
         25    2    1    2    0    0 -0.59385861411E+01  0.82904258868E+01  0.36828787072E+03  0.38905543088E+03  0.12499669838E+03 0.  0.
         25    2    1    2    0    0  0.59385861411E+01 -0.82904258868E+01  0.14603201066E+03  0.19249269581E+03  0.12499636729E+03 0.  0.
          5    1    3    3  502    0 -0.29360302286E+02 -0.52315901315E+02  0.16939833821E+03  0.17976892910E+03  0.47000000000E+01 0.  1.
         -5    1    3    3    0  502  0.23421716145E+02  0.60606327201E+02  0.19888953251E+03  0.20928650178E+03  0.47000000000E+01 0.  1.
          5    1    4    4  503    0  0.58267200925E+02  0.49509926017E+01  0.33403127289E+02  0.67508799012E+02  0.47000000000E+01 0. -1.
         -5    1    4    4    0  503 -0.52328614784E+02 -0.13241418488E+02  0.11262888337E+03  0.12498389680E+03  0.47000000000E+01 0. -1.
<mgrwt>
<rscale>  0 0.12541193E+03</rscale>
<asrwt>0</asrwt>
<pdfrwt beam="2">  1        5 0.51714035E-02 0.12541201E+03</pdfrwt>
<pdfrwt beam="1">  1       -5 0.84297539E-01 0.12541201E+03</pdfrwt>
<totfact> 0.20629719E+02</totfact>
</mgrwt>
</event>
<event>
 8    1  0.1821556E-007  0.1313612E+03  0.7546771E-02  0.1225451E+00
          5   -1    0    0  501    0  0.00000000000E+00  0.00000000000E+00  0.99079585961E+02  0.99190999361E+02  0.47000000000E+01 0. -1.
         -5   -1    0    0    0  501 -0.00000000000E+00 -0.00000000000E+00 -0.17620450515E+03  0.17626717685E+03  0.47000000000E+01 0. -1.
         25    2    1    2    0    0  0.33370556840E+02 -0.22721604690E+02 -0.54250379730E+02  0.14212025648E+03  0.12500079286E+03 0.  0.
         25    2    1    2    0    0 -0.33370556840E+02  0.22721604690E+02 -0.22874539457E+02  0.13333791973E+03  0.12500356355E+03 0.  0.
          5    1    3    3  502    0  0.27368866315E+01 -0.16555795292E+02  0.39507754457E+02  0.43180291435E+02  0.47000000000E+01 0. -1.
         -5    1    3    3    0  502  0.30633670209E+02 -0.61658093974E+01 -0.93758134187E+02  0.98939965041E+02  0.47000000000E+01 0. -1.
          5    1    4    4  503    0 -0.36012512347E+02 -0.46042654786E+02 -0.26317003814E+02  0.64276759369E+02  0.47000000000E+01 0.  1.
         -5    1    4    4    0  503  0.26419555070E+01  0.68764259476E+02  0.34424643566E+01  0.69061160365E+02  0.47000000000E+01 0.  1.
<mgrwt>
<rscale>  0 0.13136051E+03</rscale>
<asrwt>0</asrwt>
<pdfrwt beam="1">  1        5 0.15256404E-01 0.13136117E+03</pdfrwt>
<pdfrwt beam="2">  1       -5 0.27121776E-01 0.13136117E+03</pdfrwt>
<totfact> 0.35419282E+02</totfact>
</mgrwt>
</event>
<event>
 8    1  0.1821556E-007  0.1867661E+03  0.7546771E-02  0.1161412E+00
         -5   -1    0    0    0  501 -0.00000000000E+00  0.00000000000E+00  0.67593880202E+03  0.67595514206E+03  0.47000000000E+01 0.  1.
          5   -1    0    0  501    0  0.00000000000E+00 -0.00000000000E+00 -0.51509066811E+02  0.51723050604E+02  0.47000000000E+01 0.  1.
         25    2    1    2    0    0  0.13496929455E+03 -0.32211533506E+02  0.30351068037E+03  0.35637100840E+03  0.12500907636E+03 0.  0.
         25    2    1    2    0    0 -0.13496929455E+03  0.32211533506E+02  0.32091905484E+03  0.37130718426E+03  0.12500276782E+03 0.  0.
          5    1    4    4  502    0  0.79266108989E+01  0.17294481630E+02  0.13440509794E+03  0.13582617792E+03  0.47000000000E+01 0. -1.
         -5    1    4    4    0  502 -0.14289590545E+03  0.14917051877E+02  0.18651395690E+03  0.23548100635E+03  0.47000000000E+01 0. -1.
          5    1    3    3  503    0 -0.11518163857E+02 -0.31247793689E+02  0.10052178606E+03  0.10599911407E+03  0.47000000000E+01 0.  1.
         -5    1    3    3    0  503  0.14648745840E+03 -0.96373981734E+00  0.20298889430E+03  0.25037189434E+03  0.47000000000E+01 0.  1.
<mgrwt>
<rscale>  0 0.18676501E+03</rscale>
<asrwt>0</asrwt>
<pdfrwt beam="2">  1        5 0.79421899E-02 0.18676606E+03</pdfrwt>
<pdfrwt beam="1">  1       -5 0.10400829E+00 0.18676606E+03</pdfrwt>
<totfact> 0.68221721E+01</totfact>
</mgrwt>
</event>
<event>
 8    1  0.1821556E-007  0.1474626E+03  0.7546771E-02  0.1203627E+00
         -5   -1    0    0    0  501 -0.00000000000E+00  0.00000000000E+00  0.50352780580E+02  0.50571657202E+02  0.47000000000E+01 0.  1.
          5   -1    0    0  501    0  0.00000000000E+00 -0.00000000000E+00 -0.47684965401E+03  0.47687281589E+03  0.47000000000E+01 0.  1.
         25    2    1    2    0    0 -0.72341376070E+02  0.29776444548E+02 -0.13120711704E+03  0.19738198707E+03  0.12499771965E+03 0.  0.
         25    2    1    2    0    0  0.72341376070E+02 -0.29776444548E+02 -0.29528975639E+03  0.33006248602E+03  0.12500117240E+03 0.  0.
          5    1    4    4  502    0  0.26439889124E+02  0.13378119651E+02 -0.25128676543E+03  0.25307147272E+03  0.47000000000E+01 0. -1.
         -5    1    4    4    0  502  0.45901486946E+02 -0.43154564200E+02 -0.44002990961E+02  0.76991013298E+02  0.47000000000E+01 0. -1.
          5    1    3    3  503    0 -0.31443557017E+01  0.60795253689E+02 -0.23173817055E+02  0.65307470023E+02  0.47000000000E+01 0. -1.
         -5    1    3    3    0  503 -0.69197020368E+02 -0.31018809141E+02 -0.10803329999E+03  0.13207451705E+03  0.47000000000E+01 0. -1.
<mgrwt>
<rscale>  0 0.14746182E+03</rscale>
<asrwt>0</asrwt>
<pdfrwt beam="2">  1        5 0.73380101E-01 0.14746255E+03</pdfrwt>
<pdfrwt beam="1">  1       -5 0.77652003E-02 0.14746255E+03</pdfrwt>
<totfact> 0.15109511E+02</totfact>
</mgrwt>
</event>
<event>
 8    1  0.1821556E-007  0.1492601E+03  0.7546771E-02  0.1201394E+00
          5   -1    0    0  501    0  0.00000000000E+00  0.00000000000E+00  0.14838118025E+02  0.15564695517E+02  0.47000000000E+01 0. -1.
         -5   -1    0    0    0  501 -0.00000000000E+00 -0.00000000000E+00 -0.15715356058E+04  0.15715426339E+04  0.47000000000E+01 0. -1.
         25    2    1    2    0    0 -0.70409358915E+02 -0.41111312631E+02 -0.98527973936E+03  0.99651710356E+03  0.12499021983E+03 0.  0.
         25    2    1    2    0    0  0.70409358915E+02  0.41111312631E+02 -0.57141774840E+03  0.59059022588E+03  0.12502381321E+03 0.  0.
          5    1    4    4  502    0  0.30557563004E+02  0.32572685416E+02 -0.53134848607E+03  0.53324295414E+03  0.47000000000E+01 0.  1.
         -5    1    4    4    0  502  0.39851795910E+02  0.85386272152E+01 -0.40069262322E+02  0.57347271731E+02  0.47000000000E+01 0.  1.
          5    1    3    3  503    0 -0.49982506725E+02 -0.74438187645E+02 -0.40174414014E+03  0.41165487838E+03  0.47000000000E+01 0.  1.
         -5    1    3    3    0  503 -0.20426852190E+02  0.33326875013E+02 -0.58353559921E+03  0.58486222517E+03  0.47000000000E+01 0.  1.
<mgrwt>
<rscale>  0 0.14925305E+03</rscale>
<asrwt>0</asrwt>
<pdfrwt beam="1">  1        5 0.23392198E-02 0.14926008E+03</pdfrwt>
<pdfrwt beam="2">  1       -5 0.24183101E+00 0.14926008E+03</pdfrwt>
<totfact> 0.43086473E+01</totfact>
</mgrwt>
</event>
<event>
 8    1  0.1821556E-007  0.1289974E+03  0.7546771E-02  0.1228968E+00
         -5   -1    0    0    0  501 -0.00000000000E+00  0.00000000000E+00  0.99936837882E+02  0.10004729664E+03  0.47000000000E+01 0. -1.
          5   -1    0    0  501    0  0.00000000000E+00 -0.00000000000E+00 -0.17063467756E+03  0.17069939422E+03  0.47000000000E+01 0. -1.
         25    2    1    2    0    0 -0.63475958594E+01 -0.31044212202E+02 -0.13577938188E+02  0.12971002287E+03  0.12504517001E+03 0.  0.
         25    2    1    2    0    0  0.63475958594E+01  0.31044212202E+02 -0.57119901492E+02  0.14103666800E+03  0.12499849395E+03 0.  0.
          5    1    4    4  502    0  0.24251173274E+02 -0.73688860060E+01  0.32682435175E+02  0.41625130091E+02  0.47000000000E+01 0.  1.
         -5    1    4    4    0  502 -0.17903577414E+02  0.38413098208E+02 -0.89802336667E+02  0.99411537907E+02  0.47000000000E+01 0.  1.
          5    1    3    3  503    0  0.73564380136E+01 -0.40680539482E+02 -0.64019451214E+02  0.76351840885E+02  0.47000000000E+01 0.  1.
         -5    1    3    3    0  503 -0.13704033873E+02  0.96363272794E+01  0.50441513027E+02  0.53358181980E+02  0.47000000000E+01 0.  1.
<mgrwt>
<rscale>  0 0.12898609E+03</rscale>
<asrwt>0</asrwt>
<pdfrwt beam="2">  1        5 0.26264964E-01 0.12899740E+03</pdfrwt>
<pdfrwt beam="1">  1       -5 0.15388373E-01 0.12899740E+03</pdfrwt>
<totfact> 0.36852391E+02</totfact>
</mgrwt>
</event>
<event>
 8    1  0.1821556E-007  0.1258871E+03  0.7546771E-02  0.1233691E+00
         -5   -1    0    0    0  501 -0.00000000000E+00  0.00000000000E+00  0.48209605018E+02  0.48438166935E+02  0.47000000000E+01 0. -1.
          5   -1    0    0  501    0  0.00000000000E+00 -0.00000000000E+00 -0.33088792411E+03  0.33092130231E+03  0.47000000000E+01 0. -1.
         25    2    1    2    0    0  0.68112562244E+01  0.13231172188E+02 -0.12268814803E+03  0.17578045534E+03  0.12499971873E+03 0.  0.
         25    2    1    2    0    0 -0.68112562244E+01 -0.13231172188E+02 -0.15999017106E+03  0.20357901391E+03  0.12500441167E+03 0.  0.
          5    1    3    3  502    0 -0.46559439844E+01  0.42060728362E+02  0.62898337882E+01  0.43039919770E+02  0.47000000000E+01 0. -1.
         -5    1    3    3    0  502  0.11467200209E+02 -0.28829556174E+02 -0.12897798181E+03  0.13274053557E+03  0.47000000000E+01 0. -1.
          5    1    4    4  503    0  0.49169542969E+02  0.24087306090E+02 -0.95962341993E+02  0.11058346780E+03  0.47000000000E+01 0.  1.
         -5    1    4    4    0  503 -0.55980799194E+02 -0.37318478278E+02 -0.64027829071E+02  0.92995546103E+02  0.47000000000E+01 0.  1.
<mgrwt>
<rscale>  0 0.12588593E+03</rscale>
<asrwt>0</asrwt>
<pdfrwt beam="2">  1        5 0.50925982E-01 0.12588709E+03</pdfrwt>
<pdfrwt beam="1">  1       -5 0.74370117E-02 0.12588709E+03</pdfrwt>
<totfact> 0.34375443E+02</totfact>
</mgrwt>
</event>
<event>
 8    1  0.1821556E-007  0.1368000E+03  0.7546771E-02  0.1217709E+00
          5   -1    0    0  501    0  0.00000000000E+00  0.00000000000E+00  0.95532427951E+02  0.95647973268E+02  0.47000000000E+01 0.  1.
         -5   -1    0    0    0  501 -0.00000000000E+00 -0.00000000000E+00 -0.22756408002E+03  0.22761261063E+03  0.47000000000E+01 0.  1.
         25    2    1    2    0    0 -0.44776921186E+02  0.32930118658E+02 -0.12657558831E+03  0.18637491727E+03  0.12499945938E+03 0.  0.
         25    2    1    2    0    0  0.44776921186E+02 -0.32930118658E+02 -0.54560637624E+01  0.13688566663E+03  0.12497420418E+03 0.  0.
          5    1    4    4  502    0  0.71436064318E+02 -0.33171738156E+02  0.36514537058E+02  0.86941801879E+02  0.47000000000E+01 0.  1.
         -5    1    4    4    0  502 -0.26659143132E+02  0.24161949760E+00 -0.41970600820E+02  0.49943864746E+02  0.47000000000E+01 0.  1.
          5    1    3    3  503    0 -0.24406096682E+01  0.39350626570E+02 -0.13650959885E+03  0.14216676463E+03  0.47000000000E+01 0. -1.
         -5    1    3    3    0  503 -0.42336311517E+02 -0.64205079117E+01  0.99340105378E+01  0.44208152643E+02  0.47000000000E+01 0. -1.
<mgrwt>
<rscale>  0 0.13679419E+03</rscale>
<asrwt>0</asrwt>
<pdfrwt beam="1">  1        5 0.14709918E-01 0.13679996E+03</pdfrwt>
<pdfrwt beam="2">  1       -5 0.35022480E-01 0.13679996E+03</pdfrwt>
<totfact> 0.23196097E+02</totfact>
</mgrwt>
</event>
<event>
 8    1  0.1821556E-007  0.1722627E+03  0.7546771E-02  0.1175510E+00
         -5   -1    0    0    0  501 -0.00000000000E+00  0.00000000000E+00  0.14933204311E+03  0.14940598749E+03  0.47000000000E+01 0.  1.
          5   -1    0    0  501    0  0.00000000000E+00 -0.00000000000E+00 -0.19925530232E+03  0.19931072601E+03  0.47000000000E+01 0.  1.
         25    2    1    2    0    0  0.10692320530E+03 -0.51142395572E+02 -0.35278482469E+02  0.17583263119E+03  0.12499770562E+03 0.  0.
         25    2    1    2    0    0 -0.10692320530E+03  0.51142395572E+02 -0.14644776742E+02  0.17288408232E+03  0.12500527979E+03 0.  0.
          5    1    4    4  502    0  0.14088799286E+02 -0.18350600679E+02 -0.23065072287E+02  0.33004944633E+02  0.47000000000E+01 0. -1.
         -5    1    4    4    0  502 -0.12101200458E+03  0.69492996251E+02  0.84202955458E+01  0.13987913768E+03  0.47000000000E+01 0. -1.
          5    1    3    3  503    0  0.75614813906E+01 -0.59106990802E+02  0.18372302228E+02  0.62533541812E+02  0.47000000000E+01 0.  1.
         -5    1    3    3    0  503  0.99361723908E+02  0.79645952295E+01 -0.53650784698E+02  0.11329908938E+03  0.47000000000E+01 0.  1.
<mgrwt>
<rscale>  0 0.17226132E+03</rscale>
<asrwt>0</asrwt>
<pdfrwt beam="2">  1        5 0.30664613E-01 0.17226270E+03</pdfrwt>
<pdfrwt beam="1">  1       -5 0.22984112E-01 0.17226270E+03</pdfrwt>
<totfact> 0.14230194E+02</totfact>
</mgrwt>
</event>
<event>
 8    1  0.1821556E-007  0.1267226E+03  0.7546771E-02  0.1232406E+00
          5   -1    0    0  501    0  0.00000000000E+00  0.00000000000E+00  0.20196322501E+02  0.20735993889E+02  0.47000000000E+01 0.  1.
         -5   -1    0    0    0  501 -0.00000000000E+00 -0.00000000000E+00 -0.80676853201E+03  0.80678222232E+03  0.47000000000E+01 0.  1.
         25    2    1    2    0    0 -0.59980305545E+00  0.20814077901E+02 -0.46274469046E+03  0.47978253224E+03  0.12500017638E+03 0.  0.
         25    2    1    2    0    0  0.59980305545E+00 -0.20814077901E+02 -0.32382751905E+03  0.34773568396E+03  0.12498903233E+03 0.  0.
          5    1    4    4  502    0  0.32757720736E+02  0.33750028362E+02 -0.60055770912E+02  0.76425900728E+02  0.47000000000E+01 0.  1.
         -5    1    4    4    0  502 -0.32157917680E+02 -0.54564106263E+02 -0.26377174814E+03  0.27130978323E+03  0.47000000000E+01 0.  1.
          5    1    3    3  503    0  0.46335846085E+02  0.23236800058E+00 -0.37634817521E+03  0.37921907074E+03  0.47000000000E+01 0.  1.
         -5    1    3    3    0  503 -0.46935649141E+02  0.20581709900E+02 -0.86396515246E+02  0.10056346150E+03  0.47000000000E+01 0.  1.
<mgrwt>
<rscale>  0 0.12671990E+03</rscale>
<asrwt>0</asrwt>
<pdfrwt beam="1">  1        5 0.31496935E-02 0.12672265E+03</pdfrwt>
<pdfrwt beam="2">  1       -5 0.12416078E+00 0.12672265E+03</pdfrwt>
<totfact> 0.18116699E+02</totfact>
</mgrwt>
</event>
<event>
 8    1  0.1821556E-007  0.1274772E+03  0.7546771E-02  0.1231250E+00
          5   -1    0    0  501    0  0.00000000000E+00  0.00000000000E+00  0.13992977619E+03  0.14000868639E+03  0.47000000000E+01 0.  1.
         -5   -1    0    0    0  501 -0.00000000000E+00 -0.00000000000E+00 -0.12536705736E+03  0.12545512772E+03  0.47000000000E+01 0.  1.
         25    2    1    2    0    0 -0.83416610963E+01  0.23569103041E+02 -0.29037668489E+02  0.13074254171E+03  0.12500136036E+03 0.  0.
         25    2    1    2    0    0  0.83416610963E+01 -0.23569103041E+02  0.43600387319E+02  0.13472127241E+03  0.12499496604E+03 0.  0.
          5    1    3    3  502    0  0.48457257148E+02 -0.23030531869E+02 -0.12535543308E+02  0.55296844526E+02  0.47000000000E+01 0. -1.
         -5    1    3    3    0  502 -0.56798918244E+02  0.46599634911E+02 -0.16502125181E+02  0.75445697180E+02  0.47000000000E+01 0. -1.
          5    1    4    4  503    0  0.39692274008E+02  0.37997143831E+02  0.34060553087E+02  0.64818753704E+02  0.47000000000E+01 0. -1.
         -5    1    4    4    0  503 -0.31350612911E+02 -0.61566246872E+02  0.95398342320E+01  0.69902518702E+02  0.47000000000E+01 0. -1.
<mgrwt>
<rscale>  0 0.12747559E+03</rscale>
<asrwt>0</asrwt>
<pdfrwt beam="1">  1        5 0.21540503E-01 0.12747716E+03</pdfrwt>
<pdfrwt beam="2">  1       -5 0.19300084E-01 0.12747716E+03</pdfrwt>
<totfact> 0.35317802E+02</totfact>
</mgrwt>
</event>
<event>
 8    1  0.1821556E-007  0.1923432E+03  0.7546771E-02  0.1156365E+00
          5   -1    0    0  501    0  0.00000000000E+00  0.00000000000E+00  0.52421782329E+02  0.52632055466E+02  0.47000000000E+01 0.  1.
         -5   -1    0    0    0  501 -0.00000000000E+00 -0.00000000000E+00 -0.71655851141E+03  0.71657392520E+03  0.47000000000E+01 0.  1.
         25    2    1    2    0    0  0.14519636112E+03  0.17028911877E+02 -0.38277930217E+03  0.42838756030E+03  0.12499576205E+03 0.  0.
         25    2    1    2    0    0 -0.14519636112E+03 -0.17028911877E+02 -0.28135742691E+03  0.34081842036E+03  0.12499290723E+03 0.  0.
          5    1    4    4  502    0 -0.12642846446E+03 -0.45981572740E+02 -0.27392231373E+03  0.30521137858E+03  0.47000000000E+01 0.  1.
         -5    1    4    4    0  502 -0.18767896663E+02  0.28952660863E+02 -0.74351131793E+01  0.35607041778E+02  0.47000000000E+01 0.  1.
          5    1    3    3  503    0 -0.89837812200E+00  0.21583569613E+02 -0.41448877715E+01  0.22492835640E+02  0.47000000000E+01 0. -1.
         -5    1    3    3    0  503  0.14609473924E+03 -0.45546577365E+01 -0.37863441440E+03  0.40589472466E+03  0.47000000000E+01 0. -1.
<mgrwt>
<rscale>  0 0.19234274E+03</rscale>
<asrwt>0</asrwt>
<pdfrwt beam="1">  1        5 0.80822506E-02 0.19234320E+03</pdfrwt>
<pdfrwt beam="2">  1       -5 0.11025712E+00 0.19234320E+03</pdfrwt>
<totfact> 0.57694534E+01</totfact>
</mgrwt>
</event>
<event>
 8    1  0.1821556E-007  0.1267024E+03  0.7546771E-02  0.1232460E+00
         -5   -1    0    0    0  501 -0.00000000000E+00  0.00000000000E+00  0.32722499139E+03  0.32725874318E+03  0.47000000000E+01 0. -1.
          5   -1    0    0  501    0  0.00000000000E+00 -0.00000000000E+00 -0.52422322508E+02  0.52632593487E+02  0.47000000000E+01 0. -1.
         25    2    1    2    0    0 -0.20424906590E+02 -0.32485246016E+01  0.18667677991E+03  0.22561406450E+03  0.12500302485E+03 0.  0.
         25    2    1    2    0    0  0.20424906590E+02  0.32485246016E+01  0.88125888967E+02  0.15427727217E+03  0.12493027927E+03 0.  0.
          5    1    3    3  502    0 -0.28423615063E+02 -0.57549654324E+02  0.62249246027E+02  0.89537272892E+02  0.47000000000E+01 0. -1.
         -5    1    3    3    0  502  0.79987084723E+01  0.54301129722E+02  0.12442753389E+03  0.13607679161E+03  0.47000000000E+01 0. -1.
          5    1    4    4  503    0 -0.28938842428E+02 -0.43535656079E+02  0.62087408857E+02  0.81300346186E+02  0.47000000000E+01 0.  1.
         -5    1    4    4    0  503  0.49363749018E+02  0.46784180680E+02  0.26038480110E+02  0.72976925980E+02  0.47000000000E+01 0.  1.
<mgrwt>
<rscale>  0 0.12668441E+03</rscale>
<asrwt>0</asrwt>
<pdfrwt beam="2">  1        5 0.80837438E-02 0.12670235E+03</pdfrwt>
<pdfrwt beam="1">  1       -5 0.50361076E-01 0.12670235E+03</pdfrwt>
<totfact> 0.30598001E+02</totfact>
</mgrwt>
</event>
<event>
 8    1  0.1821556E-007  0.1254764E+03  0.7546771E-02  0.1234329E+00
         -5   -1    0    0    0  501 -0.00000000000E+00  0.00000000000E+00  0.16983107651E+02  0.17621462637E+02  0.47000000000E+01 0. -1.
          5   -1    0    0  501    0  0.00000000000E+00 -0.00000000000E+00 -0.93435960354E+03  0.93437142440E+03  0.47000000000E+01 0. -1.
         25    2    1    2    0    0  0.62399759929E+01 -0.89459654790E+01 -0.38072041146E+03  0.40086452198E+03  0.12500146274E+03 0.  0.
         25    2    1    2    0    0 -0.62399759929E+01  0.89459654790E+01 -0.53665608443E+03  0.55112836505E+03  0.12499501672E+03 0.  0.
          5    1    4    4  502    0 -0.38667303996E+02  0.16768069528E+02 -0.49821052239E+03  0.50001214303E+03  0.47000000000E+01 0. -1.
         -5    1    4    4    0  502  0.32427328003E+02 -0.78221040490E+01 -0.38445562040E+02  0.51116222021E+02  0.47000000000E+01 0. -1.
          5    1    3    3  503    0 -0.30443994152E+02 -0.39655291597E+02 -0.68327258225E+02  0.84794357997E+02  0.47000000000E+01 0.  1.
         -5    1    3    3    0  503  0.36683970145E+02  0.30709326118E+02 -0.31239315323E+03  0.31607016399E+03  0.47000000000E+01 0.  1.
<mgrwt>
<rscale>  0 0.12547482E+03</rscale>
<asrwt>0</asrwt>
<pdfrwt beam="2">  1        5 0.14379760E+00 0.12547643E+03</pdfrwt>
<pdfrwt beam="1">  1       -5 0.26628001E-02 0.12547643E+03</pdfrwt>
<totfact> 0.16102229E+02</totfact>
</mgrwt>
</event>
<event>
 8    1  0.1821556E-007  0.1279924E+03  0.7546771E-02  0.1230496E+00
          5   -1    0    0  501    0  0.00000000000E+00  0.00000000000E+00  0.86651002771E+03  0.86652277415E+03  0.47000000000E+01 0.  1.
         -5   -1    0    0    0  501 -0.00000000000E+00 -0.00000000000E+00 -0.19112674790E+02  0.19682081639E+02  0.47000000000E+01 0.  1.
         25    2    1    2    0    0  0.32956092706E+01  0.26936321537E+02  0.35129458394E+03  0.37385730925E+03  0.12499990605E+03 0.  0.
         25    2    1    2    0    0 -0.32956092706E+01 -0.26936321537E+02  0.49610276898E+03  0.51234754654E+03  0.12508247120E+03 0.  0.
          5    1    3    3  502    0 -0.32589189429E+01  0.74090744471E+02  0.15609292954E+03  0.17287900862E+03  0.47000000000E+01 0.  1.
         -5    1    3    3    0  502  0.65545282135E+01 -0.47154422934E+02  0.19520165441E+03  0.20097830063E+03  0.47000000000E+01 0.  1.
          5    1    4    4  503    0 -0.34188649733E+02 -0.56925350075E+02  0.41593571693E+03  0.42122911803E+03  0.47000000000E+01 0. -1.
         -5    1    4    4    0  503  0.30893040462E+02  0.29989028538E+02  0.80167052041E+02  0.91118428512E+02  0.47000000000E+01 0. -1.
<mgrwt>
<rscale>  0 0.12797221E+03</rscale>
<asrwt>0</asrwt>
<pdfrwt beam="1">  1        5 0.13335399E+00 0.12799239E+03</pdfrwt>
<pdfrwt beam="2">  1       -5 0.29851931E-02 0.12799239E+03</pdfrwt>
<totfact> 0.16475265E+02</totfact>
</mgrwt>
</event>
<event>
 8    1  0.1821556E-007  0.1701368E+03  0.7546771E-02  0.1177707E+00
          5   -1    0    0  501    0  0.00000000000E+00  0.00000000000E+00  0.43404874882E+02  0.43658597819E+02  0.47000000000E+01 0. -1.
         -5   -1    0    0    0  501 -0.00000000000E+00 -0.00000000000E+00 -0.66611590621E+03  0.66613248720E+03  0.47000000000E+01 0. -1.
         25    2    1    2    0    0  0.32713386406E+02  0.11068491994E+03 -0.32791201152E+03  0.36941925288E+03  0.12499191950E+03 0.  0.
         25    2    1    2    0    0 -0.32713386406E+02 -0.11068491994E+03 -0.29479901980E+03  0.34037183214E+03  0.12500081954E+03 0.  0.
          5    1    4    4  502    0 -0.20123925126E+02 -0.12360321564E+03 -0.15494312634E+03  0.19927917523E+03  0.47000000000E+01 0.  1.
         -5    1    4    4    0  502 -0.12589461280E+02  0.12918295699E+02 -0.13985589346E+03  0.14109265691E+03  0.47000000000E+01 0.  1.
          5    1    3    3  503    0 -0.33079070820E+02  0.28071398350E+02 -0.19379338491E+03  0.19864590196E+03  0.47000000000E+01 0.  1.
         -5    1    3    3    0  503  0.65792457226E+02  0.82613521593E+02 -0.13411862662E+03  0.17077335092E+03  0.47000000000E+01 0.  1.
<mgrwt>
<rscale>  0 0.17013514E+03</rscale>
<asrwt>0</asrwt>
<pdfrwt beam="1">  1        5 0.66984661E-02 0.17013677E+03</pdfrwt>
<pdfrwt beam="2">  1       -5 0.10250016E+00 0.17013677E+03</pdfrwt>
<totfact> 0.92204832E+01</totfact>
</mgrwt>
</event>
<event>
 8    1  0.1821556E-007  0.1273075E+03  0.7546771E-02  0.1231509E+00
          5   -1    0    0  501    0  0.00000000000E+00  0.00000000000E+00  0.35337681764E+03  0.35340807185E+03  0.47000000000E+01 0. -1.
         -5   -1    0    0    0  501 -0.00000000000E+00 -0.00000000000E+00 -0.61842284343E+02  0.62020626672E+02  0.47000000000E+01 0. -1.
         25    2    1    2    0    0  0.15615239151E+02 -0.18392409183E+02  0.39875151298E+02  0.13340095684E+03  0.12499468463E+03 0.  0.
         25    2    1    2    0    0 -0.15615239151E+02  0.18392409183E+02  0.25165938200E+03  0.28202774168E+03  0.12500034447E+03 0.  0.
          5    1    3    3  502    0  0.30394090693E+02 -0.61987218053E+02  0.50818379907E+02  0.85853443072E+02  0.47000000000E+01 0.  1.
         -5    1    3    3    0  502 -0.14778851542E+02  0.43594808870E+02 -0.10943228609E+02  0.47547513770E+02  0.47000000000E+01 0.  1.
          5    1    4    4  503    0  0.12718753262E+02 -0.39163940861E+02  0.29838731943E+02  0.51068785694E+02  0.47000000000E+01 0.  1.
         -5    1    4    4    0  503 -0.28333992414E+02  0.57556350044E+02  0.22182065006E+03  0.23095895598E+03  0.47000000000E+01 0.  1.
<mgrwt>
<rscale>  0 0.12730612E+03</rscale>
<asrwt>0</asrwt>
<pdfrwt beam="1">  1        5 0.54381788E-01 0.12730751E+03</pdfrwt>
<pdfrwt beam="2">  1       -5 0.95303202E-02 0.12730751E+03</pdfrwt>
<totfact> 0.19589051E+02</totfact>
</mgrwt>
</event>
<event>
 8    1  0.1821556E-007  0.1271164E+03  0.7546771E-02  0.1231799E+00
          5   -1    0    0  501    0  0.00000000000E+00  0.00000000000E+00  0.53215942834E+03  0.53218018299E+03  0.47000000000E+01 0.  1.
         -5   -1    0    0    0  501 -0.00000000000E+00 -0.00000000000E+00 -0.31128634084E+02  0.31481452634E+02  0.47000000000E+01 0.  1.
         25    2    1    2    0    0 -0.88823852893E+01 -0.21317673834E+02  0.20111691267E+03  0.23792141418E+03  0.12500098711E+03 0.  0.
         25    2    1    2    0    0  0.88823852893E+01  0.21317673834E+02  0.29991388159E+03  0.32574022145E+03  0.12500006206E+03 0.  0.
          5    1    4    4  502    0 -0.16779278369E+02  0.16615789832E+02 -0.57509951149E+00  0.24084214618E+02  0.47000000000E+01 0.  1.
         -5    1    4    4    0  502  0.25661663658E+02  0.47018840019E+01  0.30048898110E+03  0.30165600683E+03  0.47000000000E+01 0.  1.
          5    1    3    3  503    0 -0.54411828446E+02 -0.64113910208E+01  0.17440620062E+03  0.18286980567E+03  0.47000000000E+01 0. -1.
         -5    1    3    3    0  503  0.45529443156E+02 -0.14906282813E+02  0.26710712041E+02  0.55051608507E+02  0.47000000000E+01 0. -1.
<mgrwt>
<rscale>  0 0.12711620E+03</rscale>
<asrwt>0</asrwt>
<pdfrwt beam="1">  1        5 0.81899413E-01 0.12711643E+03</pdfrwt>
<pdfrwt beam="2">  1       -5 0.48177573E-02 0.12711643E+03</pdfrwt>
<totfact> 0.24932953E+02</totfact>
</mgrwt>
</event>
<event>
 8    1  0.1821556E-007  0.1312141E+03  0.7546771E-02  0.1225667E+00
         -5   -1    0    0    0  501 -0.00000000000E+00  0.00000000000E+00  0.60781473814E+02  0.60962919542E+02  0.47000000000E+01 0. -1.
          5   -1    0    0  501    0  0.00000000000E+00 -0.00000000000E+00 -0.28539180663E+03  0.28543050518E+03  0.47000000000E+01 0. -1.
         25    2    1    2    0    0  0.11909672094E+00 -0.39889969557E+02 -0.95270657806E+02  0.16214932890E+03  0.12499873107E+03 0.  0.
         25    2    1    2    0    0 -0.11909672094E+00  0.39889969557E+02 -0.12933967501E+03  0.18424409582E+03  0.12500364578E+03 0.  0.
          5    1    4    4  502    0 -0.58774395059E+02  0.38116599155E+00 -0.45616528600E+02  0.74548859707E+02  0.47000000000E+01 0.  1.
         -5    1    4    4    0  502  0.58655298338E+02  0.39508803565E+02 -0.83723146407E+02  0.10969523612E+03  0.47000000000E+01 0.  1.
          5    1    3    3  503    0 -0.38545683624E+02 -0.67664162488E+02 -0.80458404007E+02  0.11207075170E+03  0.47000000000E+01 0. -1.
         -5    1    3    3    0  503  0.38664780345E+02  0.27774192931E+02 -0.14812253799E+02  0.50078577203E+02  0.47000000000E+01 0. -1.
<mgrwt>
<rscale>  0 0.13121291E+03</rscale>
<asrwt>0</asrwt>
<pdfrwt beam="2">  1        5 0.43923365E-01 0.13121408E+03</pdfrwt>
<pdfrwt beam="1">  1       -5 0.93679303E-02 0.13121408E+03</pdfrwt>
<totfact> 0.32014480E+02</totfact>
</mgrwt>
</event>
<event>
 8    1  0.1821556E-007  0.1894510E+03  0.7546771E-02  0.1158959E+00
         -5   -1    0    0    0  501 -0.00000000000E+00  0.00000000000E+00  0.71068165836E+02  0.71223410445E+02  0.47000000000E+01 0. -1.
          5   -1    0    0  501    0  0.00000000000E+00 -0.00000000000E+00 -0.54156188614E+03  0.54158228047E+03  0.47000000000E+01 0. -1.
         25    2    1    2    0    0  0.13983260270E+03 -0.26721274898E+02 -0.15488069842E+03  0.24469803479E+03  0.12498765608E+03 0.  0.
         25    2    1    2    0    0 -0.13983260270E+03  0.26721274898E+02 -0.31561302189E+03  0.36810765613E+03  0.12499793442E+03 0.  0.
          5    1    4    4  502    0 -0.51722742310E+02  0.59491617153E+02 -0.71705581605E+02  0.10666899745E+03  0.47000000000E+01 0. -1.
         -5    1    4    4    0  502 -0.88109860394E+02 -0.32770342255E+02 -0.24390744028E+03  0.26143865868E+03  0.47000000000E+01 0. -1.
          5    1    3    3  503    0  0.15056065845E+03 -0.38853715688E+02 -0.94524950582E+02  0.18203070999E+03  0.47000000000E+01 0. -1.
         -5    1    3    3    0  503 -0.10728055751E+02  0.12132440790E+02 -0.60355747839E+02  0.62667324795E+02  0.47000000000E+01 0. -1.
<mgrwt>
<rscale>  0 0.18944927E+03</rscale>
<asrwt>0</asrwt>
<pdfrwt beam="2">  1        5 0.83330721E-01 0.18945096E+03</pdfrwt>
<pdfrwt beam="1">  1       -5 0.10947075E-01 0.18945096E+03</pdfrwt>
<totfact> 0.66746216E+01</totfact>
</mgrwt>
</event>
<event>
 8    1  0.1821556E-007  0.1504896E+03  0.7546771E-02  0.1199876E+00
          5   -1    0    0  501    0  0.00000000000E+00  0.00000000000E+00  0.30998298223E+02  0.31352583509E+02  0.47000000000E+01 0. -1.
         -5   -1    0    0    0  501 -0.00000000000E+00 -0.00000000000E+00 -0.10317910458E+04  0.10318017504E+04  0.47000000000E+01 0. -1.
         25    2    1    2    0    0 -0.77330636801E+02 -0.32244064050E+02 -0.78973684148E+03  0.80394739375E+03  0.12500970387E+03 0.  0.
         25    2    1    2    0    0  0.77330636801E+02  0.32244064050E+02 -0.21105590610E+03  0.25920694020E+03  0.12499574110E+03 0.  0.
          5    1    3    3  502    0  0.10063295338E+02  0.27844506441E+02 -0.66298165674E+02  0.72760725833E+02  0.47000000000E+01 0. -1.
         -5    1    3    3    0  502 -0.87393932139E+02 -0.60088570492E+02 -0.72343867581E+03  0.73118666792E+03  0.47000000000E+01 0. -1.
          5    1    4    4  503    0  0.27854514860E+02 -0.47249746297E+02 -0.97336612923E+02  0.11182539398E+03  0.47000000000E+01 0.  1.
         -5    1    4    4    0  503  0.49476121941E+02  0.79493810348E+02 -0.11371929318E+03  0.14738154622E+03  0.47000000000E+01 0.  1.
<mgrwt>
<rscale>  0 0.15048674E+03</rscale>
<asrwt>0</asrwt>
<pdfrwt beam="1">  1        5 0.47970459E-02 0.15048964E+03</pdfrwt>
<pdfrwt beam="2">  1       -5 0.15876513E+00 0.15048964E+03</pdfrwt>
<totfact> 0.49774307E+01</totfact>
</mgrwt>
</event>
<event>
 8    1  0.1821556E-007  0.1810851E+03  0.7546771E-02  0.1166772E+00
         -5   -1    0    0    0  501 -0.00000000000E+00  0.00000000000E+00  0.44274358674E+03  0.44276853275E+03  0.47000000000E+01 0. -1.
          5   -1    0    0  501    0  0.00000000000E+00 -0.00000000000E+00 -0.81550413126E+02  0.81685738541E+02  0.47000000000E+01 0. -1.
         25    2    1    2    0    0 -0.12889613431E+03 -0.23485080500E+02  0.26060548553E+03  0.31730774749E+03  0.12491286995E+03 0.  0.
         25    2    1    2    0    0  0.12889613431E+03  0.23485080500E+02  0.10058768808E+03  0.20714652381E+03  0.12500414748E+03 0.  0.
          5    1    4    4  502    0  0.78382006533E+02  0.40359975307E+02 -0.53834638676E+01  0.88451897878E+02  0.47000000000E+01 0.  1.
         -5    1    4    4    0  502  0.50514127777E+02 -0.16874894808E+02  0.10597115195E+03  0.11869462593E+03  0.47000000000E+01 0.  1.
          5    1    3    3  503    0 -0.14363854798E+03 -0.48030290387E+02  0.20977833349E+03  0.25878172359E+03  0.47000000000E+01 0. -1.
         -5    1    3    3    0  503  0.14742413667E+02  0.24545209888E+02  0.50827152036E+02  0.58526023897E+02  0.47000000000E+01 0. -1.
<mgrwt>
<rscale>  0 0.18106931E+03</rscale>
<asrwt>0</asrwt>
<pdfrwt beam="2">  1        5 0.12558546E-01 0.18108506E+03</pdfrwt>
<pdfrwt beam="1">  1       -5 0.68126728E-01 0.18108506E+03</pdfrwt>
<totfact> 0.82049806E+01</totfact>
</mgrwt>
</event>
<event>
 8    1  0.1821556E-007  0.1353578E+03  0.7546771E-02  0.1219716E+00
         -5   -1    0    0    0  501 -0.00000000000E+00  0.00000000000E+00  0.11982061995E+03  0.11991276398E+03  0.47000000000E+01 0.  1.
          5   -1    0    0  501    0  0.00000000000E+00 -0.00000000000E+00 -0.22566897897E+03  0.22571791703E+03  0.47000000000E+01 0.  1.
         25    2    1    2    0    0  0.13402655347E+02 -0.50171732391E+02  0.45296991912E+02  0.14273500896E+03  0.12499852562E+03 0.  0.
         25    2    1    2    0    0 -0.13402655347E+02  0.50171732391E+02 -0.15114535093E+03  0.20289567204E+03  0.12499961090E+03 0.  0.
          5    1    3    3  502    0 -0.30166705076E+02  0.30749326133E+02  0.14569081586E+02  0.45715416338E+02  0.47000000000E+01 0. -1.
         -5    1    3    3    0  502  0.43569360423E+02 -0.80921058524E+02  0.30727910326E+02  0.97019592626E+02  0.47000000000E+01 0. -1.
          5    1    4    4  503    0  0.24820772169E+02 -0.58338131871E+01 -0.12874691084E+03  0.13133149340E+03  0.47000000000E+01 0. -1.
         -5    1    4    4    0  503 -0.38223427517E+02  0.56005545578E+02 -0.22398440091E+02  0.71564178645E+02  0.47000000000E+01 0. -1.
<mgrwt>
<rscale>  0 0.13535756E+03</rscale>
<asrwt>0</asrwt>
<pdfrwt beam="2">  1        5 0.34729157E-01 0.13535781E+03</pdfrwt>
<pdfrwt beam="1">  1       -5 0.18444794E-01 0.13535781E+03</pdfrwt>
<totfact> 0.15547131E+02</totfact>
</mgrwt>
</event>
<event>
 8    1  0.1821556E-007  0.1647971E+03  0.7546771E-02  0.1183386E+00
         -5   -1    0    0    0  501 -0.00000000000E+00  0.00000000000E+00  0.29787391714E+03  0.29791099428E+03  0.47000000000E+01 0. -1.
          5   -1    0    0  501    0  0.00000000000E+00 -0.00000000000E+00 -0.92379870875E+02  0.92499354283E+02  0.47000000000E+01 0. -1.
         25    2    1    2    0    0  0.73185873252E+02  0.78589502046E+02  0.12599151214E+03  0.20743836412E+03  0.12499732758E+03 0.  0.
         25    2    1    2    0    0 -0.73185873252E+02 -0.78589502046E+02  0.79502534129E+02  0.18297198445E+03  0.12500244911E+03 0.  0.
          5    1    3    3  502    0  0.26121812607E+01  0.80963190339E+02  0.26529414277E+02  0.85368387021E+02  0.47000000000E+01 0.  1.
         -5    1    3    3    0  502  0.70573691992E+02 -0.23736882930E+01  0.99462097863E+02  0.12206997710E+03  0.47000000000E+01 0.  1.
          5    1    4    4  503    0 -0.70662886226E+02 -0.79710982819E+02  0.34062579816E+01  0.10668072396E+03  0.47000000000E+01 0. -1.
         -5    1    4    4    0  503 -0.25229870261E+01  0.11214807732E+01  0.76096276147E+02  0.76291260483E+02  0.47000000000E+01 0. -1.
<mgrwt>
<rscale>  0 0.16479616E+03</rscale>
<asrwt>0</asrwt>
<pdfrwt beam="2">  1        5 0.14224331E-01 0.16479713E+03</pdfrwt>
<pdfrwt beam="1">  1       -5 0.45838799E-01 0.16479713E+03</pdfrwt>
<totfact> 0.15084180E+02</totfact>
</mgrwt>
</event>
<event>
 8    1  0.1821556E-007  0.1801976E+03  0.7546771E-02  0.1167613E+00
         -5   -1    0    0    0  501 -0.00000000000E+00  0.00000000000E+00  0.10312210956E+04  0.10312318061E+04  0.47000000000E+01 0. -1.
          5   -1    0    0  501    0  0.00000000000E+00 -0.00000000000E+00 -0.31303511656E+02  0.31654381087E+02  0.47000000000E+01 0. -1.
         25    2    1    2    0    0 -0.36160033521E+02 -0.12464863350E+03  0.49529968891E+03  0.52706068287E+03  0.12500540683E+03 0.  0.
         25    2    1    2    0    0  0.36160033521E+02  0.12464863350E+03  0.50461789499E+03  0.53582550432E+03  0.12499968511E+03 0.  0.
          5    1    3    3  502    0  0.33679278927E+01 -0.12373638113E+03  0.45005491980E+03  0.46679069805E+03  0.47000000000E+01 0.  1.
         -5    1    3    3    0  502 -0.39527961414E+02 -0.91225236242E+00  0.45244769110E+02  0.60269984816E+02  0.47000000000E+01 0.  1.
          5    1    4    4  503    0 -0.34488717194E+02  0.44649524819E+02  0.80204912749E+02  0.98173161859E+02  0.47000000000E+01 0.  1.
         -5    1    4    4    0  503  0.70648750715E+02  0.79999108677E+02  0.42441298224E+03  0.43765234246E+03  0.47000000000E+01 0.  1.
<mgrwt>
<rscale>  0 0.18019663E+03</rscale>
<asrwt>0</asrwt>
<pdfrwt beam="2">  1        5 0.48437385E-02 0.18019762E+03</pdfrwt>
<pdfrwt beam="1">  1       -5 0.15867722E+00 0.18019762E+03</pdfrwt>
<totfact> 0.51526350E+01</totfact>
</mgrwt>
</event>
<event>
 8    1  0.1821556E-007  0.1286876E+03  0.7546771E-02  0.1229429E+00
          5   -1    0    0  501    0  0.00000000000E+00  0.00000000000E+00  0.17076406511E+03  0.17082873275E+03  0.47000000000E+01 0.  1.
         -5   -1    0    0    0  501 -0.00000000000E+00 -0.00000000000E+00 -0.10780379947E+03  0.10790620547E+03  0.47000000000E+01 0.  1.
         25    2    1    2    0    0  0.29084353149E+01  0.30290678935E+02 -0.12988646552E+02  0.12930689078E+03  0.12500233133E+03 0.  0.
         25    2    1    2    0    0 -0.29084353149E+01 -0.30290678935E+02  0.75948912195E+02  0.14942804744E+03  0.12503807369E+03 0.  0.
          5    1    4    4  502    0 -0.37848686714E+02 -0.81695483833E+01 -0.20729842292E+02  0.44171042191E+02  0.47000000000E+01 0. -1.
         -5    1    4    4    0  502  0.34940251399E+02 -0.22121130552E+02  0.96678754488E+02  0.10525700525E+03  0.47000000000E+01 0. -1.
          5    1    3    3  503    0 -0.26220771083E+01  0.31433824314E+02 -0.67314278217E+02  0.74486660894E+02  0.47000000000E+01 0. -1.
         -5    1    3    3    0  503  0.55305124232E+01 -0.11431453782E+01  0.54325631665E+02  0.54820229886E+02  0.47000000000E+01 0. -1.
<mgrwt>
<rscale>  0 0.12867894E+03</rscale>
<asrwt>0</asrwt>
<pdfrwt beam="1">  1        5 0.26284246E-01 0.12868762E+03</pdfrwt>
<pdfrwt beam="2">  1       -5 0.16598052E-01 0.12868762E+03</pdfrwt>
<totfact> 0.32038346E+02</totfact>
</mgrwt>
</event>
<event>
 8    1  0.1821556E-007  0.1769714E+03  0.7546771E-02  0.1170768E+00
          5   -1    0    0  501    0  0.00000000000E+00  0.00000000000E+00  0.11775502054E+03  0.11784877964E+03  0.47000000000E+01 0.  1.
         -5   -1    0    0    0  501 -0.00000000000E+00 -0.00000000000E+00 -0.28672023415E+03  0.28675875343E+03  0.47000000000E+01 0.  1.
         25    2    1    2    0    0 -0.11286417542E+03 -0.54353681902E+02 -0.13919657781E+03  0.22514992278E+03  0.12499662245E+03 0.  0.
         25    2    1    2    0    0  0.11286417542E+03  0.54353681902E+02 -0.29768635800E+02  0.17945761029E+03  0.12500486944E+03 0.  0.
          5    1    3    3  502    0 -0.54789708723E+02  0.35529909712E+02 -0.77815260046E+02  0.10169361515E+03  0.47000000000E+01 0. -1.
         -5    1    3    3    0  502 -0.58074466699E+02 -0.89883591614E+02 -0.61381317760E+02  0.12345630763E+03  0.47000000000E+01 0. -1.
          5    1    4    4  503    0  0.79953316687E+02  0.31528066299E+01 -0.69941268407E+02  0.10637830637E+03  0.47000000000E+01 0.  1.
         -5    1    4    4    0  503  0.32910858736E+02  0.51200875272E+02  0.40172632607E+02  0.73079303923E+02  0.47000000000E+01 0.  1.
<mgrwt>
<rscale>  0 0.17696990E+03</rscale>
<asrwt>0</asrwt>
<pdfrwt beam="1">  1        5 0.18126332E-01 0.17697136E+03</pdfrwt>
<pdfrwt beam="2">  1       -5 0.44120980E-01 0.17697136E+03</pdfrwt>
<totfact> 0.10709702E+02</totfact>
</mgrwt>
</event>
<event>
 8    1  0.1821556E-007  0.1280573E+03  0.7546771E-02  0.1230369E+00
          5   -1    0    0  501    0  0.00000000000E+00  0.00000000000E+00  0.57514856813E+02  0.57706574618E+02  0.47000000000E+01 0.  1.
         -5   -1    0    0    0  501 -0.00000000000E+00 -0.00000000000E+00 -0.52234243451E+03  0.52236357921E+03  0.47000000000E+01 0.  1.
         25    2    1    2    0    0  0.23238815647E+02  0.15280885810E+02 -0.42811778223E+03  0.44685959689E+03  0.12500046339E+03 0.  0.
         25    2    1    2    0    0 -0.23238815647E+02 -0.15280885810E+02 -0.36709795461E+02  0.13321055694E+03  0.12499558141E+03 0.  0.
          5    1    3    3  502    0  0.25299940663E+02 -0.35001132370E+02 -0.53823244855E+02  0.69167896826E+02  0.47000000000E+01 0. -1.
         -5    1    3    3    0  502 -0.20611250165E+01  0.50282018179E+02 -0.37429453738E+03  0.37769170007E+03  0.47000000000E+01 0. -1.
          5    1    4    4  503    0 -0.43180315109E+02 -0.41645824327E+02 -0.65627620146E+02  0.89039254393E+02  0.47000000000E+01 0. -1.
         -5    1    4    4    0  503  0.19941499463E+02  0.26364938517E+02  0.28917824685E+02  0.44171302543E+02  0.47000000000E+01 0. -1.
<mgrwt>
<rscale>  0 0.12805608E+03</rscale>
<asrwt>0</asrwt>
<pdfrwt beam="1">  1        5 0.88648139E-02 0.12805727E+03</pdfrwt>
<pdfrwt beam="2">  1       -5 0.80376745E-01 0.12805727E+03</pdfrwt>
<totfact> 0.93233801E+01</totfact>
</mgrwt>
</event>
<event>
 8    1  0.1821556E-007  0.1422548E+03  0.7546771E-02  0.1210330E+00
          5   -1    0    0  501    0  0.00000000000E+00  0.00000000000E+00  0.68701721215E+02  0.68862300992E+02  0.47000000000E+01 0.  1.
         -5   -1    0    0    0  501 -0.00000000000E+00 -0.00000000000E+00 -0.29409697308E+03  0.29413452633E+03  0.47000000000E+01 0.  1.
         25    2    1    2    0    0 -0.40070150234E+02 -0.54786429880E+02 -0.11580783414E+03  0.18343361726E+03  0.12501706944E+03 0.  0.
         25    2    1    2    0    0  0.40070150234E+02  0.54786429880E+02 -0.10958741772E+03  0.17956321006E+03  0.12500549766E+03 0.  0.
          5    1    3    3  502    0 -0.68789369689E+02 -0.70960419973E+02 -0.11273927429E+03  0.14999864184E+03  0.47000000000E+01 0.  1.
         -5    1    3    3    0  502  0.28719219455E+02  0.16173990093E+02 -0.30685598525E+01  0.33434975418E+02  0.47000000000E+01 0.  1.
          5    1    4    4  503    0 -0.75732543287E-01  0.43874396274E+01 -0.11458469055E+03  0.11476496272E+03  0.47000000000E+01 0. -1.
         -5    1    4    4    0  503  0.40145882777E+02  0.50398990253E+02  0.49972728203E+01  0.64798247338E+02  0.47000000000E+01 0. -1.
<mgrwt>
<rscale>  0 0.14225229E+03</rscale>
<asrwt>0</asrwt>
<pdfrwt beam="1">  1        5 0.10584737E-01 0.14225483E+03</pdfrwt>
<pdfrwt beam="2">  1       -5 0.45260928E-01 0.14225483E+03</pdfrwt>
<totfact> 0.24991190E+02</totfact>
</mgrwt>
</event>
<event>
 8    1  0.1821556E-007  0.1632392E+03  0.7546771E-02  0.1185089E+00
         -5   -1    0    0    0  501 -0.00000000000E+00  0.00000000000E+00  0.96936205594E+02  0.97050079624E+02  0.47000000000E+01 0.  1.
          5   -1    0    0  501    0  0.00000000000E+00 -0.00000000000E+00 -0.28969163825E+03  0.28972976249E+03  0.47000000000E+01 0.  1.
         25    2    1    2    0    0  0.76819684520E+02 -0.71556911655E+02 -0.52232028298E+02  0.17138747553E+03  0.12499530572E+03 0.  0.
         25    2    1    2    0    0 -0.76819684520E+02  0.71556911655E+02 -0.14052340436E+03  0.21539236658E+03  0.12500155549E+03 0.  0.
          5    1    4    4  502    0 -0.62995470805E+02  0.69899248359E+02 -0.23036798403E+02  0.96990300256E+02  0.47000000000E+01 0.  1.
         -5    1    4    4    0  502 -0.13824213715E+02  0.16576632962E+01 -0.11748660595E+03  0.11840206633E+03  0.47000000000E+01 0.  1.
          5    1    3    3  503    0 -0.28963238762E+02 -0.13385321591E+01 -0.30760535592E+02  0.42531887071E+02  0.47000000000E+01 0.  1.
         -5    1    3    3    0  503  0.10578292328E+03 -0.70218379496E+02 -0.21471492705E+02  0.12885558846E+03  0.47000000000E+01 0.  1.
<mgrwt>
<rscale>  0 0.16323803E+03</rscale>
<asrwt>0</asrwt>
<pdfrwt beam="2">  1        5 0.44579636E-01 0.16323922E+03</pdfrwt>
<pdfrwt beam="1">  1       -5 0.14924955E-01 0.16323922E+03</pdfrwt>
<totfact> 0.14613886E+02</totfact>
</mgrwt>
</event>
<event>
 8    1  0.1821556E-007  0.1744312E+03  0.7546771E-02  0.1173313E+00
         -5   -1    0    0    0  501 -0.00000000000E+00  0.00000000000E+00  0.22059439856E+04  0.22059489926E+04  0.47000000000E+01 0. -1.
          5   -1    0    0  501    0  0.00000000000E+00 -0.00000000000E+00 -0.13579347361E+02  0.14369713802E+02  0.47000000000E+01 0. -1.
         25    2    1    2    0    0  0.12133749825E+03 -0.88241937076E+01  0.12255047515E+04  0.12378562668E+04  0.12500234609E+03 0.  0.
         25    2    1    2    0    0 -0.12133749825E+03  0.88241937076E+01  0.96685988678E+03  0.98246243952E+03  0.12495499006E+03 0.  0.
          5    1    3    3  502    0  0.13076659528E+02 -0.30949019738E+02  0.70087002844E+03  0.70169062101E+03  0.47000000000E+01 0. -1.
         -5    1    3    3    0  502  0.10826083872E+03  0.22124826031E+02  0.52463472306E+03  0.53616564583E+03  0.47000000000E+01 0. -1.
          5    1    4    4  503    0 -0.36108850967E+02  0.45823079385E+02  0.16209849346E+03  0.17234156581E+03  0.47000000000E+01 0. -1.
         -5    1    4    4    0  503 -0.85228647281E+02 -0.36998885678E+02  0.80476139332E+03  0.81012087372E+03  0.47000000000E+01 0. -1.
<mgrwt>
<rscale>  0 0.17442271E+03</rscale>
<asrwt>0</asrwt>
<pdfrwt beam="2">  1        5 0.21503141E-02 0.17443119E+03</pdfrwt>
<pdfrwt beam="1">  1       -5 0.33943699E+00 0.17443119E+03</pdfrwt>
<totfact> 0.12156806E+01</totfact>
</mgrwt>
</event>
<event>
 8    1  0.1821556E-007  0.1339745E+03  0.7546771E-02  0.1221677E+00
         -5   -1    0    0    0  501 -0.00000000000E+00  0.00000000000E+00  0.22438011565E+03  0.22442933476E+03  0.47000000000E+01 0. -1.
          5   -1    0    0  501    0  0.00000000000E+00 -0.00000000000E+00 -0.89914620157E+02  0.90037375117E+02  0.47000000000E+01 0. -1.
         25    2    1    2    0    0 -0.25811120417E+01  0.48128494391E+02  0.11975003165E+03  0.17969204924E+03  0.12500459338E+03 0.  0.
         25    2    1    2    0    0  0.25811120417E+01 -0.48128494391E+02  0.14715463848E+02  0.13477466064E+03  0.12499860065E+03 0.  0.
          5    1    4    4  502    0 -0.31390326055E+02  0.32922448933E+02  0.87839397285E+01  0.46567024929E+02  0.47000000000E+01 0. -1.
         -5    1    4    4    0  502  0.33971438097E+02 -0.81050943323E+02  0.59315241197E+01  0.88207635714E+02  0.47000000000E+01 0. -1.
          5    1    3    3  503    0 -0.31945613574E+01 -0.42375329837E+02  0.46453826541E+02  0.63134157168E+02  0.47000000000E+01 0. -1.
         -5    1    3    3    0  503  0.61344931570E+00  0.90503824227E+02  0.73296205109E+02  0.11655789207E+03  0.47000000000E+01 0. -1.
<mgrwt>
<rscale>  0 0.13397309E+03</rscale>
<asrwt>0</asrwt>
<pdfrwt beam="2">  1        5 0.13846247E-01 0.13397448E+03</pdfrwt>
<pdfrwt beam="1">  1       -5 0.34533247E-01 0.13397448E+03</pdfrwt>
<totfact> 0.26417767E+02</totfact>
</mgrwt>
</event>
<event>
 8    1  0.1821556E-007  0.1284951E+03  0.7546771E-02  0.1229706E+00
          5   -1    0    0  501    0  0.00000000000E+00  0.00000000000E+00  0.18018033391E+03  0.18024162319E+03  0.47000000000E+01 0.  1.
         -5   -1    0    0    0  501 -0.00000000000E+00 -0.00000000000E+00 -0.98499481030E+02  0.98611549847E+02  0.47000000000E+01 0.  1.
         25    2    1    2    0    0  0.53415639207E+01 -0.29288336671E+02  0.37019612508E+01  0.12854842971E+03  0.12499862116E+03 0.  0.
         25    2    1    2    0    0 -0.53415639207E+01  0.29288336671E+02  0.77978891634E+02  0.15030474333E+03  0.12499787741E+03 0.  0.
          5    1    4    4  502    0 -0.29689744169E+02  0.87287710561E+01 -0.26475353370E+02  0.40996422881E+02  0.47000000000E+01 0. -1.
         -5    1    4    4    0  502  0.24348180248E+02  0.20559565615E+02  0.10445424500E+03  0.10930832045E+03  0.47000000000E+01 0. -1.
          5    1    3    3  503    0  0.78335713340E+01  0.46218749024E+02 -0.16980236341E+02  0.50079497076E+02  0.47000000000E+01 0. -1.
         -5    1    3    3    0  503 -0.24920074133E+01 -0.75507085695E+02  0.20682197592E+02  0.78468932631E+02  0.47000000000E+01 0. -1.
<mgrwt>
<rscale>  0 0.12849493E+03</rscale>
<asrwt>0</asrwt>
<pdfrwt beam="1">  1        5 0.27733386E-01 0.12849511E+03</pdfrwt>
<pdfrwt beam="2">  1       -5 0.15167102E-01 0.12849511E+03</pdfrwt>
<totfact> 0.34007982E+02</totfact>
</mgrwt>
</event>
<event>
 8    1  0.1821556E-007  0.1272462E+03  0.7546771E-02  0.1231600E+00
          5   -1    0    0  501    0  0.00000000000E+00  0.00000000000E+00  0.10988927687E+03  0.10998974121E+03  0.47000000000E+01 0. -1.
         -5   -1    0    0    0  501 -0.00000000000E+00 -0.00000000000E+00 -0.17139083419E+03  0.17145526543E+03  0.47000000000E+01 0. -1.
         25    2    1    2    0    0  0.22917776912E+02 -0.64782763582E+01 -0.83659607004E+02  0.15228393980E+03  0.12499710363E+03 0.  0.
         25    2    1    2    0    0 -0.22917776912E+02  0.64782763582E+01  0.22158049684E+02  0.12916106683E+03  0.12499763780E+03 0.  0.
          5    1    4    4  502    0  0.37216540682E+02 -0.28793978030E+02  0.34063558825E+02  0.58280186263E+02  0.47000000000E+01 0.  1.
         -5    1    4    4    0  502 -0.60134317594E+02  0.35272254388E+02 -0.11905509141E+02  0.70880880567E+02  0.47000000000E+01 0.  1.
          5    1    3    3  503    0  0.15359261846E+02  0.35998279536E+02  0.16800696521E+02  0.42850162866E+02  0.47000000000E+01 0.  1.
         -5    1    3    3    0  503  0.75585150661E+01 -0.42476555894E+02 -0.10046030353E+03  0.10943377694E+03  0.47000000000E+01 0.  1.
<mgrwt>
<rscale>  0 0.12724609E+03</rscale>
<asrwt>0</asrwt>
<pdfrwt beam="1">  1        5 0.16918727E-01 0.12724623E+03</pdfrwt>
<pdfrwt beam="2">  1       -5 0.26380505E-01 0.12724623E+03</pdfrwt>
<totfact> 0.30593468E+02</totfact>
</mgrwt>
</event>
<event>
 8    1  0.1821556E-007  0.1310033E+03  0.7546771E-02  0.1225983E+00
          5   -1    0    0  501    0  0.00000000000E+00  0.00000000000E+00  0.16145718895E+03  0.16152558270E+03  0.47000000000E+01 0.  1.
         -5   -1    0    0    0  501 -0.00000000000E+00 -0.00000000000E+00 -0.11144506259E+03  0.11154412569E+03  0.47000000000E+01 0.  1.
         25    2    1    2    0    0 -0.33786379965E+02 -0.19884143821E+02 -0.47846138421E+01  0.13106778709E+03  0.12497589222E+03 0.  0.
         25    2    1    2    0    0  0.33786379965E+02  0.19884143821E+02  0.54796740203E+02  0.14200192129E+03  0.12499985707E+03 0.  0.
          5    1    3    3  502    0 -0.58848307354E+02 -0.46019126147E+02 -0.35972254740E+02  0.83048036466E+02  0.47000000000E+01 0.  1.
         -5    1    3    3    0  502  0.25061927389E+02  0.26134982326E+02  0.31187640897E+02  0.48019750628E+02  0.47000000000E+01 0.  1.
          5    1    4    4  503    0  0.25735180982E+02 -0.10855913273E+02  0.89996358825E+02  0.94348211403E+02  0.47000000000E+01 0. -1.
         -5    1    4    4    0  503  0.80511989829E+01  0.30740057094E+02 -0.35199618622E+02  0.47653709891E+02  0.47000000000E+01 0. -1.
<mgrwt>
<rscale>  0 0.13099758E+03</rscale>
<asrwt>0</asrwt>
<pdfrwt beam="1">  1        5 0.24852449E-01 0.13100329E+03</pdfrwt>
<pdfrwt beam="2">  1       -5 0.17158276E-01 0.13100329E+03</pdfrwt>
<totfact> 0.33791785E+02</totfact>
</mgrwt>
</event>
<event>
 8    1  0.1821556E-007  0.1437574E+03  0.7546771E-02  0.1208366E+00
         -5   -1    0    0    0  501 -0.00000000000E+00  0.00000000000E+00  0.13875256478E+04  0.13875336080E+04  0.47000000000E+01 0.  1.
          5   -1    0    0  501    0  0.00000000000E+00 -0.00000000000E+00 -0.15786851339E+02  0.16471632439E+02  0.47000000000E+01 0.  1.
         25    2    1    2    0    0 -0.56260265856E+02  0.43308120736E+02  0.88085667420E+03  0.89251031724E+03  0.12500150021E+03 0.  0.
         25    2    1    2    0    0  0.56260265856E+02 -0.43308120736E+02  0.49088212222E+03  0.51149492315E+03  0.12498394960E+03 0.  0.
          5    1    3    3  502    0 -0.85786344980E+02  0.90939831449E+01  0.38491580710E+03  0.39449241573E+03  0.47000000000E+01 0. -1.
         -5    1    3    3    0  502  0.29526079124E+02  0.34214137591E+02  0.49594086711E+03  0.49801790151E+03  0.47000000000E+01 0. -1.
          5    1    4    4  503    0 -0.39260871703E+01 -0.75125614986E+02  0.26831552116E+03  0.27870159864E+03  0.47000000000E+01 0. -1.
         -5    1    4    4    0  503  0.60186353027E+02  0.31817494250E+02  0.22256660106E+03  0.23279332452E+03  0.47000000000E+01 0. -1.
<mgrwt>
<rscale>  0 0.14375357E+03</rscale>
<asrwt>0</asrwt>
<pdfrwt beam="2">  1        5 0.24820334E-02 0.14375739E+03</pdfrwt>
<pdfrwt beam="1">  1       -5 0.21351884E+00 0.14375739E+03</pdfrwt>
<totfact> 0.59165078E+01</totfact>
</mgrwt>
</event>
<event>
 8    1  0.1821556E-007  0.1506414E+03  0.7546771E-02  0.1199688E+00
         -5   -1    0    0    0  501 -0.00000000000E+00  0.00000000000E+00  0.21069445848E+03  0.21074687384E+03  0.47000000000E+01 0. -1.
          5   -1    0    0  501    0  0.00000000000E+00 -0.00000000000E+00 -0.10780794380E+03  0.10791034587E+03  0.47000000000E+01 0. -1.
         25    2    1    2    0    0  0.46401421522E+02 -0.70099268039E+02  0.44223239904E+02  0.15699853561E+03  0.12500338370E+03 0.  0.
         25    2    1    2    0    0 -0.46401421522E+02  0.70099268039E+02  0.58663274775E+02  0.16165868410E+03  0.12500060415E+03 0.  0.
          5    1    3    3  502    0 -0.21086453944E+02 -0.47960458383E+02 -0.24525164592E+02  0.58038072043E+02  0.47000000000E+01 0. -1.
         -5    1    3    3    0  502  0.67487875466E+02 -0.22138809656E+02  0.68748404496E+02  0.98960463563E+02  0.47000000000E+01 0. -1.
          5    1    4    4  503    0 -0.88369299945E+02  0.57059482976E+02  0.50236296706E+02  0.11666487594E+03  0.47000000000E+01 0.  1.
         -5    1    4    4    0  503  0.41967878423E+02  0.13039785062E+02  0.84269780690E+01  0.44993808164E+02  0.47000000000E+01 0.  1.
<mgrwt>
<rscale>  0 0.15064087E+03</rscale>
<asrwt>0</asrwt>
<pdfrwt beam="2">  1        5 0.16597747E-01 0.15064145E+03</pdfrwt>
<pdfrwt beam="1">  1       -5 0.32426441E-01 0.15064145E+03</pdfrwt>
<totfact> 0.22427480E+02</totfact>
</mgrwt>
</event>
<event>
 8    1  0.1821556E-007  0.1420863E+03  0.7546771E-02  0.1210558E+00
          5   -1    0    0  501    0  0.00000000000E+00  0.00000000000E+00  0.75442666910E+02  0.75588927698E+02  0.47000000000E+01 0. -1.
         -5   -1    0    0    0  501 -0.00000000000E+00 -0.00000000000E+00 -0.27803731676E+03  0.27807703881E+03  0.47000000000E+01 0. -1.
         25    2    1    2    0    0  0.52962116811E+01  0.67346045875E+02 -0.13631286995E+03  0.19688013601E+03  0.12496819471E+03 0.  0.
         25    2    1    2    0    0 -0.52962116811E+01 -0.67346045875E+02 -0.66281779901E+02  0.15678583050E+03  0.12499993018E+03 0.  0.
          5    1    3    3  502    0 -0.35963250543E+02  0.41190978498E+02 -0.13722683157E+03  0.14779494376E+03  0.47000000000E+01 0. -1.
         -5    1    3    3    0  502  0.41259462224E+02  0.26155067376E+02  0.91396161513E+00  0.49085192251E+02  0.47000000000E+01 0. -1.
          5    1    4    4  503    0 -0.49651103944E+02 -0.30612085826E+02 -0.78315265081E+02  0.97763503754E+02  0.47000000000E+01 0.  1.
         -5    1    4    4    0  503  0.44354892263E+02 -0.36733960049E+02  0.12033485180E+02  0.59022326743E+02  0.47000000000E+01 0.  1.
<mgrwt>
<rscale>  0 0.14207934E+03</rscale>
<asrwt>0</asrwt>
<pdfrwt beam="1">  1        5 0.11620871E-01 0.14208632E+03</pdfrwt>
<pdfrwt beam="2">  1       -5 0.42789278E-01 0.14208632E+03</pdfrwt>
<totfact> 0.23814258E+02</totfact>
</mgrwt>
</event>
<event>
 8    1  0.1821556E-007  0.1577945E+03  0.7546771E-02  0.1191210E+00
          5   -1    0    0  501    0  0.00000000000E+00  0.00000000000E+00  0.23737182505E+03  0.23741835087E+03  0.47000000000E+01 0. -1.
         -5   -1    0    0    0  501 -0.00000000000E+00 -0.00000000000E+00 -0.11700610510E+03  0.11710046384E+03  0.47000000000E+01 0. -1.
         25    2    1    2    0    0 -0.49113678139E+02 -0.82828701452E+02  0.29275060773E+01  0.15782163540E+03  0.12500540446E+03 0.  0.
         25    2    1    2    0    0  0.49113678139E+02  0.82828701452E+02  0.11743821387E+03  0.19669717931E+03  0.12500119642E+03 0.  0.
          5    1    4    4  502    0 -0.17691090133E+02  0.18248603530E+02 -0.18631499228E+02  0.31862343988E+02  0.47000000000E+01 0. -1.
         -5    1    4    4    0  502  0.66804768273E+02  0.64580097922E+02  0.13606971310E+03  0.16483483532E+03  0.47000000000E+01 0. -1.
          5    1    3    3  503    0  0.29867240850E+02 -0.85827475937E+01  0.32653784417E+02  0.45321907164E+02  0.47000000000E+01 0. -1.
         -5    1    3    3    0  503 -0.78980918989E+02 -0.74245953858E+02 -0.29726278340E+02  0.11249972823E+03  0.47000000000E+01 0. -1.
<mgrwt>
<rscale>  0 0.15779365E+03</rscale>
<asrwt>0</asrwt>
<pdfrwt beam="1">  1        5 0.36529580E-01 0.15779448E+03</pdfrwt>
<pdfrwt beam="2">  1       -5 0.18011776E-01 0.15779448E+03</pdfrwt>
<totfact> 0.15427929E+02</totfact>
</mgrwt>
</event>
<event>
 8    1  0.1821556E-007  0.1393950E+03  0.7546771E-02  0.1214148E+00
         -5   -1    0    0    0  501 -0.00000000000E+00  0.00000000000E+00  0.90815655850E+03  0.90816872042E+03  0.47000000000E+01 0. -1.
          5   -1    0    0  501    0  0.00000000000E+00 -0.00000000000E+00 -0.24371620815E+02  0.24820674873E+02  0.47000000000E+01 0. -1.
         25    2    1    2    0    0  0.56227115801E+02 -0.25363222350E+02  0.61048464708E+03  0.62619683981E+03  0.12500478497E+03 0.  0.
         25    2    1    2    0    0 -0.56227115801E+02  0.25363222350E+02  0.27330029060E+03  0.30679255548E+03  0.12499536654E+03 0.  0.
          5    1    4    4  502    0 -0.32752566756E+02  0.17685807950E+02  0.27858649686E+03  0.28110148463E+03  0.47000000000E+01 0.  1.
         -5    1    4    4    0  502 -0.23474549045E+02  0.76774143998E+01 -0.52862062555E+01  0.25691070848E+02  0.47000000000E+01 0.  1.
          5    1    3    3  503    0  0.92026761111E+02 -0.51891732367E+01  0.49496430855E+03  0.50349539126E+03  0.47000000000E+01 0.  1.
         -5    1    3    3    0  503 -0.35799645310E+02 -0.20174049113E+02  0.11552033853E+03  0.12270144855E+03  0.47000000000E+01 0.  1.
<mgrwt>
<rscale>  0 0.13939293E+03</rscale>
<asrwt>0</asrwt>
<pdfrwt beam="2">  1        5 0.37849591E-02 0.13939504E+03</pdfrwt>
<pdfrwt beam="1">  1       -5 0.13975184E+00 0.13939504E+03</pdfrwt>
<totfact> 0.10179755E+02</totfact>
</mgrwt>
</event>
<event>
 8    1  0.1821556E-007  0.1411901E+03  0.7546771E-02  0.1211751E+00
         -5   -1    0    0    0  501 -0.00000000000E+00  0.00000000000E+00  0.75221255797E+03  0.75222724118E+03  0.47000000000E+01 0. -1.
          5   -1    0    0  501    0  0.00000000000E+00 -0.00000000000E+00 -0.26288899149E+02  0.26705733813E+02  0.47000000000E+01 0. -1.
         25    2    1    2    0    0  0.63729592279E+02 -0.15778216439E+02  0.35260947395E+03  0.37982638447E+03  0.12499691264E+03 0.  0.
         25    2    1    2    0    0 -0.63729592279E+02  0.15778216439E+02  0.37331418487E+03  0.39910659053E+03  0.12494869719E+03 0.  0.
          5    1    3    3  502    0  0.61451931782E+02 -0.62558391228E+02  0.27863067219E+03  0.29214214642E+03  0.47000000000E+01 0.  1.
         -5    1    3    3    0  502  0.22776604968E+01  0.46780174789E+02  0.73978801766E+02  0.87684238044E+02  0.47000000000E+01 0.  1.
          5    1    4    4  503    0 -0.71296971454E+02  0.61677349336E+02  0.24865866071E+03  0.26597100049E+03  0.47000000000E+01 0. -1.
         -5    1    4    4    0  503  0.75673791748E+01 -0.45899132898E+02  0.12465552417E+03  0.13313559003E+03  0.47000000000E+01 0. -1.
<mgrwt>
<rscale>  0 0.14117942E+03</rscale>
<asrwt>0</asrwt>
<pdfrwt beam="2">  1        5 0.40776401E-02 0.14119009E+03</pdfrwt>
<pdfrwt beam="1">  1       -5 0.11575819E+00 0.14119009E+03</pdfrwt>
<totfact> 0.14735855E+02</totfact>
</mgrwt>
</event>
<event>
 8    1  0.1821556E-007  0.1597962E+03  0.7546771E-02  0.1188927E+00
         -5   -1    0    0    0  501 -0.00000000000E+00  0.00000000000E+00  0.85264141638E+02  0.85393582014E+02  0.47000000000E+01 0.  1.
          5   -1    0    0  501    0  0.00000000000E+00 -0.00000000000E+00 -0.29912806746E+03  0.29916498916E+03  0.47000000000E+01 0.  1.
         25    2    1    2    0    0 -0.86665864596E+02 -0.49033879785E+02 -0.10510236572E+03  0.19126110480E+03  0.12497603560E+03 0.  0.
         25    2    1    2    0    0  0.86665864596E+02  0.49033879785E+02 -0.10876156010E+03  0.19329746638E+03  0.12497815850E+03 0.  0.
          5    1    4    4  502    0  0.52269810653E+02  0.10844535505E+02  0.17920063286E+02  0.56506245001E+02  0.47000000000E+01 0. -1.
         -5    1    4    4    0  502  0.34396053943E+02  0.38189344280E+02 -0.12668162338E+03  0.13679122138E+03  0.47000000000E+01 0. -1.
          5    1    3    3  503    0 -0.39543309130E+02  0.14710388578E+02  0.16899426474E+02  0.45691896920E+02  0.47000000000E+01 0. -1.
         -5    1    3    3    0  503 -0.47122555466E+02 -0.63744268363E+02 -0.12200179220E+03  0.14556920788E+03  0.47000000000E+01 0. -1.
<mgrwt>
<rscale>  0 0.15979581E+03</rscale>
<asrwt>0</asrwt>
<pdfrwt beam="2">  1        5 0.46032499E-01 0.15979623E+03</pdfrwt>
<pdfrwt beam="1">  1       -5 0.13130357E-01 0.15979623E+03</pdfrwt>
<totfact> 0.17105883E+02</totfact>
</mgrwt>
</event>
<event>
 8    1  0.1821556E-007  0.1327089E+03  0.7546771E-02  0.1223491E+00
          5   -1    0    0  501    0  0.00000000000E+00  0.00000000000E+00  0.10788183973E+03  0.10798417173E+03  0.47000000000E+01 0. -1.
         -5   -1    0    0    0  501 -0.00000000000E+00 -0.00000000000E+00 -0.18814641719E+03  0.18820511232E+03  0.47000000000E+01 0. -1.
         25    2    1    2    0    0  0.21946600169E+02 -0.38776428164E+02 -0.94212536650E+02  0.16275030699E+03  0.12500558277E+03 0.  0.
         25    2    1    2    0    0 -0.21946600169E+02  0.38776428164E+02  0.13947959190E+02  0.13343897705E+03  0.12500460148E+03 0.  0.
          5    1    3    3  502    0  0.58088159870E+02 -0.99303440537E+01 -0.16128566386E+01  0.59139981033E+02  0.47000000000E+01 0. -1.
         -5    1    3    3    0  502 -0.36141559701E+02 -0.28846084111E+02 -0.92599680012E+02  0.10361032595E+03  0.47000000000E+01 0. -1.
          5    1    4    4  503    0  0.40594844159E+02 -0.14315906148E+02  0.25817752707E+02  0.50413618160E+02  0.47000000000E+01 0.  1.
         -5    1    4    4    0  503 -0.62541444328E+02  0.53092334313E+02 -0.11869793516E+02  0.83025358894E+02  0.47000000000E+01 0.  1.
<mgrwt>
<rscale>  0 0.13270870E+03</rscale>
<asrwt>0</asrwt>
<pdfrwt beam="1">  1        5 0.16609593E-01 0.13270893E+03</pdfrwt>
<pdfrwt beam="2">  1       -5 0.28957989E-01 0.13270893E+03</pdfrwt>
<totfact> 0.26816512E+02</totfact>
</mgrwt>
</event>
<event>
 8    1  0.1821556E-007  0.1253385E+03  0.7546771E-02  0.1234543E+00
         -5   -1    0    0    0  501 -0.00000000000E+00  0.00000000000E+00  0.38251720677E+02  0.38539384203E+02  0.47000000000E+01 0. -1.
          5   -1    0    0  501    0  0.00000000000E+00 -0.00000000000E+00 -0.43515991647E+03  0.43518529720E+03  0.47000000000E+01 0. -1.
         25    2    1    2    0    0 -0.74267011721E+01  0.54070818869E+01 -0.14022263808E+03  0.18807240360E+03  0.12499779335E+03 0.  0.
         25    2    1    2    0    0  0.74267011721E+01 -0.54070818869E+01 -0.25668555771E+03  0.28565227780E+03  0.12500142340E+03 0.  0.
          5    1    3    3  502    0  0.56558644366E+01 -0.56944350876E+02 -0.42973009035E+02  0.71717622693E+02  0.47000000000E+01 0.  1.
         -5    1    3    3    0  502 -0.13082565609E+02  0.62351432763E+02 -0.97249629048E+02  0.11635478091E+03  0.47000000000E+01 0.  1.
          5    1    4    4  503    0 -0.46382009801E+02  0.17448284218E+02 -0.19195023165E+03  0.19829955846E+03  0.47000000000E+01 0. -1.
         -5    1    4    4    0  503  0.53808710973E+02 -0.22855366105E+02 -0.64735326060E+02  0.87352719342E+02  0.47000000000E+01 0. -1.
<mgrwt>
<rscale>  0 0.12533763E+03</rscale>
<asrwt>0</asrwt>
<pdfrwt beam="2">  1        5 0.66971757E-01 0.12533853E+03</pdfrwt>
<pdfrwt beam="1">  1       -5 0.59089607E-02 0.12533853E+03</pdfrwt>
<totfact> 0.27902425E+02</totfact>
</mgrwt>
</event>
<event>
 8    1  0.1821556E-007  0.2084676E+03  0.7546771E-02  0.1142786E+00
          5   -1    0    0  501    0  0.00000000000E+00  0.00000000000E+00  0.91388795066E+03  0.91390003631E+03  0.47000000000E+01 0.  1.
         -5   -1    0    0    0  501 -0.00000000000E+00 -0.00000000000E+00 -0.47630397289E+02  0.47861725271E+02  0.47000000000E+01 0.  1.
         25    2    1    2    0    0  0.28965894871E+02 -0.16429954605E+03  0.40160165253E+03  0.45248496578E+03  0.12500157218E+03 0.  0.
         25    2    1    2    0    0 -0.28965894871E+02  0.16429954605E+03  0.46465590085E+03  0.50927679580E+03  0.12499753857E+03 0.  0.
          5    1    3    3  502    0  0.10864806521E+02 -0.16519952738E+03  0.25096970243E+03  0.30069387989E+03  0.47000000000E+01 0.  1.
         -5    1    3    3    0  502  0.18101088350E+02  0.89998132173E+00  0.15063195010E+03  0.15179108589E+03  0.47000000000E+01 0.  1.
          5    1    4    4  503    0 -0.16469372593E+02  0.13289886241E+03  0.45425375759E+03  0.47360523028E+03  0.47000000000E+01 0. -1.
         -5    1    4    4    0  503 -0.12496522278E+02  0.31400683646E+02  0.10402143261E+02  0.35671565523E+02  0.47000000000E+01 0. -1.
<mgrwt>
<rscale>  0 0.20846704E+03</rscale>
<asrwt>0</asrwt>
<pdfrwt beam="1">  1        5 0.14061687E+00 0.20846764E+03</pdfrwt>
<pdfrwt beam="2">  1       -5 0.73464778E-02 0.20846764E+03</pdfrwt>
<totfact> 0.36875970E+01</totfact>
</mgrwt>
</event>
<event>
 8    1  0.1821556E-007  0.1593896E+03  0.7546771E-02  0.1189388E+00
          5   -1    0    0  501    0  0.00000000000E+00  0.00000000000E+00  0.12190110867E+03  0.12199168125E+03  0.47000000000E+01 0. -1.
         -5   -1    0    0    0  501 -0.00000000000E+00 -0.00000000000E+00 -0.22695984246E+03  0.22700850224E+03  0.47000000000E+01 0. -1.
         25    2    1    2    0    0 -0.62594919930E+02  0.76558380164E+02 -0.10266890896E+03  0.18959261962E+03  0.12500058788E+03 0.  0.
         25    2    1    2    0    0  0.62594919930E+02 -0.76558380164E+02 -0.23898248246E+01  0.15940756387E+03  0.12500300229E+03 0.  0.
          5    1    4    4  502    0  0.91990548291E+02 -0.19424730191E+02  0.65608261173E+01  0.94364800415E+02  0.47000000000E+01 0.  1.
         -5    1    4    4    0  502 -0.29395628361E+02 -0.57133649973E+02 -0.89506509419E+01  0.65042763458E+02  0.47000000000E+01 0.  1.
          5    1    3    3  503    0 -0.14993268057E+02 -0.18718354982E+02  0.16659593677E+02  0.29577135793E+02  0.47000000000E+01 0.  1.
         -5    1    3    3    0  503 -0.47601651874E+02  0.95276735146E+02 -0.11932850264E+03  0.16001548382E+03  0.47000000000E+01 0.  1.
<mgrwt>
<rscale>  0 0.15938918E+03</rscale>
<asrwt>0</asrwt>
<pdfrwt beam="1">  1        5 0.18764727E-01 0.15938965E+03</pdfrwt>
<pdfrwt beam="2">  1       -5 0.34927609E-01 0.15938965E+03</pdfrwt>
<totfact> 0.15704146E+02</totfact>
</mgrwt>
</event>
<event>
 8    1  0.1821556E-007  0.1410177E+03  0.7546771E-02  0.1211987E+00
         -5   -1    0    0    0  501 -0.00000000000E+00  0.00000000000E+00  0.15761186849E+03  0.15768193012E+03  0.47000000000E+01 0. -1.
          5   -1    0    0  501    0  0.00000000000E+00 -0.00000000000E+00 -0.12669190278E+03  0.12677905281E+03  0.47000000000E+01 0. -1.
         25    2    1    2    0    0  0.41435173071E+02 -0.50431686618E+02  0.26164730628E+02  0.14342452829E+03  0.12500309437E+03 0.  0.
         25    2    1    2    0    0 -0.41435173071E+02  0.50431686618E+02  0.47552350760E+01  0.14103645465E+03  0.12493374523E+03 0.  0.
          5    1    4    4  502    0  0.16599782197E+02 -0.19963470797E+02  0.35869626383E+02  0.44528788801E+02  0.47000000000E+01 0. -1.
         -5    1    4    4    0  502 -0.58034955269E+02  0.70395157415E+02 -0.31114391307E+02  0.96507665845E+02  0.47000000000E+01 0. -1.
          5    1    3    3  503    0 -0.32468688273E+02 -0.33126457752E+02  0.45299946154E+02  0.65005792380E+02  0.47000000000E+01 0.  1.
         -5    1    3    3    0  503  0.73903861345E+02 -0.17305228866E+02 -0.19135215526E+02  0.78418735905E+02  0.47000000000E+01 0.  1.
<mgrwt>
<rscale>  0 0.14100237E+03</rscale>
<asrwt>0</asrwt>
<pdfrwt beam="2">  1        5 0.19503155E-01 0.14101774E+03</pdfrwt>
<pdfrwt beam="1">  1       -5 0.24260073E-01 0.14101774E+03</pdfrwt>
<totfact> 0.28652688E+02</totfact>
</mgrwt>
</event>
<event>
 8    1  0.1821556E-007  0.1251038E+03  0.7546771E-02  0.1234908E+00
         -5   -1    0    0    0  501 -0.00000000000E+00  0.00000000000E+00  0.67082180296E+03  0.67083826764E+03  0.47000000000E+01 0. -1.
          5   -1    0    0  501    0  0.00000000000E+00 -0.00000000000E+00 -0.23425899314E+02  0.23892734433E+02  0.47000000000E+01 0. -1.
         25    2    1    2    0    0 -0.38425396725E+01 -0.32281475060E+01  0.36566017306E+03  0.38646815502E+03  0.12500034652E+03 0.  0.
         25    2    1    2    0    0  0.38425396725E+01  0.32281475060E+01  0.28173573058E+03  0.30826284705E+03  0.12500309972E+03 0.  0.
          5    1    4    4  502    0 -0.58283839811E+02  0.15186577033E+02  0.15921678724E+03  0.17029302230E+03  0.47000000000E+01 0. -1.
         -5    1    4    4    0  502  0.62126379484E+02 -0.11958429527E+02  0.12251894335E+03  0.13796982476E+03  0.47000000000E+01 0. -1.
          5    1    3    3  503    0  0.61389011206E+01  0.52487389838E+01  0.37132744733E+03  0.37144501412E+03  0.47000000000E+01 0.  1.
         -5    1    3    3    0  503 -0.99814407931E+01 -0.84768864899E+01 -0.56672742709E+01  0.15023140901E+02  0.47000000000E+01 0.  1.
<mgrwt>
<rscale>  0 0.12510311E+03</rscale>
<asrwt>0</asrwt>
<pdfrwt beam="2">  1        5 0.36411609E-02 0.12510380E+03</pdfrwt>
<pdfrwt beam="1">  1       -5 0.10324055E+00 0.12510380E+03</pdfrwt>
<totfact> 0.22618155E+02</totfact>
</mgrwt>
</event>
<event>
 8    1  0.1821556E-007  0.1396529E+03  0.7546771E-02  0.1213810E+00
          5   -1    0    0  501    0  0.00000000000E+00  0.00000000000E+00  0.68294570969E+02  0.68456105818E+02  0.47000000000E+01 0.  1.
         -5   -1    0    0    0  501 -0.00000000000E+00 -0.00000000000E+00 -0.29799191601E+03  0.29802897847E+03  0.47000000000E+01 0.  1.
         25    2    1    2    0    0  0.55443736883E+02  0.28157696157E+02 -0.15315036998E+03  0.20726305730E+03  0.12504429329E+03 0.  0.
         25    2    1    2    0    0 -0.55443736883E+02 -0.28157696157E+02 -0.76546975055E+02  0.15922202698E+03  0.12500140269E+03 0.  0.
          5    1    4    4  502    0 -0.42860649981E+02 -0.49625036440E+02  0.12261343194E+02  0.66873837151E+02  0.47000000000E+01 0. -1.
         -5    1    4    4    0  502 -0.12583086903E+02  0.21467340283E+02 -0.88808318249E+02  0.92348189831E+02  0.47000000000E+01 0. -1.
          5    1    3    3  503    0 -0.39352608334E+02  0.17204061034E+02 -0.58982750282E+02  0.73114036475E+02  0.47000000000E+01 0.  1.
         -5    1    3    3    0  503  0.94796345217E+02  0.10953635124E+02 -0.94167619702E+02  0.13414902083E+03  0.47000000000E+01 0.  1.
<mgrwt>
<rscale>  0 0.13964332E+03</rscale>
<asrwt>0</asrwt>
<pdfrwt beam="1">  1        5 0.10522134E-01 0.13965292E+03</pdfrwt>
<pdfrwt beam="2">  1       -5 0.45860186E-01 0.13965292E+03</pdfrwt>
<totfact> 0.24416082E+02</totfact>
</mgrwt>
</event>
<event>
 8    1  0.1821556E-007  0.1485735E+03  0.7546771E-02  0.1202238E+00
         -5   -1    0    0    0  501 -0.00000000000E+00  0.00000000000E+00  0.19263466811E+03  0.19269199609E+03  0.47000000000E+01 0.  1.
          5   -1    0    0  501    0  0.00000000000E+00 -0.00000000000E+00 -0.11449947957E+03  0.11459590229E+03  0.47000000000E+01 0.  1.
         25    2    1    2    0    0  0.36668151989E+02  0.71438298757E+02  0.41766867501E+02  0.15432792846E+03  0.12499861753E+03 0.  0.
         25    2    1    2    0    0 -0.36668151989E+02 -0.71438298757E+02  0.36368321035E+02  0.15295996992E+03  0.12500445481E+03 0.  0.
          5    1    4    4  502    0  0.42856066259E+00 -0.90328422990E+02  0.56325494050E+02  0.10655542663E+03  0.47000000000E+01 0. -1.
         -5    1    4    4    0  502 -0.37096712651E+02  0.18890124234E+02 -0.19957173015E+02  0.46404543289E+02  0.47000000000E+01 0. -1.
          5    1    3    3  503    0  0.45059927002E+02  0.37980892201E+00 -0.28830140287E+02  0.53701101155E+02  0.47000000000E+01 0.  1.
         -5    1    3    3    0  503 -0.83917750132E+01  0.71058489834E+02  0.70597007788E+02  0.10062682731E+03  0.47000000000E+01 0.  1.
<mgrwt>
<rscale>  0 0.14857231E+03</rscale>
<asrwt>0</asrwt>
<pdfrwt beam="2">  1        5 0.17627132E-01 0.14857354E+03</pdfrwt>
<pdfrwt beam="1">  1       -5 0.29647929E-01 0.14857354E+03</pdfrwt>
<totfact> 0.23855109E+02</totfact>
</mgrwt>
</event>
<event>
 8    1  0.1821556E-007  0.1338380E+03  0.7546771E-02  0.1221871E+00
         -5   -1    0    0    0  501 -0.00000000000E+00  0.00000000000E+00  0.39337746623E+03  0.39340554259E+03  0.47000000000E+01 0. -1.
          5   -1    0    0  501    0  0.00000000000E+00 -0.00000000000E+00 -0.53839465318E+02  0.54044222871E+02  0.47000000000E+01 0. -1.
         25    2    1    2    0    0 -0.47317351408E+02  0.69752495143E+01  0.25822942769E+03  0.29085228981E+03  0.12500012527E+03 0.  0.
         25    2    1    2    0    0  0.47317351408E+02 -0.69752495143E+01  0.81308573228E+02  0.15659747565E+03  0.12499639774E+03 0.  0.
          5    1    4    4  502    0  0.55046644798E+02  0.51629168734E+01  0.11053650466E+03  0.12368184053E+03  0.47000000000E+01 0.  1.
         -5    1    4    4    0  502 -0.77292933899E+01 -0.12138166388E+02 -0.29227931430E+02  0.32915635119E+02  0.47000000000E+01 0.  1.
          5    1    3    3  503    0 -0.46630494197E+01 -0.41814596216E+02  0.19725410607E+03  0.20174607022E+03  0.47000000000E+01 0.  1.
         -5    1    3    3    0  503 -0.42654301988E+02  0.48789845730E+02  0.60975321614E+02  0.89106219594E+02  0.47000000000E+01 0.  1.
<mgrwt>
<rscale>  0 0.13383716E+03</rscale>
<asrwt>0</asrwt>
<pdfrwt beam="2">  1        5 0.83009049E-02 0.13383803E+03</pdfrwt>
<pdfrwt beam="1">  1       -5 0.60537521E-01 0.13383803E+03</pdfrwt>
<totfact> 0.20056369E+02</totfact>
</mgrwt>
</event>
<event>
 8    1  0.1821556E-007  0.1331091E+03  0.7546771E-02  0.1222914E+00
          5   -1    0    0  501    0  0.00000000000E+00  0.00000000000E+00  0.76509421041E+02  0.76653646411E+02  0.47000000000E+01 0. -1.
         -5   -1    0    0    0  501 -0.00000000000E+00 -0.00000000000E+00 -0.24942389645E+03  0.24946817457E+03  0.47000000000E+01 0. -1.
         25    2    1    2    0    0 -0.70379914529E+01  0.45204702895E+02 -0.13052667325E+03  0.18642757934E+03  0.12500012568E+03 0.  0.
         25    2    1    2    0    0  0.70379914529E+01 -0.45204702895E+02 -0.42387802167E+02  0.13969424164E+03  0.12499902755E+03 0.  0.
          5    1    3    3  502    0 -0.26846830733E+02  0.51532841981E+02 -0.14786870979E+03  0.15894537256E+03  0.47000000000E+01 0.  1.
         -5    1    3    3    0  502  0.19808839280E+02 -0.63281390861E+01  0.17342036543E+02  0.27482206778E+02  0.47000000000E+01 0.  1.
          5    1    4    4  503    0  0.33186008902E+02  0.31864315456E+02  0.30856698991E+01  0.46349294979E+02  0.47000000000E+01 0. -1.
         -5    1    4    4    0  503 -0.26148017449E+02 -0.77069018350E+02 -0.45473472066E+02  0.93344946664E+02  0.47000000000E+01 0. -1.
<mgrwt>
<rscale>  0 0.13310883E+03</rscale>
<asrwt>0</asrwt>
<pdfrwt beam="1">  1        5 0.11785181E-01 0.13310909E+03</pdfrwt>
<pdfrwt beam="2">  1       -5 0.38387407E-01 0.13310909E+03</pdfrwt>
<totfact> 0.28382359E+02</totfact>
</mgrwt>
</event>
<event>
 8    1  0.1821556E-007  0.1561358E+03  0.7546771E-02  0.1193131E+00
          5   -1    0    0  501    0  0.00000000000E+00  0.00000000000E+00  0.73816411366E+02  0.73965887996E+02  0.47000000000E+01 0. -1.
         -5   -1    0    0    0  501 -0.00000000000E+00 -0.00000000000E+00 -0.33561808890E+03  0.33565099672E+03  0.47000000000E+01 0. -1.
         25    2    1    2    0    0  0.93189931910E+02  0.83160938741E+01 -0.10382359929E+03  0.18750390971E+03  0.12499942224E+03 0.  0.
         25    2    1    2    0    0 -0.93189931910E+02 -0.83160938741E+01 -0.15797807825E+03  0.22211297500E+03  0.12499431840E+03 0.  0.
          5    1    4    4  502    0  0.13942092801E+02 -0.38191714432E+02 -0.22287402030E+02  0.46602653274E+02  0.47000000000E+01 0. -1.
         -5    1    4    4    0  502 -0.10713202471E+03  0.29875620558E+02 -0.13569067622E+03  0.17551032173E+03  0.47000000000E+01 0. -1.
          5    1    3    3  503    0  0.91440907018E+02 -0.44701927524E+02 -0.77996235026E+02  0.12831681292E+03  0.47000000000E+01 0.  1.
         -5    1    3    3    0  503  0.17490248914E+01  0.53018021398E+02 -0.25827364261E+02  0.59187096784E+02  0.47000000000E+01 0.  1.
<mgrwt>
<rscale>  0 0.15613474E+03</rscale>
<asrwt>0</asrwt>
<pdfrwt beam="1">  1        5 0.11370401E-01 0.15613576E+03</pdfrwt>
<pdfrwt beam="2">  1       -5 0.51647581E-01 0.15613576E+03</pdfrwt>
<totfact> 0.17192550E+02</totfact>
</mgrwt>
</event>
<event>
 8    1  0.1821556E-007  0.1625675E+03  0.7546771E-02  0.1185829E+00
          5   -1    0    0  501    0  0.00000000000E+00  0.00000000000E+00  0.70525969011E+02  0.70682404493E+02  0.47000000000E+01 0. -1.
         -5   -1    0    0    0  501 -0.00000000000E+00 -0.00000000000E+00 -0.37953115856E+03  0.37956025914E+03  0.47000000000E+01 0. -1.
         25    2    1    2    0    0  0.84854993738E+02 -0.60014441622E+02 -0.18132976328E+03  0.24353224884E+03  0.12500148003E+03 0.  0.
         25    2    1    2    0    0 -0.84854993738E+02  0.60014441622E+02 -0.12767542627E+03  0.20671041479E+03  0.12500431170E+03 0.  0.
          5    1    4    4  502    0 -0.50696647553E+02  0.87480408641E+02 -0.12728802349E+03  0.16262626753E+03  0.47000000000E+01 0.  1.
         -5    1    4    4    0  502 -0.34158346185E+02 -0.27465967019E+02 -0.38740278423E+00  0.44084147256E+02  0.47000000000E+01 0.  1.
          5    1    3    3  503    0  0.71678206918E+02 -0.54252665082E+02 -0.20010458639E+03  0.21941980884E+03  0.47000000000E+01 0.  1.
         -5    1    3    3    0  503  0.13176786820E+02 -0.57617765402E+01  0.18774823115E+02  0.24112440001E+02  0.47000000000E+01 0.  1.
<mgrwt>
<rscale>  0 0.16256692E+03</rscale>
<asrwt>0</asrwt>
<pdfrwt beam="1">  1        5 0.10864421E-01 0.16256747E+03</pdfrwt>
<pdfrwt beam="2">  1       -5 0.58403680E-01 0.16256747E+03</pdfrwt>
<totfact> 0.14468271E+02</totfact>
</mgrwt>
</event>
<event>
 8    1  0.1821556E-007  0.1684505E+03  0.7546771E-02  0.1179475E+00
         -5   -1    0    0    0  501 -0.00000000000E+00  0.00000000000E+00  0.58047772877E+02  0.58237736357E+02  0.47000000000E+01 0.  1.
          5   -1    0    0  501    0  0.00000000000E+00 -0.00000000000E+00 -0.57722236572E+03  0.57724150014E+03  0.47000000000E+01 0.  1.
         25    2    1    2    0    0  0.82136683550E+02 -0.77470242806E+02 -0.13455088027E+03  0.21558522649E+03  0.12499990877E+03 0.  0.
         25    2    1    2    0    0 -0.82136683550E+02  0.77470242806E+02 -0.38462371257E+03  0.41989401001E+03  0.12501002386E+03 0.  0.
          5    1    3    3  502    0  0.61191431179E+02 -0.10086165111E+03 -0.14025026391E+03  0.18332945874E+03  0.47000000000E+01 0. -1.
         -5    1    3    3    0  502  0.20945252371E+02  0.23391408303E+02  0.56993836392E+01  0.32255767750E+02  0.47000000000E+01 0. -1.
          5    1    4    4  503    0  0.27110948074E+02  0.19361370387E+01 -0.27968555589E+02  0.39282085406E+02  0.47000000000E+01 0.  1.
         -5    1    4    4    0  503 -0.10924763162E+03  0.75534105768E+02 -0.35665515698E+03  0.38061192461E+03  0.47000000000E+01 0.  1.
<mgrwt>
<rscale>  0 0.16844865E+03</rscale>
<asrwt>0</asrwt>
<pdfrwt beam="2">  1        5 0.88819521E-01 0.16845052E+03</pdfrwt>
<pdfrwt beam="1">  1       -5 0.89465115E-02 0.16845052E+03</pdfrwt>
<totfact> 0.79089434E+01</totfact>
</mgrwt>
</event>
<event>
 8    1  0.1821556E-007  0.1555856E+03  0.7546771E-02  0.1193774E+00
         -5   -1    0    0    0  501 -0.00000000000E+00  0.00000000000E+00  0.13089521080E+02  0.13907751871E+02  0.47000000000E+01 0. -1.
          5   -1    0    0  501    0  0.00000000000E+00 -0.00000000000E+00 -0.22035828681E+04  0.22035878804E+04  0.47000000000E+01 0. -1.
         25    2    1    2    0    0  0.71066234913E+01 -0.92359514697E+02 -0.61639362007E+03  0.63572547774E+03  0.12500001654E+03 0.  0.
         25    2    1    2    0    0 -0.71066234913E+01  0.92359514697E+02 -0.15740997269E+04  0.15817701545E+04  0.12500434903E+03 0.  0.
          5    1    3    3  502    0 -0.57579948870E+02 -0.31500204130E+02 -0.22997039607E+03  0.23919905192E+03  0.47000000000E+01 0. -1.
         -5    1    3    3    0  502  0.64686572361E+02 -0.60859310567E+02 -0.38642322400E+03  0.39652642582E+03  0.47000000000E+01 0. -1.
          5    1    4    4  503    0  0.27455608619E+02  0.10970789680E+03 -0.10089045198E+04  0.10152339894E+04  0.47000000000E+01 0. -1.
         -5    1    4    4    0  503 -0.34562232111E+02 -0.17348382106E+02 -0.56519520709E+03  0.56653616510E+03  0.47000000000E+01 0. -1.
<mgrwt>
<rscale>  0 0.15558471E+03</rscale>
<asrwt>0</asrwt>
<pdfrwt beam="2">  1        5 0.33907579E+00 0.15558558E+03</pdfrwt>
<pdfrwt beam="1">  1       -5 0.20771006E-02 0.15558558E+03</pdfrwt>
<totfact> 0.12631618E+01</totfact>
</mgrwt>
</event>
<event>
 8    1  0.1821556E-007  0.1703685E+03  0.7546771E-02  0.1177465E+00
         -5   -1    0    0    0  501 -0.00000000000E+00  0.00000000000E+00  0.24099322410E+03  0.24103905090E+03  0.47000000000E+01 0. -1.
          5   -1    0    0  501    0  0.00000000000E+00 -0.00000000000E+00 -0.15140325913E+03  0.15147619243E+03  0.47000000000E+01 0. -1.
         25    2    1    2    0    0 -0.13377166504E+01 -0.11574583020E+03  0.13366075496E+03  0.21654241098E+03  0.12500612642E+03 0.  0.
         25    2    1    2    0    0  0.13377166504E+01  0.11574583020E+03 -0.44070789988E+02  0.17597283236E+03  0.12500126601E+03 0.  0.
          5    1    4    4  502    0 -0.56594537755E+02  0.37034363457E+02 -0.38504818108E+02  0.77969204163E+02  0.47000000000E+01 0. -1.
         -5    1    4    4    0  502  0.57932254405E+02  0.78711466739E+02 -0.55659718804E+01  0.98003628196E+02  0.47000000000E+01 0. -1.
          5    1    3    3  503    0  0.72521872905E+01  0.25387577030E+02  0.99345591564E+01  0.28599104070E+02  0.47000000000E+01 0. -1.
         -5    1    3    3    0  503 -0.85899039409E+01 -0.14113340723E+03  0.12372619580E+03  0.18794330691E+03  0.47000000000E+01 0. -1.
<mgrwt>
<rscale>  0 0.17036759E+03</rscale>
<asrwt>0</asrwt>
<pdfrwt beam="2">  1        5 0.23301945E-01 0.17036848E+03</pdfrwt>
<pdfrwt beam="1">  1       -5 0.37085016E-01 0.17036848E+03</pdfrwt>
<totfact> 0.94427547E+01</totfact>
</mgrwt>
</event>
<event>
 8    1  0.1821556E-007  0.1434830E+03  0.7546771E-02  0.1208719E+00
         -5   -1    0    0    0  501 -0.00000000000E+00  0.00000000000E+00  0.18107760647E+04  0.18107821643E+04  0.47000000000E+01 0. -1.
          5   -1    0    0  501    0  0.00000000000E+00 -0.00000000000E+00 -0.12917115314E+02  0.13745612683E+02  0.47000000000E+01 0. -1.
         25    2    1    2    0    0 -0.52409021926E+02 -0.47059430376E+02  0.12493932686E+04  0.12576052270E+04  0.12500428677E+03 0.  0.
         25    2    1    2    0    0  0.52409021926E+02  0.47059430376E+02  0.54846568077E+03  0.56692254998E+03  0.12500111651E+03 0.  0.
          5    1    4    4  502    0  0.21346297301E+02  0.20852601599E+02  0.50959400723E+03  0.51048862632E+03  0.47000000000E+01 0.  1.
         -5    1    4    4    0  502  0.31062724625E+02  0.26206828777E+02  0.38871673544E+02  0.56433923661E+02  0.47000000000E+01 0.  1.
          5    1    3    3  503    0 -0.18569656971E+01 -0.52096331396E+02  0.10649571232E+04  0.10662425805E+04  0.47000000000E+01 0.  1.
         -5    1    3    3    0  503 -0.50552056229E+02  0.50369010197E+01  0.18443614542E+03  0.19136264656E+03  0.47000000000E+01 0.  1.
<mgrwt>
<rscale>  0 0.14348230E+03</rscale>
<asrwt>0</asrwt>
<pdfrwt beam="2">  1        5 0.20514478E-02 0.14348299E+03</pdfrwt>
<pdfrwt beam="1">  1       -5 0.27864519E+00 0.14348299E+03</pdfrwt>
<totfact> 0.30763788E+01</totfact>
</mgrwt>
</event>
<event>
 8    1  0.1821556E-007  0.1342501E+03  0.7546771E-02  0.1221283E+00
          5   -1    0    0  501    0  0.00000000000E+00  0.00000000000E+00  0.23607595346E+03  0.23612273462E+03  0.47000000000E+01 0. -1.
         -5   -1    0    0    0  501 -0.00000000000E+00 -0.00000000000E+00 -0.78596564884E+02  0.78736967249E+02  0.47000000000E+01 0. -1.
         25    2    1    2    0    0 -0.75196920940E+01 -0.48396768633E+02  0.10610634613E+03  0.17111883527E+03  0.12499722441E+03 0.  0.
         25    2    1    2    0    0  0.75196920940E+01  0.48396768633E+02  0.51373042447E+02  0.14374086660E+03  0.12499381687E+03 0.  0.
          5    1    4    4  502    0  0.16587354483E+02  0.88428326263E+02  0.21123081339E+02  0.92536391651E+02  0.47000000000E+01 0.  1.
         -5    1    4    4    0  502 -0.90676623887E+01 -0.40031557630E+02  0.30249961108E+02  0.51204474946E+02  0.47000000000E+01 0.  1.
          5    1    3    3  503    0 -0.39557212859E+02  0.29051569713E+02  0.49544177241E+02  0.69896225152E+02  0.47000000000E+01 0. -1.
         -5    1    3    3    0  503  0.32037520765E+02 -0.77448338347E+02  0.56562168890E+02  0.10122261012E+03  0.47000000000E+01 0. -1.
<mgrwt>
<rscale>  0 0.13424934E+03</rscale>
<asrwt>0</asrwt>
<pdfrwt beam="1">  1        5 0.36333775E-01 0.13425014E+03</pdfrwt>
<pdfrwt beam="2">  1       -5 0.12106178E-01 0.13425014E+03</pdfrwt>
<totfact> 0.30335665E+02</totfact>
</mgrwt>
</event>
<event>
 8    1  0.1821556E-007  0.1374369E+03  0.7546771E-02  0.1216823E+00
          5   -1    0    0  501    0  0.00000000000E+00  0.00000000000E+00  0.11491359979E+03  0.11500967532E+03  0.47000000000E+01 0. -1.
         -5   -1    0    0    0  501 -0.00000000000E+00 -0.00000000000E+00 -0.16946779177E+03  0.16953295386E+03  0.47000000000E+01 0. -1.
         25    2    1    2    0    0 -0.46101298508E+02  0.33708297344E+02 -0.52427867372E+02  0.14708927105E+03  0.12499997339E+03 0.  0.
         25    2    1    2    0    0  0.46101298508E+02 -0.33708297344E+02 -0.21263245994E+01  0.13745335814E+03  0.12500930114E+03 0.  0.
          5    1    3    3  502    0 -0.58667317681E+02  0.73825748949E+02 -0.29184180757E+02  0.98822577270E+02  0.47000000000E+01 0.  1.
         -5    1    3    3    0  502  0.12566019173E+02 -0.40117451605E+02 -0.23243686615E+02  0.48266693781E+02  0.47000000000E+01 0.  1.
          5    1    4    4  503    0  0.44815328174E+02 -0.77100356233E+01  0.56770678768E+02  0.72889356263E+02  0.47000000000E+01 0. -1.
         -5    1    4    4    0  503  0.12859703347E+01 -0.25998261720E+02 -0.58897003367E+02  0.64564001873E+02  0.47000000000E+01 0. -1.
<mgrwt>
<rscale>  0 0.13743479E+03</rscale>
<asrwt>0</asrwt>
<pdfrwt beam="1">  1        5 0.17691418E-01 0.13743691E+03</pdfrwt>
<pdfrwt beam="2">  1       -5 0.26084371E-01 0.13743691E+03</pdfrwt>
<totfact> 0.29603880E+02</totfact>
</mgrwt>
</event>
<event>
 8    1  0.1821556E-007  0.1369230E+03  0.7546771E-02  0.1217533E+00
          5   -1    0    0  501    0  0.00000000000E+00  0.00000000000E+00  0.33421400281E+02  0.33750259210E+02  0.47000000000E+01 0. -1.
         -5   -1    0    0    0  501 -0.00000000000E+00 -0.00000000000E+00 -0.59408854076E+03  0.59410713198E+03  0.47000000000E+01 0. -1.
         25    2    1    2    0    0 -0.26981044379E+02  0.48888696603E+02 -0.35784975087E+03  0.38314774800E+03  0.12501068428E+03 0.  0.
         25    2    1    2    0    0  0.26981044379E+02 -0.48888696603E+02 -0.20281738961E+03  0.24470964319E+03  0.12501933663E+03 0.  0.
          5    1    4    4  502    0  0.26294714289E+02 -0.74830337553E+02 -0.20336030256E+03  0.21833115690E+03  0.47000000000E+01 0.  1.
         -5    1    4    4    0  502  0.68633009025E+00  0.25941640951E+02  0.54291295079E+00  0.26378486285E+02  0.47000000000E+01 0.  1.
          5    1    3    3  503    0  0.99172690473E+01 -0.28063841766E+02 -0.21175077465E+03  0.21388410882E+03  0.47000000000E+01 0. -1.
         -5    1    3    3    0  503 -0.36898313427E+02  0.76952538369E+02 -0.14609897622E+03  0.16926363918E+03  0.47000000000E+01 0. -1.
<mgrwt>
<rscale>  0 0.13692105E+03</rscale>
<asrwt>0</asrwt>
<pdfrwt beam="1">  1        5 0.51684812E-02 0.13692303E+03</pdfrwt>
<pdfrwt beam="2">  1       -5 0.91424957E-01 0.13692303E+03</pdfrwt>
<totfact> 0.17577917E+02</totfact>
</mgrwt>
</event>
<event>
 8    1  0.1821556E-007  0.1530898E+03  0.7546771E-02  0.1196728E+00
          5   -1    0    0  501    0  0.00000000000E+00  0.00000000000E+00  0.45774163751E+02  0.46014824427E+02  0.47000000000E+01 0.  1.
         -5   -1    0    0    0  501 -0.00000000000E+00 -0.00000000000E+00 -0.55440334356E+03  0.55442326552E+03  0.47000000000E+01 0.  1.
         25    2    1    2    0    0  0.88357826771E+02  0.18808054871E+01 -0.33887325880E+03  0.37184771438E+03  0.12499997672E+03 0.  0.
         25    2    1    2    0    0 -0.88357826771E+02 -0.18808054871E+01 -0.16975592101E+03  0.22859037557E+03  0.12500337637E+03 0.  0.
          5    1    3    3  502    0  0.11770699081E+03 -0.10375539887E+02 -0.23443591181E+03  0.26257355971E+03  0.47000000000E+01 0.  1.
         -5    1    3    3    0  502 -0.29349164043E+02  0.12256345374E+02 -0.10443734699E+03  0.10927415467E+03  0.47000000000E+01 0.  1.
          5    1    4    4  503    0 -0.10807831890E+03 -0.35263345399E+02 -0.12053208542E+03  0.16575433678E+03  0.47000000000E+01 0.  1.
         -5    1    4    4    0  503  0.19720492129E+02  0.33382539912E+02 -0.49223835594E+02  0.62836038794E+02  0.47000000000E+01 0.  1.
<mgrwt>
<rscale>  0 0.15308911E+03</rscale>
<asrwt>0</asrwt>
<pdfrwt beam="1">  1        5 0.70622243E-02 0.15308980E+03</pdfrwt>
<pdfrwt beam="2">  1       -5 0.85312862E-01 0.15308980E+03</pdfrwt>
<totfact> 0.12690660E+02</totfact>
</mgrwt>
</event>
<event>
 8    1  0.1821556E-007  0.1350492E+03  0.7546771E-02  0.1220151E+00
          5   -1    0    0  501    0  0.00000000000E+00  0.00000000000E+00  0.15046001245E+03  0.15053340276E+03  0.47000000000E+01 0.  1.
         -5   -1    0    0    0  501 -0.00000000000E+00 -0.00000000000E+00 -0.12832126658E+03  0.12840731076E+03  0.47000000000E+01 0.  1.
         25    2    1    2    0    0 -0.25964827212E+02  0.44028133761E+02 -0.22070036073E+02  0.13684073192E+03  0.12500260239E+03 0.  0.
         25    2    1    2    0    0  0.25964827212E+02 -0.44028133761E+02  0.44208781943E+02  0.14209998159E+03  0.12500135821E+03 0.  0.
          5    1    3    3  502    0  0.37127225873E+02  0.13046225428E+02 -0.47575083909E+02  0.61920218894E+02  0.47000000000E+01 0.  1.
         -5    1    3    3    0  502 -0.63092053084E+02  0.30981908333E+02  0.25505047836E+02  0.74920513022E+02  0.47000000000E+01 0.  1.
          5    1    4    4  503    0 -0.41944257242E+02  0.59682513963E+00 -0.11155924505E+02  0.43660297380E+02  0.47000000000E+01 0. -1.
         -5    1    4    4    0  503  0.67909084453E+02 -0.44624958901E+02  0.55364706448E+02  0.98439684214E+02  0.47000000000E+01 0. -1.
<mgrwt>
<rscale>  0 0.13504896E+03</rscale>
<asrwt>0</asrwt>
<pdfrwt beam="1">  1        5 0.23159958E-01 0.13504925E+03</pdfrwt>
<pdfrwt beam="2">  1       -5 0.19753998E-01 0.13504925E+03</pdfrwt>
<totfact> 0.30114245E+02</totfact>
</mgrwt>
</event>
<event>
 8    1  0.1821556E-007  0.1325577E+03  0.7546771E-02  0.1223710E+00
          5   -1    0    0  501    0  0.00000000000E+00  0.00000000000E+00  0.52017394406E+02  0.52229295619E+02  0.47000000000E+01 0. -1.
         -5   -1    0    0    0  501 -0.00000000000E+00 -0.00000000000E+00 -0.42070598515E+03  0.42073223782E+03  0.47000000000E+01 0. -1.
         25    2    1    2    0    0  0.43820846118E+02 -0.50848199088E+01 -0.28987166765E+03  0.31874204267E+03  0.12499913643E+03 0.  0.
         25    2    1    2    0    0 -0.43820846118E+02  0.50848199088E+01 -0.78816923089E+02  0.15421949077E+03  0.12500168807E+03 0.  0.
          5    1    4    4  502    0 -0.83567383501E+02  0.23777134298E+02 -0.41535589140E+02  0.96416569457E+02  0.47000000000E+01 0. -1.
         -5    1    4    4    0  502  0.39746537383E+02 -0.18692314390E+02 -0.37281333949E+02  0.57802921312E+02  0.47000000000E+01 0. -1.
          5    1    3    3  503    0  0.58331546110E+02 -0.24381398808E+02 -0.59125943371E+02  0.86689036556E+02  0.47000000000E+01 0. -1.
         -5    1    3    3    0  503 -0.14510699993E+02  0.19296578899E+02 -0.23074572428E+03  0.23205300611E+03  0.47000000000E+01 0. -1.
<mgrwt>
<rscale>  0 0.13255710E+03</rscale>
<asrwt>0</asrwt>
<pdfrwt beam="1">  1        5 0.80209959E-02 0.13255770E+03</pdfrwt>
<pdfrwt beam="2">  1       -5 0.64742315E-01 0.13255770E+03</pdfrwt>
<totfact> 0.18286878E+02</totfact>
</mgrwt>
</event>
<event>
 8    1  0.1821556E-007  0.1350396E+03  0.7546771E-02  0.1220168E+00
         -5   -1    0    0    0  501 -0.00000000000E+00  0.00000000000E+00  0.23544135517E+03  0.23548826239E+03  0.47000000000E+01 0.  1.
          5   -1    0    0  501    0  0.00000000000E+00 -0.00000000000E+00 -0.77564283546E+02  0.77706551088E+02  0.47000000000E+01 0.  1.
         25    2    1    2    0    0 -0.50225228835E+02 -0.93247730480E+01  0.87714853865E+02  0.16101583201E+03  0.12499070992E+03 0.  0.
         25    2    1    2    0    0  0.50225228835E+02  0.93247730480E+01  0.70162217762E+02  0.15217898147E+03  0.12500472230E+03 0.  0.
          5    1    4    4  502    0 -0.12137730589E+02  0.55439803423E+02  0.35407045910E+02  0.67057029516E+02  0.47000000000E+01 0. -1.
         -5    1    4    4    0  502  0.62362959424E+02 -0.46115030375E+02  0.34755171851E+02  0.85121951957E+02  0.47000000000E+01 0. -1.
          5    1    3    3  503    0  0.12254006210E+01  0.33412669086E+02  0.87689893165E+02  0.93965501252E+02  0.47000000000E+01 0.  1.
         -5    1    3    3    0  503 -0.51450629456E+02 -0.42737442134E+02  0.24960699731E-01  0.67050330757E+02  0.47000000000E+01 0.  1.
<mgrwt>
<rscale>  0 0.13503640E+03</rscale>
<asrwt>0</asrwt>
<pdfrwt beam="2">  1        5 0.11947519E-01 0.13503964E+03</pdfrwt>
<pdfrwt beam="1">  1       -5 0.36236298E-01 0.13503964E+03</pdfrwt>
<totfact> 0.31284726E+02</totfact>
</mgrwt>
</event>
<event>
 8    1  0.1821556E-007  0.1419002E+03  0.7546771E-02  0.1210797E+00
         -5   -1    0    0    0  501 -0.00000000000E+00  0.00000000000E+00  0.41050435074E+02  0.41318618319E+02  0.47000000000E+01 0.  1.
          5   -1    0    0  501    0  0.00000000000E+00 -0.00000000000E+00 -0.49029592247E+03  0.49031844917E+03  0.47000000000E+01 0.  1.
         25    2    1    2    0    0 -0.35694852154E+01 -0.67056097159E+02 -0.24021747776E+03  0.27899426157E+03  0.12499639985E+03 0.  0.
         25    2    1    2    0    0  0.35694852154E+01  0.67056097159E+02 -0.20902800964E+03  0.25264280592E+03  0.12500566858E+03 0.  0.
          5    1    3    3  502    0  0.53161079951E+02 -0.51335166317E+02 -0.83962618177E+02  0.11195182434E+03  0.47000000000E+01 0.  1.
         -5    1    3    3    0  502 -0.56730565166E+02 -0.15720930842E+02 -0.15625485958E+03  0.16704243722E+03  0.47000000000E+01 0.  1.
          5    1    4    4  503    0  0.76578607631E+01  0.42885883437E+02 -0.22075756907E+03  0.22506407117E+03  0.47000000000E+01 0.  1.
         -5    1    4    4    0  503 -0.40883755477E+01  0.24170213722E+02  0.11729559431E+02  0.27578734750E+02  0.47000000000E+01 0.  1.
<mgrwt>
<rscale>  0 0.14189820E+03</rscale>
<asrwt>0</asrwt>
<pdfrwt beam="2">  1        5 0.75452500E-01 0.14190024E+03</pdfrwt>
<pdfrwt beam="1">  1       -5 0.63378142E-02 0.14190024E+03</pdfrwt>
<totfact> 0.19777367E+02</totfact>
</mgrwt>
</event>
<event>
 8    1  0.1821556E-007  0.1347747E+03  0.7546771E-02  0.1220554E+00
         -5   -1    0    0    0  501 -0.00000000000E+00  0.00000000000E+00  0.81107000188E+02  0.81243064193E+02  0.47000000000E+01 0.  1.
          5   -1    0    0  501    0  0.00000000000E+00 -0.00000000000E+00 -0.25063332130E+03  0.25067738578E+03  0.47000000000E+01 0.  1.
         25    2    1    2    0    0 -0.49258660754E+02  0.10064602203E+02 -0.30195852996E+02  0.13807204632E+03  0.12499755422E+03 0.  0.
         25    2    1    2    0    0  0.49258660754E+02 -0.10064602203E+02 -0.13933046811E+03  0.19384840366E+03  0.12504604104E+03 0.  0.
          5    1    4    4  502    0  0.22166736412E+02  0.37752803534E+02 -0.36946646210E-01  0.44031008878E+02  0.47000000000E+01 0. -1.
         -5    1    4    4    0  502  0.27091924342E+02 -0.47817405737E+02 -0.13929352147E+03  0.14981739478E+03  0.47000000000E+01 0. -1.
          5    1    3    3  503    0  0.41234918688E+02 -0.67455005467E+01 -0.15137247008E+02  0.44688326706E+02  0.47000000000E+01 0. -1.
         -5    1    3    3    0  503 -0.90493579442E+02  0.16810102750E+02 -0.15058605988E+02  0.93383719614E+02  0.47000000000E+01 0. -1.
<mgrwt>
<rscale>  0 0.13476347E+03</rscale>
<asrwt>0</asrwt>
<pdfrwt beam="2">  1        5 0.38572828E-01 0.13477472E+03</pdfrwt>
<pdfrwt beam="1">  1       -5 0.12491856E-01 0.13477472E+03</pdfrwt>
<totfact> 0.25456427E+02</totfact>
</mgrwt>
</event>
<event>
 8    1  0.1821556E-007  0.1326379E+03  0.7546771E-02  0.1223594E+00
         -5   -1    0    0    0  501 -0.00000000000E+00  0.00000000000E+00  0.29597269878E+02  0.29968122802E+02  0.47000000000E+01 0. -1.
          5   -1    0    0  501    0  0.00000000000E+00 -0.00000000000E+00 -0.62330196384E+03  0.62331968373E+03  0.47000000000E+01 0. -1.
         25    2    1    2    0    0  0.43964108325E+02 -0.58005487714E+01 -0.22172295377E+03  0.25836601295E+03  0.12500175693E+03 0.  0.
         25    2    1    2    0    0 -0.43964108325E+02  0.58005487714E+01 -0.37198174020E+03  0.39492179358E+03  0.12500527516E+03 0.  0.
          5    1    3    3  502    0  0.55408997283E+02  0.29959002887E+02 -0.20916939958E+03  0.21849857335E+03  0.47000000000E+01 0.  1.
         -5    1    3    3    0  502 -0.11444888958E+02 -0.35759551658E+02 -0.12553554186E+02  0.39867439606E+02  0.47000000000E+01 0.  1.
          5    1    4    4  503    0 -0.38465765641E+02 -0.55647481311E+02 -0.15272985366E+03  0.16710701811E+03  0.47000000000E+01 0. -1.
         -5    1    4    4    0  503 -0.54983426846E+01  0.61448030082E+02 -0.21925188654E+03  0.22781477547E+03  0.47000000000E+01 0. -1.
<mgrwt>
<rscale>  0 0.13263705E+03</rscale>
<asrwt>0</asrwt>
<pdfrwt beam="2">  1        5 0.95922490E-01 0.13263788E+03</pdfrwt>
<pdfrwt beam="1">  1       -5 0.45833168E-02 0.13263788E+03</pdfrwt>
<totfact> 0.18925177E+02</totfact>
</mgrwt>
</event>
<event>
 8    1  0.1821556E-007  0.1349727E+03  0.7546771E-02  0.1220262E+00
         -5   -1    0    0    0  501 -0.00000000000E+00  0.00000000000E+00  0.16666724538E+03  0.16673350198E+03  0.47000000000E+01 0. -1.
          5   -1    0    0  501    0  0.00000000000E+00 -0.00000000000E+00 -0.11172143584E+03  0.11182025410E+03  0.47000000000E+01 0. -1.
         25    2    1    2    0    0  0.12373915141E+02 -0.49381676437E+02  0.48549685062E+02  0.14342956509E+03  0.12499321773E+03 0.  0.
         25    2    1    2    0    0 -0.12373915141E+02  0.49381676437E+02  0.63961244702E+01  0.13512419099E+03  0.12500389129E+03 0.  0.
          5    1    3    3  502    0  0.56232989154E+02 -0.98416777683E+01  0.60156176834E+02  0.83065415798E+02  0.47000000000E+01 0. -1.
         -5    1    3    3    0  502 -0.43859074013E+02 -0.39539998669E+02 -0.11606491772E+02  0.60364149288E+02  0.47000000000E+01 0. -1.
          5    1    4    4  503    0  0.14289451331E+02  0.25822123151E+02  0.62067370520E+02  0.68887001290E+02  0.47000000000E+01 0. -1.
         -5    1    4    4    0  503 -0.26663366472E+02  0.23559553286E+02 -0.55671246050E+02  0.66237189700E+02  0.47000000000E+01 0. -1.
<mgrwt>
<rscale>  0 0.13497025E+03</rscale>
<asrwt>0</asrwt>
<pdfrwt beam="2">  1        5 0.17200611E-01 0.13497273E+03</pdfrwt>
<pdfrwt beam="1">  1       -5 0.25653813E-01 0.13497273E+03</pdfrwt>
<totfact> 0.31989670E+02</totfact>
</mgrwt>
</event>
<event>
 8    1  0.1821556E-007  0.1280797E+03  0.7546771E-02  0.1230334E+00
          5   -1    0    0  501    0  0.00000000000E+00  0.00000000000E+00  0.78058512882E+02  0.78199881287E+02  0.47000000000E+01 0.  1.
         -5   -1    0    0    0  501 -0.00000000000E+00 -0.00000000000E+00 -0.28005791315E+03  0.28009734864E+03  0.47000000000E+01 0.  1.
         25    2    1    2    0    0  0.16153610372E+02 -0.22763574200E+02 -0.19070442654E+03  0.22972287357E+03  0.12500120361E+03 0.  0.
         25    2    1    2    0    0 -0.16153610372E+02  0.22763574200E+02 -0.11294973732E+02  0.12857435636E+03  0.12499867696E+03 0.  0.
          5    1    4    4  502    0 -0.64698070973E+01  0.68883175684E+02 -0.32620792750E+02  0.76635216551E+02  0.47000000000E+01 0. -1.
         -5    1    4    4    0  502 -0.96838032748E+01 -0.46119601485E+02  0.21325819018E+02  0.51939139806E+02  0.47000000000E+01 0. -1.
          5    1    3    3  503    0 -0.53757562995E+02 -0.24106595393E+01 -0.66522307358E+02  0.85691272805E+02  0.47000000000E+01 0.  1.
         -5    1    3    3    0  503  0.69911173367E+02 -0.20352914660E+02 -0.12418211918E+03  0.14403160077E+03  0.47000000000E+01 0.  1.
<mgrwt>
<rscale>  0 0.12807913E+03</rscale>
<asrwt>0</asrwt>
<pdfrwt beam="1">  1        5 0.12022910E-01 0.12807974E+03</pdfrwt>
<pdfrwt beam="2">  1       -5 0.43099740E-01 0.12807974E+03</pdfrwt>
<totfact> 0.21316126E+02</totfact>
</mgrwt>
</event>
<event>
 8    1  0.1821556E-007  0.1378370E+03  0.7546771E-02  0.1216270E+00
         -5   -1    0    0    0  501 -0.00000000000E+00  0.00000000000E+00  0.37757094170E+03  0.37760019335E+03  0.47000000000E+01 0. -1.
          5   -1    0    0  501    0  0.00000000000E+00 -0.00000000000E+00 -0.76627385131E+02  0.76771388890E+02  0.47000000000E+01 0. -1.
         25    2    1    2    0    0 -0.46553182477E+02  0.34736561250E+02  0.28376244812E+03  0.31546789739E+03  0.12500015935E+03 0.  0.
         25    2    1    2    0    0  0.46553182477E+02 -0.34736561250E+02  0.17181108452E+02  0.13890368484E+03  0.12500086275E+03 0.  0.
          5    1    4    4  502    0 -0.28229003300E+01 -0.60304264144E+02 -0.28371551558E+02  0.66870082833E+02  0.47000000000E+01 0.  1.
         -5    1    4    4    0  502  0.49376082807E+02  0.25567702894E+02  0.45552660009E+02  0.72033602011E+02  0.47000000000E+01 0.  1.
          5    1    3    3  503    0  0.17317487918E+02 -0.32888438569E+01  0.20949034719E+03  0.21028316017E+03  0.47000000000E+01 0. -1.
         -5    1    3    3    0  503 -0.63870670395E+02  0.38025405107E+02  0.74272100922E+02  0.10518473723E+03  0.47000000000E+01 0. -1.
<mgrwt>
<rscale>  0 0.13783686E+03</rscale>
<asrwt>0</asrwt>
<pdfrwt beam="2">  1        5 0.11802156E-01 0.13783702E+03</pdfrwt>
<pdfrwt beam="1">  1       -5 0.58101165E-01 0.13783702E+03</pdfrwt>
<totfact> 0.11993456E+02</totfact>
</mgrwt>
</event>
<event>
 8    1  0.1821556E-007  0.1286034E+03  0.7546771E-02  0.1229553E+00
          5   -1    0    0  501    0  0.00000000000E+00  0.00000000000E+00  0.18954468298E+03  0.18960294525E+03  0.47000000000E+01 0. -1.
         -5   -1    0    0    0  501 -0.00000000000E+00 -0.00000000000E+00 -0.14191449277E+03  0.14199230000E+03  0.47000000000E+01 0. -1.
         25    2    1    2    0    0  0.95624498613E+00  0.30115108268E+02 -0.79167087560E+02  0.15099515225E+03  0.12499709636E+03 0.  0.
         25    2    1    2    0    0 -0.95624498613E+00 -0.30115108268E+02  0.12679727777E+03  0.18060009300E+03  0.12502403685E+03 0.  0.
          5    1    3    3  502    0 -0.70033629887E+01 -0.13832985988E+02 -0.10013111035E+03  0.10143336657E+03  0.47000000000E+01 0. -1.
         -5    1    3    3    0  502  0.79596079749E+01  0.43948094256E+02  0.20964022789E+02  0.49561785675E+02  0.47000000000E+01 0. -1.
          5    1    4    4  503    0 -0.27723753717E+01 -0.34287815834E+02 -0.15592640223E+02  0.38059963335E+02  0.47000000000E+01 0. -1.
         -5    1    4    4    0  503  0.18161303856E+01  0.41727075666E+01  0.14238991799E+03  0.14254012966E+03  0.47000000000E+01 0. -1.
<mgrwt>
<rscale>  0 0.12859689E+03</rscale>
<asrwt>0</asrwt>
<pdfrwt beam="1">  1        5 0.29171187E-01 0.12860344E+03</pdfrwt>
<pdfrwt beam="2">  1       -5 0.21843466E-01 0.12860344E+03</pdfrwt>
<totfact> 0.15728722E+02</totfact>
</mgrwt>
</event>
<event>
 8    1  0.1821556E-007  0.1797929E+03  0.7546771E-02  0.1168004E+00
          5   -1    0    0  501    0  0.00000000000E+00  0.00000000000E+00  0.17665199687E+04  0.17665262211E+04  0.47000000000E+01 0. -1.
         -5   -1    0    0    0  501 -0.00000000000E+00 -0.00000000000E+00 -0.27183639500E+02  0.27586958087E+02  0.47000000000E+01 0. -1.
         25    2    1    2    0    0  0.12919994714E+03 -0.27951582518E+01  0.35281994515E+03  0.39598830785E+03  0.12499754803E+03 0.  0.
         25    2    1    2    0    0 -0.12919994714E+03  0.27951582518E+01  0.13865163841E+04  0.13981248714E+04  0.12500013333E+03 0.  0.
          5    1    3    3  502    0  0.75486501888E+02  0.54455747402E+02  0.13202479521E+03  0.16160531223E+03  0.47000000000E+01 0. -1.
         -5    1    3    3    0  502  0.53713445250E+02 -0.57250905654E+02  0.22079514994E+03  0.23438299562E+03  0.47000000000E+01 0. -1.
          5    1    4    4  503    0 -0.12723355915E+03 -0.27166162891E+01  0.13845113870E+04  0.13903559362E+04  0.47000000000E+01 0. -1.
         -5    1    4    4    0  503 -0.19663879845E+01  0.55117745408E+01  0.20049970830E+01  0.77689351649E+01  0.47000000000E+01 0. -1.
<mgrwt>
<rscale>  0 0.17979241E+03</rscale>
<asrwt>0</asrwt>
<pdfrwt beam="1">  1        5 0.27180384E+00 0.17979286E+03</pdfrwt>
<pdfrwt beam="2">  1       -5 0.42136033E-02 0.17979286E+03</pdfrwt>
<totfact> 0.11155909E+01</totfact>
</mgrwt>
</event>
<event>
 8    1  0.1821556E-007  0.1762653E+03  0.7546771E-02  0.1171467E+00
         -5   -1    0    0    0  501 -0.00000000000E+00  0.00000000000E+00  0.44093719062E+03  0.44096223882E+03  0.47000000000E+01 0.  1.
          5   -1    0    0  501    0  0.00000000000E+00 -0.00000000000E+00 -0.71280039701E+02  0.71434823859E+02  0.47000000000E+01 0.  1.
         25    2    1    2    0    0 -0.13382211319E+01  0.12426886549E+03  0.21395151547E+03  0.27720838366E+03  0.12499878092E+03 0.  0.
         25    2    1    2    0    0  0.13382211319E+01 -0.12426886549E+03  0.15570563544E+03  0.23518867902E+03  0.12499971227E+03 0.  0.
          5    1    3    3  502    0  0.24772268830E+02 -0.94966877431E+01  0.86323186886E+02  0.90430276873E+02  0.47000000000E+01 0. -1.
         -5    1    3    3    0  502 -0.26110489962E+02  0.13376555323E+03  0.12762832859E+03  0.18677810679E+03  0.47000000000E+01 0. -1.
          5    1    4    4  503    0 -0.27446578127E+02  0.16501448589E+02  0.25097621990E+02  0.40958431196E+02  0.47000000000E+01 0.  1.
         -5    1    4    4    0  503  0.28784799259E+02 -0.14077031408E+03  0.13060801345E+03  0.19423024783E+03  0.47000000000E+01 0.  1.
<mgrwt>
<rscale>  0 0.17626517E+03</rscale>
<asrwt>0</asrwt>
<pdfrwt beam="2">  1        5 0.10979993E-01 0.17626534E+03</pdfrwt>
<pdfrwt beam="1">  1       -5 0.67850325E-01 0.17626534E+03</pdfrwt>
<totfact> 0.10431645E+02</totfact>
</mgrwt>
</event>
<event>
 8    1  0.1821556E-007  0.1382973E+03  0.7546771E-02  0.1215639E+00
         -5   -1    0    0    0  501 -0.00000000000E+00  0.00000000000E+00  0.50457604733E+03  0.50459793652E+03  0.47000000000E+01 0.  1.
          5   -1    0    0  501    0  0.00000000000E+00 -0.00000000000E+00 -0.37736684905E+02  0.38028244604E+02  0.47000000000E+01 0.  1.
         25    2    1    2    0    0 -0.45587746009E+02  0.37715440181E+02  0.23422760382E+03  0.27200866382E+03  0.12500178314E+03 0.  0.
         25    2    1    2    0    0  0.45587746009E+02 -0.37715440181E+02  0.23261175860E+03  0.27061751730E+03  0.12499965366E+03 0.  0.
          5    1    4    4  502    0  0.16983286309E+02  0.40640755671E+02  0.13527334282E+03  0.14234138651E+03  0.47000000000E+01 0.  1.
         -5    1    4    4    0  502  0.28604459700E+02 -0.78356195852E+02  0.97338415781E+02  0.12827613079E+03  0.47000000000E+01 0.  1.
          5    1    3    3  503    0  0.16316497388E+02 -0.14491351868E+01 -0.80559230225E+01  0.18849826937E+02  0.47000000000E+01 0.  1.
         -5    1    3    3    0  503 -0.61904243397E+02  0.39164575368E+02  0.24228352684E+03  0.25315883689E+03  0.47000000000E+01 0.  1.
<mgrwt>
<rscale>  0 0.13829682E+03</rscale>
<asrwt>0</asrwt>
<pdfrwt beam="2">  1        5 0.58297556E-02 0.13829730E+03</pdfrwt>
<pdfrwt beam="1">  1       -5 0.77651192E-01 0.13829730E+03</pdfrwt>
<totfact> 0.21130378E+02</totfact>
</mgrwt>
</event>
<event>
 8    1  0.1821556E-007  0.1273593E+03  0.7546771E-02  0.1231433E+00
         -5   -1    0    0    0  501 -0.00000000000E+00  0.00000000000E+00  0.11950135731E+02  0.12841173777E+02  0.47000000000E+01 0.  1.
          5   -1    0    0  501    0  0.00000000000E+00 -0.00000000000E+00 -0.14234531327E+04  0.14234608920E+04  0.47000000000E+01 0.  1.
         25    2    1    2    0    0 -0.13666369959E+02  0.20149088909E+02 -0.50089432359E+03  0.51683219487E+03  0.12501055474E+03 0.  0.
         25    2    1    2    0    0  0.13666369959E+02 -0.20149088909E+02 -0.91060867337E+03  0.91946987088E+03  0.12499572786E+03 0.  0.
          5    1    3    3  502    0 -0.43904721807E+02 -0.18344582564E+02 -0.80936646828E+02  0.94005207867E+02  0.47000000000E+01 0. -1.
         -5    1    3    3    0  502  0.30238351848E+02  0.38493671473E+02 -0.41995767677E+03  0.42282698701E+03  0.47000000000E+01 0. -1.
          5    1    4    4  503    0  0.39290340411E+02  0.42825514858E+02 -0.47433908757E+03  0.47790942193E+03  0.47000000000E+01 0. -1.
         -5    1    4    4    0  503 -0.25623970452E+02 -0.62974603767E+02 -0.43626958580E+03  0.44156044895E+03  0.47000000000E+01 0. -1.
<mgrwt>
<rscale>  0 0.12735567E+03</rscale>
<asrwt>0</asrwt>
<pdfrwt beam="2">  1        5 0.21906180E+00 0.12735931E+03</pdfrwt>
<pdfrwt beam="1">  1       -5 0.19076218E-02 0.12735931E+03</pdfrwt>
<totfact> 0.79865143E+01</totfact>
</mgrwt>
</event>
<event>
 8    1  0.1821556E-007  0.1426780E+03  0.7546771E-02  0.1209770E+00
          5   -1    0    0  501    0  0.00000000000E+00  0.00000000000E+00  0.81623317788E+03  0.81624670944E+03  0.47000000000E+01 0.  1.
         -5   -1    0    0    0  501 -0.00000000000E+00 -0.00000000000E+00 -0.33133742122E+02  0.33465427937E+02  0.47000000000E+01 0.  1.
         25    2    1    2    0    0  0.40331451341E+02 -0.55724907373E+02  0.17855004378E+03  0.22855444712E+03  0.12500050358E+03 0.  0.
         25    2    1    2    0    0 -0.40331451341E+02  0.55724907373E+02  0.60454939198E+03  0.62115769026E+03  0.12500007024E+03 0.  0.
          5    1    3    3  502    0  0.12520808444E+02 -0.83125638443E+02  0.16787951345E+03  0.18780911439E+03  0.47000000000E+01 0.  1.
         -5    1    3    3    0  502  0.27810642896E+02  0.27400731070E+02  0.10670530325E+02  0.40745332725E+02  0.47000000000E+01 0.  1.
          5    1    4    4  503    0  0.42842519759E+02  0.37635140231E+02  0.22642912022E+03  0.23354682991E+03  0.47000000000E+01 0.  1.
         -5    1    4    4    0  503 -0.83173971099E+02  0.18089767142E+02  0.37812027176E+03  0.38761086035E+03  0.47000000000E+01 0.  1.
<mgrwt>
<rscale>  0 0.14267792E+03</rscale>
<asrwt>0</asrwt>
<pdfrwt beam="1">  1        5 0.12560089E+00 0.14267802E+03</pdfrwt>
<pdfrwt beam="2">  1       -5 0.51240541E-02 0.14267802E+03</pdfrwt>
<totfact> 0.82286497E+01</totfact>
</mgrwt>
</event>
<event>
 8    1  0.1821556E-007  0.1635896E+03  0.7546771E-02  0.1184705E+00
          5   -1    0    0  501    0  0.00000000000E+00  0.00000000000E+00  0.22459741130E+04  0.22459790306E+04  0.47000000000E+01 0.  1.
         -5   -1    0    0    0  501 -0.00000000000E+00 -0.00000000000E+00 -0.11455174056E+02  0.12381882436E+02  0.47000000000E+01 0.  1.
         25    2    1    2    0    0  0.40832349973E+02  0.97278108086E+02  0.11479489498E+04  0.11595466201E+04  0.12502504420E+03 0.  0.
         25    2    1    2    0    0 -0.40832349973E+02 -0.97278108086E+02  0.10865699891E+04  0.10988142930E+04  0.12501279197E+03 0.  0.
          5    1    3    3  502    0  0.37448132782E+02 -0.16603080015E+02  0.16800732328E+03  0.17299299289E+03  0.47000000000E+01 0.  1.
         -5    1    3    3    0  502  0.33842171910E+01  0.11388118810E+03  0.97994162654E+03  0.98655362721E+03  0.47000000000E+01 0.  1.
          5    1    4    4  503    0  0.32234467662E+02 -0.82732809859E+02  0.58283705330E+03  0.58958027395E+03  0.47000000000E+01 0. -1.
         -5    1    4    4    0  503 -0.73066817635E+02 -0.14545298227E+02  0.50373293578E+03  0.50923401903E+03  0.47000000000E+01 0. -1.
<mgrwt>
<rscale>  0 0.16358731E+03</rscale>
<asrwt>0</asrwt>
<pdfrwt beam="1">  1        5 0.34560631E+00 0.16358965E+03</pdfrwt>
<pdfrwt beam="2">  1       -5 0.18339971E-02 0.16358965E+03</pdfrwt>
<totfact> 0.14085334E+01</totfact>
</mgrwt>
</event>
<event>
 8    1  0.1821556E-007  0.1360387E+03  0.7546771E-02  0.1218761E+00
          5   -1    0    0  501    0  0.00000000000E+00  0.00000000000E+00  0.15998219288E+03  0.16005121693E+03  0.47000000000E+01 0. -1.
         -5   -1    0    0    0  501 -0.00000000000E+00 -0.00000000000E+00 -0.11697587424E+03  0.11707025734E+03  0.47000000000E+01 0. -1.
         25    2    1    2    0    0 -0.83009594575E+01 -0.53031795689E+02  0.61449242214E+01  0.13617716282E+03  0.12500072919E+03 0.  0.
         25    2    1    2    0    0  0.83009594575E+01  0.53031795689E+02  0.36861394425E+02  0.14094431144E+03  0.12500103698E+03 0.  0.
          5    1    4    4  502    0  0.58676909025E+02  0.56278259976E+02  0.61541416810E+01  0.81671204586E+02  0.47000000000E+01 0.  1.
         -5    1    4    4    0  502 -0.50375949567E+02 -0.32464642871E+01  0.30707252744E+02  0.59273106855E+02  0.47000000000E+01 0.  1.
          5    1    3    3  503    0  0.26657150669E+02 -0.27711651263E+02 -0.51228414080E+02  0.64226004910E+02  0.47000000000E+01 0. -1.
         -5    1    3    3    0  503 -0.34958110127E+02 -0.25320144426E+02  0.57373338301E+02  0.71951157915E+02  0.47000000000E+01 0. -1.
<mgrwt>
<rscale>  0 0.13603866E+03</rscale>
<asrwt>0</asrwt>
<pdfrwt beam="1">  1        5 0.24625215E-01 0.13603873E+03</pdfrwt>
<pdfrwt beam="2">  1       -5 0.18008858E-01 0.13603873E+03</pdfrwt>
<totfact> 0.31883767E+02</totfact>
</mgrwt>
</event>
<event>
 8    1  0.1821556E-007  0.1413962E+03  0.7546771E-02  0.1211464E+00
         -5   -1    0    0    0  501 -0.00000000000E+00  0.00000000000E+00  0.22198750345E+03  0.22203725293E+03  0.47000000000E+01 0. -1.
          5   -1    0    0  501    0  0.00000000000E+00 -0.00000000000E+00 -0.92790071427E+02  0.92909027308E+02  0.47000000000E+01 0. -1.
         25    2    1    2    0    0 -0.18003959772E+02 -0.63579177258E+02  0.92177049716E+02  0.16878406265E+03  0.12499998785E+03 0.  0.
         25    2    1    2    0    0  0.18003959772E+02  0.63579177258E+02  0.37020382312E+02  0.14616221759E+03  0.12500572305E+03 0.  0.
          5    1    4    4  502    0 -0.27191103658E+02  0.58419475313E+02  0.65729699225E+02  0.92166558872E+02  0.47000000000E+01 0. -1.
         -5    1    4    4    0  502  0.45195063431E+02  0.51597019450E+01 -0.28709316913E+02  0.53995658717E+02  0.47000000000E+01 0. -1.
          5    1    3    3  503    0 -0.10980966285E+02 -0.77491280843E+02  0.11595064478E+03  0.13997186236E+03  0.47000000000E+01 0. -1.
         -5    1    3    3    0  503 -0.70229934877E+01  0.13912103585E+02 -0.23773595062E+02  0.28812200295E+02  0.47000000000E+01 0. -1.
<mgrwt>
<rscale>  0 0.14139493E+03</rscale>
<asrwt>0</asrwt>
<pdfrwt beam="2">  1        5 0.14288373E-01 0.14139620E+03</pdfrwt>
<pdfrwt beam="1">  1       -5 0.34164901E-01 0.14139620E+03</pdfrwt>
<totfact> 0.25978000E+02</totfact>
</mgrwt>
</event>
<event>
 8    1  0.1821556E-007  0.2109774E+03  0.7546771E-02  0.1140799E+00
         -5   -1    0    0    0  501 -0.00000000000E+00  0.00000000000E+00  0.37042930459E+02  0.37339907566E+02  0.47000000000E+01 0. -1.
          5   -1    0    0  501    0  0.00000000000E+00 -0.00000000000E+00 -0.15221048357E+04  0.15221120921E+04  0.47000000000E+01 0. -1.
         25    2    1    2    0    0  0.13603955258E+03 -0.10183367976E+03 -0.38183760498E+03  0.43623548635E+03  0.12499833910E+03 0.  0.
         25    2    1    2    0    0 -0.13603955258E+03  0.10183367976E+03 -0.11032243003E+04  0.11232165133E+04  0.12503847749E+03 0.  0.
          5    1    4    4  502    0 -0.44604315943E+02 -0.16497691682E+01 -0.89539597143E+02  0.10015835560E+03  0.47000000000E+01 0. -1.
         -5    1    4    4    0  502 -0.91435236636E+02  0.10348344893E+03 -0.10136847031E+04  0.10230581577E+04  0.47000000000E+01 0. -1.
          5    1    3    3  503    0  0.13828239420E+03 -0.70337863964E+02 -0.37159552309E+03  0.40270927284E+03  0.47000000000E+01 0. -1.
         -5    1    3    3    0  503 -0.22428416178E+01 -0.31495815794E+02 -0.10242081891E+02  0.33526213513E+02  0.47000000000E+01 0. -1.
<mgrwt>
<rscale>  0 0.21097149E+03</rscale>
<asrwt>0</asrwt>
<pdfrwt beam="2">  1        5 0.23419333E+00 0.21097744E+03</pdfrwt>
<pdfrwt beam="1">  1       -5 0.57223161E-02 0.21097744E+03</pdfrwt>
<totfact> 0.12042134E+01</totfact>
</mgrwt>
</event>
<event>
 8    1  0.1821556E-007  0.1263743E+03  0.7546771E-02  0.1232951E+00
          5   -1    0    0  501    0  0.00000000000E+00  0.00000000000E+00  0.84357706283E+01  0.96567192199E+01  0.47000000000E+01 0. -1.
         -5   -1    0    0    0  501 -0.00000000000E+00 -0.00000000000E+00 -0.17929859082E+04  0.17929920683E+04  0.47000000000E+01 0. -1.
         25    2    1    2    0    0 -0.14400494122E+02 -0.11792670535E+02 -0.10076013189E+04  0.10154953849E+04  0.12499607053E+03 0.  0.
         25    2    1    2    0    0  0.14400494122E+02  0.11792670535E+02 -0.77694881875E+03  0.78715340268E+03  0.12495827735E+03 0.  0.
          5    1    4    4  502    0  0.33127331169E+02  0.56091277811E+02 -0.26503768710E+03  0.27296651278E+03  0.47000000000E+01 0. -1.
         -5    1    4    4    0  502 -0.18726837047E+02 -0.44298607276E+02 -0.51191113165E+03  0.51418688990E+03  0.47000000000E+01 0. -1.
          5    1    3    3  503    0 -0.38472507759E+02 -0.38863527459E+02 -0.20988430278E+03  0.21694243055E+03  0.47000000000E+01 0. -1.
         -5    1    3    3    0  503  0.24072013637E+02  0.27070856924E+02 -0.79771701608E+03  0.79855295434E+03  0.47000000000E+01 0. -1.
<mgrwt>
<rscale>  0 0.12636493E+03</rscale>
<asrwt>0</asrwt>
<pdfrwt beam="1">  1        5 0.13922053E-02 0.12637428E+03</pdfrwt>
<pdfrwt beam="2">  1       -5 0.27593810E+00 0.12637428E+03</pdfrwt>
<totfact> 0.56954724E+01</totfact>
</mgrwt>
</event>
<event>
 8    1  0.1821556E-007  0.1331834E+03  0.7546771E-02  0.1222808E+00
         -5   -1    0    0    0  501 -0.00000000000E+00  0.00000000000E+00  0.14126459917E+03  0.14134276415E+03  0.47000000000E+01 0. -1.
          5   -1    0    0  501    0  0.00000000000E+00 -0.00000000000E+00 -0.23515026700E+03  0.23519723227E+03  0.47000000000E+01 0. -1.
         25    2    1    2    0    0  0.18988175601E+02  0.41858795854E+02  0.81634987173E+02  0.15621167178E+03  0.12500042267E+03 0.  0.
         25    2    1    2    0    0 -0.18988175601E+02 -0.41858795854E+02 -0.17552065500E+03  0.22032832464E+03  0.12499744279E+03 0.  0.
          5    1    4    4  502    0 -0.31208551329E+02  0.63534803499E+01  0.53941097293E+01  0.32642408128E+02  0.47000000000E+01 0.  1.
         -5    1    4    4    0  502  0.12220375728E+02 -0.48212276204E+02 -0.18091476473E+03  0.18768591651E+03  0.47000000000E+01 0.  1.
          5    1    3    3  503    0  0.27131048329E+02  0.38273303545E+02 -0.22042442707E+02  0.52047082802E+02  0.47000000000E+01 0. -1.
         -5    1    3    3    0  503 -0.81428727284E+01  0.35854923084E+01  0.10367742988E+03  0.10416458898E+03  0.47000000000E+01 0. -1.
<mgrwt>
<rscale>  0 0.13318269E+03</rscale>
<asrwt>0</asrwt>
<pdfrwt beam="2">  1        5 0.36186590E-01 0.13318339E+03</pdfrwt>
<pdfrwt beam="1">  1       -5 0.21742641E-01 0.13318339E+03</pdfrwt>
<totfact> 0.10476310E+02</totfact>
</mgrwt>
</event>
<event>
 8    1  0.1821556E-007  0.1359502E+03  0.7546771E-02  0.1218890E+00
         -5   -1    0    0    0  501 -0.00000000000E+00  0.00000000000E+00  0.23277990245E+03  0.23282734587E+03  0.47000000000E+01 0.  1.
          5   -1    0    0  501    0  0.00000000000E+00 -0.00000000000E+00 -0.81864072205E+02  0.81998879981E+02  0.47000000000E+01 0.  1.
         25    2    1    2    0    0  0.35529800928E+02 -0.39926222270E+02  0.10346939545E+03  0.17083452901E+03  0.12498820156E+03 0.  0.
         25    2    1    2    0    0 -0.35529800928E+02  0.39926222270E+02  0.47446434797E+02  0.14399169684E+03  0.12500389835E+03 0.  0.
          5    1    4    4  502    0  0.17897026877E+02  0.68734732771E+02  0.84241929768E+01  0.71678616668E+02  0.47000000000E+01 0. -1.
         -5    1    4    4    0  502 -0.53426827805E+02 -0.28808510501E+02  0.39022241820E+02  0.72313080167E+02  0.47000000000E+01 0. -1.
          5    1    3    3  503    0  0.45554079919E+02 -0.81112486146E+02  0.74527392005E+02  0.11929304995E+03  0.47000000000E+01 0. -1.
         -5    1    3    3    0  503 -0.10024278991E+02  0.41186263876E+02  0.28942003441E+02  0.51541479068E+02  0.47000000000E+01 0. -1.
<mgrwt>
<rscale>  0 0.13594655E+03</rscale>
<asrwt>0</asrwt>
<pdfrwt beam="2">  1        5 0.12608492E-01 0.13595015E+03</pdfrwt>
<pdfrwt beam="1">  1       -5 0.35826311E-01 0.13595015E+03</pdfrwt>
<totfact> 0.29158234E+02</totfact>
</mgrwt>
</event>
<event>
 8    1  0.1821556E-007  0.1397198E+03  0.7546771E-02  0.1213707E+00
         -5   -1    0    0    0  501 -0.00000000000E+00  0.00000000000E+00  0.20661180032E+03  0.20666525115E+03  0.47000000000E+01 0. -1.
          5   -1    0    0  501    0  0.00000000000E+00 -0.00000000000E+00 -0.96751640000E+02  0.96865731003E+02  0.47000000000E+01 0. -1.
         25    2    1    2    0    0  0.23159050432E+02  0.57961694694E+02  0.31091338202E+02  0.14313731167E+03  0.12500287601E+03 0.  0.
         25    2    1    2    0    0 -0.23159050432E+02 -0.57961694694E+02  0.78768822118E+02  0.16039367048E+03  0.12500281007E+03 0.  0.
          5    1    4    4  502    0  0.33393566609E+02 -0.62000616623E+02  0.10223835232E+02  0.71314960277E+02  0.47000000000E+01 0.  1.
         -5    1    4    4    0  502 -0.56552617041E+02  0.40389219294E+01  0.68544986886E+02  0.89078710205E+02  0.47000000000E+01 0.  1.
          5    1    3    3  503    0 -0.12242332153E+01  0.33097225382E+02 -0.46892622919E+02  0.57601503098E+02  0.47000000000E+01 0. -1.
         -5    1    3    3    0  503  0.24383283647E+02  0.24864469312E+02  0.77983961121E+02  0.85535808570E+02  0.47000000000E+01 0. -1.
<mgrwt>
<rscale>  0 0.13971977E+03</rscale>
<asrwt>0</asrwt>
<pdfrwt beam="2">  1        5 0.14897756E-01 0.13971979E+03</pdfrwt>
<pdfrwt beam="1">  1       -5 0.31799319E-01 0.13971979E+03</pdfrwt>
<totfact> 0.27673256E+02</totfact>
</mgrwt>
</event>
<event>
 8    1  0.1821556E-007  0.1477089E+03  0.7546771E-02  0.1203317E+00
          5   -1    0    0  501    0  0.00000000000E+00  0.00000000000E+00  0.99546027284E+02  0.99656919218E+02  0.47000000000E+01 0.  1.
         -5   -1    0    0    0  501 -0.00000000000E+00 -0.00000000000E+00 -0.22001075058E+03  0.22006094695E+03  0.47000000000E+01 0.  1.
         25    2    1    2    0    0  0.70977927181E+02 -0.33987914287E+02 -0.71508771001E+02  0.16410747822E+03  0.12499886244E+03 0.  0.
         25    2    1    2    0    0 -0.70977927181E+02  0.33987914287E+02 -0.48955952299E+02  0.15561038795E+03  0.12499945243E+03 0.  0.
          5    1    3    3  502    0  0.63586409243E+02  0.24406393610E+02 -0.79196676747E+02  0.10456149912E+03  0.47000000000E+01 0. -1.
         -5    1    3    3    0  502  0.73915179378E+01 -0.58394307897E+02  0.76879057462E+01  0.59545979100E+02  0.47000000000E+01 0. -1.
          5    1    4    4  503    0 -0.44379919863E+01  0.66270025451E+02  0.37581884157E+00  0.66585608700E+02  0.47000000000E+01 0.  1.
         -5    1    4    4    0  503 -0.66539935195E+02 -0.32282111164E+02 -0.49331771141E+02  0.89024779252E+02  0.47000000000E+01 0.  1.
<mgrwt>
<rscale>  0 0.14770874E+03</rscale>
<asrwt>0</asrwt>
<pdfrwt beam="1">  1        5 0.15327165E-01 0.14770886E+03</pdfrwt>
<pdfrwt beam="2">  1       -5 0.33860199E-01 0.14770886E+03</pdfrwt>
<totfact> 0.23637185E+02</totfact>
</mgrwt>
</event>
<event>
 8    1  0.1821556E-007  0.1270525E+03  0.7546771E-02  0.1231900E+00
          5   -1    0    0  501    0  0.00000000000E+00  0.00000000000E+00  0.12614369938E+03  0.12623122789E+03  0.47000000000E+01 0.  1.
         -5   -1    0    0    0  501 -0.00000000000E+00 -0.00000000000E+00 -0.13738362709E+03  0.13746399889E+03  0.47000000000E+01 0.  1.
         25    2    1    2    0    0 -0.21288175993E+02  0.79426986553E+01  0.29215111345E+02  0.13036818220E+03  0.12500426913E+03 0.  0.
         25    2    1    2    0    0  0.21288175993E+02 -0.79426986553E+01 -0.40455039049E+02  0.13332704458E+03  0.12499287072E+03 0.  0.
          5    1    3    3  502    0 -0.12770605386E+02  0.38345876976E+02 -0.38179066190E+02  0.55796287853E+02  0.47000000000E+01 0.  1.
         -5    1    3    3    0  502 -0.85175706075E+01 -0.30403178321E+02  0.67394177536E+02  0.74571894349E+02  0.47000000000E+01 0.  1.
          5    1    4    4  503    0  0.68901888859E+01  0.53917122811E+02  0.54359548929E+01  0.54828554976E+02  0.47000000000E+01 0.  1.
         -5    1    4    4    0  503  0.14397987107E+02 -0.61859821467E+02 -0.45890993942E+02  0.78498489601E+02  0.47000000000E+01 0.  1.
<mgrwt>
<rscale>  0 0.12704971E+03</rscale>
<asrwt>0</asrwt>
<pdfrwt beam="1">  1        5 0.19419638E-01 0.12705251E+03</pdfrwt>
<pdfrwt beam="2">  1       -5 0.21148858E-01 0.12705251E+03</pdfrwt>
<totfact> 0.36094435E+02</totfact>
</mgrwt>
</event>
<event>
 8    1  0.1821556E-007  0.1275193E+03  0.7546771E-02  0.1231189E+00
          5   -1    0    0  501    0  0.00000000000E+00  0.00000000000E+00  0.14934111317E+03  0.14941505307E+03  0.47000000000E+01 0.  1.
         -5   -1    0    0    0  501 -0.00000000000E+00 -0.00000000000E+00 -0.11448965501E+03  0.11458608599E+03  0.47000000000E+01 0.  1.
         25    2    1    2    0    0 -0.23462567959E+02  0.90535022496E+01 -0.12179628853E+02  0.12808537804E+03  0.12500025084E+03 0.  0.
         25    2    1    2    0    0  0.23462567959E+02 -0.90535022496E+01  0.47031087018E+02  0.13591576102E+03  0.12501485092E+03 0.  0.
          5    1    4    4  502    0 -0.30382809678E+02 -0.40296603074E+02 -0.96467972816E+01  0.51595368407E+02  0.47000000000E+01 0. -1.
         -5    1    4    4    0  502  0.53845377637E+02  0.31243100825E+02  0.56677884300E+02  0.84320392615E+02  0.47000000000E+01 0. -1.
          5    1    3    3  503    0  0.12988260051E+02 -0.28281805531E+01 -0.62827327074E+02  0.64389879109E+02  0.47000000000E+01 0.  1.
         -5    1    3    3    0  503 -0.36450828010E+02  0.11881682803E+02  0.50647698221E+02  0.63695498930E+02  0.47000000000E+01 0.  1.
<mgrwt>
<rscale>  0 0.12751572E+03</rscale>
<asrwt>0</asrwt>
<pdfrwt beam="1">  1        5 0.22988661E-01 0.12751930E+03</pdfrwt>
<pdfrwt beam="2">  1       -5 0.17626898E-01 0.12751930E+03</pdfrwt>
<totfact> 0.36937257E+02</totfact>
</mgrwt>
</event>
<event>
 8    1  0.1821556E-007  0.1781832E+03  0.7546771E-02  0.1169574E+00
          5   -1    0    0  501    0  0.00000000000E+00  0.00000000000E+00  0.11730424170E+03  0.11739836081E+03  0.47000000000E+01 0. -1.
         -5   -1    0    0    0  501 -0.00000000000E+00 -0.00000000000E+00 -0.27640674860E+03  0.27644670494E+03  0.47000000000E+01 0. -1.
         25    2    1    2    0    0 -0.12098537923E+03  0.38553925799E+02 -0.10850937931E+03  0.20862295594E+03  0.12500154064E+03 0.  0.
         25    2    1    2    0    0  0.12098537923E+03 -0.38553925799E+02 -0.50593127594E+02  0.18522210982E+03  0.12499479278E+03 0.  0.
          5    1    3    3  502    0 -0.24859483044E+02  0.31056883850E+02 -0.10460404644E+03  0.11201169789E+03  0.47000000000E+01 0. -1.
         -5    1    3    3    0  502 -0.96125896191E+02  0.74970419498E+01 -0.39053328630E+01  0.96611258046E+02  0.47000000000E+01 0. -1.
          5    1    4    4  503    0  0.84185800853E+02 -0.37440184528E+02 -0.91535350407E+02  0.12996086664E+03  0.47000000000E+01 0. -1.
         -5    1    4    4    0  503  0.36799578382E+02 -0.11137412712E+01  0.40942222814E+02  0.55261243179E+02  0.47000000000E+01 0. -1.
<mgrwt>
<rscale>  0 0.17818202E+03</rscale>
<asrwt>0</asrwt>
<pdfrwt beam="1">  1        5 0.18057120E-01 0.17818320E+03</pdfrwt>
<pdfrwt beam="2">  1       -5 0.42534429E-01 0.17818320E+03</pdfrwt>
<totfact> 0.11663229E+02</totfact>
</mgrwt>
</event>
<event>
 8    1  0.1821556E-007  0.1319710E+03  0.7546771E-02  0.1224560E+00
          5   -1    0    0  501    0  0.00000000000E+00  0.00000000000E+00  0.22365641395E+03  0.22370579228E+03  0.47000000000E+01 0. -1.
         -5   -1    0    0    0  501 -0.00000000000E+00 -0.00000000000E+00 -0.77915961678E+02  0.78057588256E+02  0.47000000000E+01 0. -1.
         25    2    1    2    0    0  0.38755950876E+02 -0.17014950816E+02  0.65739073026E+02  0.14743720312E+03  0.12499828343E+03 0.  0.
         25    2    1    2    0    0 -0.38755950876E+02  0.17014950816E+02  0.80001379248E+02  0.15432617742E+03  0.12499926431E+03 0.  0.
          5    1    4    4  502    0  0.81834282544E+01  0.19487108347E+02  0.10051860782E+03  0.10282410422E+03  0.47000000000E+01 0.  1.
         -5    1    4    4    0  502 -0.46939379130E+02 -0.24721575314E+01 -0.20517228576E+02  0.51502073205E+02  0.47000000000E+01 0.  1.
          5    1    3    3  503    0  0.48303876971E+01 -0.63506745322E+02  0.62875963459E+02  0.89620958082E+02  0.47000000000E+01 0. -1.
         -5    1    3    3    0  503  0.33925563179E+02  0.46491794506E+02  0.28631095665E+01  0.57816245034E+02  0.47000000000E+01 0. -1.
<mgrwt>
<rscale>  0 0.13197078E+03</rscale>
<asrwt>0</asrwt>
<pdfrwt beam="1">  1        5 0.34423372E-01 0.13197101E+03</pdfrwt>
<pdfrwt beam="2">  1       -5 0.12001764E-01 0.13197101E+03</pdfrwt>
<totfact> 0.34125519E+02</totfact>
</mgrwt>
</event>
<event>
 8    1  0.1821556E-007  0.1866842E+03  0.7546771E-02  0.1161487E+00
         -5   -1    0    0    0  501 -0.00000000000E+00  0.00000000000E+00  0.43348464395E+03  0.43351012276E+03  0.47000000000E+01 0. -1.
          5   -1    0    0  501    0  0.00000000000E+00 -0.00000000000E+00 -0.81955180808E+02  0.82089838965E+02  0.47000000000E+01 0. -1.
         25    2    1    2    0    0 -0.10354940553E+03 -0.92218591088E+02  0.13916983475E+03  0.23284991578E+03  0.12499636973E+03 0.  0.
         25    2    1    2    0    0  0.10354940553E+03  0.92218591088E+02  0.21235962839E+03  0.28275004595E+03  0.12499691512E+03 0.  0.
          5    1    3    3  502    0 -0.60247270289E+02 -0.45238560599E+02 -0.44198400017E+01  0.75616704028E+02  0.47000000000E+01 0. -1.
         -5    1    3    3    0  502 -0.43302135236E+02 -0.46980030489E+02  0.14358967476E+03  0.15723321175E+03  0.47000000000E+01 0. -1.
          5    1    4    4  503    0  0.78337722859E+02  0.10819668538E+03  0.10146102184E+03  0.16780867231E+03  0.47000000000E+01 0.  1.
         -5    1    4    4    0  503  0.25211682667E+02 -0.15978094293E+02  0.11089860655E+03  0.11494137364E+03  0.47000000000E+01 0.  1.
<mgrwt>
<rscale>  0 0.18668407E+03</rscale>
<asrwt>0</asrwt>
<pdfrwt beam="2">  1        5 0.12620808E-01 0.18668416E+03</pdfrwt>
<pdfrwt beam="1">  1       -5 0.66702264E-01 0.18668416E+03</pdfrwt>
<totfact> 0.86029839E+01</totfact>
</mgrwt>
</event>
<event>
 8    1  0.1821556E-007  0.1642669E+03  0.7546771E-02  0.1183962E+00
          5   -1    0    0  501    0  0.00000000000E+00  0.00000000000E+00  0.11721979953E+02  0.12629125624E+02  0.47000000000E+01 0. -1.
         -5   -1    0    0    0  501 -0.00000000000E+00 -0.00000000000E+00 -0.28500022805E+04  0.28500061560E+04  0.47000000000E+01 0. -1.
         25    2    1    2    0    0  0.88794233952E+02  0.58942997483E+02 -0.20944910679E+04  0.21009227600E+04  0.12499966731E+03 0.  0.
         25    2    1    2    0    0 -0.88794233952E+02 -0.58942997483E+02 -0.74378923264E+03  0.76171252160E+03  0.12499940014E+03 0.  0.
          5    1    4    4  502    0 -0.88570249907E+02  0.59928428364E+01 -0.55350672954E+03  0.56060002942E+03  0.47000000000E+01 0.  1.
         -5    1    4    4    0  502 -0.22398404430E+00 -0.64935840320E+02 -0.19028250310E+03  0.20111249218E+03  0.47000000000E+01 0.  1.
          5    1    3    3  503    0  0.61730122261E+02 -0.11469704497E+02 -0.15421184157E+04  0.15434032073E+04  0.47000000000E+01 0. -1.
         -5    1    3    3    0  503  0.27064111691E+02  0.70412701980E+02 -0.55237265220E+03  0.55751955270E+03  0.47000000000E+01 0. -1.
<mgrwt>
<rscale>  0 0.16426683E+03</rscale>
<asrwt>0</asrwt>
<pdfrwt beam="1">  1        5 0.18734623E-02 0.16426689E+03</pdfrwt>
<pdfrwt beam="2">  1       -5 0.43853144E+00 0.16426689E+03</pdfrwt>
<totfact> 0.30618740E+00</totfact>
</mgrwt>
</event>
<event>
 8    1  0.1821556E-007  0.1323716E+03  0.7546771E-02  0.1223980E+00
          5   -1    0    0  501    0  0.00000000000E+00  0.00000000000E+00  0.23608427783E+02  0.24071723295E+02  0.47000000000E+01 0. -1.
         -5   -1    0    0    0  501 -0.00000000000E+00 -0.00000000000E+00 -0.11713383293E+04  0.11713477587E+04  0.47000000000E+01 0. -1.
         25    2    1    2    0    0  0.33461249010E+02 -0.27890094864E+02 -0.93879983858E+03  0.94808566928E+03  0.12499514707E+03 0.  0.
         25    2    1    2    0    0 -0.33461249010E+02  0.27890094864E+02 -0.20893006296E+03  0.24733381269E+03  0.12499892445E+03 0.  0.
          5    1    3    3  502    0 -0.35578281808E+02 -0.45372444203E+02 -0.32039743778E+03  0.32557807200E+03  0.47000000000E+01 0.  1.
         -5    1    3    3    0  502  0.69039530818E+02  0.17482349339E+02 -0.61840240080E+03  0.62250759728E+03  0.47000000000E+01 0.  1.
          5    1    4    4  503    0 -0.12860677646E+02  0.87114687948E+01  0.14696240470E+02  0.21894204759E+02  0.47000000000E+01 0. -1.
         -5    1    4    4    0  503 -0.20600571364E+02  0.19178626069E+02 -0.22362630343E+03  0.22543960793E+03  0.47000000000E+01 0. -1.
<mgrwt>
<rscale>  0 0.13237072E+03</rscale>
<asrwt>0</asrwt>
<pdfrwt beam="1">  1        5 0.36684302E-02 0.13237161E+03</pdfrwt>
<pdfrwt beam="2">  1       -5 0.18024222E+00 0.13237161E+03</pdfrwt>
<totfact> 0.51819839E+01</totfact>
</mgrwt>
</event>
<event>
 8    1  0.1821556E-007  0.1539207E+03  0.7546771E-02  0.1195746E+00
          5   -1    0    0  501    0  0.00000000000E+00  0.00000000000E+00  0.35371939382E+02  0.35682826340E+02  0.47000000000E+01 0.  1.
         -5   -1    0    0    0  501 -0.00000000000E+00 -0.00000000000E+00 -0.66659800732E+03  0.66661457632E+03  0.47000000000E+01 0.  1.
         25    2    1    2    0    0  0.40012589591E+02 -0.80350887802E+02 -0.32181417466E+03  0.35672950562E+03  0.12503721315E+03 0.  0.
         25    2    1    2    0    0 -0.40012589591E+02  0.80350887802E+02 -0.30941189328E+03  0.34556789704E+03  0.12499671702E+03 0.  0.
          5    1    4    4  502    0  0.28584179414E+02  0.46017031906E+02 -0.46157620333E+02  0.71324879621E+02  0.47000000000E+01 0.  1.
         -5    1    4    4    0  502 -0.68596769005E+02  0.34333855896E+02 -0.26325427295E+03  0.27424301742E+03  0.47000000000E+01 0.  1.
          5    1    3    3  503    0  0.65528947523E+02 -0.50336969740E+02 -0.30050723840E+03  0.31169623645E+03  0.47000000000E+01 0.  1.
         -5    1    3    3    0  503 -0.25516357931E+02 -0.30013918062E+02 -0.21306936259E+02  0.45033269172E+02  0.47000000000E+01 0.  1.
<mgrwt>
<rscale>  0 0.15391246E+03</rscale>
<asrwt>0</asrwt>
<pdfrwt beam="1">  1        5 0.54670262E-02 0.15392068E+03</pdfrwt>
<pdfrwt beam="2">  1       -5 0.10257872E+00 0.15392068E+03</pdfrwt>
<totfact> 0.12581294E+02</totfact>
</mgrwt>
</event>
<event>
 8    1  0.1821556E-007  0.1363756E+03  0.7546771E-02  0.1218297E+00
         -5   -1    0    0    0  501 -0.00000000000E+00  0.00000000000E+00  0.25622152566E+02  0.26049658388E+02  0.47000000000E+01 0.  1.
          5   -1    0    0  501    0  0.00000000000E+00 -0.00000000000E+00 -0.76522553182E+03  0.76523996534E+03  0.47000000000E+01 0.  1.
         25    2    1    2    0    0  0.15108955815E+02  0.52395595553E+02 -0.27295913059E+03  0.30513112673E+03  0.12499895419E+03 0.  0.
         25    2    1    2    0    0 -0.15108955815E+02 -0.52395595553E+02 -0.46664424867E+03  0.48615849700E+03  0.12497859981E+03 0.  0.
          5    1    4    4  502    0  0.10919227380E+02  0.88059131248E+01 -0.36055524132E+03  0.36085862284E+03  0.47000000000E+01 0.  1.
         -5    1    4    4    0  502 -0.26028183195E+02 -0.61201508678E+02 -0.10608900735E+03  0.12529987416E+03  0.47000000000E+01 0.  1.
          5    1    3    3  503    0 -0.18444919914E+02  0.81685681233E+02 -0.12491961689E+03  0.15046516631E+03  0.47000000000E+01 0. -1.
         -5    1    3    3    0  503  0.33553875729E+02 -0.29290085680E+02 -0.14803951370E+03  0.15466596042E+03  0.47000000000E+01 0. -1.
<mgrwt>
<rscale>  0 0.13637098E+03</rscale>
<asrwt>0</asrwt>
<pdfrwt beam="2">  1        5 0.11776098E+00 0.13637565E+03</pdfrwt>
<pdfrwt beam="1">  1       -5 0.39758655E-02 0.13637565E+03</pdfrwt>
<totfact> 0.14548468E+02</totfact>
</mgrwt>
</event>
<event>
 8    1  0.1821556E-007  0.2579041E+03  0.7546771E-02  0.1108409E+00
          5   -1    0    0  501    0  0.00000000000E+00  0.00000000000E+00  0.33554804200E+03  0.33558095669E+03  0.47000000000E+01 0.  1.
         -5   -1    0    0    0  501 -0.00000000000E+00 -0.00000000000E+00 -0.30109954724E+03  0.30113622723E+03  0.47000000000E+01 0.  1.
         25    2    1    2    0    0 -0.79057947595E+02  0.21128061091E+03 -0.16890119232E+03  0.30828904858E+03  0.12499947635E+03 0.  0.
         25    2    1    2    0    0  0.79057947595E+02 -0.21128061091E+03  0.20334968708E+03  0.32842813533E+03  0.12499715685E+03 0.  0.
          5    1    3    3  502    0 -0.13512996210E+02 -0.15594851139E+02 -0.19688963467E+02  0.28905807911E+02  0.47000000000E+01 0.  1.
         -5    1    3    3    0  502 -0.65544951385E+02  0.22687546205E+03 -0.14921222885E+03  0.27938324067E+03  0.47000000000E+01 0.  1.
          5    1    4    4  503    0  0.24947315688E+02 -0.56816687134E+02 -0.61516463363E+01  0.62533489024E+02  0.47000000000E+01 0. -1.
         -5    1    4    4    0  503  0.54110631908E+02 -0.15446392377E+03  0.20950133341E+03  0.26589464631E+03  0.47000000000E+01 0. -1.
<mgrwt>
<rscale>  0 0.25790382E+03</rscale>
<asrwt>0</asrwt>
<pdfrwt beam="1">  1        5 0.51628129E-01 0.25790410E+03</pdfrwt>
<pdfrwt beam="2">  1       -5 0.46328360E-01 0.25790410E+03</pdfrwt>
<totfact> 0.13230941E+01</totfact>
</mgrwt>
</event>
<event>
 8    1  0.1821556E-007  0.1303506E+03  0.7546771E-02  0.1226942E+00
         -5   -1    0    0    0  501 -0.00000000000E+00  0.00000000000E+00  0.88115393108E+03  0.88116646569E+03  0.47000000000E+01 0.  1.
          5   -1    0    0  501    0  0.00000000000E+00 -0.00000000000E+00 -0.21781700575E+02  0.22283008772E+02  0.47000000000E+01 0.  1.
         25    2    1    2    0    0 -0.36749133117E+02  0.82519389569E+00  0.58966592202E+03  0.60390161972E+03  0.12506033333E+03 0.  0.
         25    2    1    2    0    0  0.36749133117E+02 -0.82519389569E+00  0.26970630848E+03  0.29954785475E+03  0.12504497078E+03 0.  0.
          5    1    4    4  502    0 -0.23787716765E+00 -0.11345201890E+02  0.25908784818E+03  0.25937882194E+03  0.47000000000E+01 0.  1.
         -5    1    4    4    0  502  0.36987010285E+02  0.10520007994E+02  0.10618460300E+02  0.40169032813E+02  0.47000000000E+01 0.  1.
          5    1    3    3  503    0  0.68785738666E+01 -0.16841646138E+02  0.51608808504E+03  0.51643001204E+03  0.47000000000E+01 0.  1.
         -5    1    3    3    0  503 -0.43627706984E+02  0.17666840034E+02  0.73577836987E+02  0.87471607675E+02  0.47000000000E+01 0.  1.
<mgrwt>
<rscale>  0 0.13034687E+03</rscale>
<asrwt>0</asrwt>
<pdfrwt beam="2">  1        5 0.33905574E-02 0.13035055E+03</pdfrwt>
<pdfrwt beam="1">  1       -5 0.13560166E+00 0.13035055E+03</pdfrwt>
<totfact> 0.12913312E+02</totfact>
</mgrwt>
</event>
<event>
 8    1  0.1821556E-007  0.1353625E+03  0.7546771E-02  0.1219712E+00
          5   -1    0    0  501    0  0.00000000000E+00  0.00000000000E+00  0.19495126477E+04  0.19495183132E+04  0.47000000000E+01 0. -1.
         -5   -1    0    0    0  501 -0.00000000000E+00 -0.00000000000E+00 -0.10667840021E+02  0.11657307181E+02  0.47000000000E+01 0. -1.
         25    2    1    2    0    0 -0.49522484391E+01  0.51700245808E+02  0.13597773415E+04  0.13664974449E+04  0.12499363381E+03 0.  0.
         25    2    1    2    0    0  0.49522484391E+01 -0.51700245808E+02  0.57906746617E+03  0.59467817541E+03  0.12500224695E+03 0.  0.
          5    1    3    3  502    0  0.23833637542E+02  0.40348695677E+02  0.12790264426E+04  0.12798932731E+04  0.47000000000E+01 0. -1.
         -5    1    3    3    0  502 -0.28785885981E+02  0.11351550131E+02  0.80750898844E+02  0.86604171875E+02  0.47000000000E+01 0. -1.
          5    1    4    4  503    0 -0.59814797272E+02 -0.22736284510E+02  0.26351883295E+03  0.27121765046E+03  0.47000000000E+01 0. -1.
         -5    1    4    4    0  503  0.64767045711E+02 -0.28963961298E+02  0.31554863323E+03  0.32346052494E+03  0.47000000000E+01 0. -1.
<mgrwt>
<rscale>  0 0.13536049E+03</rscale>
<asrwt>0</asrwt>
<pdfrwt beam="1">  1        5 0.30000172E+00 0.13536248E+03</pdfrwt>
<pdfrwt beam="2">  1       -5 0.17177540E-02 0.13536248E+03</pdfrwt>
<totfact> 0.29453988E+01</totfact>
</mgrwt>
</event>
<event>
 8    1  0.1821556E-007  0.1326049E+03  0.7546771E-02  0.1223647E+00
         -5   -1    0    0    0  501 -0.00000000000E+00  0.00000000000E+00  0.92552278771E+02  0.92671539891E+02  0.47000000000E+01 0.  1.
          5   -1    0    0  501    0  0.00000000000E+00 -0.00000000000E+00 -0.21673159296E+03  0.21678254862E+03  0.47000000000E+01 0.  1.
         25    2    1    2    0    0  0.21082876248E+02  0.38862786063E+02 -0.74607328224E+01  0.13279821349E+03  0.12499959664E+03 0.  0.
         25    2    1    2    0    0 -0.21082876248E+02 -0.38862786063E+02 -0.11671858137E+03  0.17665587502E+03  0.12501706736E+03 0.  0.
          5    1    4    4  502    0 -0.70233703225E+02 -0.38761335015E+02 -0.53920247988E+02  0.96771366136E+02  0.47000000000E+01 0.  1.
         -5    1    4    4    0  502  0.49150826977E+02 -0.10145104879E+00 -0.62798333381E+02  0.79884508888E+02  0.47000000000E+01 0.  1.
          5    1    3    3  503    0  0.37492968771E+02  0.44601258911E+02  0.47272601072E+02  0.75178346722E+02  0.47000000000E+01 0.  1.
         -5    1    3    3    0  503 -0.16410092523E+02 -0.57384728480E+01 -0.54733333894E+02  0.57619866769E+02  0.47000000000E+01 0.  1.
<mgrwt>
<rscale>  0 0.13260083E+03</rscale>
<asrwt>0</asrwt>
<pdfrwt beam="2">  1        5 0.33356416E-01 0.13260494E+03</pdfrwt>
<pdfrwt beam="1">  1       -5 0.14251906E-01 0.13260494E+03</pdfrwt>
<totfact> 0.26783066E+02</totfact>
</mgrwt>
</event>
<event>
 8    1  0.1821556E-007  0.1371741E+03  0.7546771E-02  0.1217185E+00
          5   -1    0    0  501    0  0.00000000000E+00  0.00000000000E+00  0.78234173462E+03  0.78235585236E+03  0.47000000000E+01 0. -1.
         -5   -1    0    0    0  501 -0.00000000000E+00 -0.00000000000E+00 -0.25086920925E+02  0.25523393221E+02  0.47000000000E+01 0. -1.
         25    2    1    2    0    0 -0.80157752650E+01 -0.55914933059E+02  0.28818332912E+03  0.31916174924E+03  0.12499543433E+03 0.  0.
         25    2    1    2    0    0  0.80157752650E+01  0.55914933059E+02  0.46907148457E+03  0.48871749634E+03  0.12500400473E+03 0.  0.
          5    1    3    3  502    0  0.25756729499E+02 -0.15455878327E+02  0.46783083580E+01  0.30761499613E+02  0.47000000000E+01 0. -1.
         -5    1    3    3    0  502 -0.33772504764E+02 -0.40459054732E+02  0.28350502076E+03  0.28840024963E+03  0.47000000000E+01 0. -1.
          5    1    4    4  503    0  0.49906885397E+02  0.68000827494E+02  0.38195981729E+03  0.39119074858E+03  0.47000000000E+01 0. -1.
         -5    1    4    4    0  503 -0.41891110132E+02 -0.12085894435E+02  0.87111667287E+02  0.97526747767E+02  0.47000000000E+01 0. -1.
<mgrwt>
<rscale>  0 0.13717215E+03</rscale>
<asrwt>0</asrwt>
<pdfrwt beam="1">  1        5 0.12039494E+00 0.13717410E+03</pdfrwt>
<pdfrwt beam="2">  1       -5 0.38941867E-02 0.13717410E+03</pdfrwt>
<totfact> 0.14254873E+02</totfact>
</mgrwt>
</event>
<event>
 8    1  0.1821556E-007  0.1407404E+03  0.7546771E-02  0.1212337E+00
          5   -1    0    0  501    0  0.00000000000E+00  0.00000000000E+00  0.52237219876E+02  0.52448232957E+02  0.47000000000E+01 0. -1.
         -5   -1    0    0    0  501 -0.00000000000E+00 -0.00000000000E+00 -0.47716145702E+03  0.47718460376E+03  0.47000000000E+01 0. -1.
         25    2    1    2    0    0  0.50823653764E+02 -0.40002837691E+02 -0.33303597026E+03  0.36155335734E+03  0.12499840762E+03 0.  0.
         25    2    1    2    0    0 -0.50823653764E+02  0.40002837691E+02 -0.91888266884E+02  0.16807947938E+03  0.12499594790E+03 0.  0.
          5    1    4    4  502    0 -0.23735590697E+02 -0.96666236265E+01  0.26263981429E+02  0.36996061933E+02  0.47000000000E+01 0.  1.
         -5    1    4    4    0  502 -0.27088063067E+02  0.49669461317E+02 -0.11815224831E+03  0.13108341745E+03  0.47000000000E+01 0.  1.
          5    1    3    3  503    0  0.26453949538E+01 -0.72108821010E+01 -0.28698778087E+03  0.28712901508E+03  0.47000000000E+01 0. -1.
         -5    1    3    3    0  503  0.48178258810E+02 -0.32791955590E+02 -0.46048189390E+02  0.74424342251E+02  0.47000000000E+01 0. -1.
<mgrwt>
<rscale>  0 0.14073990E+03</rscale>
<asrwt>0</asrwt>
<pdfrwt beam="1">  1        5 0.80545080E-02 0.14074044E+03</pdfrwt>
<pdfrwt beam="2">  1       -5 0.73427464E-01 0.14074044E+03</pdfrwt>
<totfact> 0.13957742E+02</totfact>
</mgrwt>
</event>
<event>
 8    1  0.1821556E-007  0.1409565E+03  0.7546771E-02  0.1212049E+00
         -5   -1    0    0    0  501 -0.00000000000E+00  0.00000000000E+00  0.17251213670E+02  0.17879999247E+02  0.47000000000E+01 0. -1.
          5   -1    0    0  501    0  0.00000000000E+00 -0.00000000000E+00 -0.12694140406E+04  0.12694227415E+04  0.47000000000E+01 0. -1.
         25    2    1    2    0    0  0.17986782761E+02 -0.62600204894E+02 -0.41318099265E+03  0.43656302671E+03  0.12500573427E+03 0.  0.
         25    2    1    2    0    0 -0.17986782761E+02  0.62600204894E+02 -0.83898183430E+03  0.85073971399E+03  0.12500093066E+03 0.  0.
          5    1    4    4  502    0  0.30243472992E+02  0.77565316136E+02 -0.38456584442E+03  0.39350225491E+03  0.47000000000E+01 0. -1.
         -5    1    4    4    0  502 -0.48230255753E+02 -0.14965111242E+02 -0.45441598989E+03  0.45723745908E+03  0.47000000000E+01 0. -1.
          5    1    3    3  503    0 -0.11057319091E+02 -0.85999660568E+02 -0.17419661154E+03  0.19464006626E+03  0.47000000000E+01 0. -1.
         -5    1    3    3    0  503  0.29044101852E+02  0.23399455674E+02 -0.23898438111E+03  0.24192296045E+03  0.47000000000E+01 0. -1.
<mgrwt>
<rscale>  0 0.14095547E+03</rscale>
<asrwt>0</asrwt>
<pdfrwt beam="2">  1        5 0.19534343E+00 0.14095653E+03</pdfrwt>
<pdfrwt beam="1">  1       -5 0.27030713E-02 0.14095653E+03</pdfrwt>
<totfact> 0.67931537E+01</totfact>
</mgrwt>
</event>
<event>
 8    1  0.1821556E-007  0.1391002E+03  0.7546771E-02  0.1214546E+00
         -5   -1    0    0    0  501 -0.00000000000E+00  0.00000000000E+00  0.24951479433E+03  0.24955905632E+03  0.47000000000E+01 0.  1.
          5   -1    0    0  501    0  0.00000000000E+00 -0.00000000000E+00 -0.77443760759E+02  0.77586249300E+02  0.47000000000E+01 0.  1.
         25    2    1    2    0    0  0.58897089512E+02  0.15954562010E+02  0.88769837063E+02  0.16501200045E+03  0.12500184446E+03 0.  0.
         25    2    1    2    0    0 -0.58897089512E+02 -0.15954562010E+02  0.83301196507E+02  0.16213330517E+03  0.12499881640E+03 0.  0.
          5    1    3    3  502    0  0.35251212799E+02  0.70182409399E+02  0.40361623649E+02  0.88427197493E+02  0.47000000000E+01 0. -1.
         -5    1    3    3    0  502  0.23645876714E+02 -0.54227847390E+02  0.48408213414E+02  0.76584802957E+02  0.47000000000E+01 0. -1.
          5    1    4    4  503    0 -0.22733001591E+02 -0.39880772372E+00 -0.32381742827E+02  0.39844895250E+02  0.47000000000E+01 0. -1.
         -5    1    4    4    0  503 -0.36164087921E+02 -0.15555754286E+02  0.11568293933E+03  0.12228840992E+03  0.47000000000E+01 0. -1.
<mgrwt>
<rscale>  0 0.13909956E+03</rscale>
<asrwt>0</asrwt>
<pdfrwt beam="2">  1        5 0.11928790E-01 0.13910024E+03</pdfrwt>
<pdfrwt beam="1">  1       -5 0.38401256E-01 0.13910024E+03</pdfrwt>
<totfact> 0.28180882E+02</totfact>
</mgrwt>
</event>
<event>
 8    1  0.1821556E-007  0.1376667E+03  0.7546771E-02  0.1216505E+00
         -5   -1    0    0    0  501 -0.00000000000E+00  0.00000000000E+00  0.43573952605E+02  0.43826696723E+02  0.47000000000E+01 0. -1.
          5   -1    0    0  501    0  0.00000000000E+00 -0.00000000000E+00 -0.43617357707E+03  0.43619889882E+03  0.47000000000E+01 0. -1.
         25    2    1    2    0    0  0.55421707138E+02 -0.15990555929E+02 -0.17719502389E+03  0.22438666796E+03  0.12499614700E+03 0.  0.
         25    2    1    2    0    0 -0.55421707138E+02  0.15990555929E+02 -0.21540460057E+03  0.25563892758E+03  0.12499942339E+03 0.  0.
          5    1    4    4  502    0 -0.89939606518E+02 -0.13542049395E+02 -0.15692797487E+03  0.18144144846E+03  0.47000000000E+01 0. -1.
         -5    1    4    4    0  502  0.34517899381E+02  0.29532605325E+02 -0.58476625698E+02  0.74197479121E+02  0.47000000000E+01 0. -1.
          5    1    3    3  503    0 -0.25029262279E+02 -0.35319040913E+02 -0.10791753486E+03  0.11637088533E+03  0.47000000000E+01 0.  1.
         -5    1    3    3    0  503  0.80450969416E+02  0.19328484983E+02 -0.69277489035E+02  0.10801578264E+03  0.47000000000E+01 0.  1.
<mgrwt>
<rscale>  0 0.13766595E+03</rscale>
<asrwt>0</asrwt>
<pdfrwt beam="2">  1        5 0.67125014E-01 0.13766670E+03</pdfrwt>
<pdfrwt beam="1">  1       -5 0.67250750E-02 0.13766670E+03</pdfrwt>
<totfact> 0.23071100E+02</totfact>
</mgrwt>
</event>
<event>
 8    1  0.1821556E-007  0.1401326E+03  0.7546771E-02  0.1213154E+00
          5   -1    0    0  501    0  0.00000000000E+00  0.00000000000E+00  0.30039059466E+04  0.30039096235E+04  0.47000000000E+01 0.  1.
         -5   -1    0    0    0  501 -0.00000000000E+00 -0.00000000000E+00 -0.62038034541E+01  0.77831341564E+01  0.47000000000E+01 0.  1.
         25    2    1    2    0    0 -0.35814723771E+02  0.52207368501E+02  0.11126420164E+04  0.11214318590E+04  0.12501541494E+03 0.  0.
         25    2    1    2    0    0  0.35814723771E+02 -0.52207368501E+02  0.18850601267E+04  0.18902608986E+04  0.12500511855E+03 0.  0.
          5    1    4    4  502    0  0.35387006488E+02 -0.69870678959E+02  0.18394528919E+04  0.18411255209E+04  0.47000000000E+01 0.  1.
         -5    1    4    4    0  502  0.42771728237E+00  0.17663310458E+02  0.45607234773E+02  0.49135377703E+02  0.47000000000E+01 0.  1.
          5    1    3    3  503    0 -0.31032604829E+02 -0.24221054298E+02  0.73536279735E+03  0.73643072706E+03  0.47000000000E+01 0.  1.
         -5    1    3    3    0  503 -0.47821189414E+01  0.76428422798E+02  0.37727921907E+03  0.38500113197E+03  0.47000000000E+01 0.  1.
<mgrwt>
<rscale>  0 0.14013035E+03</rscale>
<asrwt>0</asrwt>
<pdfrwt beam="1">  1        5 0.46226136E+00 0.14013264E+03</pdfrwt>
<pdfrwt beam="2">  1       -5 0.10762006E-02 0.14013264E+03</pdfrwt>
<totfact> 0.47110771E+00</totfact>
</mgrwt>
</event>
<event>
 8    1  0.1821556E-007  0.1381773E+03  0.7546771E-02  0.1215804E+00
         -5   -1    0    0    0  501 -0.00000000000E+00  0.00000000000E+00  0.15949427366E+03  0.15956350876E+03  0.47000000000E+01 0. -1.
          5   -1    0    0  501    0  0.00000000000E+00 -0.00000000000E+00 -0.12719601490E+03  0.12728281976E+03  0.47000000000E+01 0. -1.
         25    2    1    2    0    0  0.55150170666E+02  0.20659435575E+02  0.51255021270E+02  0.14737718717E+03  0.12499841796E+03 0.  0.
         25    2    1    2    0    0 -0.55150170666E+02 -0.20659435575E+02 -0.18956762517E+02  0.13946914135E+03  0.12499571569E+03 0.  0.
          5    1    4    4  502    0 -0.75300127345E+02  0.22884798660E+02 -0.38141051386E+02  0.87582264122E+02  0.47000000000E+01 0. -1.
         -5    1    4    4    0  502  0.20149956679E+02 -0.43544234235E+02  0.19184288870E+02  0.51886877230E+02  0.47000000000E+01 0. -1.
          5    1    3    3  503    0  0.60717288571E+01 -0.34305448283E+02 -0.23515063690E+02  0.42293946299E+02  0.47000000000E+01 0.  1.
         -5    1    3    3    0  503  0.49078441809E+02  0.54964883858E+02  0.74770084960E+02  0.10508324087E+03  0.47000000000E+01 0.  1.
<mgrwt>
<rscale>  0 0.13817666E+03</rscale>
<asrwt>0</asrwt>
<pdfrwt beam="2">  1        5 0.19580621E-01 0.13817727E+03</pdfrwt>
<pdfrwt beam="1">  1       -5 0.24549584E-01 0.13817727E+03</pdfrwt>
<totfact> 0.27612541E+02</totfact>
</mgrwt>
</event>
<event>
 8    1  0.1821556E-007  0.1812395E+03  0.7546771E-02  0.1166611E+00
          5   -1    0    0  501    0  0.00000000000E+00  0.00000000000E+00  0.71782540354E+02  0.71936243297E+02  0.47000000000E+01 0.  1.
         -5   -1    0    0    0  501 -0.00000000000E+00 -0.00000000000E+00 -0.49628878188E+03  0.49631103657E+03  0.47000000000E+01 0.  1.
         25    2    1    2    0    0  0.13118709568E+03  0.35045875693E+01 -0.29227034429E+03  0.34390365719E+03  0.12500174026E+03 0.  0.
         25    2    1    2    0    0 -0.13118709568E+03 -0.35045875693E+01 -0.13223589723E+03  0.22434362268E+03  0.12498556842E+03 0.  0.
          5    1    3    3  502    0  0.13033893516E+03 -0.30369250126E+02 -0.27434439711E+03  0.30528260284E+03  0.47000000000E+01 0. -1.
         -5    1    3    3    0  502  0.84816051495E+00  0.33873837695E+02 -0.17925947184E+02  0.38621054347E+02  0.47000000000E+01 0. -1.
          5    1    4    4  503    0 -0.46510260666E+02 -0.58446239160E+02 -0.30097870559E+02  0.80666839726E+02  0.47000000000E+01 0. -1.
         -5    1    4    4    0  503 -0.84676835010E+02  0.54941651590E+02 -0.10213802667E+03  0.14367678295E+03  0.47000000000E+01 0. -1.
<mgrwt>
<rscale>  0 0.18123675E+03</rscale>
<asrwt>0</asrwt>
<pdfrwt beam="1">  1        5 0.11057003E-01 0.18123954E+03</pdfrwt>
<pdfrwt beam="2">  1       -5 0.76365653E-01 0.18123954E+03</pdfrwt>
<totfact> 0.79348487E+01</totfact>
</mgrwt>
</event>
