<event>
 8    1  0.3763376E-007  0.1355559E+03  0.7546771E-02  0.1219445E+00
          5   -1    0    0  501    0  0.00000000000E+00  0.00000000000E+00  0.81202893820E+02  0.81338797414E+02  0.47000000000E+01 0.  1.
         -5   -1    0    0    0  501 -0.00000000000E+00 -0.00000000000E+00 -0.22853242668E+03  0.22858075169E+03  0.47000000000E+01 0.  1.
         25    2    1    2    0    0 -0.15324083467E+02 -0.50162959568E+02 -0.90288932941E+02  0.16287265379E+03  0.12499703954E+03 0.  0.
         25    2    1    2    0    0  0.15324083467E+02  0.50162959568E+02 -0.57040599919E+02  0.14704689532E+03  0.12497203422E+03 0.  0.
          5    1    4    4  502    0  0.23090737499E+02 -0.36457881780E+02 -0.88820697896E+00  0.43419329955E+02  0.47000000000E+01 0. -1.
         -5    1    4    4    0  502 -0.77666540318E+01  0.86620841348E+02 -0.56152392940E+02  0.10362756537E+03  0.47000000000E+01 0. -1.
          5    1    3    3  503    0 -0.38081987368E+01 -0.28014532400E+02 -0.12023521653E+03  0.12360385793E+03  0.47000000000E+01 0.  1.
         -5    1    3    3    0  503 -0.11515884730E+02 -0.22148427168E+02  0.29946283584E+02  0.39268795851E+02  0.47000000000E+01 0.  1.
<mgrwt>
<rscale>  0 0.13555016E+03</rscale>
<asrwt>0</asrwt>
<pdfrwt beam="1">  1        5 0.12506924E-01 0.13555593E+03</pdfrwt>
<pdfrwt beam="2">  1       -5 0.35173006E-01 0.13555593E+03</pdfrwt>
<totfact> 0.30664030E+02</totfact>
</mgrwt>
</event>
<event>
 8    1  0.3763376E-007  0.1287079E+03  0.7546771E-02  0.1229386E+00
          5   -1    0    0  501    0  0.00000000000E+00  0.00000000000E+00  0.11496909975E+03  0.11506512894E+03  0.47000000000E+01 0. -1.
         -5   -1    0    0    0  501 -0.00000000000E+00 -0.00000000000E+00 -0.16043432157E+03  0.16050315118E+03  0.47000000000E+01 0. -1.
         25    2    1    2    0    0  0.14648431890E+02  0.26936584198E+02 -0.66953577248E+02  0.14508100460E+03  0.12500224104E+03 0.  0.
         25    2    1    2    0    0 -0.14648431890E+02 -0.26936584198E+02  0.21488355429E+02  0.13048727552E+03  0.12500009411E+03 0.  0.
          5    1    3    3  502    0 -0.58587871554E+01  0.69810222619E+02 -0.10269182804E+02  0.70960120381E+02  0.47000000000E+01 0. -1.
         -5    1    3    3    0  502  0.20507219045E+02 -0.42873638421E+02 -0.56684394443E+02  0.74120884222E+02  0.47000000000E+01 0. -1.
          5    1    4    4  503    0 -0.10535845929E+02  0.33186701832E+02  0.52015039122E+02  0.62769542955E+02  0.47000000000E+01 0. -1.
         -5    1    4    4    0  503 -0.41125859604E+01 -0.60123286030E+02 -0.30526683692E+02  0.67717732564E+02  0.47000000000E+01 0. -1.
<mgrwt>
<rscale>  0 0.12870735E+03</rscale>
<asrwt>0</asrwt>
<pdfrwt beam="1">  1        5 0.17700235E-01 0.12870787E+03</pdfrwt>
<pdfrwt beam="2">  1       -5 0.24694885E-01 0.12870787E+03</pdfrwt>
<totfact> 0.32098511E+02</totfact>
</mgrwt>
</event>
<event>
 8    1  0.3763376E-007  0.1419014E+03  0.7546771E-02  0.1210795E+00
          5   -1    0    0  501    0  0.00000000000E+00  0.00000000000E+00  0.19876286906E+02  0.20424416300E+02  0.47000000000E+01 0.  1.
         -5   -1    0    0    0  501 -0.00000000000E+00 -0.00000000000E+00 -0.10645128644E+04  0.10645232400E+04  0.47000000000E+01 0.  1.
         25    2    1    2    0    0 -0.17799254313E+01  0.67134484752E+02 -0.65717633994E+03  0.67232190410E+03  0.12500317511E+03 0.  0.
         25    2    1    2    0    0  0.17799254313E+01 -0.67134484752E+02 -0.38746023756E+03  0.41262575219E+03  0.12499747397E+03 0.  0.
          5    1    3    3  502    0  0.56530101404E+02  0.93141421090E+01 -0.21451403756E+03  0.22208279519E+03  0.47000000000E+01 0.  1.
         -5    1    3    3    0  502 -0.58310026835E+02  0.57820342643E+02 -0.44266230238E+03  0.45023910892E+03  0.47000000000E+01 0.  1.
          5    1    4    4  503    0  0.54583985052E+02 -0.55327405933E+02 -0.29769178360E+03  0.30770606314E+03  0.47000000000E+01 0. -1.
         -5    1    4    4    0  503 -0.52804059621E+02 -0.11807078819E+02 -0.89768453964E+02  0.10491968905E+03  0.47000000000E+01 0. -1.
<mgrwt>
<rscale>  0 0.14190012E+03</rscale>
<asrwt>0</asrwt>
<pdfrwt beam="1">  1        5 0.31008530E-02 0.14190138E+03</pdfrwt>
<pdfrwt beam="2">  1       -5 0.16381413E+00 0.14190138E+03</pdfrwt>
<totfact> 0.91554331E+01</totfact>
</mgrwt>
</event>
<event>
 8    1  0.3763376E-007  0.1566471E+03  0.7546771E-02  0.1192537E+00
         -5   -1    0    0    0  501 -0.00000000000E+00  0.00000000000E+00  0.39194798914E+02  0.39475590710E+02  0.47000000000E+01 0. -1.
          5   -1    0    0  501    0  0.00000000000E+00 -0.00000000000E+00 -0.74337367252E+03  0.74338853031E+03  0.47000000000E+01 0. -1.
         25    2    1    2    0    0 -0.77775958095E+02  0.53514513848E+02 -0.19493284415E+03  0.25006976897E+03  0.12499269089E+03 0.  0.
         25    2    1    2    0    0  0.77775958095E+02 -0.53514513848E+02 -0.50924602946E+03  0.53279435205E+03  0.12500160081E+03 0.  0.
          5    1    3    3  502    0 -0.43525260758E+02  0.82311896220E+02 -0.17991451114E+03  0.20263518427E+03  0.47000000000E+01 0.  1.
         -5    1    3    3    0  502 -0.34250697338E+02 -0.28797382373E+02 -0.15018333003E+02  0.47434584702E+02  0.47000000000E+01 0.  1.
          5    1    4    4  503    0  0.22042082518E+02 -0.86590565130E+02 -0.33774308381E+03  0.34939413280E+03  0.47000000000E+01 0. -1.
         -5    1    4    4    0  503  0.55733875577E+02  0.33076051282E+02 -0.17150294564E+03  0.18340021925E+03  0.47000000000E+01 0. -1.
<mgrwt>
<rscale>  0 0.15664529E+03</rscale>
<asrwt>0</asrwt>
<pdfrwt beam="2">  1        5 0.11438791E+00 0.15664707E+03</pdfrwt>
<pdfrwt beam="1">  1       -5 0.60527119E-02 0.15664707E+03</pdfrwt>
<totfact> 0.81309766E+01</totfact>
</mgrwt>
</event>
<event>
 8    1  0.3763376E-007  0.1503314E+03  0.7546771E-02  0.1200067E+00
          5   -1    0    0  501    0  0.00000000000E+00  0.00000000000E+00  0.17626761738E+03  0.17633026665E+03  0.47000000000E+01 0. -1.
         -5   -1    0    0    0  501 -0.00000000000E+00 -0.00000000000E+00 -0.13412225595E+03  0.13420458092E+03  0.47000000000E+01 0. -1.
         25    2    1    2    0    0 -0.59785291547E+02 -0.58308092221E+02 -0.11860169067E+02  0.15079713637E+03  0.12499999209E+03 0.  0.
         25    2    1    2    0    0  0.59785291547E+02  0.58308092221E+02  0.54005530494E+02  0.15973771120E+03  0.12500169740E+03 0.  0.
          5    1    4    4  502    0  0.80963968159E+02  0.79917735298E+02  0.22998019859E+02  0.11615940544E+03  0.47000000000E+01 0. -1.
         -5    1    4    4    0  502 -0.21178676612E+02 -0.21609643077E+02  0.31007510635E+02  0.43578305758E+02  0.47000000000E+01 0. -1.
          5    1    3    3  503    0 -0.35589635860E+02  0.18109981545E+02  0.38784274636E+02  0.55865047849E+02  0.47000000000E+01 0. -1.
         -5    1    3    3    0  503 -0.24195655688E+02 -0.76418073766E+02 -0.50644443703E+02  0.94932088517E+02  0.47000000000E+01 0. -1.
<mgrwt>
<rscale>  0 0.15033108E+03</rscale>
<asrwt>0</asrwt>
<pdfrwt beam="1">  1        5 0.27129247E-01 0.15033143E+03</pdfrwt>
<pdfrwt beam="2">  1       -5 0.20645345E-01 0.15033143E+03</pdfrwt>
<totfact> 0.21226168E+02</totfact>
</mgrwt>
</event>
<event>
 8    1  0.3763376E-007  0.1279902E+03  0.7546771E-02  0.1230470E+00
         -5   -1    0    0    0  501 -0.00000000000E+00  0.00000000000E+00  0.13044462079E+04  0.13044546751E+04  0.47000000000E+01 0. -1.
          5   -1    0    0  501    0  0.00000000000E+00 -0.00000000000E+00 -0.12381593122E+02  0.13243634254E+02  0.47000000000E+01 0. -1.
         25    2    1    2    0    0 -0.16126217336E+02 -0.22267712940E+02  0.74045120465E+03  0.75143162476E+03  0.12500237720E+03 0.  0.
         25    2    1    2    0    0  0.16126217336E+02  0.22267712940E+02  0.55161341013E+03  0.56626668455E+03  0.12499879151E+03 0.  0.
          5    1    4    4  502    0  0.53971320700E+02  0.55245525899E+02  0.34903211040E+03  0.35750591000E+03  0.47000000000E+01 0. -1.
         -5    1    4    4    0  502 -0.37845103364E+02 -0.32977812959E+02  0.20258129973E+03  0.20876077456E+03  0.47000000000E+01 0. -1.
          5    1    3    3  503    0  0.50870141266E+02 -0.23817883588E+02  0.43784143744E+03  0.44145472836E+03  0.47000000000E+01 0. -1.
         -5    1    3    3    0  503 -0.66996358602E+02  0.15501706475E+01  0.30260976720E+03  0.30997689640E+03  0.47000000000E+01 0. -1.
<mgrwt>
<rscale>  0 0.12798936E+03</rscale>
<asrwt>0</asrwt>
<pdfrwt beam="2">  1        5 0.19718226E-02 0.12799023E+03</pdfrwt>
<pdfrwt beam="1">  1       -5 0.20075100E+00 0.12799023E+03</pdfrwt>
<totfact> 0.10030084E+02</totfact>
</mgrwt>
</event>
<event>
 8    1  0.3763376E-007  0.1920903E+03  0.7546771E-02  0.1156601E+00
          5   -1    0    0  501    0  0.00000000000E+00  0.00000000000E+00  0.31205567530E+03  0.31209106762E+03  0.47000000000E+01 0. -1.
         -5   -1    0    0    0  501 -0.00000000000E+00 -0.00000000000E+00 -0.13471227990E+03  0.13479424452E+03  0.47000000000E+01 0. -1.
         25    2    1    2    0    0 -0.79396578955E+02 -0.12226908589E+03  0.10285915912E+02  0.19231338326E+03  0.12500036480E+03 0.  0.
         25    2    1    2    0    0  0.79396578955E+02  0.12226908589E+03  0.16705747949E+03  0.25457192887E+03  0.12508045171E+03 0.  0.
          5    1    4    4  502    0 -0.11904172616E+00  0.69072468488E+02  0.90808537652E+01  0.69825296126E+02  0.47000000000E+01 0. -1.
         -5    1    4    4    0  502  0.79515620681E+02  0.53196617403E+02  0.15797662572E+03  0.18474663274E+03  0.47000000000E+01 0. -1.
          5    1    3    3  503    0  0.79316706193E+01 -0.14514180005E+02  0.45919501649E+02  0.49033289220E+02  0.47000000000E+01 0.  1.
         -5    1    3    3    0  503 -0.87328249574E+02 -0.10775490589E+03 -0.35633585737E+02  0.14328009404E+03  0.47000000000E+01 0.  1.
<mgrwt>
<rscale>  0 0.19207722E+03</rscale>
<asrwt>0</asrwt>
<pdfrwt beam="1">  1        5 0.48017592E-01 0.19209025E+03</pdfrwt>
<pdfrwt beam="2">  1       -5 0.20733994E-01 0.19209025E+03</pdfrwt>
<totfact> 0.71382511E+01</totfact>
</mgrwt>
</event>
<event>
 8    1  0.3763376E-007  0.1543431E+03  0.7546771E-02  0.1195258E+00
          5   -1    0    0  501    0  0.00000000000E+00  0.00000000000E+00  0.40171197006E+03  0.40173946394E+03  0.47000000000E+01 0. -1.
         -5   -1    0    0    0  501 -0.00000000000E+00 -0.00000000000E+00 -0.68456354247E+02  0.68617508238E+02  0.47000000000E+01 0. -1.
         25    2    1    2    0    0  0.70015673514E+02  0.57191098643E+02  0.80074349702E+02  0.17387836609E+03  0.12509503752E+03 0.  0.
         25    2    1    2    0    0 -0.70015673514E+02 -0.57191098643E+02  0.25318126611E+03  0.29647860609E+03  0.12500317621E+03 0.  0.
          5    1    4    4  502    0 -0.79848613284E+01 -0.85398829667E+02  0.13679656019E+03  0.16153051414E+03  0.47000000000E+01 0.  1.
         -5    1    4    4    0  502 -0.62030812185E+02  0.28207731024E+02  0.11638470592E+03  0.13494809195E+03  0.47000000000E+01 0.  1.
          5    1    3    3  503    0  0.83540810101E+02  0.58049488157E+01  0.86094287874E+02  0.12019600987E+03  0.47000000000E+01 0.  1.
         -5    1    3    3    0  503 -0.13525136587E+02  0.51386149827E+02 -0.60199381720E+01  0.53682356220E+02  0.47000000000E+01 0.  1.
<mgrwt>
<rscale>  0 0.15432446E+03</rscale>
<asrwt>0</asrwt>
<pdfrwt beam="1">  1        5 0.61816353E-01 0.15434307E+03</pdfrwt>
<pdfrwt beam="2">  1       -5 0.10546258E-01 0.15434307E+03</pdfrwt>
<totfact> 0.13241079E+02</totfact>
</mgrwt>
</event>
<event>
 8    1  0.3763376E-007  0.2265187E+03  0.7546771E-02  0.1129115E+00
         -5   -1    0    0    0  501 -0.00000000000E+00  0.00000000000E+00  0.17633715420E+03  0.17639977877E+03  0.47000000000E+01 0.  1.
          5   -1    0    0  501    0  0.00000000000E+00 -0.00000000000E+00 -0.30244341917E+03  0.30247993619E+03  0.47000000000E+01 0.  1.
         25    2    1    2    0    0 -0.93485697588E+02  0.16415296727E+03 -0.16173737652E+02  0.22709536956E+03  0.12499977908E+03 0.  0.
         25    2    1    2    0    0  0.93485697588E+02 -0.16415296727E+03 -0.10993252732E+03  0.25178434540E+03  0.12499769482E+03 0.  0.
          5    1    3    3  502    0 -0.11109326728E+03  0.75512196091E+02  0.36324532854E+01  0.13445850851E+03  0.47000000000E+01 0. -1.
         -5    1    3    3    0  502  0.17607569695E+02  0.88640771178E+02 -0.19806190937E+02  0.92636861049E+02  0.47000000000E+01 0. -1.
          5    1    4    4  503    0  0.12331879875E+03 -0.11682970730E+03 -0.89314506170E+02  0.19197884687E+03  0.47000000000E+01 0. -1.
         -5    1    4    4    0  503 -0.29833101161E+02 -0.47323259964E+02 -0.20618021146E+02  0.59805498531E+02  0.47000000000E+01 0. -1.
<mgrwt>
<rscale>  0 0.22651840E+03</rscale>
<asrwt>0</asrwt>
<pdfrwt beam="2">  1        5 0.46537383E-01 0.22651869E+03</pdfrwt>
<pdfrwt beam="1">  1       -5 0.27136419E-01 0.22651869E+03</pdfrwt>
<totfact> 0.47509926E+01</totfact>
</mgrwt>
</event>
<event>
 8    1  0.3763376E-007  0.1673581E+03  0.7546771E-02  0.1180632E+00
         -5   -1    0    0    0  501 -0.00000000000E+00  0.00000000000E+00  0.67268119605E+02  0.67432113382E+02  0.47000000000E+01 0. -1.
          5   -1    0    0  501    0  0.00000000000E+00 -0.00000000000E+00 -0.44975610102E+03  0.44978065811E+03  0.47000000000E+01 0. -1.
         25    2    1    2    0    0 -0.73338009841E+02  0.83694759380E+02 -0.12008117697E+03  0.20597961718E+03  0.12499934877E+03 0.  0.
         25    2    1    2    0    0  0.73338009841E+02 -0.83694759380E+02 -0.26240680445E+03  0.31123315431E+03  0.12500187554E+03 0.  0.
          5    1    4    4  502    0 -0.12453689848E+02 -0.29500994326E+02 -0.17271018919E+03  0.17571654022E+03  0.47000000000E+01 0. -1.
         -5    1    4    4    0  502  0.85791699689E+02 -0.54193765054E+02 -0.89696615258E+02  0.13551661409E+03  0.47000000000E+01 0. -1.
          5    1    3    3  503    0 -0.27705282742E+02 -0.81991366599E+01 -0.96168063404E+02  0.10052459874E+03  0.47000000000E+01 0.  1.
         -5    1    3    3    0  503 -0.45632727099E+02  0.91893896040E+02 -0.23913113565E+02  0.10545501843E+03  0.47000000000E+01 0.  1.
<mgrwt>
<rscale>  0 0.16735766E+03</rscale>
<asrwt>0</asrwt>
<pdfrwt beam="2">  1        5 0.69207748E-01 0.16735813E+03</pdfrwt>
<pdfrwt beam="1">  1       -5 0.10363446E-01 0.16735813E+03</pdfrwt>
<totfact> 0.10878937E+02</totfact>
</mgrwt>
</event>
<event>
 8    1  0.3763376E-007  0.2471575E+03  0.7546771E-02  0.1115115E+00
         -5   -1    0    0    0  501 -0.00000000000E+00  0.00000000000E+00  0.75842912691E+03  0.75844368976E+03  0.47000000000E+01 0. -1.
          5   -1    0    0  501    0  0.00000000000E+00 -0.00000000000E+00 -0.80541259575E+02  0.80678277708E+02  0.47000000000E+01 0. -1.
         25    2    1    2    0    0 -0.71228218469E+02  0.20096785493E+03  0.35231373701E+03  0.43036241831E+03  0.12500121594E+03 0.  0.
         25    2    1    2    0    0  0.71228218469E+02 -0.20096785493E+03  0.32557413032E+03  0.40875954916E+03  0.12499726747E+03 0.  0.
          5    1    3    3  502    0  0.23956260380E+02  0.94771376881E+02  0.19365566371E+03  0.21697954368E+03  0.47000000000E+01 0.  1.
         -5    1    3    3    0  502 -0.95184478848E+02  0.10619647805E+03  0.15865807330E+03  0.21338287463E+03  0.47000000000E+01 0.  1.
          5    1    4    4  503    0  0.83131841253E+02 -0.94378090666E+02  0.10680208703E+03  0.16506635884E+03  0.47000000000E+01 0. -1.
         -5    1    4    4    0  503 -0.11903622784E+02 -0.10658976426E+03  0.21877204329E+03  0.24369319031E+03  0.47000000000E+01 0. -1.
<mgrwt>
<rscale>  0 0.24715703E+03</rscale>
<asrwt>0</asrwt>
<pdfrwt beam="2">  1        5 0.12402623E-01 0.24715752E+03</pdfrwt>
<pdfrwt beam="1">  1       -5 0.11669306E+00 0.24715752E+03</pdfrwt>
<totfact> 0.24992890E+01</totfact>
</mgrwt>
</event>
<event>
 8    1  0.3763376E-007  0.1496476E+03  0.7546771E-02  0.1200907E+00
          5   -1    0    0  501    0  0.00000000000E+00  0.00000000000E+00  0.37829297125E+03  0.37832216707E+03  0.47000000000E+01 0. -1.
         -5   -1    0    0    0  501 -0.00000000000E+00 -0.00000000000E+00 -0.10396283067E+03  0.10406901634E+03  0.47000000000E+01 0. -1.
         25    2    1    2    0    0 -0.77757586809E+02  0.26887254733E+02 -0.21190811094E+02  0.15114044969E+03  0.12500087313E+03 0.  0.
         25    2    1    2    0    0  0.77757586809E+02 -0.26887254733E+02  0.29552095167E+03  0.33125073372E+03  0.12500099577E+03 0.  0.
          5    1    4    4  502    0  0.56941186136E+02 -0.15426347200E+02  0.33285893371E+02  0.67899275136E+02  0.47000000000E+01 0. -1.
         -5    1    4    4    0  502  0.20816400673E+02 -0.11460907533E+02  0.26223505830E+03  0.26335145859E+03  0.47000000000E+01 0. -1.
          5    1    3    3  503    0 -0.80116488195E+02 -0.84739933256E+00 -0.62071172582E+02  0.10146078174E+03  0.47000000000E+01 0.  1.
         -5    1    3    3    0  503  0.23589013862E+01  0.27734654065E+02  0.40880361487E+02  0.49679667946E+02  0.47000000000E+01 0.  1.
<mgrwt>
<rscale>  0 0.14964761E+03</rscale>
<asrwt>0</asrwt>
<pdfrwt beam="1">  1        5 0.58209331E-01 0.14964764E+03</pdfrwt>
<pdfrwt beam="2">  1       -5 0.16004696E-01 0.14964764E+03</pdfrwt>
<totfact> 0.70929952E+01</totfact>
</mgrwt>
</event>
<event>
 8    1  0.3763376E-007  0.1941288E+03  0.7546771E-02  0.1154790E+00
          5   -1    0    0  501    0  0.00000000000E+00  0.00000000000E+00  0.10784743846E+03  0.10794980307E+03  0.47000000000E+01 0. -1.
         -5   -1    0    0    0  501 -0.00000000000E+00 -0.00000000000E+00 -0.35165109706E+03  0.35168250463E+03  0.47000000000E+01 0. -1.
         25    2    1    2    0    0 -0.36512233978E+02 -0.14396839167E+03 -0.14129286261E+03  0.24009996690E+03  0.12499712016E+03 0.  0.
         25    2    1    2    0    0  0.36512233978E+02  0.14396839167E+03 -0.10251079598E+03  0.21953234080E+03  0.12500377728E+03 0.  0.
          5    1    3    3  502    0 -0.62399855002E+02 -0.15365698754E+03 -0.12437393513E+03  0.20735278504E+03  0.47000000000E+01 0.  1.
         -5    1    3    3    0  502  0.25887621024E+02  0.96885958688E+01 -0.16918927477E+02  0.32747181851E+02  0.47000000000E+01 0.  1.
          5    1    4    4  503    0  0.36618853882E+02  0.15245674619E+03 -0.47824240730E+02  0.16399160930E+03  0.47000000000E+01 0. -1.
         -5    1    4    4    0  503 -0.10661990424E+00 -0.84883545186E+01 -0.54686555254E+02  0.55540731502E+02  0.47000000000E+01 0. -1.
<mgrwt>
<rscale>  0 0.19412771E+03</rscale>
<asrwt>0</asrwt>
<pdfrwt beam="1">  1        5 0.16602204E-01 0.19412879E+03</pdfrwt>
<pdfrwt beam="2">  1       -5 0.54110459E-01 0.19412879E+03</pdfrwt>
<totfact> 0.83855760E+01</totfact>
</mgrwt>
</event>
<event>
 8    1  0.3763376E-007  0.1278660E+03  0.7546771E-02  0.1230669E+00
         -5   -1    0    0    0  501 -0.00000000000E+00  0.00000000000E+00  0.10064153937E+04  0.10064263683E+04  0.47000000000E+01 0. -1.
          5   -1    0    0  501    0  0.00000000000E+00 -0.00000000000E+00 -0.24449951071E+02  0.24897592401E+02  0.47000000000E+01 0. -1.
         25    2    1    2    0    0  0.20835447839E+02 -0.16837761461E+02  0.79252719457E+03  0.80277073827E+03  0.12499551184E+03 0.  0.
         25    2    1    2    0    0 -0.20835447839E+02  0.16837761461E+02  0.18943824808E+03  0.22855322239E+03  0.12502839491E+03 0.  0.
          5    1    3    3  502    0  0.68894460586E+02 -0.98338182513E+01  0.60468700926E+03  0.60869665667E+03  0.47000000000E+01 0. -1.
         -5    1    3    3    0  502 -0.48059012747E+02 -0.70039432099E+01  0.18784018532E+03  0.19407408159E+03  0.47000000000E+01 0. -1.
          5    1    4    4  503    0 -0.72173318099E+02 -0.35754817939E+01  0.10824348475E+03  0.13023253782E+03  0.47000000000E+01 0.  1.
         -5    1    4    4    0  503  0.51337870260E+02  0.20413243255E+02  0.81194763328E+02  0.98320684573E+02  0.47000000000E+01 0.  1.
<mgrwt>
<rscale>  0 0.12785801E+03</rscale>
<asrwt>0</asrwt>
<pdfrwt beam="2">  1        5 0.37968077E-02 0.12786605E+03</pdfrwt>
<pdfrwt beam="1">  1       -5 0.15486847E+00 0.12786605E+03</pdfrwt>
<totfact> 0.74629141E+01</totfact>
</mgrwt>
</event>
<event>
 8    1  0.3763376E-007  0.1252606E+03  0.7546771E-02  0.1234664E+00
         -5   -1    0    0    0  501 -0.00000000000E+00  0.00000000000E+00  0.36780401165E+02  0.37079480981E+02  0.47000000000E+01 0.  1.
          5   -1    0    0  501    0  0.00000000000E+00 -0.00000000000E+00 -0.45748963305E+03  0.45751377504E+03  0.47000000000E+01 0.  1.
         25    2    1    2    0    0  0.66221911260E+00 -0.80436836935E+01 -0.14401096740E+03  0.19086479213E+03  0.12500028306E+03 0.  0.
         25    2    1    2    0    0 -0.66221911260E+00  0.80436836935E+01 -0.27669826449E+03  0.30372846388E+03  0.12499564320E+03 0.  0.
          5    1    4    4  502    0 -0.51858825274E+02 -0.80839275388E+00 -0.22245603834E+03  0.22847050193E+03  0.47000000000E+01 0. -1.
         -5    1    4    4    0  502  0.51196606161E+02  0.88520764474E+01 -0.54242226153E+02  0.75257961957E+02  0.47000000000E+01 0. -1.
          5    1    3    3  503    0  0.29308720846E+02 -0.23998728564E+02  0.47453798880E+01  0.38464902452E+02  0.47000000000E+01 0.  1.
         -5    1    3    3    0  503 -0.28646501733E+02  0.15955044871E+02 -0.14875634728E+03  0.15239988968E+03  0.47000000000E+01 0.  1.
<mgrwt>
<rscale>  0 0.12525941E+03</rscale>
<asrwt>0</asrwt>
<pdfrwt beam="2">  1        5 0.70407880E-01 0.12526057E+03</pdfrwt>
<pdfrwt beam="1">  1       -5 0.56833868E-02 0.12526057E+03</pdfrwt>
<totfact> 0.26617135E+02</totfact>
</mgrwt>
</event>
<event>
 8    1  0.3763376E-007  0.1414869E+03  0.7546771E-02  0.1211348E+00
          5   -1    0    0  501    0  0.00000000000E+00  0.00000000000E+00  0.13385991892E+03  0.13394240513E+03  0.47000000000E+01 0. -1.
         -5   -1    0    0    0  501 -0.00000000000E+00 -0.00000000000E+00 -0.17228771780E+03  0.17235181376E+03  0.47000000000E+01 0. -1.
         25    2    1    2    0    0 -0.15326195802E+02 -0.64475865233E+02 -0.75052856696E+02  0.16016079924E+03  0.12500608321E+03 0.  0.
         25    2    1    2    0    0  0.15326195802E+02  0.64475865233E+02  0.36625057815E+02  0.14613341965E+03  0.12498620725E+03 0.  0.
          5    1    4    4  502    0 -0.16173871022E+02 -0.96322231005E+00 -0.38195646781E+02  0.41755470708E+02  0.47000000000E+01 0.  1.
         -5    1    4    4    0  502  0.31500066824E+02  0.65439087543E+02  0.74820704596E+02  0.10437794894E+03  0.47000000000E+01 0.  1.
          5    1    3    3  503    0  0.40755283450E+02  0.85348956464E+01 -0.99803686627E+00  0.41915673088E+02  0.47000000000E+01 0. -1.
         -5    1    3    3    0  503 -0.56081479253E+02 -0.73010760879E+02 -0.74054819830E+02  0.11824512616E+03  0.47000000000E+01 0. -1.
<mgrwt>
<rscale>  0 0.14148254E+03</rscale>
<asrwt>0</asrwt>
<pdfrwt beam="1">  1        5 0.20605109E-01 0.14148693E+03</pdfrwt>
<pdfrwt beam="2">  1       -5 0.26517078E-01 0.14148693E+03</pdfrwt>
<totfact> 0.21821104E+02</totfact>
</mgrwt>
</event>
<event>
 8    1  0.3763376E-007  0.1295799E+03  0.7546771E-02  0.1228091E+00
          5   -1    0    0  501    0  0.00000000000E+00  0.00000000000E+00  0.52604296287E+02  0.52813842767E+02  0.47000000000E+01 0. -1.
         -5   -1    0    0    0  501 -0.00000000000E+00 -0.00000000000E+00 -0.34937311072E+03  0.34940472306E+03  0.47000000000E+01 0. -1.
         25    2    1    2    0    0  0.14783551020E+02 -0.30786949944E+02 -0.20838819744E+03  0.24539068851E+03  0.12499823801E+03 0.  0.
         25    2    1    2    0    0 -0.14783551020E+02  0.30786949944E+02 -0.88380616996E+02  0.15682787732E+03  0.12496983627E+03 0.  0.
          5    1    3    3  502    0  0.34509163086E+02 -0.72231445594E+02 -0.15723846782E+03  0.17650577846E+03  0.47000000000E+01 0.  1.
         -5    1    3    3    0  502 -0.19725612066E+02  0.41444495650E+02 -0.51149729623E+02  0.68884910043E+02  0.47000000000E+01 0.  1.
          5    1    4    4  503    0 -0.49151543812E+02 -0.24923487276E+02 -0.68934390772E+02  0.88380397760E+02  0.47000000000E+01 0. -1.
         -5    1    4    4    0  503  0.34367992792E+02  0.55710437220E+02 -0.19446226224E+02  0.68447479560E+02  0.47000000000E+01 0. -1.
<mgrwt>
<rscale>  0 0.12957305E+03</rscale>
<asrwt>0</asrwt>
<pdfrwt beam="1">  1        5 0.81115196E-02 0.12957989E+03</pdfrwt>
<pdfrwt beam="2">  1       -5 0.53768258E-01 0.12957989E+03</pdfrwt>
<totfact> 0.26674654E+02</totfact>
</mgrwt>
</event>
<event>
 8    1  0.3763376E-007  0.1681448E+03  0.7546771E-02  0.1179798E+00
          5   -1    0    0  501    0  0.00000000000E+00  0.00000000000E+00  0.29898543477E+03  0.29902237409E+03  0.47000000000E+01 0.  1.
         -5   -1    0    0    0  501 -0.00000000000E+00 -0.00000000000E+00 -0.10212001221E+03  0.10222811205E+03  0.47000000000E+01 0.  1.
         25    2    1    2    0    0  0.20908682171E+02  0.11049676194E+03  0.43517197920E+02  0.17367997604E+03  0.12499712066E+03 0.  0.
         25    2    1    2    0    0 -0.20908682171E+02 -0.11049676194E+03  0.15334822464E+03  0.22757051009E+03  0.12500380664E+03 0.  0.
          5    1    3    3  502    0  0.31337036509E+02  0.12994278181E+03  0.11134620007E+02  0.13421328610E+03  0.47000000000E+01 0.  1.
         -5    1    3    3    0  502 -0.10428354338E+02 -0.19446019871E+02  0.32382577913E+02  0.39466689946E+02  0.47000000000E+01 0.  1.
          5    1    4    4  503    0  0.30846352608E+02 -0.11171814939E+03  0.10112161562E+03  0.15388344134E+03  0.47000000000E+01 0.  1.
         -5    1    4    4    0  503 -0.51755034779E+02  0.12213874478E+01  0.52226609022E+02  0.73687068759E+02  0.47000000000E+01 0.  1.
<mgrwt>
<rscale>  0 0.16814351E+03</rscale>
<asrwt>0</asrwt>
<pdfrwt beam="1">  1        5 0.46008916E-01 0.16814476E+03</pdfrwt>
<pdfrwt beam="2">  1       -5 0.15721928E-01 0.16814476E+03</pdfrwt>
<totfact> 0.12555111E+02</totfact>
</mgrwt>
</event>
<event>
 8    1  0.3763376E-007  0.1549846E+03  0.7546771E-02  0.1194488E+00
         -5   -1    0    0    0  501 -0.00000000000E+00  0.00000000000E+00  0.11640842787E+03  0.11650327068E+03  0.47000000000E+01 0. -1.
          5   -1    0    0  501    0  0.00000000000E+00 -0.00000000000E+00 -0.23072489612E+03  0.23077276202E+03  0.47000000000E+01 0. -1.
         25    2    1    2    0    0 -0.34255411453E+02  0.84989896859E+02 -0.43927940494E+00  0.15495278444E+03  0.12495381809E+03 0.  0.
         25    2    1    2    0    0  0.34255411453E+02 -0.84989896859E+02 -0.11387718885E+03  0.19232324826E+03  0.12499400746E+03 0.  0.
          5    1    4    4  502    0 -0.28705351510E+02 -0.77171292541E+02 -0.95337884671E+02  0.12605874762E+03  0.47000000000E+01 0.  1.
         -5    1    4    4    0  502  0.62960762963E+02 -0.78186043173E+01 -0.18539304180E+02  0.66264500645E+02  0.47000000000E+01 0.  1.
          5    1    3    3  503    0 -0.56172374218E+02  0.62667126919E+01 -0.34402286401E+02  0.66334113568E+02  0.47000000000E+01 0.  1.
         -5    1    3    3    0  503  0.21916962765E+02  0.78723184167E+02  0.33963006997E+02  0.88618670868E+02  0.47000000000E+01 0.  1.
<mgrwt>
<rscale>  0 0.15497647E+03</rscale>
<asrwt>0</asrwt>
<pdfrwt beam="2">  1        5 0.35507115E-01 0.15498457E+03</pdfrwt>
<pdfrwt beam="1">  1       -5 0.17919967E-01 0.15498457E+03</pdfrwt>
<totfact> 0.16397095E+02</totfact>
</mgrwt>
</event>
<event>
 8    1  0.3763376E-007  0.1260087E+03  0.7546771E-02  0.1233506E+00
         -5   -1    0    0    0  501 -0.00000000000E+00  0.00000000000E+00  0.35045393716E+02  0.35359151867E+02  0.47000000000E+01 0. -1.
          5   -1    0    0  501    0  0.00000000000E+00 -0.00000000000E+00 -0.56948570894E+03  0.56950510331E+03  0.47000000000E+01 0. -1.
         25    2    1    2    0    0  0.13812121888E+02 -0.77694201771E+01 -0.12911706904E+03  0.18040562167E+03  0.12499532876E+03 0.  0.
         25    2    1    2    0    0 -0.13812121888E+02  0.77694201771E+01 -0.40532324619E+03  0.42445863350E+03  0.12500823593E+03 0.  0.
          5    1    4    4  502    0 -0.17880808380E+02 -0.52288466113E+02 -0.11192833389E+03  0.12491536705E+03  0.47000000000E+01 0. -1.
         -5    1    4    4    0  502  0.40686864927E+01  0.60057886290E+02 -0.29339491230E+03  0.29954326645E+03  0.47000000000E+01 0. -1.
          5    1    3    3  503    0  0.35177849144E+02 -0.49464712853E+02 -0.24395891401E+02  0.65585733245E+02  0.47000000000E+01 0. -1.
         -5    1    3    3    0  503 -0.21365727256E+02  0.41695292676E+02 -0.10472117764E+03  0.11481988843E+03  0.47000000000E+01 0. -1.
<mgrwt>
<rscale>  0 0.12600552E+03</rscale>
<asrwt>0</asrwt>
<pdfrwt beam="2">  1        5 0.87638806E-01 0.12600872E+03</pdfrwt>
<pdfrwt beam="1">  1       -5 0.54172266E-02 0.12600872E+03</pdfrwt>
<totfact> 0.17462161E+02</totfact>
</mgrwt>
</event>
<event>
 8    1  0.3763376E-007  0.1300468E+03  0.7546771E-02  0.1227390E+00
         -5   -1    0    0    0  501 -0.00000000000E+00  0.00000000000E+00  0.11604992365E+03  0.11614505922E+03  0.47000000000E+01 0.  1.
          5   -1    0    0  501    0  0.00000000000E+00 -0.00000000000E+00 -0.24069089179E+03  0.24073677615E+03  0.47000000000E+01 0.  1.
         25    2    1    2    0    0 -0.35256784844E+02  0.66868146637E+01  0.49845378916E+02  0.13926369589E+03  0.12498824275E+03 0.  0.
         25    2    1    2    0    0  0.35256784844E+02 -0.66868146637E+01 -0.17448634705E+03  0.21761813948E+03  0.12499765979E+03 0.  0.
          5    1    3    3  502    0  0.78157882014E+01 -0.12497408343E+02  0.81058594880E+02  0.82521861130E+02  0.47000000000E+01 0. -1.
         -5    1    3    3    0  502 -0.43072573045E+02  0.19184223006E+02 -0.31213215964E+02  0.56741834760E+02  0.47000000000E+01 0. -1.
          5    1    4    4  503    0  0.75869851034E+02  0.16463029684E+02 -0.13689552167E+03  0.15744757697E+03  0.47000000000E+01 0.  1.
         -5    1    4    4    0  503 -0.40613066190E+02 -0.23149844347E+02 -0.37590825387E+02  0.60170562503E+02  0.47000000000E+01 0. -1.
<mgrwt>
<rscale>  0 0.13004453E+03</rscale>
<asrwt>0</asrwt>
<pdfrwt beam="2">  1        5 0.37040216E-01 0.13004680E+03</pdfrwt>
<pdfrwt beam="1">  1       -5 0.17864682E-01 0.13004680E+03</pdfrwt>
<totfact> 0.14291696E+02</totfact>
</mgrwt>
</event>
<event>
 8    1  0.3763376E-007  0.1285529E+03  0.7546771E-02  0.1229623E+00
          5   -1    0    0  501    0  0.00000000000E+00  0.00000000000E+00  0.43934350675E+03  0.43936864581E+03  0.47000000000E+01 0.  1.
         -5   -1    0    0    0  501 -0.00000000000E+00 -0.00000000000E+00 -0.37447600800E+02  0.37741393796E+02  0.47000000000E+01 0.  1.
         25    2    1    2    0    0  0.29836129248E+02 -0.28023077381E+01  0.20460628564E+03  0.24163937056E+03  0.12501122247E+03 0.  0.
         25    2    1    2    0    0 -0.29836129248E+02  0.28023077381E+01  0.19728962031E+03  0.23547066905E+03  0.12500077665E+03 0.  0.
          5    1    4    4  502    0 -0.91879216325E+01  0.59730761722E+02  0.13737278859E+03  0.15015177270E+03  0.47000000000E+01 0. -1.
         -5    1    4    4    0  502 -0.20648207615E+02 -0.56928453984E+02  0.59916831718E+02  0.85318896347E+02  0.47000000000E+01 0. -1.
          5    1    3    3  503    0  0.41068801698E+02  0.32384301143E+02  0.24899728015E+02  0.58116055343E+02  0.47000000000E+01 0. -1.
         -5    1    3    3    0  503 -0.11232672451E+02 -0.35186608881E+02  0.17970655762E+03  0.18352331521E+03  0.47000000000E+01 0. -1.
<mgrwt>
<rscale>  0 0.12855038E+03</rscale>
<asrwt>0</asrwt>
<pdfrwt beam="1">  1        5 0.67615846E-01 0.12855292E+03</pdfrwt>
<pdfrwt beam="2">  1       -5 0.57857023E-02 0.12855292E+03</pdfrwt>
<totfact> 0.28555037E+02</totfact>
</mgrwt>
</event>
<event>
 8    1  0.3763376E-007  0.1309419E+03  0.7546771E-02  0.1226067E+00
          5   -1    0    0  501    0  0.00000000000E+00  0.00000000000E+00  0.23135273447E+02  0.23607856266E+02  0.47000000000E+01 0. -1.
         -5   -1    0    0    0  501 -0.00000000000E+00 -0.00000000000E+00 -0.76820976191E+03  0.76822413936E+03  0.47000000000E+01 0. -1.
         25    2    1    2    0    0 -0.10256387772E+02 -0.37616844245E+02 -0.45713340899E+03  0.47551596147E+03  0.12499702211E+03 0.  0.
         25    2    1    2    0    0  0.10256387772E+02  0.37616844245E+02 -0.28794107948E+03  0.31631603416E+03  0.12500219100E+03 0.  0.
          5    1    3    3  502    0 -0.15787042969E+02  0.19901271391E+02 -0.36974155291E+03  0.37064295120E+03  0.47000000000E+01 0. -1.
         -5    1    3    3    0  502  0.55306551970E+01 -0.57518115637E+02 -0.87391856085E+02  0.10487301027E+03  0.47000000000E+01 0. -1.
          5    1    4    4  503    0 -0.50922601101E+02  0.17749876298E+02 -0.66897115127E+02  0.86055118522E+02  0.47000000000E+01 0.  1.
         -5    1    4    4    0  503  0.61178988873E+02  0.19866967947E+02 -0.22104396435E+03  0.23026091564E+03  0.47000000000E+01 0.  1.
<mgrwt>
<rscale>  0 0.13094062E+03</rscale>
<asrwt>0</asrwt>
<pdfrwt beam="1">  1        5 0.35967319E-02 0.13094185E+03</pdfrwt>
<pdfrwt beam="2">  1       -5 0.11822356E+00 0.13094185E+03</pdfrwt>
<totfact> 0.16742465E+02</totfact>
</mgrwt>
</event>
<event>
 8    1  0.3763376E-007  0.1374271E+03  0.7546771E-02  0.1216844E+00
          5   -1    0    0  501    0  0.00000000000E+00  0.00000000000E+00  0.24004020374E+02  0.24459824082E+02  0.47000000000E+01 0. -1.
         -5   -1    0    0    0  501 -0.00000000000E+00 -0.00000000000E+00 -0.82264747297E+03  0.82266089903E+03  0.47000000000E+01 0. -1.
         25    2    1    2    0    0  0.20494654927E+02  0.53314951664E+02 -0.30147222340E+03  0.33130540165E+03  0.12496100484E+03 0.  0.
         25    2    1    2    0    0 -0.20494654927E+02 -0.53314951664E+02 -0.49717122920E+03  0.51581532145E+03  0.12499479892E+03 0.  0.
          5    1    4    4  502    0 -0.33700200545E+02 -0.91018663823E+02 -0.34656438043E+03  0.35992924369E+03  0.47000000000E+01 0.  1.
         -5    1    4    4    0  502  0.13205545618E+02  0.37703712159E+02 -0.15060684876E+03  0.15588607776E+03  0.47000000000E+01 0.  1.
          5    1    3    3  503    0  0.19119386389E+01  0.59467829291E+02 -0.46815470572E+02  0.75854179283E+02  0.47000000000E+01 0.  1.
         -5    1    3    3    0  503  0.18582716288E+02 -0.61528776265E+01 -0.25465675283E+03  0.25545122237E+03  0.47000000000E+01 0.  1.
<mgrwt>
<rscale>  0 0.13741944E+03</rscale>
<asrwt>0</asrwt>
<pdfrwt beam="1">  1        5 0.37290214E-02 0.13742713E+03</pdfrwt>
<pdfrwt beam="2">  1       -5 0.12659722E+00 0.13742713E+03</pdfrwt>
<totfact> 0.13455683E+02</totfact>
</mgrwt>
</event>
<event>
 8    1  0.3763376E-007  0.1338382E+03  0.7546771E-02  0.1221877E+00
         -5   -1    0    0    0  501 -0.00000000000E+00  0.00000000000E+00  0.19410941298E+03  0.19416630554E+03  0.47000000000E+01 0. -1.
          5   -1    0    0  501    0  0.00000000000E+00 -0.00000000000E+00 -0.94458886655E+02  0.94575743550E+02  0.47000000000E+01 0. -1.
         25    2    1    2    0    0 -0.47177181346E+02 -0.75203676662E+01  0.72445070505E+02  0.15218725083E+03  0.12502171293E+03 0.  0.
         25    2    1    2    0    0  0.47177181346E+02  0.75203676662E+01  0.27205455821E+02  0.13655479827E+03  0.12499933493E+03 0.  0.
          5    1    3    3  502    0 -0.65341741967E+02 -0.53077113308E+02  0.50222076085E+02  0.98138015706E+02  0.47000000000E+01 0.  1.
         -5    1    3    3    0  502  0.18164560621E+02  0.45556745642E+02  0.22222994419E+02  0.54049235120E+02  0.47000000000E+01 0.  1.
          5    1    4    4  503    0 -0.30580655336E+02 -0.16303597151E+02 -0.22065786643E+02  0.41351816175E+02  0.47000000000E+01 0.  1.
         -5    1    4    4    0  503  0.77757836681E+02  0.23823964818E+02  0.49271242464E+02  0.95202982091E+02  0.47000000000E+01 0.  1.
<mgrwt>
<rscale>  0 0.13383300E+03</rscale>
<asrwt>0</asrwt>
<pdfrwt beam="2">  1        5 0.14545502E-01 0.13383823E+03</pdfrwt>
<pdfrwt beam="1">  1       -5 0.29876352E-01 0.13383823E+03</pdfrwt>
<totfact> 0.32194662E+02</totfact>
</mgrwt>
</event>
<event>
 8    1  0.3763376E-007  0.1804086E+03  0.7546771E-02  0.1167409E+00
         -5   -1    0    0    0  501 -0.00000000000E+00  0.00000000000E+00  0.13074763284E+03  0.13083208129E+03  0.47000000000E+01 0. -1.
          5   -1    0    0  501    0  0.00000000000E+00 -0.00000000000E+00 -0.33625336123E+03  0.33628620689E+03  0.47000000000E+01 0. -1.
         25    2    1    2    0    0 -0.21505533521E+02  0.12829792395E+03  0.16378046086E+02  0.18114682470E+03  0.12499234554E+03 0.  0.
         25    2    1    2    0    0  0.21505533521E+02 -0.12829792395E+03 -0.22188377448E+03  0.28597146348E+03  0.12499769311E+03 0.  0.
          5    1    4    4  502    0  0.46512755613E+02 -0.34273145276E+02 -0.19144981350E+02  0.61046746291E+02  0.47000000000E+01 0. -1.
         -5    1    4    4    0  502 -0.25007222092E+02 -0.94024778670E+02 -0.20273879313E+03  0.22492471718E+03  0.47000000000E+01 0. -1.
          5    1    3    3  503    0  0.27443126210E+02 -0.12956401674E+02  0.53474365574E+01  0.31171759627E+02  0.47000000000E+01 0. -1.
         -5    1    3    3    0  503 -0.48948659731E+02  0.14125432562E+03  0.11030609529E+02  0.14997506507E+03  0.47000000000E+01 0. -1.
<mgrwt>
<rscale>  0 0.18040769E+03</rscale>
<asrwt>0</asrwt>
<pdfrwt beam="2">  1        5 0.51740309E-01 0.18040862E+03</pdfrwt>
<pdfrwt beam="1">  1       -5 0.20124043E-01 0.18040862E+03</pdfrwt>
<totfact> 0.63271631E+01</totfact>
</mgrwt>
</event>
<event>
 8    1  0.3763376E-007  0.1451127E+03  0.7546771E-02  0.1206611E+00
          5   -1    0    0  501    0  0.00000000000E+00  0.00000000000E+00  0.11693673714E+03  0.11703115180E+03  0.47000000000E+01 0. -1.
         -5   -1    0    0    0  501 -0.00000000000E+00 -0.00000000000E+00 -0.17994315776E+03  0.18000452779E+03  0.47000000000E+01 0. -1.
         25    2    1    2    0    0  0.54363349306E+02 -0.49777578991E+02 -0.34297540010E+02  0.14911035908E+03  0.12499758724E+03 0.  0.
         25    2    1    2    0    0 -0.54363349306E+02  0.49777578991E+02 -0.28708880615E+02  0.14792532052E+03  0.12499807801E+03 0.  0.
          5    1    3    3  502    0 -0.43386317461E+01 -0.51415710993E+02 -0.64640713730E+02  0.82842687872E+02  0.47000000000E+01 0. -1.
         -5    1    3    3    0  502  0.58701981052E+02  0.16381320019E+01  0.30343173720E+02  0.66267671207E+02  0.47000000000E+01 0. -1.
          5    1    4    4  503    0 -0.27053115537E+02  0.39879433035E+02  0.46520670892E+02  0.67145387478E+02  0.47000000000E+01 0. -1.
         -5    1    4    4    0  503 -0.27310233769E+02  0.98981459563E+01 -0.75229551506E+02  0.80779933038E+02  0.47000000000E+01 0. -1.
<mgrwt>
<rscale>  0 0.14511261E+03</rscale>
<asrwt>0</asrwt>
<pdfrwt beam="1">  1        5 0.18002251E-01 0.14511272E+03</pdfrwt>
<pdfrwt beam="2">  1       -5 0.27695546E-01 0.14511272E+03</pdfrwt>
<totfact> 0.26005029E+02</totfact>
</mgrwt>
</event>
<event>
 8    1  0.3763376E-007  0.1429398E+03  0.7546771E-02  0.1209428E+00
          5   -1    0    0  501    0  0.00000000000E+00  0.00000000000E+00  0.56894780874E+02  0.57088581088E+02  0.47000000000E+01 0. -1.
         -5   -1    0    0    0  501 -0.00000000000E+00 -0.00000000000E+00 -0.39126590932E+03  0.39129413718E+03  0.47000000000E+01 0. -1.
         25    2    1    2    0    0  0.32188943319E+02 -0.61402818439E+02 -0.23225080743E+03  0.27271270279E+03  0.12500138610E+03 0.  0.
         25    2    1    2    0    0 -0.32188943319E+02  0.61402818439E+02 -0.10212032101E+03  0.17567001548E+03  0.12499984076E+03 0.  0.
          5    1    3    3  502    0  0.63469168471E+02 -0.55255413134E+02 -0.77023796484E+02  0.11417640409E+03  0.47000000000E+01 0.  1.
         -5    1    3    3    0  502 -0.31280225153E+02 -0.61474053050E+01 -0.15522701095E+03  0.15853629870E+03  0.47000000000E+01 0.  1.
          5    1    4    4  503    0  0.29997853516E+01  0.55531285737E+02 -0.12228700104E+03  0.13442069421E+03  0.47000000000E+01 0. -1.
         -5    1    4    4    0  503 -0.35188728671E+02  0.58715327021E+01  0.20166680030E+02  0.41249321269E+02  0.47000000000E+01 0. -1.
<mgrwt>
<rscale>  0 0.14293944E+03</rscale>
<asrwt>0</asrwt>
<pdfrwt beam="1">  1        5 0.87701225E-02 0.14293978E+03</pdfrwt>
<pdfrwt beam="2">  1       -5 0.60211833E-01 0.14293978E+03</pdfrwt>
<totfact> 0.18868799E+02</totfact>
</mgrwt>
</event>
<event>
 8    1  0.3763376E-007  0.1346909E+03  0.7546771E-02  0.1220680E+00
         -5   -1    0    0    0  501 -0.00000000000E+00  0.00000000000E+00  0.36525080672E+02  0.36826234101E+02  0.47000000000E+01 0. -1.
          5   -1    0    0  501    0  0.00000000000E+00 -0.00000000000E+00 -0.51080081576E+03  0.51082243821E+03  0.47000000000E+01 0. -1.
         25    2    1    2    0    0 -0.49941958742E+02 -0.26837269938E+01 -0.18769396337E+03  0.23102089571E+03  0.12506090010E+03 0.  0.
         25    2    1    2    0    0  0.49941958742E+02  0.26837269938E+01 -0.28658177171E+03  0.31662777660E+03  0.12499054126E+03 0.  0.
          5    1    3    3  502    0 -0.83795069694E+02 -0.30061795915E+02 -0.10755699298E+03  0.13969939878E+03  0.47000000000E+01 0. -1.
         -5    1    3    3    0  502  0.33853110952E+02  0.27378068921E+02 -0.80136970387E+02  0.91321496931E+02  0.47000000000E+01 0. -1.
          5    1    4    4  503    0 -0.28733903208E+02 -0.51300264638E+01 -0.13885906516E+02  0.32662865227E+02  0.47000000000E+01 0.  1.
         -5    1    4    4    0  503  0.78675861950E+02  0.78137534576E+01 -0.27269586520E+03  0.28396491138E+03  0.47000000000E+01 0.  1.
<mgrwt>
<rscale>  0 0.13467454E+03</rscale>
<asrwt>0</asrwt>
<pdfrwt beam="2">  1        5 0.78609565E-01 0.13469087E+03</pdfrwt>
<pdfrwt beam="1">  1       -5 0.56440725E-02 0.13469087E+03</pdfrwt>
<totfact> 0.21496325E+02</totfact>
</mgrwt>
</event>
<event>
 8    1  0.3763376E-007  0.1290072E+03  0.7546771E-02  0.1228937E+00
         -5   -1    0    0    0  501 -0.00000000000E+00  0.00000000000E+00  0.23970560168E+03  0.23975167461E+03  0.47000000000E+01 0. -1.
          5   -1    0    0  501    0  0.00000000000E+00 -0.00000000000E+00 -0.69946820699E+02  0.70104548539E+02  0.47000000000E+01 0. -1.
         25    2    1    2    0    0  0.10152374618E+02  0.30233250776E+02  0.99780775486E+02  0.16309216490E+03  0.12500292369E+03 0.  0.
         25    2    1    2    0    0 -0.10152374618E+02 -0.30233250776E+02  0.69978005493E+02  0.14676405825E+03  0.12500258948E+03 0.  0.
          5    1    3    3  502    0  0.41914266956E+02 -0.32098829649E+02  0.67716573366E+02  0.85992819164E+02  0.47000000000E+01 0. -1.
         -5    1    3    3    0  502 -0.31761892338E+02  0.62332080425E+02  0.32064202120E+02  0.77099345734E+02  0.47000000000E+01 0. -1.
          5    1    4    4  503    0 -0.47579551909E+02 -0.56476544682E+02  0.15695112043E+02  0.75642847653E+02  0.47000000000E+01 0. -1.
         -5    1    4    4    0  503  0.37427177291E+02  0.26243293905E+02  0.54282893450E+02  0.71121210594E+02  0.47000000000E+01 0. -1.
<mgrwt>
<rscale>  0 0.12900709E+03</rscale>
<asrwt>0</asrwt>
<pdfrwt beam="2">  1        5 0.10776726E-01 0.12900717E+03</pdfrwt>
<pdfrwt beam="1">  1       -5 0.36893462E-01 0.12900717E+03</pdfrwt>
<totfact> 0.35599267E+02</totfact>
</mgrwt>
</event>
<event>
 8    1  0.3763376E-007  0.2034937E+03  0.7546771E-02  0.1146826E+00
          5   -1    0    0  501    0  0.00000000000E+00  0.00000000000E+00  0.56766806664E+02  0.56961042290E+02  0.47000000000E+01 0.  1.
         -5   -1    0    0    0  501 -0.00000000000E+00 -0.00000000000E+00 -0.87671845049E+03  0.87673104852E+03  0.47000000000E+01 0.  1.
         25    2    1    2    0    0  0.76868826534E+02 -0.14097279543E+03 -0.60224005866E+03  0.63569079274E+03  0.12501020028E+03 0.  0.
         25    2    1    2    0    0 -0.76868826534E+02  0.14097279543E+03 -0.21771158517E+03  0.29800129807E+03  0.12499717513E+03 0.  0.
          5    1    4    4  502    0 -0.65788352360E+02  0.12495055921E+03 -0.87355485984E+02  0.16611387806E+03  0.47000000000E+01 0.  1.
         -5    1    4    4    0  502 -0.11080474174E+02  0.16022236216E+02 -0.13035609919E+03  0.13188742001E+03  0.47000000000E+01 0.  1.
          5    1    3    3  503    0 -0.30159694172E+02 -0.11572391504E+02 -0.64017551688E+02  0.71860032855E+02  0.47000000000E+01 0. -1.
         -5    1    3    3    0  503  0.10702852071E+03 -0.12940040392E+03 -0.53822250697E+03  0.56383075988E+03  0.47000000000E+01 0. -1.
<mgrwt>
<rscale>  0 0.20349172E+03</rscale>
<asrwt>0</asrwt>
<pdfrwt beam="1">  1        5 0.87492658E-02 0.20349372E+03</pdfrwt>
<pdfrwt beam="2">  1       -5 0.13489566E+00 0.20349372E+03</pdfrwt>
<totfact> 0.30308437E+01</totfact>
</mgrwt>
</event>
<event>
 8    1  0.3763376E-007  0.1250823E+03  0.7546771E-02  0.1234942E+00
          5   -1    0    0  501    0  0.00000000000E+00  0.00000000000E+00  0.85940944928E+03  0.85942230103E+03  0.47000000000E+01 0. -1.
         -5   -1    0    0    0  501 -0.00000000000E+00 -0.00000000000E+00 -0.17887890076E+02  0.18495042886E+02  0.47000000000E+01 0. -1.
         25    2    1    2    0    0 -0.31331545940E+01 -0.32053191711E+01  0.42142357157E+03  0.43959338315E+03  0.12499770041E+03 0.  0.
         25    2    1    2    0    0  0.31331545940E+01  0.32053191711E+01  0.42009798764E+03  0.43832396077E+03  0.12500193854E+03 0.  0.
          5    1    4    4  502    0  0.72140670080E+01 -0.60324956859E+02  0.22064761677E+03  0.22890741353E+03  0.47000000000E+01 0.  1.
         -5    1    4    4    0  502 -0.40809124140E+01  0.63530276031E+02  0.19945037086E+03  0.20941654724E+03  0.47000000000E+01 0.  1.
          5    1    3    3  503    0  0.60721423088E+02  0.83991020919E+00  0.20855738124E+03  0.21726957436E+03  0.47000000000E+01 0.  1.
         -5    1    3    3    0  503 -0.63854577682E+02 -0.40452293803E+01  0.21286619032E+03  0.22232380879E+03  0.47000000000E+01 0.  1.
<mgrwt>
<rscale>  0 0.12508122E+03</rscale>
<asrwt>0</asrwt>
<pdfrwt beam="1">  1        5 0.13226456E+00 0.12508227E+03</pdfrwt>
<pdfrwt beam="2">  1       -5 0.27996751E-02 0.12508227E+03</pdfrwt>
<totfact> 0.18515765E+02</totfact>
</mgrwt>
</event>
<event>
 8    1  0.3763376E-007  0.1439265E+03  0.7546771E-02  0.1208142E+00
          5   -1    0    0  501    0  0.00000000000E+00  0.00000000000E+00  0.13736617697E+03  0.13744655898E+03  0.47000000000E+01 0. -1.
         -5   -1    0    0    0  501 -0.00000000000E+00 -0.00000000000E+00 -0.15066067783E+03  0.15073397043E+03  0.47000000000E+01 0. -1.
         25    2    1    2    0    0 -0.13295361940E+01  0.71330890625E+02 -0.85302611546E+01  0.14417524282E+03  0.12499548657E+03 0.  0.
         25    2    1    2    0    0  0.13295361940E+01 -0.71330890625E+02 -0.47642396985E+01  0.14400528660E+03  0.12499984386E+03 0.  0.
          5    1    4    4  502    0 -0.50053523480E+02  0.25154342615E+01 -0.16915760998E+02  0.53102877440E+02  0.47000000000E+01 0.  1.
         -5    1    4    4    0  502  0.51383059674E+02 -0.73846324886E+02  0.12151521299E+02  0.90902409157E+02  0.47000000000E+01 0.  1.
          5    1    3    3  503    0  0.32177300912E+02  0.53555127706E+02  0.45898336143E+02  0.77667738852E+02  0.47000000000E+01 0.  1.
         -5    1    3    3    0  503 -0.33506837106E+02  0.17775762918E+02 -0.54428597298E+02  0.66507503968E+02  0.47000000000E+01 0.  1.
<mgrwt>
<rscale>  0 0.14392551E+03</rscale>
<asrwt>0</asrwt>
<pdfrwt beam="1">  1        5 0.21145079E-01 0.14392646E+03</pdfrwt>
<pdfrwt beam="2">  1       -5 0.23190387E-01 0.14392646E+03</pdfrwt>
<totfact> 0.27027348E+02</totfact>
</mgrwt>
</event>
<event>
 8    1  0.3763376E-007  0.1278918E+03  0.7546771E-02  0.1230621E+00
          5   -1    0    0  501    0  0.00000000000E+00  0.00000000000E+00  0.10159817351E+03  0.10170682799E+03  0.47000000000E+01 0.  1.
         -5   -1    0    0    0  501 -0.00000000000E+00 -0.00000000000E+00 -0.16529194600E+03  0.16535875367E+03  0.47000000000E+01 0.  1.
         25    2    1    2    0    0  0.79270890565E+01 -0.25825391280E+02 -0.53969975186E+02  0.13880463889E+03  0.12499671988E+03 0.  0.
         25    2    1    2    0    0 -0.79270890565E+01  0.25825391280E+02 -0.97237973091E+01  0.12826094277E+03  0.12500611037E+03 0.  0.
          5    1    3    3  502    0 -0.38435497865E+02 -0.55163846844E+01 -0.74372060562E+02  0.84029824398E+02  0.47000000000E+01 0.  1.
         -5    1    3    3    0  502  0.46362586921E+02 -0.20309006595E+02  0.20402085376E+02  0.54774814492E+02  0.47000000000E+01 0.  1.
          5    1    4    4  503    0  0.24063511551E+02 -0.28041070389E+02  0.35023806384E+02  0.51128379891E+02  0.47000000000E+01 0. -1.
         -5    1    4    4    0  503 -0.31990600607E+02  0.53866461668E+02 -0.44747603693E+02  0.77132562878E+02  0.47000000000E+01 0. -1.
<mgrwt>
<rscale>  0 0.12788952E+03</rscale>
<asrwt>0</asrwt>
<pdfrwt beam="1">  1        5 0.15643985E-01 0.12789182E+03</pdfrwt>
<pdfrwt beam="2">  1       -5 0.25443027E-01 0.12789182E+03</pdfrwt>
<totfact> 0.37899957E+02</totfact>
</mgrwt>
</event>
<event>
 8    1  0.3763376E-007  0.1943237E+03  0.7546771E-02  0.1154623E+00
         -5   -1    0    0    0  501 -0.00000000000E+00  0.00000000000E+00  0.46647392826E+03  0.46649760530E+03  0.47000000000E+01 0.  1.
          5   -1    0    0  501    0  0.00000000000E+00 -0.00000000000E+00 -0.81715210441E+02  0.81850263393E+02  0.47000000000E+01 0.  1.
         25    2    1    2    0    0  0.14569510216E+03  0.29967741418E+02  0.22057052772E+03  0.29394765296E+03  0.12501494576E+03 0.  0.
         25    2    1    2    0    0 -0.14569510216E+03 -0.29967741418E+02  0.16418819010E+03  0.25440021572E+03  0.12504631012E+03 0.  0.
          5    1    4    4  502    0 -0.13704311367E+03  0.11435181009E+02  0.16090377926E+03  0.21171607060E+03  0.47000000000E+01 0. -1.
         -5    1    4    4    0  502 -0.86519884899E+01 -0.41402922427E+02  0.32844108331E+01  0.42684145123E+02  0.47000000000E+01 0. -1.
          5    1    3    3  503    0  0.24132702728E+02  0.10724386629E+02 -0.13064451865E+02  0.29835712025E+02  0.47000000000E+01 0. -1.
         -5    1    3    3    0  503  0.12156239943E+03  0.19243354789E+02  0.23363497959E+03  0.26411194094E+03  0.47000000000E+01 0. -1.
<mgrwt>
<rscale>  0 0.19431867E+03</rscale>
<asrwt>0</asrwt>
<pdfrwt beam="2">  1        5 0.12583781E-01 0.19432372E+03</pdfrwt>
<pdfrwt beam="1">  1       -5 0.71777428E-01 0.19432372E+03</pdfrwt>
<totfact> 0.74090493E+01</totfact>
</mgrwt>
</event>
<event>
 8    1  0.3763376E-007  0.1560091E+03  0.7546771E-02  0.1193286E+00
         -5   -1    0    0    0  501 -0.00000000000E+00  0.00000000000E+00  0.24642124624E+03  0.24646606378E+03  0.47000000000E+01 0. -1.
          5   -1    0    0  501    0  0.00000000000E+00 -0.00000000000E+00 -0.10062224254E+03  0.10073194971E+03  0.47000000000E+01 0. -1.
         25    2    1    2    0    0  0.48958993200E+02 -0.79464414513E+02  0.97239002952E+02  0.18383217206E+03  0.12500907007E+03 0.  0.
         25    2    1    2    0    0 -0.48958993200E+02  0.79464414513E+02  0.48560000747E+02  0.16336584144E+03  0.12497499065E+03 0.  0.
          5    1    4    4  502    0 -0.47065762762E+02  0.28354623730E+02  0.84341168090E+02  0.10077049839E+03  0.47000000000E+01 0.  1.
         -5    1    4    4    0  502 -0.18932304377E+01  0.51109790783E+02 -0.35781167343E+02  0.62595343051E+02  0.47000000000E+01 0.  1.
          5    1    3    3  503    0  0.22729530632E+02 -0.56939227975E+02 -0.17479763717E+02  0.63924481889E+02  0.47000000000E+01 0.  1.
         -5    1    3    3    0  503  0.26229462568E+02 -0.22525186538E+02  0.11471876667E+03  0.11990769017E+03  0.47000000000E+01 0.  1.
<mgrwt>
<rscale>  0 0.15600229E+03</rscale>
<asrwt>0</asrwt>
<pdfrwt beam="2">  1        5 0.15492232E-01 0.15600911E+03</pdfrwt>
<pdfrwt beam="1">  1       -5 0.37922847E-01 0.15600911E+03</pdfrwt>
<totfact> 0.18784046E+02</totfact>
</mgrwt>
</event>
<event>
 8    1  0.3763376E-007  0.1383883E+03  0.7546771E-02  0.1215518E+00
         -5   -1    0    0    0  501 -0.00000000000E+00  0.00000000000E+00  0.35765119508E+02  0.36072618056E+02  0.47000000000E+01 0. -1.
          5   -1    0    0  501    0  0.00000000000E+00 -0.00000000000E+00 -0.53374466756E+03  0.53376536058E+03  0.47000000000E+01 0. -1.
         25    2    1    2    0    0  0.58651947413E+02  0.92802853269E+01 -0.23712047339E+03  0.27454356460E+03  0.12498750071E+03 0.  0.
         25    2    1    2    0    0 -0.58651947413E+02 -0.92802853269E+01 -0.26085907466E+03  0.29529441403E+03  0.12500063797E+03 0.  0.
          5    1    4    4  502    0 -0.52572780978E+02  0.19246697830E+02 -0.32242007352E+02  0.64776305199E+02  0.47000000000E+01 0. -1.
         -5    1    4    4    0  502 -0.60791664345E+01 -0.28526983157E+02 -0.22861706731E+03  0.23051810883E+03  0.47000000000E+01 0. -1.
          5    1    3    3  503    0 -0.30620165718E+02 -0.17566588378E+02 -0.27216598719E+02  0.44822012691E+02  0.47000000000E+01 0.  1.
         -5    1    3    3    0  503  0.89272113131E+02  0.26846873705E+02 -0.20990387467E+03  0.22972155191E+03  0.47000000000E+01 0.  1.
<mgrwt>
<rscale>  0 0.13838538E+03</rscale>
<asrwt>0</asrwt>
<pdfrwt beam="2">  1        5 0.82139804E-01 0.13838835E+03</pdfrwt>
<pdfrwt beam="1">  1       -5 0.55275720E-02 0.13838835E+03</pdfrwt>
<totfact> 0.20288794E+02</totfact>
</mgrwt>
</event>
<event>
 8    1  0.3763376E-007  0.1291515E+03  0.7546771E-02  0.1228722E+00
         -5   -1    0    0    0  501 -0.00000000000E+00  0.00000000000E+00  0.78094607644E+02  0.78235910828E+02  0.47000000000E+01 0.  1.
          5   -1    0    0  501    0  0.00000000000E+00 -0.00000000000E+00 -0.24002287377E+03  0.24006888581E+03  0.47000000000E+01 0.  1.
         25    2    1    2    0    0  0.16238521264E+01  0.32453142372E+02 -0.27804726064E+02  0.13211060554E+03  0.12499706380E+03 0.  0.
         25    2    1    2    0    0 -0.16238521264E+01 -0.32453142372E+02 -0.13412354006E+03  0.18619419110E+03  0.12499323763E+03 0.  0.
          5    1    3    3  502    0  0.16869863840E+02  0.76674073922E+02 -0.32007675140E+02  0.84912232250E+02  0.47000000000E+01 0. -1.
         -5    1    3    3    0  502 -0.15246011713E+02 -0.44220931550E+02  0.42029490763E+01  0.47198373290E+02  0.47000000000E+01 0. -1.
          5    1    4    4  503    0 -0.14368900671E+02 -0.62136332892E+02 -0.19266445297E+02  0.66788285546E+02  0.47000000000E+01 0. -1.
         -5    1    4    4    0  503  0.12745048545E+02  0.29683190521E+02 -0.11485709477E+03  0.11940590555E+03  0.47000000000E+01 0. -1.
<mgrwt>
<rscale>  0 0.12915057E+03</rscale>
<asrwt>0</asrwt>
<pdfrwt beam="2">  1        5 0.36941005E-01 0.12915150E+03</pdfrwt>
<pdfrwt beam="1">  1       -5 0.12028964E-01 0.12915150E+03</pdfrwt>
<totfact> 0.29265702E+02</totfact>
</mgrwt>
</event>
<event>
 8    1  0.3763376E-007  0.1440305E+03  0.7546771E-02  0.1208015E+00
         -5   -1    0    0    0  501 -0.00000000000E+00  0.00000000000E+00  0.60628979096E+02  0.60810879834E+02  0.47000000000E+01 0. -1.
          5   -1    0    0  501    0  0.00000000000E+00 -0.00000000000E+00 -0.34261942776E+03  0.34265166318E+03  0.47000000000E+01 0. -1.
         25    2    1    2    0    0  0.26645191179E+02 -0.66408141983E+02 -0.12889442481E+03  0.19326456855E+03  0.12496964901E+03 0.  0.
         25    2    1    2    0    0 -0.26645191179E+02  0.66408141983E+02 -0.15309602386E+03  0.21019797447E+03  0.12499915366E+03 0.  0.
          5    1    3    3  502    0  0.48737300161E+02 -0.55697181212E+02 -0.14546203485E+03  0.16327520940E+03  0.47000000000E+01 0.  1.
         -5    1    3    3    0  502 -0.22092108982E+02 -0.10710960772E+02  0.16567610035E+02  0.29989359150E+02  0.47000000000E+01 0.  1.
          5    1    4    4  503    0 -0.17541149513E+02  0.42300633475E+02  0.82259987920E+01  0.46763154029E+02  0.47000000000E+01 0.  1.
         -5    1    4    4    0  503 -0.91040416660E+01  0.24107508509E+02 -0.16132202265E+03  0.16343482044E+03  0.47000000000E+01 0.  1.
<mgrwt>
<rscale>  0 0.14402414E+03</rscale>
<asrwt>0</asrwt>
<pdfrwt beam="2">  1        5 0.52727152E-01 0.14403054E+03</pdfrwt>
<pdfrwt beam="1">  1       -5 0.93440075E-02 0.14403054E+03</pdfrwt>
<totfact> 0.22593774E+02</totfact>
</mgrwt>
</event>
<event>
 8    1  0.3763376E-007  0.1471896E+03  0.7546771E-02  0.1203970E+00
         -5   -1    0    0    0  501 -0.00000000000E+00  0.00000000000E+00  0.56005118841E+03  0.56007090947E+03  0.47000000000E+01 0. -1.
          5   -1    0    0  501    0  0.00000000000E+00 -0.00000000000E+00 -0.40215961210E+02  0.40489671968E+02  0.47000000000E+01 0. -1.
         25    2    1    2    0    0 -0.13266004087E+02  0.76573899009E+02  0.32134947528E+03  0.35345457046E+03  0.12500039697E+03 0.  0.
         25    2    1    2    0    0  0.13266004087E+02 -0.76573899009E+02  0.19848575192E+03  0.24710601098E+03  0.12500095229E+03 0.  0.
          5    1    3    3  502    0 -0.62915285720E+02  0.21948958365E+02  0.20476913103E+03  0.21538936133E+03  0.47000000000E+01 0. -1.
         -5    1    3    3    0  502  0.49649281633E+02  0.54624940644E+02  0.11658034424E+03  0.13806520912E+03  0.47000000000E+01 0. -1.
          5    1    4    4  503    0  0.57418042963E+02 -0.47450889451E+02  0.51116902182E+02  0.90462402445E+02  0.47000000000E+01 0.  1.
         -5    1    4    4    0  503 -0.44152038876E+02 -0.29123009558E+02  0.14736884974E+03  0.15664360854E+03  0.47000000000E+01 0.  1.
<mgrwt>
<rscale>  0 0.14718951E+03</rscale>
<asrwt>0</asrwt>
<pdfrwt beam="2">  1        5 0.62096432E-02 0.14718963E+03</pdfrwt>
<pdfrwt beam="1">  1       -5 0.86184285E-01 0.14718963E+03</pdfrwt>
<totfact> 0.15217186E+02</totfact>
</mgrwt>
</event>
<event>
 8    1  0.3763376E-007  0.1326132E+03  0.7546771E-02  0.1223629E+00
         -5   -1    0    0    0  501 -0.00000000000E+00  0.00000000000E+00  0.31402925933E+02  0.31752696848E+02  0.47000000000E+01 0. -1.
          5   -1    0    0  501    0  0.00000000000E+00 -0.00000000000E+00 -0.59746785735E+03  0.59748634342E+03  0.47000000000E+01 0. -1.
         25    2    1    2    0    0 -0.22881764566E+02  0.37922120865E+02 -0.20072691440E+03  0.24057752323E+03  0.12499835245E+03 0.  0.
         25    2    1    2    0    0  0.22881764566E+02 -0.37922120865E+02 -0.36533801702E+03  0.38866151704E+03  0.12499698295E+03 0.  0.
          5    1    3    3  502    0 -0.14828943133E+01  0.64276384858E+02 -0.39184778371E+02  0.75439972706E+02  0.47000000000E+01 0. -1.
         -5    1    3    3    0  502 -0.21398870253E+02 -0.26354263993E+02 -0.16154213603E+03  0.16513755052E+03  0.47000000000E+01 0. -1.
          5    1    4    4  503    0  0.85924975314E+01 -0.38611853065E+02 -0.37058166058E+03  0.37271646512E+03  0.47000000000E+01 0. -1.
         -5    1    4    4    0  503  0.14289267035E+02  0.68973220067E+00  0.52436435633E+01  0.15945051920E+02  0.47000000000E+01 0. -1.
<mgrwt>
<rscale>  0 0.13261284E+03</rscale>
<asrwt>0</asrwt>
<pdfrwt beam="2">  1        5 0.91946450E-01 0.13261316E+03</pdfrwt>
<pdfrwt beam="1">  1       -5 0.48595473E-02 0.13261316E+03</pdfrwt>
<totfact> 0.19008850E+02</totfact>
</mgrwt>
</event>
<event>
 8    1  0.3763376E-007  0.1433076E+03  0.7546771E-02  0.1208949E+00
         -5   -1    0    0    0  501 -0.00000000000E+00  0.00000000000E+00  0.73201127786E+03  0.73202636627E+03  0.47000000000E+01 0. -1.
          5   -1    0    0  501    0  0.00000000000E+00 -0.00000000000E+00 -0.28564031176E+02  0.28948123895E+02  0.47000000000E+01 0. -1.
         25    2    1    2    0    0 -0.58983994158E+02  0.37840023017E+02  0.41182556467E+03  0.43604742392E+03  0.12500432503E+03 0.  0.
         25    2    1    2    0    0  0.58983994158E+02 -0.37840023017E+02  0.29162168201E+03  0.32492706625E+03  0.12499365605E+03 0.  0.
          5    1    4    4  502    0  0.50602196739E+02  0.39520084254E+02  0.15083416933E+03  0.16399834149E+03  0.47000000000E+01 0.  1.
         -5    1    4    4    0  502  0.83817974183E+01 -0.77360107271E+02  0.14078751269E+03  0.16092872476E+03  0.47000000000E+01 0.  1.
          5    1    3    3  503    0  0.12400648826E+02 -0.88848807770E+01  0.26999653206E+03  0.27046799168E+03  0.47000000000E+01 0.  1.
         -5    1    3    3    0  503 -0.71384642984E+02  0.46724903794E+02  0.14182903261E+03  0.16557943224E+03  0.47000000000E+01 0.  1.
<mgrwt>
<rscale>  0 0.14330525E+03</rscale>
<asrwt>0</asrwt>
<pdfrwt beam="2">  1        5 0.44251726E-02 0.14330757E+03</pdfrwt>
<pdfrwt beam="1">  1       -5 0.11264783E+00 0.14330757E+03</pdfrwt>
<totfact> 0.13854992E+02</totfact>
</mgrwt>
</event>
<event>
 8    1  0.3763376E-007  0.1651963E+03  0.7546771E-02  0.1182953E+00
          5   -1    0    0  501    0  0.00000000000E+00  0.00000000000E+00  0.79573285166E+03  0.79574673183E+03  0.47000000000E+01 0.  1.
         -5   -1    0    0    0  501 -0.00000000000E+00 -0.00000000000E+00 -0.41483952311E+02  0.41749350885E+02  0.47000000000E+01 0.  1.
         25    2    1    2    0    0  0.89747885442E+02  0.60073991602E+02  0.20133769581E+03  0.26043403590E+03  0.12500180755E+03 0.  0.
         25    2    1    2    0    0 -0.89747885442E+02 -0.60073991602E+02  0.55291120354E+03  0.57706204681E+03  0.12500495777E+03 0.  0.
          5    1    4    4  502    0 -0.57106465258E+02  0.27200693617E+02  0.31873592276E+03  0.32498569901E+03  0.47000000000E+01 0.  1.
         -5    1    4    4    0  502 -0.32641420184E+02 -0.87274685219E+02  0.23417528078E+03  0.25207634780E+03  0.47000000000E+01 0.  1.
          5    1    3    3  503    0  0.98585066362E+02  0.68555161961E+02  0.21189203032E+03  0.24359628087E+03  0.47000000000E+01 0. -1.
         -5    1    3    3    0  503 -0.88371809198E+01 -0.84811703590E+01 -0.10554334511E+02  0.16837755024E+02  0.47000000000E+01 0. -1.
<mgrwt>
<rscale>  0 0.16519567E+03</rscale>
<asrwt>0</asrwt>
<pdfrwt beam="1">  1        5 0.12244193E+00 0.16519627E+03</pdfrwt>
<pdfrwt beam="2">  1       -5 0.64036293E-02 0.16519627E+03</pdfrwt>
<totfact> 0.63136965E+01</totfact>
</mgrwt>
</event>
<event>
 8    1  0.3763376E-007  0.1363062E+03  0.7546771E-02  0.1218394E+00
         -5   -1    0    0    0  501 -0.00000000000E+00  0.00000000000E+00  0.78526945665E+02  0.78667472284E+02  0.47000000000E+01 0.  1.
          5   -1    0    0  501    0  0.00000000000E+00 -0.00000000000E+00 -0.31167269713E+03  0.31170813293E+03  0.47000000000E+01 0.  1.
         25    2    1    2    0    0 -0.54074721958E+02  0.52639482285E+01 -0.20538515754E+02  0.13782617988E+03  0.12498976168E+03 0.  0.
         25    2    1    2    0    0  0.54074721958E+02 -0.52639482285E+01 -0.21260723571E+03  0.25254942534E+03  0.12501036300E+03 0.  0.
          5    1    4    4  502    0  0.91934658323E+02  0.14062938995E+02 -0.15462443436E+03  0.18050084032E+03  0.47000000000E+01 0.  1.
         -5    1    4    4    0  502 -0.37859936365E+02 -0.19326887223E+02 -0.57982801350E+02  0.72048585022E+02  0.47000000000E+01 0.  1.
          5    1    3    3  503    0  0.35121680453E+02 -0.16142419656E+02 -0.24301840735E+02  0.45899668989E+02  0.47000000000E+01 0.  1.
         -5    1    3    3    0  503 -0.89196402411E+02  0.21406367884E+02  0.37633249809E+01  0.91926510887E+02  0.47000000000E+01 0.  1.
<mgrwt>
<rscale>  0 0.13630146E+03</rscale>
<asrwt>0</asrwt>
<pdfrwt beam="2">  1        5 0.47963180E-01 0.13630618E+03</pdfrwt>
<pdfrwt beam="1">  1       -5 0.12094604E-01 0.13630618E+03</pdfrwt>
<totfact> 0.17245348E+02</totfact>
</mgrwt>
</event>
<event>
 8    1  0.3763376E-007  0.1702068E+03  0.7546771E-02  0.1177632E+00
          5   -1    0    0  501    0  0.00000000000E+00  0.00000000000E+00  0.19922688284E+02  0.20469575190E+02  0.47000000000E+01 0.  1.
         -5   -1    0    0    0  501 -0.00000000000E+00 -0.00000000000E+00 -0.14357083868E+04  0.14357160799E+04  0.47000000000E+01 0.  1.
         25    2    1    2    0    0 -0.51252619504E+02  0.10353055256E+03 -0.73373554605E+03  0.75321856542E+03  0.12499979771E+03 0.  0.
         25    2    1    2    0    0  0.51252619504E+02 -0.10353055256E+03 -0.68205015250E+03  0.70296708966E+03  0.12499964917E+03 0.  0.
          5    1    3    3  502    0  0.11113060965E+02  0.12547663452E+02 -0.80439856560E+01  0.19176540025E+02  0.47000000000E+01 0. -1.
         -5    1    3    3    0  502 -0.62365680469E+02  0.90982889111E+02 -0.72569156040E+03  0.73404202539E+03  0.47000000000E+01 0. -1.
          5    1    4    4  503    0  0.48236245505E+02 -0.30341730251E+02 -0.91666138928E+02  0.10803761845E+03  0.47000000000E+01 0. -1.
         -5    1    4    4    0  503  0.30163739996E+01 -0.73188822312E+02 -0.59038401357E+03  0.59492947120E+03  0.47000000000E+01 0. -1.
<mgrwt>
<rscale>  0 0.17020678E+03</rscale>
<asrwt>0</asrwt>
<pdfrwt beam="1">  1        5 0.31076901E-02 0.17020680E+03</pdfrwt>
<pdfrwt beam="2">  1       -5 0.22092079E+00 0.17020680E+03</pdfrwt>
<totfact> 0.38480969E+01</totfact>
</mgrwt>
</event>
<event>
 8    1  0.3763376E-007  0.1290027E+03  0.7546771E-02  0.1228946E+00
         -5   -1    0    0    0  501 -0.00000000000E+00  0.00000000000E+00  0.15699315978E+02  0.16387755251E+02  0.47000000000E+01 0. -1.
          5   -1    0    0  501    0  0.00000000000E+00 -0.00000000000E+00 -0.14013244915E+04  0.14013323733E+04  0.47000000000E+01 0. -1.
         25    2    1    2    0    0  0.27993383868E+02  0.15258203121E+02 -0.33124542166E+03  0.35547888008E+03  0.12500105004E+03 0.  0.
         25    2    1    2    0    0 -0.27993383868E+02 -0.15258203121E+02 -0.10543797538E+04  0.10622412484E+04  0.12499344904E+03 0.  0.
          5    1    4    4  502    0  0.20078497612E+02 -0.36604787233E+01 -0.89621073587E+03  0.89645541901E+03  0.47000000000E+01 0. -1.
         -5    1    4    4    0  502 -0.48071881481E+02 -0.11597724397E+02 -0.15816901795E+03  0.16578582943E+03  0.47000000000E+01 0. -1.
          5    1    3    3  503    0 -0.42146208954E+02  0.35629490167E+02 -0.12855886569E+03  0.13998298270E+03  0.47000000000E+01 0.  1.
         -5    1    3    3    0  503  0.70139592822E+02 -0.20371287046E+02 -0.20268655597E+03  0.21549589738E+03  0.47000000000E+01 0.  1.
<mgrwt>
<rscale>  0 0.12900089E+03</rscale>
<asrwt>0</asrwt>
<pdfrwt beam="2">  1        5 0.21564185E+00 0.12900273E+03</pdfrwt>
<pdfrwt beam="1">  1       -5 0.24688436E-02 0.12900273E+03</pdfrwt>
<totfact> 0.56029533E+01</totfact>
</mgrwt>
</event>
<event>
 8    1  0.3763376E-007  0.1348850E+03  0.7546771E-02  0.1220385E+00
         -5   -1    0    0    0  501 -0.00000000000E+00  0.00000000000E+00  0.41106182590E+03  0.41108869446E+03  0.47000000000E+01 0.  1.
          5   -1    0    0  501    0  0.00000000000E+00 -0.00000000000E+00 -0.46927884256E+02  0.47162658118E+02  0.47000000000E+01 0.  1.
         25    2    1    2    0    0 -0.30688456519E+01 -0.50576866811E+02  0.23810796809E+03  0.27365920601E+03  0.12500607704E+03 0.  0.
         25    2    1    2    0    0  0.30688456519E+01  0.50576866811E+02  0.12602597355E+03  0.18459214656E+03  0.12499710914E+03 0.  0.
          5    1    4    4  502    0 -0.30302695060E+02  0.81363466868E+01 -0.13825434117E+02  0.34607601677E+02  0.47000000000E+01 0. -1.
         -5    1    4    4    0  502  0.33371540712E+02  0.42440520124E+02  0.13985140767E+03  0.14998454488E+03  0.47000000000E+01 0. -1.
          5    1    3    3  503    0 -0.37101693968E+02  0.98145928369E+01  0.17686167631E+03  0.18103868226E+03  0.47000000000E+01 0.  1.
         -5    1    3    3    0  503  0.34032848316E+02 -0.60391459647E+02  0.61246291780E+02  0.92620523750E+02  0.47000000000E+01 0.  1.
<mgrwt>
<rscale>  0 0.13488290E+03</rscale>
<asrwt>0</asrwt>
<pdfrwt beam="2">  1        5 0.72398011E-02 0.13488498E+03</pdfrwt>
<pdfrwt beam="1">  1       -5 0.63260405E-01 0.13488498E+03</pdfrwt>
<totfact> 0.23063572E+02</totfact>
</mgrwt>
</event>
<event>
 8    1  0.3763376E-007  0.1746623E+03  0.7546771E-02  0.1173075E+00
         -5   -1    0    0    0  501 -0.00000000000E+00  0.00000000000E+00  0.69902530805E+02  0.70060358355E+02  0.47000000000E+01 0. -1.
          5   -1    0    0  501    0  0.00000000000E+00 -0.00000000000E+00 -0.51445470305E+03  0.51447617194E+03  0.47000000000E+01 0. -1.
         25    2    1    2    0    0  0.84721504371E+02  0.87758021887E+02 -0.10795229955E+03  0.20531840590E+03  0.12499098013E+03 0.  0.
         25    2    1    2    0    0 -0.84721504371E+02 -0.87758021887E+02 -0.33659987270E+03  0.37921812439E+03  0.12501083098E+03 0.  0.
          5    1    4    4  502    0 -0.21320298482E+02 -0.90840374920E+02 -0.11240236343E+03  0.14616056290E+03  0.47000000000E+01 0. -1.
         -5    1    4    4    0  502 -0.63401205888E+02  0.30823530321E+01 -0.22419750927E+03  0.23305756150E+03  0.47000000000E+01 0. -1.
          5    1    3    3  503    0  0.11578664809E+03  0.52518356611E+02 -0.74216081136E+02  0.14729169140E+03  0.47000000000E+01 0.  1.
         -5    1    3    3    0  503 -0.31065143715E+02  0.35239665276E+02 -0.33736218419E+02  0.58026714503E+02  0.47000000000E+01 0.  1.
<mgrwt>
<rscale>  0 0.17465873E+03</rscale>
<asrwt>0</asrwt>
<pdfrwt beam="2">  1        5 0.79160667E-01 0.17466228E+03</pdfrwt>
<pdfrwt beam="1">  1       -5 0.10768028E-01 0.17466228E+03</pdfrwt>
<totfact> 0.75714820E+01</totfact>
</mgrwt>
</event>
<event>
 8    1  0.3763376E-007  0.1300203E+03  0.7546771E-02  0.1227428E+00
          5   -1    0    0  501    0  0.00000000000E+00  0.00000000000E+00  0.16760837510E+03  0.16767425981E+03  0.47000000000E+01 0.  1.
         -5   -1    0    0    0  501 -0.00000000000E+00 -0.00000000000E+00 -0.10232500627E+03  0.10243288978E+03  0.47000000000E+01 0.  1.
         25    2    1    2    0    0  0.14338607778E+02 -0.32761261176E+02  0.15725770269E+02  0.13096787638E+03  0.12500555542E+03 0.  0.
         25    2    1    2    0    0 -0.14338607778E+02  0.32761261176E+02  0.49557598553E+02  0.13913927321E+03  0.12499954347E+03 0.  0.
          5    1    3    3  502    0 -0.34941043543E+02 -0.61532643169E+02  0.19612484079E+02  0.73579088272E+02  0.47000000000E+01 0.  1.
         -5    1    3    3    0  502  0.49279651321E+02  0.28771381993E+02 -0.38867138101E+01  0.57388788106E+02  0.47000000000E+01 0.  1.
          5    1    4    4  503    0 -0.55654781864E+02  0.40377189108E+01  0.65472558080E+02  0.86153953942E+02  0.47000000000E+01 0.  1.
         -5    1    4    4    0  503  0.41316174086E+02  0.28723542265E+02 -0.15914959528E+02  0.52985319270E+02  0.47000000000E+01 0.  1.
<mgrwt>
<rscale>  0 0.13001888E+03</rscale>
<asrwt>0</asrwt>
<pdfrwt beam="1">  1        5 0.25799270E-01 0.13002032E+03</pdfrwt>
<pdfrwt beam="2">  1       -5 0.15755676E-01 0.13002032E+03</pdfrwt>
<totfact> 0.36650514E+02</totfact>
</mgrwt>
</event>
<event>
 8    1  0.3763376E-007  0.1509247E+03  0.7546771E-02  0.1199342E+00
         -5   -1    0    0    0  501 -0.00000000000E+00  0.00000000000E+00  0.42062318932E+02  0.42324090941E+02  0.47000000000E+01 0.  1.
          5   -1    0    0  501    0  0.00000000000E+00 -0.00000000000E+00 -0.54021582709E+03  0.54023627223E+03  0.47000000000E+01 0.  1.
         25    2    1    2    0    0  0.30413586339E+02 -0.78917219940E+02 -0.25908472959E+03  0.29983853584E+03  0.12500134652E+03 0.  0.
         25    2    1    2    0    0 -0.30413586339E+02  0.78917219940E+02 -0.23906877857E+03  0.28272182733E+03  0.12499934771E+03 0.  0.
          5    1    4    4  502    0 -0.61566089592E+02  0.85441775843E+02 -0.12162866275E+03  0.16095434772E+03  0.47000000000E+01 0. -1.
         -5    1    4    4    0  502  0.31152503253E+02 -0.65245559031E+01 -0.11744011581E+03  0.12176747961E+03  0.47000000000E+01 0. -1.
          5    1    3    3  503    0 -0.34663879240E+02 -0.60308861404E+02 -0.69350221125E+02  0.98337614665E+02  0.47000000000E+01 0. -1.
         -5    1    3    3    0  503  0.65077465580E+02 -0.18608358536E+02 -0.18973450846E+03  0.20150092118E+03  0.47000000000E+01 0. -1.
<mgrwt>
<rscale>  0 0.15092424E+03</rscale>
<asrwt>0</asrwt>
<pdfrwt beam="2">  1        5 0.83131831E-01 0.15092465E+03</pdfrwt>
<pdfrwt beam="1">  1       -5 0.64928354E-02 0.15092465E+03</pdfrwt>
<totfact> 0.15482136E+02</totfact>
</mgrwt>
</event>
<event>
 8    1  0.3763376E-007  0.1434545E+03  0.7546771E-02  0.1208758E+00
         -5   -1    0    0    0  501 -0.00000000000E+00  0.00000000000E+00  0.24018650530E+03  0.24023248600E+03  0.47000000000E+01 0.  1.
          5   -1    0    0  501    0  0.00000000000E+00 -0.00000000000E+00 -0.95332299078E+02  0.95448086663E+02  0.47000000000E+01 0.  1.
         25    2    1    2    0    0  0.52065871163E+02 -0.47330045083E+02  0.12613388379E+03  0.19102082999E+03  0.12501285031E+03 0.  0.
         25    2    1    2    0    0 -0.52065871163E+02  0.47330045083E+02  0.18720322429E+02  0.14465974267E+03  0.12500001028E+03 0.  0.
          5    1    4    4  502    0  0.36886133672E+01  0.22759647040E+02  0.64269951426E+02  0.68442121959E+02  0.47000000000E+01 0.  1.
         -5    1    4    4    0  502 -0.55754484530E+02  0.24570398043E+02 -0.45549628997E+02  0.76217620712E+02  0.47000000000E+01 0.  1.
          5    1    3    3  503    0  0.62867837622E+02  0.12537972715E+02  0.11082041426E+03  0.12811252860E+03  0.47000000000E+01 0.  1.
         -5    1    3    3    0  503 -0.10801966459E+02 -0.59868017799E+02  0.15313469530E+02  0.62908301388E+02  0.47000000000E+01 0.  1.
<mgrwt>
<rscale>  0 0.14345173E+03</rscale>
<asrwt>0</asrwt>
<pdfrwt beam="2">  1        5 0.14678951E-01 0.14345453E+03</pdfrwt>
<pdfrwt beam="1">  1       -5 0.36964213E-01 0.14345453E+03</pdfrwt>
<totfact> 0.21223072E+02</totfact>
</mgrwt>
</event>
<event>
 8    1  0.3763376E-007  0.1333097E+03  0.7546771E-02  0.1222631E+00
          5   -1    0    0  501    0  0.00000000000E+00  0.00000000000E+00  0.48735795618E+03  0.48738061866E+03  0.47000000000E+01 0. -1.
         -5   -1    0    0    0  501 -0.00000000000E+00 -0.00000000000E+00 -0.36573406039E+02  0.36874164794E+02  0.47000000000E+01 0. -1.
         25    2    1    2    0    0  0.35187901045E+02 -0.30121177615E+02  0.20223246924E+03  0.24220935819E+03  0.12498771083E+03 0.  0.
         25    2    1    2    0    0 -0.35187901045E+02  0.30121177615E+02  0.24855208090E+03  0.28204542527E+03  0.12500404503E+03 0.  0.
          5    1    4    4  502    0  0.22178602434E+02  0.14706899004E+02  0.59605847587E+00  0.27030141878E+02  0.47000000000E+01 0.  1.
         -5    1    4    4    0  502 -0.57366503479E+02  0.15414278611E+02  0.24795602242E+03  0.25501528339E+03  0.47000000000E+01 0.  1.
          5    1    3    3  503    0  0.96879302004E+01  0.46998247068E+02  0.49166642927E+02  0.68863197687E+02  0.47000000000E+01 0.  1.
         -5    1    3    3    0  503  0.25499970845E+02 -0.77119424682E+02  0.15306582631E+03  0.17334616050E+03  0.47000000000E+01 0.  1.
<mgrwt>
<rscale>  0 0.13330590E+03</rscale>
<asrwt>0</asrwt>
<pdfrwt beam="1">  1        5 0.75003020E-01 0.13330973E+03</pdfrwt>
<pdfrwt beam="2">  1       -5 0.56515568E-02 0.13330973E+03</pdfrwt>
<totfact> 0.23804892E+02</totfact>
</mgrwt>
</event>
<event>
 8    1  0.3763376E-007  0.1325824E+03  0.7546771E-02  0.1223674E+00
          5   -1    0    0  501    0  0.00000000000E+00  0.00000000000E+00  0.14541248289E+04  0.14541324245E+04  0.47000000000E+01 0.  1.
         -5   -1    0    0    0  501 -0.00000000000E+00 -0.00000000000E+00 -0.11782158595E+02  0.12685001425E+02  0.47000000000E+01 0.  1.
         25    2    1    2    0    0  0.42489201675E+02  0.12132668587E+02  0.80314118005E+03  0.81401068569E+03  0.12500042965E+03 0.  0.
         25    2    1    2    0    0 -0.42489201675E+02 -0.12132668587E+02  0.63920149025E+03  0.65280674024E+03  0.12500224426E+03 0.  0.
          5    1    3    3  502    0  0.33587674241E+02  0.30803611893E+02  0.78430747669E+03  0.78564451399E+03  0.47000000000E+01 0. -1.
         -5    1    3    3    0  502  0.89015274337E+01 -0.18670943306E+02  0.18833703361E+02  0.28366171700E+02  0.47000000000E+01 0. -1.
          5    1    4    4  503    0 -0.33507811933E+02 -0.67371033778E+02  0.40579553763E+03  0.41273931000E+03  0.47000000000E+01 0.  1.
         -5    1    4    4    0  503 -0.89813897419E+01  0.55238365191E+02  0.23340595261E+03  0.24006743025E+03  0.47000000000E+01 0.  1.
<mgrwt>
<rscale>  0 0.13258198E+03</rscale>
<asrwt>0</asrwt>
<pdfrwt beam="1">  1        5 0.22378159E+00 0.13258241E+03</pdfrwt>
<pdfrwt beam="2">  1       -5 0.18826732E-02 0.13258241E+03</pdfrwt>
<totfact> 0.76923075E+01</totfact>
</mgrwt>
</event>
<event>
 8    1  0.3763376E-007  0.1600470E+03  0.7546771E-02  0.1188647E+00
          5   -1    0    0  501    0  0.00000000000E+00  0.00000000000E+00  0.30506940405E+03  0.30510560677E+03  0.47000000000E+01 0. -1.
         -5   -1    0    0    0  501 -0.00000000000E+00 -0.00000000000E+00 -0.94210817659E+02  0.94327981872E+02  0.47000000000E+01 0. -1.
         25    2    1    2    0    0  0.80279549104E+02  0.59517290644E+02  0.39262993468E+02  0.16479266240E+03  0.12501169959E+03 0.  0.
         25    2    1    2    0    0 -0.80279549104E+02 -0.59517290644E+02  0.17159559292E+03  0.23464092625E+03  0.12499681145E+03 0.  0.
          5    1    4    4  502    0 -0.80848971163E+02 -0.39002920840E+02  0.18771382764E+03  0.20812581546E+03  0.47000000000E+01 0.  1.
         -5    1    4    4    0  502  0.56942205893E+00 -0.20514369804E+02 -0.16118234720E+02  0.26515110795E+02  0.47000000000E+01 0.  1.
          5    1    3    3  503    0  0.58319833715E+02  0.96641531220E+02  0.12137303568E+02  0.11362302891E+03  0.47000000000E+01 0. -1.
         -5    1    3    3    0  503  0.21959715389E+02 -0.37124240576E+02  0.27125689900E+02  0.51169633484E+02  0.47000000000E+01 0. -1.
<mgrwt>
<rscale>  0 0.16004408E+03</rscale>
<asrwt>0</asrwt>
<pdfrwt beam="1">  1        5 0.46945552E-01 0.16004699E+03</pdfrwt>
<pdfrwt beam="2">  1       -5 0.14505769E-01 0.16004699E+03</pdfrwt>
<totfact> 0.13725896E+02</totfact>
</mgrwt>
</event>
<event>
 8    1  0.3763376E-007  0.1961816E+03  0.7546771E-02  0.1153001E+00
          5   -1    0    0  501    0  0.00000000000E+00  0.00000000000E+00  0.38584952313E+02  0.38870149794E+02  0.47000000000E+01 0.  1.
         -5   -1    0    0    0  501 -0.00000000000E+00 -0.00000000000E+00 -0.99912129842E+03  0.99913235307E+03  0.47000000000E+01 0.  1.
         25    2    1    2    0    0  0.12496954130E+03  0.85118940789E+02 -0.44134616857E+03  0.48298414045E+03  0.12499847633E+03 0.  0.
         25    2    1    2    0    0 -0.12496954130E+03 -0.85118940789E+02 -0.51919017753E+03  0.55501836241E+03  0.12499728730E+03 0.  0.
          5    1    4    4  502    0 -0.11301787600E+03 -0.74647835689E+02 -0.52101011677E+03  0.53834837368E+03  0.47000000000E+01 0.  1.
         -5    1    4    4    0  502 -0.11951665302E+02 -0.10471105101E+02  0.18199392336E+01  0.16669988732E+02  0.47000000000E+01 0.  1.
          5    1    3    3  503    0  0.66390904551E+02 -0.14566968385E+02 -0.25225825555E+03  0.26129727566E+03  0.47000000000E+01 0.  1.
         -5    1    3    3    0  503  0.58578636749E+02  0.99685909174E+02 -0.18908791302E+03  0.22168686479E+03  0.47000000000E+01 0.  1.
<mgrwt>
<rscale>  0 0.19618146E+03</rscale>
<asrwt>0</asrwt>
<pdfrwt beam="1">  1        5 0.59589359E-02 0.19618165E+03</pdfrwt>
<pdfrwt beam="2">  1       -5 0.15373374E+00 0.19618165E+03</pdfrwt>
<totfact> 0.40648721E+01</totfact>
</mgrwt>
</event>
<event>
 8    1  0.3763376E-007  0.1430900E+03  0.7546771E-02  0.1209232E+00
         -5   -1    0    0    0  501 -0.00000000000E+00  0.00000000000E+00  0.18454435440E+03  0.18460419481E+03  0.47000000000E+01 0.  1.
          5   -1    0    0  501    0  0.00000000000E+00 -0.00000000000E+00 -0.17661140955E+03  0.17667393691E+03  0.47000000000E+01 0.  1.
         25    2    1    2    0    0 -0.59747852825E+02 -0.35774689536E+02  0.11417671971E+03  0.18306026554E+03  0.12500041266E+03 0.  0.
         25    2    1    2    0    0  0.59747852825E+02  0.35774689536E+02 -0.10624377486E+03  0.17821786618E+03  0.12499693516E+03 0.  0.
          5    1    4    4  502    0  0.69198605043E+01  0.16774952585E+02 -0.11898945847E+03  0.12045689988E+03  0.47000000000E+01 0. -1.
         -5    1    4    4    0  502  0.52827992320E+02  0.18999736950E+02  0.12745683601E+02  0.57760966294E+02  0.47000000000E+01 0. -1.
          5    1    3    3  503    0 -0.79814426219E+02 -0.13844388708E+02  0.12670642891E+03  0.15046135337E+03  0.47000000000E+01 0.  1.
         -5    1    3    3    0  503  0.20066573394E+02 -0.21930300828E+02 -0.12529709192E+02  0.32598912169E+02  0.47000000000E+01 0.  1.
<mgrwt>
<rscale>  0 0.14308920E+03</rscale>
<asrwt>0</asrwt>
<pdfrwt beam="2">  1        5 0.27180399E-01 0.14308996E+03</pdfrwt>
<pdfrwt beam="1">  1       -5 0.28400852E-01 0.14308996E+03</pdfrwt>
<totfact> 0.11311956E+02</totfact>
</mgrwt>
</event>
<event>
 8    1  0.3763376E-007  0.1540241E+03  0.7546771E-02  0.1195615E+00
          5   -1    0    0  501    0  0.00000000000E+00  0.00000000000E+00  0.82032581697E+02  0.82167113006E+02  0.47000000000E+01 0.  1.
         -5   -1    0    0    0  501 -0.00000000000E+00 -0.00000000000E+00 -0.30057252323E+03  0.30060926752E+03  0.47000000000E+01 0.  1.
         25    2    1    2    0    0 -0.64950363277E+02  0.62287775955E+02 -0.14714540741E+03  0.21301004376E+03  0.12499276418E+03 0.  0.
         25    2    1    2    0    0  0.64950363277E+02 -0.62287775955E+02 -0.71394534117E+02  0.16976633677E+03  0.12500045150E+03 0.  0.
          5    1    3    3  502    0  0.18411566629E+02  0.48299547656E+02 -0.10782374143E+03  0.11966570647E+03  0.47000000000E+01 0.  1.
         -5    1    3    3    0  502 -0.83361929906E+02  0.13988228299E+02 -0.39321665988E+02  0.93344337292E+02  0.47000000000E+01 0.  1.
          5    1    4    4  503    0 -0.25402128442E+02 -0.44169155009E+02  0.29753151198E+01  0.51255486376E+02  0.47000000000E+01 0.  1.
         -5    1    4    4    0  503  0.90352491718E+02 -0.18118620946E+02 -0.74369849237E+02  0.11851085039E+03  0.47000000000E+01 0.  1.
<mgrwt>
<rscale>  0 0.15402256E+03</rscale>
<asrwt>0</asrwt>
<pdfrwt beam="1">  1        5 0.12633572E-01 0.15402412E+03</pdfrwt>
<pdfrwt beam="2">  1       -5 0.46255101E-01 0.15402412E+03</pdfrwt>
<totfact> 0.17927809E+02</totfact>
</mgrwt>
</event>
<event>
 8    1  0.3763376E-007  0.1282280E+03  0.7546771E-02  0.1230118E+00
          5   -1    0    0  501    0  0.00000000000E+00  0.00000000000E+00  0.20100181452E+03  0.20105675677E+03  0.47000000000E+01 0.  1.
         -5   -1    0    0    0  501 -0.00000000000E+00 -0.00000000000E+00 -0.81822466602E+02  0.81957342812E+02  0.47000000000E+01 0.  1.
         25    2    1    2    0    0 -0.71468387290E+01 -0.27668606086E+02  0.53183107949E+02  0.13881950368E+03  0.12500313022E+03 0.  0.
         25    2    1    2    0    0  0.71468387290E+01  0.27668606086E+02  0.65996239972E+02  0.14419459590E+03  0.12497979328E+03 0.  0.
          5    1    4    4  502    0  0.91845554328E+01  0.40576822255E+02  0.99487399829E+02  0.10793825683E+03  0.47000000000E+01 0. -1.
         -5    1    4    4    0  502 -0.20377167038E+01 -0.12908216169E+02 -0.33491159857E+02  0.36256339068E+02  0.47000000000E+01 0. -1.
          5    1    3    3  503    0  0.54387852211E+02 -0.29241073985E+02  0.44986454953E+02  0.76543778357E+02  0.47000000000E+01 0. -1.
         -5    1    3    3    0  503 -0.61534690940E+02  0.15724678985E+01  0.81966529962E+01  0.62275725325E+02  0.47000000000E+01 0. -1.
<mgrwt>
<rscale>  0 0.12822228E+03</rscale>
<asrwt>0</asrwt>
<pdfrwt beam="1">  1        5 0.30937957E-01 0.12822797E+03</pdfrwt>
<pdfrwt beam="2">  1       -5 0.12602673E-01 0.12822797E+03</pdfrwt>
<totfact> 0.38262622E+02</totfact>
</mgrwt>
</event>
<event>
 8    1  0.3763376E-007  0.1488895E+03  0.7546771E-02  0.1201854E+00
          5   -1    0    0  501    0  0.00000000000E+00  0.00000000000E+00  0.13698683906E+03  0.13706744353E+03  0.47000000000E+01 0. -1.
         -5   -1    0    0    0  501 -0.00000000000E+00 -0.00000000000E+00 -0.19098609834E+03  0.19104392102E+03  0.47000000000E+01 0. -1.
         25    2    1    2    0    0 -0.74316526698E+02 -0.32158730753E+02 -0.91295493884E+02  0.17465090893E+03  0.12494375808E+03 0.  0.
         25    2    1    2    0    0  0.74316526698E+02  0.32158730753E+02  0.37296234608E+02  0.15346045562E+03  0.12490785491E+03 0.  0.
          5    1    4    4  502    0  0.78646613863E+02  0.19104262544E+02  0.76612870311E+02  0.11154319619E+03  0.47000000000E+01 0.  1.
         -5    1    4    4    0  502 -0.43300871655E+01  0.13054468209E+02 -0.39316635702E+02  0.41917259429E+02  0.47000000000E+01 0.  1.
          5    1    3    3  503    0  0.19684977387E+01 -0.52979021091E+02  0.72854491266E+00  0.53228492716E+02  0.47000000000E+01 0. -1.
         -5    1    3    3    0  503 -0.76285024436E+02  0.20820290338E+02 -0.92024038796E+02  0.12142241621E+03  0.47000000000E+01 0. -1.
<mgrwt>
<rscale>  0 0.14888193E+03</rscale>
<asrwt>0</asrwt>
<pdfrwt beam="1">  1        5 0.21085547E-01 0.14888946E+03</pdfrwt>
<pdfrwt beam="2">  1       -5 0.29393125E-01 0.14888946E+03</pdfrwt>
<totfact> 0.17394796E+02</totfact>
</mgrwt>
</event>
<event>
 8    1  0.3763376E-007  0.1254904E+03  0.7546771E-02  0.1234306E+00
         -5   -1    0    0    0  501 -0.00000000000E+00  0.00000000000E+00  0.18416022000E+03  0.18422018518E+03  0.47000000000E+01 0. -1.
          5   -1    0    0  501    0  0.00000000000E+00 -0.00000000000E+00 -0.93899859508E+02  0.94017411236E+02  0.47000000000E+01 0. -1.
         25    2    1    2    0    0  0.91242017287E+01  0.62147033206E+01  0.87018512558E+02  0.15270904842E+03  0.12500383332E+03 0.  0.
         25    2    1    2    0    0 -0.91242017287E+01 -0.62147033206E+01  0.32418479302E+01  0.12552854800E+03  0.12500013277E+03 0.  0.
          5    1    4    4  502    0 -0.11942600009E+02 -0.51590176872E+02 -0.36887316481E+02  0.64706538787E+02  0.47000000000E+01 0. -1.
         -5    1    4    4    0  502  0.28183982804E+01  0.45375473551E+02  0.40129164411E+02  0.60822009217E+02  0.47000000000E+01 0. -1.
          5    1    3    3  503    0  0.36827342867E+02  0.18155726046E+02  0.10801756431E+03  0.11565365438E+03  0.47000000000E+01 0. -1.
         -5    1    3    3    0  503 -0.27703141138E+02 -0.11941022725E+02 -0.20999051755E+02  0.37055394037E+02  0.47000000000E+01 0. -1.
<mgrwt>
<rscale>  0 0.12548944E+03</rscale>
<asrwt>0</asrwt>
<pdfrwt beam="2">  1        5 0.14459787E-01 0.12549037E+03</pdfrwt>
<pdfrwt beam="1">  1       -5 0.28345997E-01 0.12549037E+03</pdfrwt>
<totfact> 0.35221803E+02</totfact>
</mgrwt>
</event>
<event>
 8    1  0.3763376E-007  0.1570036E+03  0.7546771E-02  0.1192128E+00
         -5   -1    0    0    0  501 -0.00000000000E+00  0.00000000000E+00  0.95964122709E+03  0.95965273653E+03  0.47000000000E+01 0.  1.
          5   -1    0    0  501    0  0.00000000000E+00 -0.00000000000E+00 -0.25512007898E+02  0.25941328937E+02  0.47000000000E+01 0.  1.
         25    2    1    2    0    0 -0.86953415607E+02  0.38158332665E+02  0.44425029407E+03  0.47117060540E+03  0.12500584296E+03 0.  0.
         25    2    1    2    0    0  0.86953415607E+02 -0.38158332665E+02  0.48987892512E+03  0.51442346007E+03  0.12503271633E+03 0.  0.
          5    1    3    3  502    0 -0.67852431125E+02  0.79889080681E+02  0.36162360980E+03  0.37653677481E+03  0.47000000000E+01 0.  1.
         -5    1    3    3    0  502 -0.19100984482E+02 -0.41730748016E+02  0.82626684271E+02  0.94633830588E+02  0.47000000000E+01 0.  1.
          5    1    4    4  503    0  0.19330029788E+01 -0.58896479552E+02  0.29323209726E+03  0.29913155078E+03  0.47000000000E+01 0. -1.
         -5    1    4    4    0  503  0.85020412628E+02  0.20738146887E+02  0.19664682786E+03  0.21529190929E+03  0.47000000000E+01 0. -1.
<mgrwt>
<rscale>  0 0.15699826E+03</rscale>
<asrwt>0</asrwt>
<pdfrwt beam="2">  1        5 0.39588347E-02 0.15700361E+03</pdfrwt>
<pdfrwt beam="1">  1       -5 0.14767101E+00 0.15700361E+03</pdfrwt>
<totfact> 0.84501021E+01</totfact>
</mgrwt>
</event>
<event>
 8    1  0.3763376E-007  0.1465273E+03  0.7546771E-02  0.1204809E+00
          5   -1    0    0  501    0  0.00000000000E+00  0.00000000000E+00  0.21770526820E+03  0.21775599601E+03  0.47000000000E+01 0.  1.
         -5   -1    0    0    0  501 -0.00000000000E+00 -0.00000000000E+00 -0.10000357377E+03  0.10011395890E+03  0.47000000000E+01 0.  1.
         25    2    1    2    0    0 -0.81511200679E+01 -0.76004216919E+02  0.39361645104E+02  0.15172211878E+03  0.12500872160E+03 0.  0.
         25    2    1    2    0    0  0.81511200679E+01  0.76004216919E+02  0.78340049321E+02  0.16614783613E+03  0.12499943350E+03 0.  0.
          5    1    3    3  502    0  0.24019194687E+02  0.28014343153E+02  0.14608294498E+02  0.39965202412E+02  0.47000000000E+01 0. -1.
         -5    1    3    3    0  502 -0.32170314755E+02 -0.10401856007E+03  0.24753350605E+02  0.11175691637E+03  0.47000000000E+01 0. -1.
          5    1    4    4  503    0  0.24889486108E+02 -0.29249829541E+02  0.11949131454E+02  0.40495811998E+02  0.47000000000E+01 0. -1.
         -5    1    4    4    0  503 -0.16738366040E+02  0.10525404646E+03  0.66390917867E+02  0.12565202413E+03  0.47000000000E+01 0. -1.
<mgrwt>
<rscale>  0 0.14652536E+03</rscale>
<asrwt>0</asrwt>
<pdfrwt beam="1">  1        5 0.33505511E-01 0.14652734E+03</pdfrwt>
<pdfrwt beam="2">  1       -5 0.15397559E-01 0.14652734E+03</pdfrwt>
<totfact> 0.23875124E+02</totfact>
</mgrwt>
</event>
<event>
 8    1  0.3763376E-007  0.2377779E+03  0.7546771E-02  0.1121282E+00
         -5   -1    0    0    0  501 -0.00000000000E+00  0.00000000000E+00  0.33278661731E+03  0.33281980509E+03  0.47000000000E+01 0.  1.
          5   -1    0    0  501    0  0.00000000000E+00 -0.00000000000E+00 -0.18506861432E+03  0.18512828527E+03  0.47000000000E+01 0.  1.
         25    2    1    2    0    0  0.19964903594E+03  0.32452982711E+02  0.14818165025E+03  0.28016972455E+03  0.12499735774E+03 0.  0.
         25    2    1    2    0    0 -0.19964903594E+03 -0.32452982711E+02 -0.46364725781E+00  0.23777836581E+03  0.12500161055E+03 0.  0.
          5    1    4    4  502    0 -0.20226966027E+02 -0.38964321342E+02 -0.33168712603E+02  0.55223201538E+02  0.47000000000E+01 0. -1.
         -5    1    4    4    0  502 -0.17942206992E+03  0.65113386311E+01  0.32705065345E+02  0.18255516427E+03  0.47000000000E+01 0. -1.
          5    1    3    3  503    0  0.49510925205E+02  0.53658578920E+02  0.93927091420E+02  0.11905865491E+03  0.47000000000E+01 0.  1.
         -5    1    3    3    0  503  0.15013811074E+03 -0.21205596209E+02  0.54254558833E+02  0.16111106964E+03  0.47000000000E+01 0.  1.
<mgrwt>
<rscale>  0 0.23777735E+03</rscale>
<asrwt>0</asrwt>
<pdfrwt beam="2">  1        5 0.28479238E-01 0.23777791E+03</pdfrwt>
<pdfrwt beam="1">  1       -5 0.51205083E-01 0.23777791E+03</pdfrwt>
<totfact> 0.35669191E+01</totfact>
</mgrwt>
</event>
<event>
 8    1  0.3763376E-007  0.1435958E+03  0.7546771E-02  0.1208579E+00
         -5   -1    0    0    0  501 -0.00000000000E+00  0.00000000000E+00  0.49101668768E+02  0.49326097310E+02  0.47000000000E+01 0. -1.
          5   -1    0    0  501    0  0.00000000000E+00 -0.00000000000E+00 -0.43183952178E+03  0.43186509765E+03  0.47000000000E+01 0. -1.
         25    2    1    2    0    0  0.55409148756E+02 -0.43780786825E+02 -0.23339308195E+03  0.27402933145E+03  0.12503124702E+03 0.  0.
         25    2    1    2    0    0 -0.55409148756E+02  0.43780786825E+02 -0.14934477106E+03  0.20716186351E+03  0.12500098395E+03 0.  0.
          5    1    4    4  502    0 -0.75237539817E+02  0.34013721098E+02 -0.16154284044E+03  0.18148223031E+03  0.47000000000E+01 0. -1.
         -5    1    4    4    0  502  0.19828391061E+02  0.97670657270E+01  0.12198069377E+02  0.25679633204E+02  0.47000000000E+01 0. -1.
          5    1    3    3  503    0  0.73601423743E+02 -0.58860215162E+02 -0.96257398950E+02  0.13479343960E+03  0.47000000000E+01 0. -1.
         -5    1    3    3    0  503 -0.18192274987E+02  0.15079428336E+02 -0.13713568300E+03  0.13923589185E+03  0.47000000000E+01 0. -1.
<mgrwt>
<rscale>  0 0.14358918E+03</rscale>
<asrwt>0</asrwt>
<pdfrwt beam="2">  1        5 0.66456078E-01 0.14359577E+03</pdfrwt>
<pdfrwt beam="1">  1       -5 0.75733343E-02 0.14359577E+03</pdfrwt>
<totfact> 0.19548202E+02</totfact>
</mgrwt>
</event>
<event>
 8    1  0.3763376E-007  0.1646869E+03  0.7546771E-02  0.1183507E+00
         -5   -1    0    0    0  501 -0.00000000000E+00  0.00000000000E+00  0.34663530831E+03  0.34666717031E+03  0.47000000000E+01 0. -1.
          5   -1    0    0  501    0  0.00000000000E+00 -0.00000000000E+00 -0.87239980228E+02  0.87366493292E+02  0.47000000000E+01 0. -1.
         25    2    1    2    0    0  0.18410823772E+01  0.10720167254E+03  0.19974561317E+03  0.25887693472E+03  0.12499347651E+03 0.  0.
         25    2    1    2    0    0 -0.18410823772E+01 -0.10720167254E+03  0.59649714918E+02  0.17515672889E+03  0.12500481193E+03 0.  0.
          5    1    3    3  502    0 -0.32140944835E+02  0.56141016963E+02  0.18440353524E+03  0.19547789627E+03  0.47000000000E+01 0. -1.
         -5    1    3    3    0  502  0.33982027213E+02  0.51060655572E+02  0.15342077929E+02  0.63399038448E+02  0.47000000000E+01 0. -1.
          5    1    4    4  503    0 -0.63219912309E+02 -0.52707006179E+02  0.31535651561E+02  0.88268755129E+02  0.47000000000E+01 0. -1.
         -5    1    4    4    0  503  0.61378829932E+02 -0.54494666356E+02  0.28114063357E+02  0.86887973757E+02  0.47000000000E+01 0. -1.
<mgrwt>
<rscale>  0 0.16468480E+03</rscale>
<asrwt>0</asrwt>
<pdfrwt beam="2">  1        5 0.13433718E-01 0.16468695E+03</pdfrwt>
<pdfrwt beam="1">  1       -5 0.53340692E-01 0.16468695E+03</pdfrwt>
<totfact> 0.12118111E+02</totfact>
</mgrwt>
</event>
<event>
 8    1  0.3763376E-007  0.1270477E+03  0.7546771E-02  0.1231911E+00
         -5   -1    0    0    0  501 -0.00000000000E+00  0.00000000000E+00  0.57988030851E+02  0.58178189401E+02  0.47000000000E+01 0.  1.
          5   -1    0    0  501    0  0.00000000000E+00 -0.00000000000E+00 -0.32172195468E+03  0.32175628374E+03  0.47000000000E+01 0.  1.
         25    2    1    2    0    0 -0.50328593751E+01  0.22145638554E+02 -0.61584524633E+02  0.14118700958E+03  0.12500143607E+03 0.  0.
         25    2    1    2    0    0  0.50328593751E+01 -0.22145638554E+02 -0.20214939920E+03  0.23874746356E+03  0.12498084966E+03 0.  0.
          5    1    4    4  502    0  0.19605947843E+02 -0.70856136584E+02 -0.14098214996E+03  0.15906929902E+03  0.47000000000E+01 0.  1.
         -5    1    4    4    0  502 -0.14573088468E+02  0.48710498031E+02 -0.61167249242E+02  0.79678164548E+02  0.47000000000E+01 0.  1.
          5    1    3    3  503    0  0.57056054053E+02  0.24117576059E+02 -0.45034444999E+02  0.76728365129E+02  0.47000000000E+01 0. -1.
         -5    1    3    3    0  503 -0.62088913428E+02 -0.19719375051E+01 -0.16550079634E+02  0.64458644448E+02  0.47000000000E+01 0. -1.
<mgrwt>
<rscale>  0 0.12704264E+03</rscale>
<asrwt>0</asrwt>
<pdfrwt beam="2">  1        5 0.49512953E-01 0.12704770E+03</pdfrwt>
<pdfrwt beam="1">  1       -5 0.89385039E-02 0.12704770E+03</pdfrwt>
<totfact> 0.26708590E+02</totfact>
</mgrwt>
</event>
<event>
 8    1  0.3763376E-007  0.1538528E+03  0.7546771E-02  0.1195819E+00
         -5   -1    0    0    0  501 -0.00000000000E+00  0.00000000000E+00  0.24922728072E+03  0.24927159376E+03  0.47000000000E+01 0. -1.
          5   -1    0    0  501    0  0.00000000000E+00 -0.00000000000E+00 -0.11796192347E+03  0.11805551825E+03  0.47000000000E+01 0. -1.
         25    2    1    2    0    0  0.89258872679E+02 -0.88674097270E+01  0.14685547735E+03  0.21268649171E+03  0.12499294068E+03 0.  0.
         25    2    1    2    0    0 -0.89258872679E+02  0.88674097270E+01 -0.15590120109E+02  0.15464062030E+03  0.12499956917E+03 0.  0.
          5    1    3    3  502    0  0.10121019508E+03 -0.44171727688E+02  0.13230690290E+03  0.17240026587E+03  0.47000000000E+01 0. -1.
         -5    1    3    3    0  502 -0.11951322405E+02  0.35304317961E+02  0.14548574451E+02  0.40286225840E+02  0.47000000000E+01 0. -1.
          5    1    4    4  503    0 -0.64365660902E+02  0.19367245531E+02 -0.67849928215E+02  0.95622859514E+02  0.47000000000E+01 0. -1.
         -5    1    4    4    0  503 -0.24893211777E+02 -0.10499835804E+02  0.52259808106E+02  0.59017760782E+02  0.47000000000E+01 0. -1.
<mgrwt>
<rscale>  0 0.15385141E+03</rscale>
<asrwt>0</asrwt>
<pdfrwt beam="2">  1        5 0.18158597E-01 0.15385275E+03</pdfrwt>
<pdfrwt beam="1">  1       -5 0.38353267E-01 0.15385275E+03</pdfrwt>
<totfact> 0.13656026E+02</totfact>
</mgrwt>
</event>
<event>
 8    1  0.3763376E-007  0.1374348E+03  0.7546771E-02  0.1216826E+00
          5   -1    0    0  501    0  0.00000000000E+00  0.00000000000E+00  0.10983775708E+04  0.10983876265E+04  0.47000000000E+01 0. -1.
         -5   -1    0    0    0  501 -0.00000000000E+00 -0.00000000000E+00 -0.33710493126E+02  0.34036558975E+02  0.47000000000E+01 0. -1.
         25    2    1    2    0    0 -0.46501410645E+02  0.33163582317E+02  0.13496232824E+03  0.19261609490E+03  0.12499570227E+03 0.  0.
         25    2    1    2    0    0  0.46501410645E+02 -0.33163582317E+02  0.92970474944E+03  0.93980809058E+03  0.12500448629E+03 0.  0.
          5    1    3    3  502    0 -0.41844943520E+02 -0.21180907755E+02  0.12924602471E+03  0.13757272642E+03  0.47000000000E+01 0. -1.
         -5    1    3    3    0  502 -0.46564671254E+01  0.54344490072E+02  0.57163035267E+01  0.55043368477E+02  0.47000000000E+01 0. -1.
          5    1    4    4  503    0  0.29144027272E+02 -0.14353160901E+02  0.50576526872E+02  0.60294797652E+02  0.47000000000E+01 0.  1.
         -5    1    4    4    0  503  0.17357383373E+02 -0.18810421416E+02  0.87912822257E+03  0.87951329293E+03  0.47000000000E+01 0.  1.
<mgrwt>
<rscale>  0 0.13743281E+03</rscale>
<asrwt>0</asrwt>
<pdfrwt beam="1">  1        5 0.16900703E+00 0.13743481E+03</pdfrwt>
<pdfrwt beam="2">  1       -5 0.52120850E-02 0.13743481E+03</pdfrwt>
<totfact> 0.35399470E+01</totfact>
</mgrwt>
</event>
<event>
 8    1  0.3763376E-007  0.1385231E+03  0.7546771E-02  0.1215331E+00
         -5   -1    0    0    0  501 -0.00000000000E+00  0.00000000000E+00  0.53730424597E+02  0.53935596106E+02  0.47000000000E+01 0. -1.
          5   -1    0    0  501    0  0.00000000000E+00 -0.00000000000E+00 -0.41145236834E+03  0.41147921140E+03  0.47000000000E+01 0. -1.
         25    2    1    2    0    0 -0.15357363582E+02 -0.57687940655E+02 -0.93621892110E+02  0.16719091980E+03  0.12499599141E+03 0.  0.
         25    2    1    2    0    0  0.15357363582E+02  0.57687940655E+02 -0.26410005164E+03  0.29822388770E+03  0.12499961124E+03 0.  0.
          5    1    4    4  502    0  0.61821276054E+02  0.26496807899E+02 -0.20876647521E+03  0.21938432527E+03  0.47000000000E+01 0.  1.
         -5    1    4    4    0  502 -0.46463912472E+02  0.31191132757E+02 -0.55333576423E+02  0.78839562433E+02  0.47000000000E+01 0.  1.
          5    1    3    3  503    0  0.49888275575E+02 -0.51642359903E+02 -0.58253944557E+02  0.92581777001E+02  0.47000000000E+01 0. -1.
         -5    1    3    3    0  503 -0.65245639156E+02 -0.60455807527E+01 -0.35367947553E+02  0.74609142802E+02  0.47000000000E+01 0. -1.
<mgrwt>
<rscale>  0 0.13852229E+03</rscale>
<asrwt>0</asrwt>
<pdfrwt beam="2">  1        5 0.63318210E-01 0.13852310E+03</pdfrwt>
<pdfrwt beam="1">  1       -5 0.82840667E-02 0.13852310E+03</pdfrwt>
<totfact> 0.18442886E+02</totfact>
</mgrwt>
</event>
<event>
 8    1  0.3763376E-007  0.1282841E+03  0.7546771E-02  0.1230030E+00
          5   -1    0    0  501    0  0.00000000000E+00  0.00000000000E+00  0.38459628359E+02  0.38745748328E+02  0.47000000000E+01 0. -1.
         -5   -1    0    0    0  501 -0.00000000000E+00 -0.00000000000E+00 -0.50121847739E+03  0.50124051320E+03  0.47000000000E+01 0. -1.
         25    2    1    2    0    0  0.51314565193E+01  0.28307458540E+02 -0.33597942939E+03  0.35963731106E+03  0.12501669679E+03 0.  0.
         25    2    1    2    0    0 -0.51314565193E+01 -0.28307458540E+02 -0.12677941964E+03  0.18034895047E+03  0.12500031455E+03 0.  0.
          5    1    4    4  502    0 -0.12476261933E+02  0.48812806468E+02 -0.47448435714E+02  0.69367076043E+02  0.47000000000E+01 0.  1.
         -5    1    4    4    0  502  0.73448054138E+01 -0.77120265008E+02 -0.79330983922E+02  0.11098187443E+03  0.47000000000E+01 0.  1.
          5    1    3    3  503    0 -0.41706763245E+02 -0.19304485481E+01 -0.26946664335E+03  0.27272246444E+03  0.47000000000E+01 0. -1.
         -5    1    3    3    0  503  0.46838219764E+02  0.30237907088E+02 -0.66512786045E+02  0.86914846621E+02  0.47000000000E+01 0. -1.
<mgrwt>
<rscale>  0 0.12828014E+03</rscale>
<asrwt>0</asrwt>
<pdfrwt beam="1">  1        5 0.59405706E-02 0.12828413E+03</pdfrwt>
<pdfrwt beam="2">  1       -5 0.77134234E-01 0.12828413E+03</pdfrwt>
<totfact> 0.20261743E+02</totfact>
</mgrwt>
</event>
<event>
 8    1  0.3763376E-007  0.1453566E+03  0.7546771E-02  0.1206298E+00
         -5   -1    0    0    0  501 -0.00000000000E+00  0.00000000000E+00  0.28096194060E+03  0.28100124922E+03  0.47000000000E+01 0. -1.
          5   -1    0    0  501    0  0.00000000000E+00 -0.00000000000E+00 -0.80946007910E+02  0.81082342076E+02  0.47000000000E+01 0. -1.
         25    2    1    2    0    0  0.43626147963E+02 -0.59993225032E+02  0.14868306954E+03  0.20792908607E+03  0.12500168732E+03 0.  0.
         25    2    1    2    0    0 -0.43626147963E+02  0.59993225032E+02  0.51332863151E+02  0.15415450523E+03  0.12500448315E+03 0.  0.
          5    1    3    3  502    0  0.51350979852E+02 -0.95587770369E+02  0.11258373027E+03  0.15643251356E+03  0.47000000000E+01 0.  1.
         -5    1    3    3    0  502 -0.77248318894E+01  0.35594545337E+02  0.36099339264E+02  0.51496572515E+02  0.47000000000E+01 0.  1.
          5    1    4    4  503    0  0.13810357586E+02  0.20210585079E+02  0.75943455517E+02  0.79929294766E+02  0.47000000000E+01 0.  1.
         -5    1    4    4    0  503 -0.57436505549E+02  0.39782639953E+02 -0.24610592366E+02  0.74225210461E+02  0.47000000000E+01 0.  1.
<mgrwt>
<rscale>  0 0.14535602E+03</rscale>
<asrwt>0</asrwt>
<pdfrwt beam="2">  1        5 0.12466743E-01 0.14535663E+03</pdfrwt>
<pdfrwt beam="1">  1       -5 0.43238426E-01 0.14535663E+03</pdfrwt>
<totfact> 0.20730393E+02</totfact>
</mgrwt>
</event>
<event>
 8    1  0.3763376E-007  0.1999390E+03  0.7546771E-02  0.1149792E+00
          5   -1    0    0  501    0  0.00000000000E+00  0.00000000000E+00  0.55531829539E+02  0.55730369565E+02  0.47000000000E+01 0.  1.
         -5   -1    0    0    0  501 -0.00000000000E+00 -0.00000000000E+00 -0.72008809377E+03  0.72010343201E+03  0.47000000000E+01 0.  1.
         25    2    1    2    0    0 -0.14959582476E+03  0.44390196823E+02 -0.31328246569E+03  0.37164702160E+03  0.12500481990E+03 0.  0.
         25    2    1    2    0    0  0.14959582476E+03 -0.44390196823E+02 -0.35127379855E+03  0.40418677997E+03  0.12499708476E+03 0.  0.
          5    1    4    4  502    0  0.48582240209E+01  0.48211387422E+01 -0.15564135162E+03  0.15586265124E+03  0.47000000000E+01 0. -1.
         -5    1    4    4    0  502  0.14473760074E+03 -0.49211335566E+02 -0.19563244693E+03  0.24832412873E+03  0.47000000000E+01 0. -1.
          5    1    3    3  503    0 -0.41942427540E+02 -0.32806800989E+02 -0.16157222555E+03  0.17018556780E+03  0.47000000000E+01 0.  1.
         -5    1    3    3    0  503 -0.10765339722E+03  0.77196997812E+02 -0.15171024014E+03  0.20146145380E+03  0.47000000000E+01 0.  1.
<mgrwt>
<rscale>  0 0.19993780E+03</rscale>
<asrwt>0</asrwt>
<pdfrwt beam="1">  1        5 0.85598111E-02 0.19993900E+03</pdfrwt>
<pdfrwt beam="2">  1       -5 0.11079923E+00 0.19993900E+03</pdfrwt>
<totfact> 0.52114825E+01</totfact>
</mgrwt>
</event>
<event>
 8    1  0.3763376E-007  0.1656065E+03  0.7546771E-02  0.1182517E+00
         -5   -1    0    0    0  501 -0.00000000000E+00  0.00000000000E+00  0.36955766302E+03  0.36958754889E+03  0.47000000000E+01 0.  1.
          5   -1    0    0  501    0  0.00000000000E+00 -0.00000000000E+00 -0.10994088560E+03  0.11004130282E+03  0.47000000000E+01 0.  1.
         25    2    1    2    0    0 -0.31591441406E+02  0.10388277458E+03  0.26664754951E+03  0.31387315568E+03  0.12500316864E+03 0.  0.
         25    2    1    2    0    0  0.31591441406E+02 -0.10388277458E+03 -0.70307720913E+01  0.16575569603E+03  0.12504346839E+03 0.  0.
          5    1    3    3  502    0 -0.72463859503E+02  0.98863439623E+02  0.21628320905E+03  0.24864735499E+03  0.47000000000E+01 0.  1.
         -5    1    3    3    0  502  0.40872418097E+02  0.50193349530E+01  0.50364340463E+02  0.65225800683E+02  0.47000000000E+01 0.  1.
          5    1    4    4  503    0  0.16169968210E+02 -0.59970997725E+02 -0.65823262578E+02  0.90624391509E+02  0.47000000000E+01 0.  1.
         -5    1    4    4    0  503  0.15421473196E+02 -0.43911776852E+02  0.58792490486E+02  0.75131304523E+02  0.47000000000E+01 0.  1.
<mgrwt>
<rscale>  0 0.16559891E+03</rscale>
<asrwt>0</asrwt>
<pdfrwt beam="2">  1        5 0.16924006E-01 0.16560652E+03</pdfrwt>
<pdfrwt beam="1">  1       -5 0.56865048E-01 0.16560652E+03</pdfrwt>
<totfact> 0.69464820E+01</totfact>
</mgrwt>
</event>
<event>
 8    1  0.3763376E-007  0.1964701E+03  0.7546771E-02  0.1152752E+00
          5   -1    0    0  501    0  0.00000000000E+00  0.00000000000E+00  0.56728708707E+03  0.56730655660E+03  0.47000000000E+01 0.  1.
         -5   -1    0    0    0  501 -0.00000000000E+00 -0.00000000000E+00 -0.73819903922E+02  0.73969373493E+02  0.47000000000E+01 0.  1.
         25    2    1    2    0    0  0.82120428680E+02  0.12740575862E+03  0.15636133840E+03  0.25109540538E+03  0.12499616922E+03 0.  0.
         25    2    1    2    0    0 -0.82120428680E+02 -0.12740575862E+03  0.33710584475E+03  0.39018052471E+03  0.12499799665E+03 0.  0.
          5    1    3    3  502    0  0.63090166741E+02  0.11449292021E+03  0.46615194713E+02  0.13886707420E+03  0.47000000000E+01 0.  1.
         -5    1    3    3    0  502  0.19030261939E+02  0.12912838405E+02  0.10974614369E+03  0.11222833118E+03  0.47000000000E+01 0.  1.
          5    1    4    4  503    0 -0.17919190205E+02 -0.92988068325E+02  0.28537089224E+03  0.30071001707E+03  0.47000000000E+01 0.  1.
         -5    1    4    4    0  503 -0.64201238475E+02 -0.34417690292E+02  0.51734952511E+02  0.89470507644E+02  0.47000000000E+01 0.  1.
<mgrwt>
<rscale>  0 0.19646979E+03</rscale>
<asrwt>0</asrwt>
<pdfrwt beam="1">  1        5 0.87287931E-01 0.19647008E+03</pdfrwt>
<pdfrwt beam="2">  1       -5 0.11369904E-01 0.19647008E+03</pdfrwt>
<totfact> 0.56484881E+01</totfact>
</mgrwt>
</event>
<event>
 8    1  0.3763376E-007  0.1281160E+03  0.7546771E-02  0.1230288E+00
          5   -1    0    0  501    0  0.00000000000E+00  0.00000000000E+00  0.63526347882E+02  0.63699975473E+02  0.47000000000E+01 0. -1.
         -5   -1    0    0    0  501 -0.00000000000E+00 -0.00000000000E+00 -0.29089650185E+03  0.29093446820E+03  0.47000000000E+01 0. -1.
         25    2    1    2    0    0 -0.25684368953E+02 -0.11387801496E+02 -0.17350300964E+03  0.21567800585E+03  0.12499735606E+03 0.  0.
         25    2    1    2    0    0  0.25684368953E+02  0.11387801496E+02 -0.53867144329E+02  0.13895643782E+03  0.12497141090E+03 0.  0.
          5    1    3    3  502    0 -0.29208998961E+02  0.53184647004E+02 -0.63267251975E+02  0.87787285353E+02  0.47000000000E+01 0.  1.
         -5    1    3    3    0  502  0.35246300082E+01 -0.64572448500E+02 -0.11023575766E+03  0.12789072050E+03  0.47000000000E+01 0.  1.
          5    1    4    4  503    0  0.30625640158E+02  0.72071330675E+01 -0.93375966839E+02  0.98646002379E+02  0.47000000000E+01 0. -1.
         -5    1    4    4    0  503 -0.49412712049E+01  0.41806684281E+01  0.39508822510E+02  0.40310435445E+02  0.47000000000E+01 0. -1.
<mgrwt>
<rscale>  0 0.12810966E+03</rscale>
<asrwt>0</asrwt>
<pdfrwt beam="1">  1        5 0.97895609E-02 0.12811599E+03</pdfrwt>
<pdfrwt beam="2">  1       -5 0.44769584E-01 0.12811599E+03</pdfrwt>
<totfact> 0.28258774E+02</totfact>
</mgrwt>
</event>
<event>
 8    1  0.3763376E-007  0.1516452E+03  0.7546771E-02  0.1198467E+00
          5   -1    0    0  501    0  0.00000000000E+00  0.00000000000E+00  0.64014298604E+03  0.64016023977E+03  0.47000000000E+01 0.  1.
         -5   -1    0    0    0  501 -0.00000000000E+00 -0.00000000000E+00 -0.36570695154E+02  0.36871476022E+02  0.47000000000E+01 0.  1.
         25    2    1    2    0    0  0.28326771018E+01 -0.85800278738E+02  0.35225012060E+03  0.38350544040E+03  0.12500625372E+03 0.  0.
         25    2    1    2    0    0 -0.28326771018E+01  0.85800278738E+02  0.25132217029E+03  0.29352627538E+03  0.12500051668E+03 0.  0.
          5    1    4    4  502    0 -0.35905090760E+02  0.10639245877E+03  0.18460216021E+03  0.21612167494E+03  0.47000000000E+01 0.  1.
         -5    1    4    4    0  502  0.33072413658E+02 -0.20592180036E+02  0.66720010085E+02  0.77404600442E+02  0.47000000000E+01 0.  1.
          5    1    3    3  503    0  0.15471294131E+02 -0.54238884629E+02  0.39835123704E+02  0.69210870739E+02  0.47000000000E+01 0. -1.
         -5    1    3    3    0  503 -0.12638617029E+02 -0.31561394109E+02  0.31241499689E+03  0.31429456967E+03  0.47000000000E+01 0. -1.
<mgrwt>
<rscale>  0 0.15164405E+03</rscale>
<asrwt>0</asrwt>
<pdfrwt beam="1">  1        5 0.98507993E-01 0.15164523E+03</pdfrwt>
<pdfrwt beam="2">  1       -5 0.56507254E-02 0.15164523E+03</pdfrwt>
<totfact> 0.13081592E+02</totfact>
</mgrwt>
</event>
<event>
 8    1  0.3763376E-007  0.1538792E+03  0.7546771E-02  0.1195793E+00
         -5   -1    0    0    0  501 -0.00000000000E+00  0.00000000000E+00  0.49350719574E+03  0.49352957586E+03  0.47000000000E+01 0.  1.
          5   -1    0    0  501    0  0.00000000000E+00 -0.00000000000E+00 -0.48284242144E+02  0.48512452417E+02  0.47000000000E+01 0.  1.
         25    2    1    2    0    0  0.26577197709E+02  0.85678745641E+02  0.24867700919E+03  0.29242409978E+03  0.12499761734E+03 0.  0.
         25    2    1    2    0    0 -0.26577197709E+02 -0.85678745641E+02  0.19654594440E+03  0.24961792849E+03  0.12502642549E+03 0.  0.
          5    1    3    3  502    0  0.26730289176E+02  0.44607695514E+02  0.24546825363E+03  0.25096037217E+03  0.47000000000E+01 0.  1.
         -5    1    3    3    0  502 -0.15309146691E+00  0.41071050127E+02  0.32087555641E+01  0.41463727616E+02  0.47000000000E+01 0.  1.
          5    1    4    4  503    0  0.27214419104E+02 -0.78492434734E+02  0.16945096224E+03  0.18877872105E+03  0.47000000000E+01 0. -1.
         -5    1    4    4    0  503 -0.53791616813E+02 -0.71863109069E+01  0.27094982164E+02  0.60839207443E+02  0.47000000000E+01 0. -1.
<mgrwt>
<rscale>  0 0.15387333E+03</rscale>
<asrwt>0</asrwt>
<pdfrwt beam="2">  1        5 0.74476218E-02 0.15387918E+03</pdfrwt>
<pdfrwt beam="1">  1       -5 0.75943453E-01 0.15387918E+03</pdfrwt>
<totfact> 0.15210589E+02</totfact>
</mgrwt>
</event>
<event>
 8    1  0.3763376E-007  0.1578755E+03  0.7546771E-02  0.1191117E+00
          5   -1    0    0  501    0  0.00000000000E+00  0.00000000000E+00  0.10706086215E+03  0.10716397811E+03  0.47000000000E+01 0. -1.
         -5   -1    0    0    0  501 -0.00000000000E+00 -0.00000000000E+00 -0.23832252147E+03  0.23836886173E+03  0.47000000000E+01 0. -1.
         25    2    1    2    0    0 -0.35427285097E+02 -0.89693639085E+02 -0.38792146812E+02  0.16257150548E+03  0.12499848926E+03 0.  0.
         25    2    1    2    0    0  0.35427285097E+02  0.89693639085E+02 -0.92469512512E+02  0.18296133436E+03  0.12499679078E+03 0.  0.
          5    1    4    4  502    0  0.93711323980E+01  0.11441865087E+03 -0.91233033050E+02  0.14671401470E+03  0.47000000000E+01 0. -1.
         -5    1    4    4    0  502  0.26056152699E+02 -0.24725011784E+02 -0.12364794624E+01  0.36247319661E+02  0.47000000000E+01 0. -1.
          5    1    3    3  503    0 -0.15680255938E+02 -0.11967243480E+03 -0.22475461355E+02  0.12286007667E+03  0.47000000000E+01 0.  1.
         -5    1    3    3    0  503 -0.19747029159E+02  0.29978795715E+02 -0.16316685458E+02  0.39711428802E+02  0.47000000000E+01 0.  1.
<mgrwt>
<rscale>  0 0.15787513E+03</rscale>
<asrwt>0</asrwt>
<pdfrwt beam="1">  1        5 0.16482399E-01 0.15787547E+03</pdfrwt>
<pdfrwt beam="2">  1       -5 0.36676500E-01 0.15787547E+03</pdfrwt>
<totfact> 0.18020784E+02</totfact>
</mgrwt>
</event>
<event>
 8    1  0.3763376E-007  0.1705143E+03  0.7546771E-02  0.1177320E+00
         -5   -1    0    0    0  501 -0.00000000000E+00  0.00000000000E+00  0.99076649649E+02  0.99188066347E+02  0.47000000000E+01 0.  1.
          5   -1    0    0  501    0  0.00000000000E+00 -0.00000000000E+00 -0.30694039566E+03  0.30697637773E+03  0.47000000000E+01 0.  1.
         25    2    1    2    0    0 -0.10726199569E+03  0.43978372810E+02 -0.60840160659E+02  0.18101766146E+03  0.12500654230E+03 0.  0.
         25    2    1    2    0    0  0.10726199569E+03 -0.43978372810E+02 -0.14702358535E+03  0.22514678262E+03  0.12504361671E+03 0.  0.
          5    1    3    3  502    0 -0.20165485416E+02  0.64821728645E+01 -0.81088569107E+02  0.83941118690E+02  0.47000000000E+01 0.  1.
         -5    1    3    3    0  502 -0.87096510273E+02  0.37496199946E+02  0.20248408448E+02  0.97076542773E+02  0.47000000000E+01 0.  1.
          5    1    4    4  503    0  0.34432731323E+02 -0.10786750492E+02 -0.14001611042E+03  0.14466709422E+03  0.47000000000E+01 0. -1.
         -5    1    4    4    0  503  0.72829264366E+02 -0.33191622318E+02 -0.70074749313E+01  0.80479688401E+02  0.47000000000E+01 0. -1.
<mgrwt>
<rscale>  0 0.17050754E+03</rscale>
<asrwt>0</asrwt>
<pdfrwt beam="2">  1        5 0.47232937E-01 0.17051434E+03</pdfrwt>
<pdfrwt beam="1">  1       -5 0.15253900E-01 0.17051434E+03</pdfrwt>
<totfact> 0.12605691E+02</totfact>
</mgrwt>
</event>
<event>
 8    1  0.3763376E-007  0.1476320E+03  0.7546771E-02  0.1203414E+00
         -5   -1    0    0    0  501 -0.00000000000E+00  0.00000000000E+00  0.17578614441E+03  0.17584896521E+03  0.47000000000E+01 0. -1.
          5   -1    0    0  501    0  0.00000000000E+00 -0.00000000000E+00 -0.13174814379E+03  0.13183195133E+03  0.47000000000E+01 0. -1.
         25    2    1    2    0    0  0.65723757516E+02 -0.43012279324E+02  0.59650696263E+02  0.15922756437E+03  0.12500217284E+03 0.  0.
         25    2    1    2    0    0 -0.65723757516E+02  0.43012279324E+02 -0.15612695646E+02  0.14845335218E+03  0.12499989214E+03 0.  0.
          5    1    4    4  502    0 -0.79012982645E+02 -0.20732869494E+02 -0.14875525779E+02  0.83164142340E+02  0.47000000000E+01 0.  1.
         -5    1    4    4    0  502  0.13289225129E+02  0.63745148818E+02 -0.73716986643E+00  0.65289209842E+02  0.47000000000E+01 0.  1.
          5    1    3    3  503    0  0.73558455428E+02 -0.73557134819E+02  0.70269149866E+02  0.12562381092E+03  0.47000000000E+01 0.  1.
         -5    1    3    3    0  503 -0.78346979126E+01  0.30544855495E+02 -0.10618453603E+02  0.33603753444E+02  0.47000000000E+01 0.  1.
<mgrwt>
<rscale>  0 0.14763153E+03</rscale>
<asrwt>0</asrwt>
<pdfrwt beam="2">  1        5 0.20280224E-01 0.14763201E+03</pdfrwt>
<pdfrwt beam="1">  1       -5 0.27055301E-01 0.14763201E+03</pdfrwt>
<totfact> 0.21932195E+02</totfact>
</mgrwt>
</event>
<event>
 8    1  0.3763376E-007  0.1484415E+03  0.7546771E-02  0.1202405E+00
         -5   -1    0    0    0  501 -0.00000000000E+00  0.00000000000E+00  0.36540481005E+02  0.36841508548E+02  0.47000000000E+01 0. -1.
          5   -1    0    0  501    0  0.00000000000E+00 -0.00000000000E+00 -0.60251641142E+03  0.60253474259E+03  0.47000000000E+01 0. -1.
         25    2    1    2    0    0  0.15432829276E+02 -0.78557192679E+02 -0.30282988527E+03  0.33725483512E+03  0.12500191862E+03 0.  0.
         25    2    1    2    0    0 -0.15432829276E+02  0.78557192679E+02 -0.26314604515E+03  0.30212141602E+03  0.12498841627E+03 0.  0.
          5    1    3    3  502    0 -0.45721539498E+02 -0.73452630487E+02 -0.16739286182E+03  0.18848927898E+03  0.47000000000E+01 0. -1.
         -5    1    3    3    0  502  0.61154368774E+02 -0.51045621915E+01 -0.13543702344E+03  0.14876555614E+03  0.47000000000E+01 0. -1.
          5    1    4    4  503    0 -0.24974988124E+02  0.11121534660E+03 -0.20281722633E+03  0.23270049560E+03  0.47000000000E+01 0.  1.
         -5    1    4    4    0  503  0.95421588481E+01 -0.32658153926E+02 -0.60328818817E+02  0.69420920429E+02  0.47000000000E+01 0.  1.
<mgrwt>
<rscale>  0 0.14843868E+03</rscale>
<asrwt>0</asrwt>
<pdfrwt beam="2">  1        5 0.92719391E-01 0.14844152E+03</pdfrwt>
<pdfrwt beam="1">  1       -5 0.56461790E-02 0.14844152E+03</pdfrwt>
<totfact> 0.15054246E+02</totfact>
</mgrwt>
</event>
<event>
 8    1  0.3763376E-007  0.1498317E+03  0.7546771E-02  0.1200684E+00
          5   -1    0    0  501    0  0.00000000000E+00  0.00000000000E+00  0.26236503604E+03  0.26240713050E+03  0.47000000000E+01 0. -1.
         -5   -1    0    0    0  501 -0.00000000000E+00 -0.00000000000E+00 -0.86386452744E+02  0.86514213963E+02  0.47000000000E+01 0. -1.
         25    2    1    2    0    0 -0.81333710558E+02  0.14435431859E+02  0.69794817298E+02  0.16527891103E+03  0.12498899050E+03 0.  0.
         25    2    1    2    0    0  0.81333710558E+02 -0.14435431859E+02  0.10618376600E+03  0.18364243343E+03  0.12500398805E+03 0.  0.
          5    1    4    4  502    0  0.87897975441E+02 -0.56591682171E+02  0.60144566591E+02  0.12069851477E+03  0.47000000000E+01 0. -1.
         -5    1    4    4    0  502 -0.65642648834E+01  0.42156250312E+02  0.46039199409E+02  0.62943918658E+02  0.47000000000E+01 0. -1.
          5    1    3    3  503    0 -0.10026224237E+03  0.62705153828E+01  0.90673525438E+01  0.10097595501E+03  0.47000000000E+01 0.  1.
         -5    1    3    3    0  503  0.18928531814E+02  0.81649164766E+01  0.60727464754E+02  0.64302956022E+02  0.47000000000E+01 0.  1.
<mgrwt>
<rscale>  0 0.14982861E+03</rscale>
<asrwt>0</asrwt>
<pdfrwt beam="1">  1        5 0.40376917E-01 0.14983174E+03</pdfrwt>
<pdfrwt beam="2">  1       -5 0.13303289E-01 0.14983174E+03</pdfrwt>
<totfact> 0.21473361E+02</totfact>
</mgrwt>
</event>
<event>
 8    1  0.3763376E-007  0.1295904E+03  0.7546771E-02  0.1228066E+00
         -5   -1    0    0    0  501 -0.00000000000E+00  0.00000000000E+00  0.17363534078E+03  0.17369893945E+03  0.47000000000E+01 0.  1.
          5   -1    0    0  501    0  0.00000000000E+00 -0.00000000000E+00 -0.99068112139E+02  0.99179538428E+02  0.47000000000E+01 0.  1.
         25    2    1    2    0    0  0.19811195940E+02  0.27859959768E+02  0.58896844029E+02  0.14234410724E+03  0.12499738311E+03 0.  0.
         25    2    1    2    0    0 -0.19811195940E+02 -0.27859959768E+02  0.15670384610E+02  0.13053437064E+03  0.12500000049E+03 0.  0.
          5    1    4    4  502    0  0.50829310639E+02 -0.75890876002E+01  0.23056179027E+02  0.56523362090E+02  0.47000000000E+01 0.  1.
         -5    1    4    4    0  502 -0.70640506578E+02 -0.20270872167E+02 -0.73857944176E+01  0.74011008554E+02  0.47000000000E+01 0.  1.
          5    1    3    3  503    0  0.71818828616E+02  0.28337322551E+02  0.36254455961E+02  0.85424958707E+02  0.47000000000E+01 0.  1.
         -5    1    3    3    0  503 -0.52007632676E+02 -0.47736278301E+00  0.22642388068E+02  0.56919148528E+02  0.47000000000E+01 0.  1.
<mgrwt>
<rscale>  0 0.12958973E+03</rscale>
<asrwt>0</asrwt>
<pdfrwt beam="2">  1        5 0.15254712E-01 0.12959036E+03</pdfrwt>
<pdfrwt beam="1">  1       -5 0.26726593E-01 0.12959036E+03</pdfrwt>
<totfact> 0.36264177E+02</totfact>
</mgrwt>
</event>
<event>
 8    1  0.3763376E-007  0.1381613E+03  0.7546771E-02  0.1215827E+00
         -5   -1    0    0    0  501 -0.00000000000E+00  0.00000000000E+00  0.20067527511E+02  0.20610571569E+02  0.47000000000E+01 0.  1.
          5   -1    0    0  501    0  0.00000000000E+00 -0.00000000000E+00 -0.95768443366E+03  0.95769596661E+03  0.47000000000E+01 0.  1.
         25    2    1    2    0    0  0.46805406618E+02 -0.35658351749E+02 -0.39856054223E+03  0.42182820895E+03  0.12500507150E+03 0.  0.
         25    2    1    2    0    0 -0.46805406618E+02  0.35658351749E+02 -0.53905636391E+03  0.55647832923E+03  0.12499641313E+03 0.  0.
          5    1    3    3  502    0  0.18900077020E+01  0.28716078855E+02 -0.26678266820E+03  0.26837150997E+03  0.47000000000E+01 0.  1.
         -5    1    3    3    0  502  0.44915398916E+02 -0.64374430603E+02 -0.13177787404E+03  0.15345669898E+03  0.47000000000E+01 0.  1.
          5    1    4    4  503    0 -0.88610962095E+02  0.11124295682E+02 -0.35383487399E+03  0.36496145085E+03  0.47000000000E+01 0.  1.
         -5    1    4    4    0  503  0.41805555477E+02  0.24534056067E+02 -0.18522148992E+03  0.19151687838E+03  0.47000000000E+01 0.  1.
<mgrwt>
<rscale>  0 0.13815930E+03</rscale>
<asrwt>0</asrwt>
<pdfrwt beam="2">  1        5 0.14737869E+00 0.13816125E+03</pdfrwt>
<pdfrwt beam="1">  1       -5 0.31299724E-02 0.13816125E+03</pdfrwt>
<totfact> 0.11985570E+02</totfact>
</mgrwt>
</event>
<event>
 8    1  0.3763376E-007  0.1273363E+03  0.7546771E-02  0.1231463E+00
         -5   -1    0    0    0  501 -0.00000000000E+00  0.00000000000E+00  0.16313165469E+02  0.16976730180E+02  0.47000000000E+01 0. -1.
          5   -1    0    0  501    0  0.00000000000E+00 -0.00000000000E+00 -0.10018310976E+04  0.10018421223E+04  0.47000000000E+01 0. -1.
         25    2    1    2    0    0 -0.14426140413E+02 -0.19543004161E+02 -0.40707221434E+03  0.42652353284E+03  0.12499797534E+03 0.  0.
         25    2    1    2    0    0  0.14426140413E+02  0.19543004161E+02 -0.57844571778E+03  0.59229531968E+03  0.12499701900E+03 0.  0.
          5    1    4    4  502    0 -0.32334606421E+02 -0.89594796862E+01 -0.46587469285E+02  0.57604525369E+02  0.47000000000E+01 0. -1.
         -5    1    4    4    0  502  0.46760746834E+02  0.28502483847E+02 -0.53185824850E+03  0.53469079432E+03  0.47000000000E+01 0. -1.
          5    1    3    3  503    0  0.55307642349E+02 -0.34971575523E+01 -0.18033254482E+03  0.18871428704E+03  0.47000000000E+01 0.  1.
         -5    1    3    3    0  503 -0.69733782762E+02 -0.16045846609E+02 -0.22673966952E+03  0.23780924580E+03  0.47000000000E+01 0.  1.
<mgrwt>
<rscale>  0 0.12733608E+03</rscale>
<asrwt>0</asrwt>
<pdfrwt beam="2">  1        5 0.15417971E+00 0.12733631E+03</pdfrwt>
<pdfrwt beam="1">  1       -5 0.25616101E-02 0.12733631E+03</pdfrwt>
<totfact> 0.14250822E+02</totfact>
</mgrwt>
</event>
<event>
 8    1  0.3763376E-007  0.1403417E+03  0.7546771E-02  0.1212870E+00
         -5   -1    0    0    0  501 -0.00000000000E+00  0.00000000000E+00  0.77198422913E+03  0.77199853628E+03  0.47000000000E+01 0.  1.
          5   -1    0    0  501    0  0.00000000000E+00 -0.00000000000E+00 -0.26585606340E+02  0.26997860369E+02  0.47000000000E+01 0.  1.
         25    2    1    2    0    0 -0.58908247697E+02  0.24518460237E+02  0.46044342228E+03  0.48135624196E+03  0.12499740001E+03 0.  0.
         25    2    1    2    0    0  0.58908247697E+02 -0.24518460237E+02  0.28495520051E+03  0.31764015469E+03  0.12499786014E+03 0.  0.
          5    1    4    4  502    0  0.63126984789E+02 -0.52342984166E+02  0.95138444462E+02  0.12569096155E+03  0.47000000000E+01 0. -1.
         -5    1    4    4    0  502 -0.42187370928E+01  0.27824523928E+02  0.18981675604E+03  0.19194919315E+03  0.47000000000E+01 0. -1.
          5    1    3    3  503    0 -0.62969454834E+01 -0.49104863945E+02  0.16266468550E+03  0.17009652875E+03  0.47000000000E+01 0. -1.
         -5    1    3    3    0  503 -0.52611302213E+02  0.73623324182E+02  0.29777873679E+03  0.31125971321E+03  0.47000000000E+01 0. -1.
<mgrwt>
<rscale>  0 0.14034163E+03</rscale>
<asrwt>0</asrwt>
<pdfrwt beam="2">  1        5 0.41229058E-02 0.14034173E+03</pdfrwt>
<pdfrwt beam="1">  1       -5 0.11879961E+00 0.14034173E+03</pdfrwt>
<totfact> 0.13528993E+02</totfact>
</mgrwt>
</event>
<event>
 8    1  0.3763376E-007  0.1558747E+03  0.7546771E-02  0.1193443E+00
         -5   -1    0    0    0  501 -0.00000000000E+00  0.00000000000E+00  0.11104578919E+02  0.12058261606E+02  0.47000000000E+01 0.  1.
          5   -1    0    0  501    0  0.00000000000E+00 -0.00000000000E+00 -0.20969061445E+04  0.20969114118E+04  0.47000000000E+01 0.  1.
         25    2    1    2    0    0 -0.92997881110E+02  0.37668636501E+01 -0.10294121479E+04  0.10411466209E+04  0.12503647763E+03 0.  0.
         25    2    1    2    0    0  0.92997881110E+02 -0.37668636501E+01 -0.10563894176E+04  0.10678230525E+04  0.12499869820E+03 0.  0.
          5    1    3    3  502    0 -0.76834678386E+02  0.36135326089E+02 -0.94949664372E+03  0.95329706599E+03  0.47000000000E+01 0. -1.
         -5    1    3    3    0  502 -0.16163202724E+02 -0.32368462439E+02 -0.79915504205E+02  0.87849554895E+02  0.47000000000E+01 0. -1.
          5    1    4    4  503    0  0.78103989316E+02 -0.53383424101E+02 -0.83742680076E+03  0.84276672914E+03  0.47000000000E+01 0. -1.
         -5    1    4    4    0  503  0.14893891794E+02  0.49616560451E+02 -0.21896261687E+03  0.22505632333E+03  0.47000000000E+01 0. -1.
<mgrwt>
<rscale>  0 0.15586710E+03</rscale>
<asrwt>0</asrwt>
<pdfrwt beam="2">  1        5 0.32267441E+00 0.15587468E+03</pdfrwt>
<pdfrwt beam="1">  1       -5 0.17821638E-02 0.15587468E+03</pdfrwt>
<totfact> 0.20583528E+01</totfact>
</mgrwt>
</event>
<event>
 8    1  0.3763376E-007  0.1253402E+03  0.7546771E-02  0.1234542E+00
          5   -1    0    0  501    0  0.00000000000E+00  0.00000000000E+00  0.28356193318E+03  0.28360088143E+03  0.47000000000E+01 0. -1.
         -5   -1    0    0    0  501 -0.00000000000E+00 -0.00000000000E+00 -0.59932048610E+02  0.60116058176E+02  0.47000000000E+01 0. -1.
         25    2    1    2    0    0 -0.60562575777E+01 -0.69240012425E+01  0.63902947843E+02  0.14068282398E+03  0.12499380053E+03 0.  0.
         25    2    1    2    0    0  0.60562575777E+01  0.69240012425E+01  0.15972693673E+03  0.20303411563E+03  0.12500215096E+03 0.  0.
          5    1    4    4  502    0  0.47666177949E+02  0.40554735755E+02  0.47806220599E+02  0.78894079881E+02  0.47000000000E+01 0.  1.
         -5    1    4    4    0  502 -0.41609920371E+02 -0.33630734513E+02  0.11192071613E+03  0.12414003575E+03  0.47000000000E+01 0.  1.
          5    1    3    3  503    0 -0.61053205247E+02 -0.12390030474E+02  0.57391693618E+02  0.84834563843E+02  0.47000000000E+01 0.  1.
         -5    1    3    3    0  503  0.54996947669E+02  0.54660292313E+01  0.65112542245E+01  0.55848260134E+02  0.47000000000E+01 0.  1.
<mgrwt>
<rscale>  0 0.12533809E+03</rscale>
<asrwt>0</asrwt>
<pdfrwt beam="1">  1        5 0.43642064E-01 0.12534017E+03</pdfrwt>
<pdfrwt beam="2">  1       -5 0.92374656E-02 0.12534017E+03</pdfrwt>
<totfact> 0.32689163E+02</totfact>
</mgrwt>
</event>
<event>
 8    1  0.3763376E-007  0.2080222E+03  0.7546771E-02  0.1143142E+00
          5   -1    0    0  501    0  0.00000000000E+00  0.00000000000E+00  0.23333538548E+03  0.23338271597E+03  0.47000000000E+01 0.  1.
         -5   -1    0    0    0  501 -0.00000000000E+00 -0.00000000000E+00 -0.18858500766E+03  0.18864356632E+03  0.47000000000E+01 0.  1.
         25    2    1    2    0    0 -0.10252482112E+03  0.13090792205E+03 -0.52178228740E+01  0.20808686847E+03  0.12499878460E+03 0.  0.
         25    2    1    2    0    0  0.10252482112E+03 -0.13090792205E+03  0.49968200693E+02  0.21393941383E+03  0.12500011483E+03 0.  0.
          5    1    4    4  502    0  0.10865200603E+03 -0.47005354555E+02  0.52628336793E+02  0.12964024686E+03  0.47000000000E+01 0. -1.
         -5    1    4    4    0  502 -0.61271849129E+01 -0.83902567498E+02 -0.26601361002E+01  0.84299166970E+02  0.47000000000E+01 0. -1.
          5    1    3    3  503    0 -0.12409453397E+03  0.81048379833E+02  0.16884231983E+02  0.14924965837E+03  0.47000000000E+01 0. -1.
         -5    1    3    3    0  503  0.21569712850E+02  0.49859542220E+02 -0.22102054857E+02  0.58837210095E+02  0.47000000000E+01 0. -1.
<mgrwt>
<rscale>  0 0.20802204E+03</rscale>
<asrwt>0</asrwt>
<pdfrwt beam="1">  1        5 0.35905897E-01 0.20802224E+03</pdfrwt>
<pdfrwt beam="2">  1       -5 0.29021223E-01 0.20802224E+03</pdfrwt>
<totfact> 0.69690307E+01</totfact>
</mgrwt>
</event>
<event>
 8    1  0.3763376E-007  0.1327796E+03  0.7546771E-02  0.1223391E+00
          5   -1    0    0  501    0  0.00000000000E+00  0.00000000000E+00  0.82761497596E+03  0.82762832143E+03  0.47000000000E+01 0.  1.
         -5   -1    0    0    0  501 -0.00000000000E+00 -0.00000000000E+00 -0.24270714493E+02  0.24721601526E+02  0.47000000000E+01 0.  1.
         25    2    1    2    0    0  0.10438321909E+02 -0.43547307772E+02  0.24749765796E+03  0.28086565160E+03  0.12500038791E+03 0.  0.
         25    2    1    2    0    0 -0.10438321909E+02  0.43547307772E+02  0.55584660350E+03  0.57148427135E+03  0.12499399662E+03 0.  0.
          5    1    4    4  502    0  0.52785775445E+02  0.14916294184E+02  0.15140228286E+03  0.16110113338E+03  0.47000000000E+01 0.  1.
         -5    1    4    4    0  502 -0.63224097354E+02  0.28631013588E+02  0.40444432064E+03  0.41038313796E+03  0.47000000000E+01 0.  1.
          5    1    3    3  503    0 -0.49037576267E+02  0.10121683483E+02  0.71277869186E+02  0.87233921145E+02  0.47000000000E+01 0. -1.
         -5    1    3    3    0  503  0.59475898175E+02 -0.53668991255E+02  0.17621978877E+03  0.19363173046E+03  0.47000000000E+01 0. -1.
<mgrwt>
<rscale>  0 0.13277810E+03</rscale>
<asrwt>0</asrwt>
<pdfrwt beam="1">  1        5 0.12736109E+00 0.13277961E+03</pdfrwt>
<pdfrwt beam="2">  1       -5 0.37696662E-02 0.13277961E+03</pdfrwt>
<totfact> 0.12873718E+02</totfact>
</mgrwt>
</event>
<event>
 8    1  0.3763376E-007  0.1419146E+03  0.7546771E-02  0.1210776E+00
         -5   -1    0    0    0  501 -0.00000000000E+00  0.00000000000E+00  0.26886708511E+03  0.26890816175E+03  0.47000000000E+01 0.  1.
          5   -1    0    0  501    0  0.00000000000E+00 -0.00000000000E+00 -0.75506005837E+02  0.75652144169E+02  0.47000000000E+01 0.  1.
         25    2    1    2    0    0 -0.66683450246E+02  0.82530672853E+01  0.11349994764E+03  0.18171950313E+03  0.12499977619E+03 0.  0.
         25    2    1    2    0    0  0.66683450246E+02 -0.82530672853E+01  0.79861131631E+02  0.16284080279E+03  0.12499812419E+03 0.  0.
          5    1    4    4  502    0  0.10014798885E+03  0.27262818071E+01  0.36383082729E+02  0.10669053844E+03  0.47000000000E+01 0. -1.
         -5    1    4    4    0  502 -0.33464538604E+02 -0.10979349092E+02  0.43478048903E+02  0.56150264353E+02  0.47000000000E+01 0. -1.
          5    1    3    3  503    0  0.32389646583E+02 -0.82816091850E+01  0.57355035648E+02  0.66553470013E+02  0.47000000000E+01 0. -1.
         -5    1    3    3    0  503 -0.99073096829E+02  0.16534676470E+02  0.56144911996E+02  0.11516603312E+03  0.47000000000E+01 0. -1.
<mgrwt>
<rscale>  0 0.14191419E+03</rscale>
<asrwt>0</asrwt>
<pdfrwt beam="2">  1        5 0.11630710E-01 0.14191455E+03</pdfrwt>
<pdfrwt beam="1">  1       -5 0.41378568E-01 0.14191455E+03</pdfrwt>
<totfact> 0.25470676E+02</totfact>
</mgrwt>
</event>
<event>
 8    1  0.3763376E-007  0.1362195E+03  0.7546771E-02  0.1218509E+00
         -5   -1    0    0    0  501 -0.00000000000E+00  0.00000000000E+00  0.13020100543E+03  0.13028580818E+03  0.47000000000E+01 0.  1.
          5   -1    0    0  501    0  0.00000000000E+00 -0.00000000000E+00 -0.15523576200E+03  0.15530689555E+03  0.47000000000E+01 0.  1.
         25    2    1    2    0    0 -0.53381527514E+02  0.89987177985E+01  0.28611933990E+02  0.13919011683E+03  0.12499872582E+03 0.  0.
         25    2    1    2    0    0  0.53381527514E+02 -0.89987177985E+01 -0.53646690566E+02  0.14640258690E+03  0.12500074256E+03 0.  0.
          5    1    4    4  502    0 -0.11489845350E+02  0.20150558159E+02  0.28892377367E+02  0.37348641344E+02  0.47000000000E+01 0.  1.
         -5    1    4    4    0  502  0.64871372864E+02 -0.29149275958E+02 -0.82539067933E+02  0.10905394556E+03  0.47000000000E+01 0.  1.
          5    1    3    3  503    0 -0.84825356145E+02  0.89160102100E+01  0.51744341966E+02  0.99871934038E+02  0.47000000000E+01 0. -1.
         -5    1    3    3    0  503  0.31443828631E+02  0.82707588582E-01 -0.23132407975E+02  0.39318182794E+02  0.47000000000E+01 0. -1.
<mgrwt>
<rscale>  0 0.13621903E+03</rscale>
<asrwt>0</asrwt>
<pdfrwt beam="2">  1        5 0.23894420E-01 0.13621949E+03</pdfrwt>
<pdfrwt beam="1">  1       -5 0.20042919E-01 0.13621949E+03</pdfrwt>
<totfact> 0.27702392E+02</totfact>
</mgrwt>
</event>
<event>
 8    1  0.3763376E-007  0.1512342E+03  0.7546771E-02  0.1198965E+00
          5   -1    0    0  501    0  0.00000000000E+00  0.00000000000E+00  0.12998716205E+03  0.13007210422E+03  0.47000000000E+01 0.  1.
         -5   -1    0    0    0  501 -0.00000000000E+00 -0.00000000000E+00 -0.36105304312E+03  0.36108363290E+03  0.47000000000E+01 0.  1.
         25    2    1    2    0    0  0.71302058071E+02 -0.46498424043E+02 -0.29141951295E+03  0.32832349331E+03  0.12499958724E+03 0.  0.
         25    2    1    2    0    0 -0.71302058071E+02  0.46498424043E+02  0.60353631870E+02  0.16283224381E+03  0.12500276725E+03 0.  0.
          5    1    3    3  502    0  0.81305285341E+02 -0.77089449698E+02 -0.25976355701E+03  0.28293555490E+03  0.47000000000E+01 0.  1.
         -5    1    3    3    0  502 -0.10003227269E+02  0.30591025656E+02 -0.31655955940E+02  0.45387938408E+02  0.47000000000E+01 0.  1.
          5    1    4    4  503    0 -0.82009369454E+02 -0.71148524197E+01  0.16397028029E+01  0.82467790248E+02  0.47000000000E+01 0.  1.
         -5    1    4    4    0  503  0.10707311383E+02  0.53613276462E+02  0.58713929067E+02  0.80364453564E+02  0.47000000000E+01 0.  1.
<mgrwt>
<rscale>  0 0.15123353E+03</rscale>
<asrwt>0</asrwt>
<pdfrwt beam="1">  1        5 0.20006912E-01 0.15123419E+03</pdfrwt>
<pdfrwt beam="2">  1       -5 0.55555509E-01 0.15123419E+03</pdfrwt>
<totfact> 0.52148169E+01</totfact>
</mgrwt>
</event>
<event>
 8    1  0.3763376E-007  0.1385262E+03  0.7546771E-02  0.1215329E+00
          5   -1    0    0  501    0  0.00000000000E+00  0.00000000000E+00  0.15542423820E+03  0.15549528553E+03  0.47000000000E+01 0.  1.
         -5   -1    0    0    0  501 -0.00000000000E+00 -0.00000000000E+00 -0.16258758230E+03  0.16265550073E+03  0.47000000000E+01 0.  1.
         25    2    1    2    0    0  0.12803185598E+02 -0.58301488926E+02 -0.81729812828E+02  0.16083926112E+03  0.12500608161E+03 0.  0.
         25    2    1    2    0    0 -0.12803185598E+02  0.58301488926E+02  0.74566468733E+02  0.15731152514E+03  0.12499508995E+03 0.  0.
          5    1    3    3  502    0 -0.27392979860E+02 -0.82520750524E+02 -0.33263925236E+02  0.93212812074E+02  0.47000000000E+01 0.  1.
         -5    1    3    3    0  502  0.40196165458E+02  0.24219261598E+02 -0.48465887593E+02  0.67626449042E+02  0.47000000000E+01 0.  1.
          5    1    4    4  503    0  0.57553245860E+01 -0.72474003444E+01 -0.30379854216E+02  0.32104113678E+02  0.47000000000E+01 0.  1.
         -5    1    4    4    0  503 -0.18558510184E+02  0.65548889271E+02  0.10494632295E+03  0.12520741146E+03  0.47000000000E+01 0.  1.
<mgrwt>
<rscale>  0 0.13852371E+03</rscale>
<asrwt>0</asrwt>
<pdfrwt beam="1">  1        5 0.23922111E-01 0.13852619E+03</pdfrwt>
<pdfrwt beam="2">  1       -5 0.25024164E-01 0.13852619E+03</pdfrwt>
<totfact> 0.18269747E+02</totfact>
</mgrwt>
</event>
<event>
 8    1  0.3763376E-007  0.1346845E+03  0.7546771E-02  0.1220668E+00
         -5   -1    0    0    0  501 -0.00000000000E+00  0.00000000000E+00  0.36017910027E+03  0.36020976427E+03  0.47000000000E+01 0. -1.
          5   -1    0    0  501    0  0.00000000000E+00 -0.00000000000E+00 -0.52027399785E+02  0.52239260412E+02  0.47000000000E+01 0. -1.
         25    2    1    2    0    0 -0.11730643272E+02 -0.48750919270E+02  0.19243674553E+03  0.23488251615E+03  0.12499454085E+03 0.  0.
         25    2    1    2    0    0  0.11730643272E+02  0.48750919270E+02  0.11571495496E+03  0.17756650853E+03  0.12500261609E+03 0.  0.
          5    1    3    3  502    0  0.40888790180E+02 -0.16216809932E+02  0.15767826759E+03  0.16376630959E+03  0.47000000000E+01 0. -1.
         -5    1    3    3    0  502 -0.52619433452E+02 -0.32534109338E+02  0.34758477941E+02  0.71116206563E+02  0.47000000000E+01 0. -1.
          5    1    4    4  503    0  0.38250990798E+02  0.65523423072E+02  0.22768128334E+02  0.79353228895E+02  0.47000000000E+01 0. -1.
         -5    1    4    4    0  503 -0.26520347526E+02 -0.16772503802E+02  0.92946826626E+02  0.98213279634E+02  0.47000000000E+01 0. -1.
<mgrwt>
<rscale>  0 0.13468262E+03</rscale>
<asrwt>0</asrwt>
<pdfrwt beam="2">  1        5 0.80228713E-02 0.13468450E+03</pdfrwt>
<pdfrwt beam="1">  1       -5 0.55430824E-01 0.13468450E+03</pdfrwt>
<totfact> 0.25808036E+02</totfact>
</mgrwt>
</event>
<event>
 8    1  0.3763376E-007  0.1722431E+03  0.7546771E-02  0.1175529E+00
         -5   -1    0    0    0  501 -0.00000000000E+00  0.00000000000E+00  0.35317623411E+03  0.35320750606E+03  0.47000000000E+01 0.  1.
          5   -1    0    0  501    0  0.00000000000E+00 -0.00000000000E+00 -0.11223458541E+03  0.11233295226E+03  0.47000000000E+01 0.  1.
         25    2    1    2    0    0  0.55068431320E+02 -0.10493018144E+03  0.23734801884E+03  0.29326057808E+03  0.12499923800E+03 0.  0.
         25    2    1    2    0    0 -0.55068431320E+02  0.10493018144E+03  0.35936298503E+01  0.17227988024E+03  0.12499827141E+03 0.  0.
          5    1    3    3  502    0  0.86039854180E+02 -0.82781804452E+02  0.11814456379E+03  0.16803544748E+03  0.47000000000E+01 0. -1.
         -5    1    3    3    0  502 -0.30971422860E+02 -0.22148376986E+02  0.11920345505E+03  0.12522513060E+03  0.47000000000E+01 0. -1.
          5    1    4    4  503    0  0.98922575651E+01 -0.19520921254E+02  0.21061300139E+02  0.30734207162E+02  0.47000000000E+01 0. -1.
         -5    1    4    4    0  503 -0.64960688885E+02  0.12445110269E+03 -0.17467670288E+02  0.14154567308E+03  0.47000000000E+01 0. -1.
<mgrwt>
<rscale>  0 0.17224292E+03</rscale>
<asrwt>0</asrwt>
<pdfrwt beam="2">  1        5 0.17276831E-01 0.17224310E+03</pdfrwt>
<pdfrwt beam="1">  1       -5 0.54344778E-01 0.17224310E+03</pdfrwt>
<totfact> 0.74615864E+01</totfact>
</mgrwt>
</event>
<event>
 8    1  0.3763376E-007  0.1497223E+03  0.7546771E-02  0.1200819E+00
         -5   -1    0    0    0  501 -0.00000000000E+00  0.00000000000E+00  0.29413966992E+03  0.29417721771E+03  0.47000000000E+01 0.  1.
          5   -1    0    0  501    0  0.00000000000E+00 -0.00000000000E+00 -0.80770478106E+02  0.80907108052E+02  0.47000000000E+01 0.  1.
         25    2    1    2    0    0 -0.19076311625E+02 -0.80155261171E+02  0.15179257296E+03  0.21320825843E+03  0.12501201821E+03 0.  0.
         25    2    1    2    0    0  0.19076311625E+02  0.80155261171E+02  0.61576618853E+02  0.16187606734E+03  0.12499363835E+03 0.  0.
          5    1    4    4  502    0 -0.42971632187E+02 -0.39699851701E+01  0.73698803991E+01  0.44030978778E+02  0.47000000000E+01 0. -1.
         -5    1    4    4    0  502  0.62047943812E+02  0.84125246341E+02  0.54206738453E+02  0.11784508856E+03  0.47000000000E+01 0. -1.
          5    1    3    3  503    0  0.19306498350E+02  0.17827718315E+02 -0.20324594369E+01  0.26772921212E+02  0.47000000000E+01 0. -1.
         -5    1    3    3    0  503 -0.38382809976E+02 -0.97982979486E+02  0.15382503240E+03  0.18643533721E+03  0.47000000000E+01 0. -1.
<mgrwt>
<rscale>  0 0.14971849E+03</rscale>
<asrwt>0</asrwt>
<pdfrwt beam="2">  1        5 0.12439626E-01 0.14972233E+03</pdfrwt>
<pdfrwt beam="1">  1       -5 0.45265656E-01 0.14972233E+03</pdfrwt>
<totfact> 0.19104454E+02</totfact>
</mgrwt>
</event>
<event>
 8    1  0.3763376E-007  0.1291540E+03  0.7546771E-02  0.1228716E+00
         -5   -1    0    0    0  501 -0.00000000000E+00  0.00000000000E+00  0.15891294045E+03  0.15898242872E+03  0.47000000000E+01 0.  1.
          5   -1    0    0  501    0  0.00000000000E+00 -0.00000000000E+00 -0.10678711049E+03  0.10689049054E+03  0.47000000000E+01 0.  1.
         25    2    1    2    0    0  0.27725607142E+02 -0.16953833920E+02  0.44078420873E+02  0.13646840090E+03  0.12499830191E+03 0.  0.
         25    2    1    2    0    0 -0.27725607142E+02  0.16953833920E+02  0.80474090831E+01  0.12940451836E+03  0.12499850721E+03 0.  0.
          5    1    4    4  502    0  0.48420077100E+02 -0.69939235670E+01  0.47280101470E+01  0.49374719373E+02  0.47000000000E+01 0.  1.
         -5    1    4    4    0  502 -0.76145684242E+02  0.23947757487E+02  0.33193989361E+01  0.80029798992E+02  0.47000000000E+01 0.  1.
          5    1    3    3  503    0 -0.16009384136E+02 -0.17441250597E+02  0.77532771582E+02  0.81202944971E+02  0.47000000000E+01 0. -1.
         -5    1    3    3    0  503  0.43734991278E+02  0.48741667629E+00 -0.33454350710E+02  0.55265455924E+02  0.47000000000E+01 0. -1.
<mgrwt>
<rscale>  0 0.12915400E+03</rscale>
<asrwt>0</asrwt>
<pdfrwt beam="2">  1        5 0.16442084E-01 0.12915405E+03</pdfrwt>
<pdfrwt beam="1">  1       -5 0.24461442E-01 0.12915405E+03</pdfrwt>
<totfact> 0.37460242E+02</totfact>
</mgrwt>
</event>
<event>
 8    1  0.3763376E-007  0.1991199E+03  0.7546771E-02  0.1150490E+00
         -5   -1    0    0    0  501 -0.00000000000E+00  0.00000000000E+00  0.12555294956E+03  0.12564088961E+03  0.47000000000E+01 0.  1.
          5   -1    0    0  501    0  0.00000000000E+00 -0.00000000000E+00 -0.32195389462E+03  0.32198819894E+03  0.47000000000E+01 0.  1.
         25    2    1    2    0    0  0.12492927161E+03 -0.91664903067E+02 -0.66588802088E+02  0.20993193449E+03  0.12501028437E+03 0.  0.
         25    2    1    2    0    0 -0.12492927161E+03  0.91664903067E+02 -0.12981214297E+03  0.23769715406E+03  0.12505585643E+03 0.  0.
          5    1    4    4  502    0 -0.13656160674E+03  0.77403909226E+02 -0.14471594966E+03  0.21355381917E+03  0.47000000000E+01 0.  1.
         -5    1    4    4    0  502  0.11632335129E+02  0.14260993842E+02  0.14903806685E+02  0.24143334890E+02  0.47000000000E+01 0.  1.
          5    1    3    3  503    0 -0.20386115024E+02 -0.32984369635E+02  0.12933253861E+01  0.39081005828E+02  0.47000000000E+01 0. -1.
         -5    1    3    3    0  503  0.14531538663E+03 -0.58680533432E+02 -0.67882127474E+02  0.17085092867E+03  0.47000000000E+01 0. -1.
<mgrwt>
<rscale>  0 0.19911277E+03</rscale>
<asrwt>0</asrwt>
<pdfrwt beam="2">  1        5 0.49540772E-01 0.19911993E+03</pdfrwt>
<pdfrwt beam="1">  1       -5 0.19325242E-01 0.19911993E+03</pdfrwt>
<totfact> 0.76976271E+01</totfact>
</mgrwt>
</event>
<event>
 8    1  0.3763376E-007  0.2054928E+03  0.7546771E-02  0.1145186E+00
         -5   -1    0    0    0  501 -0.00000000000E+00  0.00000000000E+00  0.11117104476E+04  0.11117203827E+04  0.47000000000E+01 0. -1.
          5   -1    0    0  501    0  0.00000000000E+00 -0.00000000000E+00 -0.47902022083E+02  0.48132044623E+02  0.47000000000E+01 0. -1.
         25    2    1    2    0    0  0.91623532658E+02  0.13493178554E+03  0.79710893070E+03  0.82317065362E+03  0.12500327632E+03 0.  0.
         25    2    1    2    0    0 -0.91623532658E+02 -0.13493178554E+03  0.26669949478E+03  0.33668177366E+03  0.12499815086E+03 0.  0.
          5    1    3    3  502    0 -0.11427975267E+02  0.75960164109E+02  0.19879405167E+03  0.21317061272E+03  0.47000000000E+01 0.  1.
         -5    1    3    3    0  502  0.10305150792E+03  0.58971621428E+02  0.59831487904E+03  0.61000004090E+03  0.47000000000E+01 0.  1.
          5    1    4    4  503    0  0.53920751308E+01 -0.36174935210E+02  0.15328160825E+03  0.15765481864E+03  0.47000000000E+01 0.  1.
         -5    1    4    4    0  503 -0.97015607789E+02 -0.98756850327E+02  0.11341788652E+03  0.17902695502E+03  0.47000000000E+01 0.  1.
<mgrwt>
<rscale>  0 0.20549199E+03</rscale>
<asrwt>0</asrwt>
<pdfrwt beam="2">  1        5 0.73879992E-02 0.20549277E+03</pdfrwt>
<pdfrwt beam="1">  1       -5 0.17105086E+00 0.20549277E+03</pdfrwt>
<totfact> 0.21026155E+01</totfact>
</mgrwt>
</event>
<event>
 8    1  0.3763376E-007  0.1326252E+03  0.7546771E-02  0.1223612E+00
          5   -1    0    0  501    0  0.00000000000E+00  0.00000000000E+00  0.26384884662E+02  0.26800226466E+02  0.47000000000E+01 0.  1.
         -5   -1    0    0    0  501 -0.00000000000E+00 -0.00000000000E+00 -0.66206740274E+03  0.66208408513E+03  0.47000000000E+01 0.  1.
         25    2    1    2    0    0 -0.38529453171E+02 -0.21874154972E+02 -0.30405975404E+03  0.33172454551E+03  0.12500337055E+03 0.  0.
         25    2    1    2    0    0  0.38529453171E+02  0.21874154972E+02 -0.33162276405E+03  0.35715976609E+03  0.12500577370E+03 0.  0.
          5    1    3    3  502    0 -0.75018280690E+02 -0.23481550277E+02 -0.11672501223E+03  0.14080463103E+03  0.47000000000E+01 0.  1.
         -5    1    3    3    0  502  0.36488827519E+02  0.16073953054E+01 -0.18733474181E+03  0.19091991447E+03  0.47000000000E+01 0.  1.
          5    1    4    4  503    0 -0.30163110057E+02 -0.25936823668E+02 -0.17489047532E+03  0.17941934230E+03  0.47000000000E+01 0.  1.
         -5    1    4    4    0  503  0.68692563228E+02  0.47810978640E+02 -0.15673228872E+03  0.17774042379E+03  0.47000000000E+01 0.  1.
<mgrwt>
<rscale>  0 0.13262462E+03</rscale>
<asrwt>0</asrwt>
<pdfrwt beam="1">  1        5 0.40924461E-02 0.13262519E+03</pdfrwt>
<pdfrwt beam="2">  1       -5 0.10188974E+00 0.13262519E+03</pdfrwt>
<totfact> 0.19699355E+02</totfact>
</mgrwt>
</event>
<event>
 8    1  0.3763376E-007  0.1349495E+03  0.7546771E-02  0.1220298E+00
         -5   -1    0    0    0  501 -0.00000000000E+00  0.00000000000E+00  0.84381335980E+03  0.84382644909E+03  0.47000000000E+01 0. -1.
          5   -1    0    0  501    0  0.00000000000E+00 -0.00000000000E+00 -0.22017007383E+02  0.22513076514E+02  0.47000000000E+01 0. -1.
         25    2    1    2    0    0 -0.68601354878E+01 -0.50379601920E+02  0.48768505694E+03  0.50601195165E+03  0.12500485872E+03 0.  0.
         25    2    1    2    0    0  0.68601354878E+01  0.50379601920E+02  0.33411129548E+03  0.36032757395E+03  0.12498174680E+03 0.  0.
          5    1    4    4  502    0  0.46593908407E+01  0.36986898269E+01  0.30494666822E+03  0.30504090002E+03  0.47000000000E+01 0. -1.
         -5    1    4    4    0  502  0.22007446472E+01  0.46680912093E+02  0.29164627263E+02  0.55286673930E+02  0.47000000000E+01 0. -1.
          5    1    3    3  503    0 -0.33847298110E+02  0.26518185236E+02  0.87756673514E+02  0.97837505507E+02  0.47000000000E+01 0.  1.
         -5    1    3    3    0  503  0.26987162622E+02 -0.76897787156E+02  0.39992838343E+03  0.40817444614E+03  0.47000000000E+01 0.  1.
<mgrwt>
<rscale>  0 0.13494420E+03</rscale>
<asrwt>0</asrwt>
<pdfrwt beam="2">  1        5 0.34263983E-02 0.13494955E+03</pdfrwt>
<pdfrwt beam="1">  1       -5 0.12985659E+00 0.13494955E+03</pdfrwt>
<totfact> 0.14376462E+02</totfact>
</mgrwt>
</event>
<event>
 8    1  0.3763376E-007  0.1268526E+03  0.7546771E-02  0.1232205E+00
         -5   -1    0    0    0  501 -0.00000000000E+00  0.00000000000E+00  0.11992540127E+04  0.11992632225E+04  0.47000000000E+01 0. -1.
          5   -1    0    0  501    0  0.00000000000E+00 -0.00000000000E+00 -0.19792667010E+02  0.20343049608E+02  0.47000000000E+01 0. -1.
         25    2    1    2    0    0 -0.15060709804E+01  0.21570267420E+02  0.94093418108E+03  0.94944559865E+03  0.12498906746E+03 0.  0.
         25    2    1    2    0    0  0.15060709804E+01 -0.21570267420E+02  0.23852716459E+03  0.27016067350E+03  0.12499614622E+03 0.  0.
          5    1    3    3  502    0  0.16502964225E+02 -0.47635272179E+02  0.51950792799E+03  0.52196939013E+03  0.47000000000E+01 0. -1.
         -5    1    3    3    0  502 -0.18009035206E+02  0.69205539599E+02  0.42142625309E+03  0.42747620852E+03  0.47000000000E+01 0. -1.
          5    1    4    4  503    0  0.28754168846E+02 -0.17845002352E+02  0.23980927815E+03  0.24223093572E+03  0.47000000000E+01 0. -1.
         -5    1    4    4    0  503 -0.27248097865E+02 -0.37252650672E+01 -0.12821135547E+01  0.27929737776E+02  0.47000000000E+01 0. -1.
<mgrwt>
<rscale>  0 0.12685085E+03</rscale>
<asrwt>0</asrwt>
<pdfrwt beam="2">  1        5 0.30880713E-02 0.12685260E+03</pdfrwt>
<pdfrwt beam="1">  1       -5 0.18454366E+00 0.12685260E+03</pdfrwt>
<totfact> 0.63071886E+01</totfact>
</mgrwt>
</event>
<event>
 8    1  0.3763376E-007  0.1541800E+03  0.7546771E-02  0.1195429E+00
         -5   -1    0    0    0  501 -0.00000000000E+00  0.00000000000E+00  0.14318040326E+04  0.14318117466E+04  0.47000000000E+01 0. -1.
          5   -1    0    0  501    0  0.00000000000E+00 -0.00000000000E+00 -0.16325997093E+02  0.16989060630E+02  0.47000000000E+01 0. -1.
         25    2    1    2    0    0 -0.52058037084E+02  0.73725870731E+02  0.75228692418E+03  0.76792348712E+03  0.12500129010E+03 0.  0.
         25    2    1    2    0    0  0.52058037084E+02 -0.73725870731E+02  0.66319111133E+03  0.68087732014E+03  0.12500372675E+03 0.  0.
          5    1    3    3  502    0 -0.66506841049E+02  0.31879430238E+02  0.18984001520E+03  0.20371740070E+03  0.47000000000E+01 0. -1.
         -5    1    3    3    0  502  0.14448803965E+02  0.41846440493E+02  0.56244690899E+03  0.56420608641E+03  0.47000000000E+01 0. -1.
          5    1    4    4  503    0 -0.12441589041E+02 -0.60815248829E+02  0.13591682314E+03  0.14949501812E+03  0.47000000000E+01 0. -1.
         -5    1    4    4    0  503  0.64499626124E+02 -0.12910621902E+02  0.52727428818E+03  0.53138230203E+03  0.47000000000E+01 0. -1.
<mgrwt>
<rscale>  0 0.15417951E+03</rscale>
<asrwt>0</asrwt>
<pdfrwt beam="2">  1        5 0.25632910E-02 0.15418001E+03</pdfrwt>
<pdfrwt beam="1">  1       -5 0.22032907E+00 0.15418001E+03</pdfrwt>
<totfact> 0.51667077E+01</totfact>
</mgrwt>
</event>
<event>
 8    1  0.3763376E-007  0.1471625E+03  0.7546771E-02  0.1204006E+00
         -5   -1    0    0    0  501 -0.00000000000E+00  0.00000000000E+00  0.18077925690E+03  0.18084034319E+03  0.47000000000E+01 0. -1.
          5   -1    0    0  501    0  0.00000000000E+00 -0.00000000000E+00 -0.12171679303E+03  0.12180750267E+03  0.47000000000E+01 0. -1.
         25    2    1    2    0    0 -0.20631234486E+02 -0.74863003997E+02  0.98898126451E+01  0.14749444318E+03  0.12500674051E+03 0.  0.
         25    2    1    2    0    0  0.20631234486E+02  0.74863003997E+02  0.49172651221E+02  0.15515340268E+03  0.12499804610E+03 0.  0.
          5    1    4    4  502    0  0.17136876539E+02 -0.15386390129E+02 -0.27791281448E+02  0.36398610732E+02  0.47000000000E+01 0. -1.
         -5    1    4    4    0  502  0.34943579466E+01  0.90249394126E+02  0.76963932669E+02  0.11875479194E+03  0.47000000000E+01 0. -1.
          5    1    3    3  503    0 -0.52516757657E+02 -0.64396464284E+02  0.48335419842E+02  0.96246128537E+02  0.47000000000E+01 0. -1.
         -5    1    3    3    0  503  0.31885523171E+02 -0.10466539713E+02 -0.38445607197E+02  0.51248314647E+02  0.47000000000E+01 0. -1.
<mgrwt>
<rscale>  0 0.14716066E+03</rscale>
<asrwt>0</asrwt>
<pdfrwt beam="2">  1        5 0.18737337E-01 0.14716250E+03</pdfrwt>
<pdfrwt beam="1">  1       -5 0.27823870E-01 0.14716250E+03</pdfrwt>
<totfact> 0.24045662E+02</totfact>
</mgrwt>
</event>
<event>
 8    1  0.3763376E-007  0.1426762E+03  0.7546771E-02  0.1209779E+00
         -5   -1    0    0    0  501 -0.00000000000E+00  0.00000000000E+00  0.46364705369E+03  0.46367087508E+03  0.47000000000E+01 0. -1.
          5   -1    0    0  501    0  0.00000000000E+00 -0.00000000000E+00 -0.66998677142E+02  0.67163328824E+02  0.47000000000E+01 0. -1.
         25    2    1    2    0    0  0.68098436202E+02 -0.96875731288E+01  0.35441543911E+03  0.38205602702E+03  0.12500103286E+03 0.  0.
         25    2    1    2    0    0 -0.68098436202E+02  0.96875731288E+01  0.42232937440E+02  0.14877817688E+03  0.12498031375E+03 0.  0.
          5    1    4    4  502    0 -0.54035037130E+02  0.64721178435E+02  0.15624411685E+02  0.85876821181E+02  0.47000000000E+01 0. -1.
         -5    1    4    4    0  502 -0.14063399072E+02 -0.55033605306E+02  0.26608525755E+02  0.62901355703E+02  0.47000000000E+01 0. -1.
          5    1    3    3  503    0  0.39836380609E+02  0.15305247986E+02  0.23461910711E+02  0.48925852984E+02  0.47000000000E+01 0. -1.
         -5    1    3    3    0  503  0.28262055592E+02 -0.24992821115E+02  0.33095352840E+03  0.33313017404E+03  0.47000000000E+01 0. -1.
<mgrwt>
<rscale>  0 0.14267168E+03</rscale>
<asrwt>0</asrwt>
<pdfrwt beam="2">  1        5 0.10321986E-01 0.14267622E+03</pdfrwt>
<pdfrwt beam="1">  1       -5 0.71344816E-01 0.14267622E+03</pdfrwt>
<totfact> 0.97356764E+01</totfact>
</mgrwt>
</event>
<event>
 8    1  0.3763376E-007  0.1263721E+03  0.7546771E-02  0.1232947E+00
          5   -1    0    0  501    0  0.00000000000E+00  0.00000000000E+00  0.15925435262E+03  0.15932369199E+03  0.47000000000E+01 0. -1.
         -5   -1    0    0    0  501 -0.00000000000E+00 -0.00000000000E+00 -0.11262543351E+03  0.11272345929E+03  0.47000000000E+01 0. -1.
         25    2    1    2    0    0 -0.18500630582E+02  0.14033953948E+01 -0.21978562201E+02  0.12825254503E+03  0.12498566022E+03 0.  0.
         25    2    1    2    0    0  0.18500630582E+02 -0.14033953948E+01  0.68607481313E+02  0.14379460625E+03  0.12500263774E+03 0.  0.
          5    1    3    3  502    0  0.52386327365E+02 -0.11533346926E+02 -0.50409949612E+01  0.54081854779E+02  0.47000000000E+01 0. -1.
         -5    1    3    3    0  502 -0.70886957946E+02  0.12936742321E+02 -0.16937567240E+02  0.74170690254E+02  0.47000000000E+01 0. -1.
          5    1    4    4  503    0 -0.17171493507E+02 -0.46996612175E+01 -0.31987071104E+02  0.36908125429E+02  0.47000000000E+01 0. -1.
         -5    1    4    4    0  503  0.35672124088E+02  0.32962658227E+01  0.10059455242E+03  0.10688648082E+03  0.47000000000E+01 0. -1.
<mgrwt>
<rscale>  0 0.12636788E+03</rscale>
<asrwt>0</asrwt>
<pdfrwt beam="1">  1        5 0.24513544E-01 0.12637208E+03</pdfrwt>
<pdfrwt beam="2">  1       -5 0.17339864E-01 0.12637208E+03</pdfrwt>
<totfact> 0.33579971E+02</totfact>
</mgrwt>
</event>
<event>
 8    1  0.3763376E-007  0.1785084E+03  0.7546771E-02  0.1169256E+00
          5   -1    0    0  501    0  0.00000000000E+00  0.00000000000E+00  0.96933810991E+02  0.97047687831E+02  0.47000000000E+01 0. -1.
         -5   -1    0    0    0  501 -0.00000000000E+00 -0.00000000000E+00 -0.32941516855E+03  0.32944869596E+03  0.47000000000E+01 0. -1.
         25    2    1    2    0    0  0.91948592311E+02  0.88229762549E+02 -0.12807191435E+03  0.21969554563E+03  0.12499873157E+03 0.  0.
         25    2    1    2    0    0 -0.91948592311E+02 -0.88229762549E+02 -0.10440944321E+03  0.20680083817E+03  0.12500488074E+03 0.  0.
          5    1    4    4  502    0  0.99468428498E+01 -0.50998761991E+02  0.53002878701E+01  0.52440408645E+02  0.47000000000E+01 0.  1.
         -5    1    4    4    0  502 -0.10189543516E+03 -0.37231000558E+02 -0.10970973108E+03  0.15436042952E+03  0.47000000000E+01 0.  1.
          5    1    3    3  503    0  0.37092263063E+02  0.10097791202E+03 -0.39628893551E+02  0.11473845867E+03  0.47000000000E+01 0.  1.
         -5    1    3    3    0  503  0.54856329248E+02 -0.12748149468E+02 -0.88443020802E+02  0.10495708695E+03  0.47000000000E+01 0.  1.
<mgrwt>
<rscale>  0 0.17850734E+03</rscale>
<asrwt>0</asrwt>
<pdfrwt beam="1">  1        5 0.14924233E-01 0.17850842E+03</pdfrwt>
<pdfrwt beam="2">  1       -5 0.50690595E-01 0.17850842E+03</pdfrwt>
<totfact> 0.11444774E+02</totfact>
</mgrwt>
</event>
<event>
 8    1  0.3763376E-007  0.1265667E+03  0.7546771E-02  0.1232642E+00
          5   -1    0    0  501    0  0.00000000000E+00  0.00000000000E+00  0.79216718122E+02  0.79356023275E+02  0.47000000000E+01 0. -1.
         -5   -1    0    0    0  501 -0.00000000000E+00 -0.00000000000E+00 -0.20944798719E+03  0.20950071441E+03  0.47000000000E+01 0. -1.
         25    2    1    2    0    0  0.19772353989E+02  0.18513016995E+01 -0.92571030600E+02  0.15680586478E+03  0.12499724086E+03 0.  0.
         25    2    1    2    0    0 -0.19772353989E+02 -0.18513016995E+01 -0.37660238472E+02  0.13205087291E+03  0.12499906470E+03 0.  0.
          5    1    3    3  502    0  0.12067582398E+02 -0.50997269872E+02 -0.33588848885E+01  0.52723051762E+02  0.47000000000E+01 0.  1.
         -5    1    3    3    0  502  0.77047715911E+01  0.52848571572E+02 -0.89212145711E+02  0.10408281301E+03  0.47000000000E+01 0.  1.
          5    1    4    4  503    0 -0.20002029176E+02  0.60532387767E+02 -0.16666358353E+02  0.66061400535E+02  0.47000000000E+01 0. -1.
         -5    1    4    4    0  503  0.22967518767E+00 -0.62383689467E+02 -0.20993880120E+02  0.65989472377E+02  0.47000000000E+01 0. -1.
<mgrwt>
<rscale>  0 0.12656629E+03</rscale>
<asrwt>0</asrwt>
<pdfrwt beam="1">  1        5 0.12201959E-01 0.12656674E+03</pdfrwt>
<pdfrwt beam="2">  1       -5 0.32237539E-01 0.12656674E+03</pdfrwt>
<totfact> 0.37181643E+02</totfact>
</mgrwt>
</event>
<event>
 8    1  0.3763376E-007  0.1290940E+03  0.7546771E-02  0.1228809E+00
         -5   -1    0    0    0  501 -0.00000000000E+00  0.00000000000E+00  0.43681427714E+02  0.43933553546E+02  0.47000000000E+01 0.  1.
          5   -1    0    0  501    0  0.00000000000E+00 -0.00000000000E+00 -0.41707976128E+03  0.41710624218E+03  0.47000000000E+01 0.  1.
         25    2    1    2    0    0 -0.32132440445E+02 -0.28576600472E+01 -0.11810701317E+03  0.17496479001E+03  0.12499100461E+03 0.  0.
         25    2    1    2    0    0  0.32132440445E+02  0.28576600472E+01 -0.25529132039E+03  0.28607500572E+03  0.12499836270E+03 0.  0.
          5    1    3    3  502    0  0.25280964196E+02 -0.43566604292E+01 -0.11427410969E+03  0.11721249842E+03  0.47000000000E+01 0.  1.
         -5    1    3    3    0  502 -0.57413404641E+02  0.14990003821E+01 -0.38329034808E+01  0.57752291588E+02  0.47000000000E+01 0.  1.
          5    1    4    4  503    0  0.52716680358E+02 -0.44556077195E+02 -0.94525594143E+02  0.11713868000E+03  0.47000000000E+01 0. -1.
         -5    1    4    4    0  503 -0.20584239913E+02  0.47413737243E+02 -0.16076572625E+03  0.16893632572E+03  0.47000000000E+01 0. -1.
<mgrwt>
<rscale>  0 0.12909218E+03</rscale>
<asrwt>0</asrwt>
<pdfrwt beam="2">  1        5 0.64187546E-01 0.12909396E+03</pdfrwt>
<pdfrwt beam="1">  1       -5 0.67416512E-02 0.12909396E+03</pdfrwt>
<totfact> 0.24821072E+02</totfact>
</mgrwt>
</event>
<event>
 8    1  0.3763376E-007  0.1615700E+03  0.7546771E-02  0.1186936E+00
          5   -1    0    0  501    0  0.00000000000E+00  0.00000000000E+00  0.54311634820E+02  0.54514618927E+02  0.47000000000E+01 0.  1.
         -5   -1    0    0    0  501 -0.00000000000E+00 -0.00000000000E+00 -0.62228485346E+03  0.62230260232E+03  0.47000000000E+01 0.  1.
         25    2    1    2    0    0 -0.84299447508E+02  0.58077989764E+02 -0.44604538504E+03  0.47440632520E+03  0.12500170450E+03 0.  0.
         25    2    1    2    0    0  0.84299447508E+02 -0.58077989764E+02 -0.12192783360E+03  0.20241089604E+03  0.12499729791E+03 0.  0.
          5    1    4    4  502    0  0.11143560271E+03 -0.52980542763E+02 -0.66352458691E+02  0.14017692476E+03  0.47000000000E+01 0.  1.
         -5    1    4    4    0  502 -0.27136155197E+02 -0.50974470015E+01 -0.55575374909E+02  0.62233971279E+02  0.47000000000E+01 0.  1.
          5    1    3    3  503    0 -0.67571005583E+02 -0.20600407880E+02 -0.12759387624E+03  0.14591951499E+03  0.47000000000E+01 0.  1.
         -5    1    3    3    0  503 -0.16728441926E+02  0.78678397644E+02 -0.31845150880E+03  0.32848681021E+03  0.47000000000E+01 0.  1.
<mgrwt>
<rscale>  0 0.16156918E+03</rscale>
<asrwt>0</asrwt>
<pdfrwt beam="1">  1        5 0.83726160E-02 0.16157003E+03</pdfrwt>
<pdfrwt beam="2">  1       -5 0.95753106E-01 0.16157003E+03</pdfrwt>
<totfact> 0.73212009E+01</totfact>
</mgrwt>
</event>
<event>
 8    1  0.3763376E-007  0.1254364E+03  0.7546771E-02  0.1234390E+00
         -5   -1    0    0    0  501 -0.00000000000E+00  0.00000000000E+00  0.39512723844E+03  0.39515519047E+03  0.47000000000E+01 0.  1.
          5   -1    0    0  501    0  0.00000000000E+00 -0.00000000000E+00 -0.46086419568E+02  0.46325458105E+02  0.47000000000E+01 0.  1.
         25    2    1    2    0    0  0.76484198225E+01  0.70468145092E+01  0.25674683012E+03  0.28575028930E+03  0.12500454847E+03 0.  0.
         25    2    1    2    0    0 -0.76484198225E+01 -0.70468145092E+01  0.92293988750E+02  0.15573035928E+03  0.12500243406E+03 0.  0.
          5    1    3    3  502    0  0.62906091116E+02  0.40446784851E+01  0.18174763714E+03  0.19242616592E+03  0.47000000000E+01 0.  1.
         -5    1    3    3    0  502 -0.55257671294E+02  0.30021360241E+01  0.74999192982E+02  0.93324123385E+02  0.47000000000E+01 0.  1.
          5    1    4    4  503    0 -0.62534496865E+02  0.16870340428E+02  0.41435162402E+02  0.77033332834E+02  0.47000000000E+01 0.  1.
         -5    1    4    4    0  503  0.54886077042E+02 -0.23917154937E+02  0.50858826348E+02  0.78697026442E+02  0.47000000000E+01 0.  1.
<mgrwt>
<rscale>  0 0.12543588E+03</rscale>
<asrwt>0</asrwt>
<pdfrwt beam="2">  1        5 0.71107565E-02 0.12543641E+03</pdfrwt>
<pdfrwt beam="1">  1       -5 0.60809341E-01 0.12543641E+03</pdfrwt>
<totfact> 0.25280050E+02</totfact>
</mgrwt>
</event>
<event>
 8    1  0.3763376E-007  0.1709464E+03  0.7546771E-02  0.1176865E+00
         -5   -1    0    0    0  501 -0.00000000000E+00  0.00000000000E+00  0.33333908804E+03  0.33337222082E+03  0.47000000000E+01 0. -1.
          5   -1    0    0  501    0  0.00000000000E+00 -0.00000000000E+00 -0.10062844928E+03  0.10073814970E+03  0.47000000000E+01 0. -1.
         25    2    1    2    0    0 -0.11604397050E+03 -0.11421310532E+02  0.19450404142E+03  0.25894636235E+03  0.12499898807E+03 0.  0.
         25    2    1    2    0    0  0.11604397050E+03  0.11421310532E+02  0.38206597337E+02  0.17516400818E+03  0.12500414495E+03 0.  0.
          5    1    4    4  502    0  0.50613820636E+02  0.67533655554E+02  0.15957251129E+02  0.86019052165E+02  0.47000000000E+01 0. -1.
         -5    1    4    4    0  502  0.65430149867E+02 -0.56112345022E+02  0.22249346208E+02  0.89144956010E+02  0.47000000000E+01 0. -1.
          5    1    3    3  503    0 -0.46744170854E+02 -0.66854514695E+02  0.84743413478E+02  0.11772034562E+03  0.47000000000E+01 0. -1.
         -5    1    3    3    0  503 -0.69299799648E+02  0.55433204163E+02  0.10976062794E+03  0.14122601673E+03  0.47000000000E+01 0. -1.
<mgrwt>
<rscale>  0 0.17094550E+03</rscale>
<asrwt>0</asrwt>
<pdfrwt beam="2">  1        5 0.15492287E-01 0.17094644E+03</pdfrwt>
<pdfrwt beam="1">  1       -5 0.51293924E-01 0.17094644E+03</pdfrwt>
<totfact> 0.10294022E+02</totfact>
</mgrwt>
</event>
<event>
 8    1  0.3763376E-007  0.1294650E+03  0.7546771E-02  0.1228253E+00
          5   -1    0    0  501    0  0.00000000000E+00  0.00000000000E+00  0.48613378830E+03  0.48615650785E+03  0.47000000000E+01 0. -1.
         -5   -1    0    0    0  501 -0.00000000000E+00 -0.00000000000E+00 -0.35097181471E+02  0.35410480754E+02  0.47000000000E+01 0. -1.
         25    2    1    2    0    0 -0.13410535288E+02 -0.30917154590E+02  0.18625034409E+03  0.22682673416E+03  0.12500185498E+03 0.  0.
         25    2    1    2    0    0  0.13410535288E+02  0.30917154590E+02  0.26478626274E+03  0.29474025445E+03  0.12499735899E+03 0.  0.
          5    1    4    4  502    0  0.47247122723E+02  0.50008126910E+02  0.23678065013E+03  0.24661765881E+03  0.47000000000E+01 0. -1.
         -5    1    4    4    0  502 -0.33836587435E+02 -0.19090972320E+02  0.28005612607E+02  0.48122595637E+02  0.47000000000E+01 0. -1.
          5    1    3    3  503    0  0.19367203020E+02 -0.16208707744E+02  0.18876684234E+03  0.19050674929E+03  0.47000000000E+01 0.  1.
         -5    1    3    3    0  503 -0.32777738309E+02 -0.14708446846E+02 -0.25164982434E+01  0.36319984866E+02  0.47000000000E+01 0.  1.
<mgrwt>
<rscale>  0 0.12946388E+03</rscale>
<asrwt>0</asrwt>
<pdfrwt beam="1">  1        5 0.74815662E-01 0.12946496E+03</pdfrwt>
<pdfrwt beam="2">  1       -5 0.54254139E-02 0.12946496E+03</pdfrwt>
<totfact> 0.25367402E+02</totfact>
</mgrwt>
</event>
<event>
 8    1  0.3763376E-007  0.1444146E+03  0.7546771E-02  0.1207511E+00
         -5   -1    0    0    0  501 -0.00000000000E+00  0.00000000000E+00  0.65158715109E+02  0.65328004368E+02  0.47000000000E+01 0.  1.
          5   -1    0    0  501    0  0.00000000000E+00 -0.00000000000E+00 -0.32039935555E+03  0.32043382630E+03  0.47000000000E+01 0.  1.
         25    2    1    2    0    0 -0.38726016821E+02 -0.61080071435E+02 -0.13805612159E+03  0.19978757376E+03  0.12500040967E+03 0.  0.
         25    2    1    2    0    0  0.38726016821E+02  0.61080071435E+02 -0.11718451885E+03  0.18597425690E+03  0.12499493297E+03 0.  0.
          5    1    4    4  502    0  0.40432999950E+02 -0.22608350064E+02 -0.63356718820E+01  0.46991443006E+02  0.47000000000E+01 0. -1.
         -5    1    4    4    0  502 -0.17069831290E+01  0.83688421499E+02 -0.11084884697E+03  0.13898281390E+03  0.47000000000E+01 0. -1.
          5    1    3    3  503    0  0.16949472538E+02 -0.73241960365E+02 -0.11639225082E+03  0.13863951611E+03  0.47000000000E+01 0.  1.
         -5    1    3    3    0  503 -0.55675489359E+02  0.12161888930E+02 -0.21663870770E+02  0.61148057651E+02  0.47000000000E+01 0.  1.
<mgrwt>
<rscale>  0 0.14441343E+03</rscale>
<asrwt>0</asrwt>
<pdfrwt beam="2">  1        5 0.49307881E-01 0.14441462E+03</pdfrwt>
<pdfrwt beam="1">  1       -5 0.10040092E-01 0.14441462E+03</pdfrwt>
<totfact> 0.23013815E+02</totfact>
</mgrwt>
</event>
<event>
 8    1  0.3763376E-007  0.1394210E+03  0.7546771E-02  0.1214110E+00
         -5   -1    0    0    0  501 -0.00000000000E+00  0.00000000000E+00  0.31598342212E+03  0.31601837455E+03  0.47000000000E+01 0.  1.
          5   -1    0    0  501    0  0.00000000000E+00 -0.00000000000E+00 -0.80121708433E+02  0.80259442823E+02  0.47000000000E+01 0.  1.
         25    2    1    2    0    0 -0.39742004424E+02  0.47260159403E+02  0.21362337675E+03  0.25509438980E+03  0.12500100412E+03 0.  0.
         25    2    1    2    0    0  0.39742004424E+02 -0.47260159403E+02  0.22238336936E+02  0.14118342758E+03  0.12500106804E+03 0.  0.
          5    1    4    4  502    0  0.36172279012E+02 -0.89564138034E+02  0.15305544519E+02  0.97910766944E+02  0.47000000000E+01 0. -1.
         -5    1    4    4    0  502  0.35697254128E+01  0.42303978630E+02  0.69327924166E+01  0.43272660632E+02  0.47000000000E+01 0. -1.
          5    1    3    3  503    0 -0.40863352101E+02 -0.31203693430E+02  0.13215525646E+03  0.14188229572E+03  0.47000000000E+01 0.  1.
         -5    1    3    3    0  503  0.11213476764E+01  0.78463852833E+02  0.81468120289E+02  0.11321209408E+03  0.47000000000E+01 0.  1.
<mgrwt>
<rscale>  0 0.13942099E+03</rscale>
<asrwt>0</asrwt>
<pdfrwt beam="2">  1        5 0.12339700E-01 0.13942100E+03</pdfrwt>
<pdfrwt beam="1">  1       -5 0.48626118E-01 0.13942100E+03</pdfrwt>
<totfact> 0.16288766E+02</totfact>
</mgrwt>
</event>
<event>
 8    1  0.3763376E-007  0.1454991E+03  0.7546771E-02  0.1206117E+00
          5   -1    0    0  501    0  0.00000000000E+00  0.00000000000E+00  0.21141675501E+03  0.21146899134E+03  0.47000000000E+01 0. -1.
         -5   -1    0    0    0  501 -0.00000000000E+00 -0.00000000000E+00 -0.10318883083E+03  0.10329581215E+03  0.47000000000E+01 0. -1.
         25    2    1    2    0    0 -0.74086481815E+02 -0.74137759060E+01  0.26514415435E+02  0.14789033023E+03  0.12499905876E+03 0.  0.
         25    2    1    2    0    0  0.74086481815E+02  0.74137759060E+01  0.81713508750E+02  0.16687447326E+03  0.12500488571E+03 0.  0.
          5    1    3    3  502    0  0.17659254471E+02  0.23542147160E+02 -0.24286258672E+02  0.38444691723E+02  0.47000000000E+01 0. -1.
         -5    1    3    3    0  502 -0.91745736286E+02 -0.30955923066E+02  0.50800674107E+02  0.10944563851E+03  0.47000000000E+01 0. -1.
          5    1    4    4  503    0  0.16509393150E+02  0.63019878334E+02  0.36424447340E+02  0.74785663676E+02  0.47000000000E+01 0.  1.
         -5    1    4    4    0  503  0.57577088665E+02 -0.55606102428E+02  0.45289061410E+02  0.92088809580E+02  0.47000000000E+01 0.  1.
<mgrwt>
<rscale>  0 0.14549786E+03</rscale>
<asrwt>0</asrwt>
<pdfrwt beam="1">  1        5 0.32537902E-01 0.14549911E+03</pdfrwt>
<pdfrwt beam="2">  1       -5 0.15887452E-01 0.14549911E+03</pdfrwt>
<totfact> 0.23850755E+02</totfact>
</mgrwt>
</event>
<event>
 8    1  0.3763376E-007  0.1464048E+03  0.7546771E-02  0.1204962E+00
         -5   -1    0    0    0  501 -0.00000000000E+00  0.00000000000E+00  0.33121556388E+02  0.33453363023E+02  0.47000000000E+01 0.  1.
          5   -1    0    0  501    0  0.00000000000E+00 -0.00000000000E+00 -0.74054682601E+03  0.74056174052E+03  0.47000000000E+01 0.  1.
         25    2    1    2    0    0  0.33448720714E+01  0.76146430820E+02 -0.21369856311E+03  0.25903948316E+03  0.12499964344E+03 0.  0.
         25    2    1    2    0    0 -0.33448720714E+01 -0.76146430820E+02 -0.49372670651E+03  0.51497562038E+03  0.12499744706E+03 0.  0.
          5    1    3    3  502    0  0.39823478286E+02  0.38705199105E+02 -0.21387610401E+02  0.59695240507E+02  0.47000000000E+01 0. -1.
         -5    1    3    3    0  502 -0.36478606215E+02  0.37441231715E+02 -0.19231095271E+03  0.19934424265E+03  0.47000000000E+01 0. -1.
          5    1    4    4  503    0  0.75733896708E+01 -0.80054511284E+02 -0.49579273622E+03  0.50229334885E+03  0.47000000000E+01 0. -1.
         -5    1    4    4    0  503 -0.10918261742E+02  0.39080804647E+01  0.20660297151E+01  0.12682271530E+02  0.47000000000E+01 0. -1.
<mgrwt>
<rscale>  0 0.14640437E+03</rscale>
<asrwt>0</asrwt>
<pdfrwt beam="2">  1        5 0.11395694E+00 0.14640484E+03</pdfrwt>
<pdfrwt beam="1">  1       -5 0.51222955E-02 0.14640484E+03</pdfrwt>
<totfact> 0.10632650E+02</totfact>
</mgrwt>
</event>
<event>
 8    1  0.3763376E-007  0.1953491E+03  0.7546771E-02  0.1153725E+00
         -5   -1    0    0    0  501 -0.00000000000E+00  0.00000000000E+00  0.55886463218E+02  0.56083747833E+02  0.47000000000E+01 0. -1.
          5   -1    0    0  501    0  0.00000000000E+00 -0.00000000000E+00 -0.69964510470E+03  0.69966089109E+03  0.47000000000E+01 0.  1.
         25    2    1    2    0    0  0.54200434082E+02  0.13999466558E+03 -0.26087446773E+03  0.32590562181E+03  0.12499117156E+03 0.  0.
         25    2    1    2    0    0 -0.54200434082E+02 -0.13999466558E+03 -0.38288417375E+03  0.42983901711E+03  0.12500038672E+03 0.  0.
          5    1    4    4  502    0 -0.80454911040E+02 -0.14585534612E+03 -0.30899839072E+03  0.35106818450E+03  0.47000000000E+01 0.  1.
         -5    1    4    4    0  502  0.26254476958E+02  0.58606805387E+01 -0.73885783029E+02  0.78770832612E+02  0.47000000000E+01 0.  1.
          5    1    3    3  503    0  0.64260951063E+02  0.15724619572E+03 -0.20436728711E+03  0.26578922841E+03  0.47000000000E+01 0.  1.
         -5    1    3    3    0  503 -0.10060516981E+02 -0.17251530132E+02 -0.56507180621E+02  0.60116393401E+02  0.47000000000E+01 0.  1.
<mgrwt>
<rscale>  0 0.19534768E+03</rscale>
<asrwt>0</asrwt>
<pdfrwt beam="2">  1        5 0.10765409E+00 0.19534915E+03</pdfrwt>
<pdfrwt beam="1">  1       -5 0.86143080E-02 0.19534915E+03</pdfrwt>
<totfact> 0.55075027E+01</totfact>
</mgrwt>
</event>
<event>
 8    1  0.3763376E-007  0.1320902E+03  0.7546771E-02  0.1224388E+00
          5   -1    0    0  501    0  0.00000000000E+00  0.00000000000E+00  0.73688781950E+03  0.73690280806E+03  0.47000000000E+01 0. -1.
         -5   -1    0    0    0  501 -0.00000000000E+00 -0.00000000000E+00 -0.23431734136E+02  0.23898455277E+02  0.47000000000E+01 0. -1.
         25    2    1    2    0    0 -0.42247924410E+02 -0.61089127858E+01  0.35243797480E+03  0.37637791811E+03  0.12500242091E+03 0.  0.
         25    2    1    2    0    0  0.42247924410E+02  0.61089127858E+01  0.36101811057E+03  0.38442334522E+03  0.12500010505E+03 0.  0.
          5    1    3    3  502    0 -0.17100240202E+02  0.32656800851E+02  0.23046127214E+02  0.43727552371E+02  0.47000000000E+01 0.  1.
         -5    1    3    3    0  502 -0.25147684208E+02 -0.38765713637E+02  0.32939184758E+03  0.33265036574E+03  0.47000000000E+01 0.  1.
          5    1    4    4  503    0  0.79773201888E+01 -0.57433868012E+02  0.13204504554E+03  0.14429231055E+03  0.47000000000E+01 0.  1.
         -5    1    4    4    0  503  0.34270604221E+02  0.63542780798E+02  0.22897306503E+03  0.24013103468E+03  0.47000000000E+01 0.  1.
<mgrwt>
<rscale>  0 0.13208962E+03</rscale>
<asrwt>0</asrwt>
<pdfrwt beam="1">  1        5 0.11340439E+00 0.13209016E+03</pdfrwt>
<pdfrwt beam="2">  1       -5 0.36419373E-02 0.13209016E+03</pdfrwt>
<totfact> 0.18264665E+02</totfact>
</mgrwt>
</event>
<event>
 8    1  0.3763376E-007  0.1368001E+03  0.7546771E-02  0.1217702E+00
         -5   -1    0    0    0  501 -0.00000000000E+00  0.00000000000E+00  0.41200578699E+03  0.41203259399E+03  0.47000000000E+01 0. -1.
          5   -1    0    0  501    0  0.00000000000E+00 -0.00000000000E+00 -0.45890789198E+02  0.46130841454E+02  0.47000000000E+01 0. -1.
         25    2    1    2    0    0  0.55538669654E+02  0.17851478912E+01  0.20959983501E+03  0.25029254877E+03  0.12500615406E+03 0.  0.
         25    2    1    2    0    0 -0.55538669654E+02 -0.17851478912E+01  0.15651516278E+03  0.20787088668E+03  0.12500231506E+03 0.  0.
          5    1    4    4  502    0  0.76764723720E+01 -0.25376333981E+02  0.13385885401E+03  0.13653999176E+03  0.47000000000E+01 0.  1.
         -5    1    4    4    0  502 -0.63215142026E+02  0.23591186090E+02  0.22656308773E+02  0.71330894918E+02  0.47000000000E+01 0.  1.
          5    1    3    3  503    0  0.85760239323E+02  0.21863763234E+02  0.94678793386E+02  0.12968811321E+03  0.47000000000E+01 0.  1.
         -5    1    3    3    0  503 -0.30221569669E+02 -0.20078615343E+02  0.11492104162E+03  0.12060443555E+03  0.47000000000E+01 0.  1.
<mgrwt>
<rscale>  0 0.13679923E+03</rscale>
<asrwt>0</asrwt>
<pdfrwt beam="2">  1        5 0.70806493E-02 0.13680011E+03</pdfrwt>
<pdfrwt beam="1">  1       -5 0.63406031E-01 0.13680011E+03</pdfrwt>
<totfact> 0.23944161E+02</totfact>
</mgrwt>
</event>
<event>
 8    1  0.3763376E-007  0.1411780E+03  0.7546771E-02  0.1211754E+00
         -5   -1    0    0    0  501 -0.00000000000E+00  0.00000000000E+00  0.21290849352E+02  0.21803446199E+02  0.47000000000E+01 0.  1.
          5   -1    0    0  501    0  0.00000000000E+00 -0.00000000000E+00 -0.95071729341E+03  0.95072891088E+03  0.47000000000E+01 0.  1.
         25    2    1    2    0    0 -0.11085750112E+02 -0.64679427903E+02 -0.54551397454E+03  0.56348623055E+03  0.12499965340E+03 0.  0.
         25    2    1    2    0    0  0.11085750112E+02  0.64679427903E+02 -0.38391246952E+03  0.40904612653E+03  0.12499450840E+03 0.  0.
          5    1    4    4  502    0 -0.10145976718E+02 -0.36229887194E+02 -0.99342763125E+02  0.10633259216E+03  0.47000000000E+01 0.  1.
         -5    1    4    4    0  502  0.21231726831E+02  0.10090931510E+03 -0.28456970639E+03  0.30271353438E+03  0.47000000000E+01 0.  1.
          5    1    3    3  503    0 -0.41219378595E+02 -0.88610849493E+02 -0.31861736673E+03  0.33330171947E+03  0.47000000000E+01 0.  1.
         -5    1    3    3    0  503  0.30133628482E+02  0.23931421590E+02 -0.22689660781E+03  0.23018451108E+03  0.47000000000E+01 0.  1.
<mgrwt>
<rscale>  0 0.14117689E+03</rscale>
<asrwt>0</asrwt>
<pdfrwt beam="2">  1        5 0.14630449E+00 0.14117803E+03</pdfrwt>
<pdfrwt beam="1">  1       -5 0.33158402E-02 0.14117803E+03</pdfrwt>
<totfact> 0.11208733E+02</totfact>
</mgrwt>
</event>
<event>
 8    1  0.3763376E-007  0.1251920E+03  0.7546771E-02  0.1234770E+00
          5   -1    0    0  501    0  0.00000000000E+00  0.00000000000E+00  0.29596298403E+03  0.29600030053E+03  0.47000000000E+01 0. -1.
         -5   -1    0    0    0  501 -0.00000000000E+00 -0.00000000000E+00 -0.64928521618E+02  0.65098409501E+02  0.47000000000E+01 0. -1.
         25    2    1    2    0    0 -0.68222802408E+01  0.13440320514E+01  0.37652504173E+02  0.13073026043E+03  0.12499735994E+03 0.  0.
         25    2    1    2    0    0  0.68222802408E+01 -0.13440320514E+01  0.19338195824E+03  0.23036844960E+03  0.12499876347E+03 0.  0.
          5    1    4    4  502    0 -0.57039860268E+01  0.13385576203E+02 -0.14774947515E+02  0.21262600522E+02  0.47000000000E+01 0. -1.
         -5    1    4    4    0  502  0.12526266268E+02 -0.14729608255E+02  0.20815690575E+03  0.20910584908E+03  0.47000000000E+01 0. -1.
          5    1    3    3  503    0 -0.27772610509E+02 -0.56545814774E+02  0.23364330208E+02  0.67355244703E+02  0.47000000000E+01 0.  1.
         -5    1    3    3    0  503  0.20950330268E+02  0.57889846825E+02  0.14288173965E+02  0.63375015732E+02  0.47000000000E+01 0.  1.
<mgrwt>
<rscale>  0 0.12519167E+03</rscale>
<asrwt>0</asrwt>
<pdfrwt beam="1">  1        5 0.45548705E-01 0.12519202E+03</pdfrwt>
<pdfrwt beam="2">  1       -5 0.10004942E-01 0.12519202E+03</pdfrwt>
<totfact> 0.26029113E+02</totfact>
</mgrwt>
</event>
<event>
 8    1  0.3763376E-007  0.1353716E+03  0.7546771E-02  0.1219700E+00
          5   -1    0    0  501    0  0.00000000000E+00  0.00000000000E+00  0.72456991931E+01  0.86365593148E+01  0.47000000000E+01 0. -1.
         -5   -1    0    0    0  501 -0.00000000000E+00 -0.00000000000E+00 -0.23149711992E+04  0.23149759703E+04  0.47000000000E+01 0. -1.
         25    2    1    2    0    0 -0.47867263222E+02 -0.20220108176E+02 -0.10819324582E+04  0.10903684268E+04  0.12500133797E+03 0.  0.
         25    2    1    2    0    0  0.47867263222E+02  0.20220108176E+02 -0.12257930419E+04  0.12332441028E+04  0.12498923169E+03 0.  0.
          5    1    4    4  502    0  0.43740977552E+02 -0.46819678246E+02 -0.45456784269E+03  0.45908536134E+03  0.47000000000E+01 0. -1.
         -5    1    4    4    0  502  0.41262856698E+01  0.67039786422E+02 -0.77122519916E+03  0.77415874149E+03  0.47000000000E+01 0. -1.
          5    1    3    3  503    0 -0.43522241097E+02 -0.70934572504E+01 -0.11393927710E+03  0.12226508689E+03  0.47000000000E+01 0. -1.
         -5    1    3    3    0  503 -0.43450221247E+01 -0.13126650925E+02 -0.96799318106E+03  0.96810333992E+03  0.47000000000E+01 0. -1.
<mgrwt>
<rscale>  0 0.13536878E+03</rscale>
<asrwt>0</asrwt>
<pdfrwt beam="1">  1        5 0.12220810E-02 0.13537157E+03</pdfrwt>
<pdfrwt beam="2">  1       -5 0.35625623E+00 0.13537157E+03</pdfrwt>
<totfact> 0.21753796E+01</totfact>
</mgrwt>
</event>
<event>
 8    1  0.3763376E-007  0.1499312E+03  0.7546771E-02  0.1200558E+00
          5   -1    0    0  501    0  0.00000000000E+00  0.00000000000E+00  0.13661815892E+03  0.13669898078E+03  0.47000000000E+01 0.  1.
         -5   -1    0    0    0  501 -0.00000000000E+00 -0.00000000000E+00 -0.16599280903E+03  0.16605933473E+03  0.47000000000E+01 0.  1.
         25    2    1    2    0    0 -0.72269232627E+02  0.40389245330E+02 -0.29617213809E+02  0.15282852637E+03  0.12500098398E+03 0.  0.
         25    2    1    2    0    0  0.72269232627E+02 -0.40389245330E+02  0.24256369995E+00  0.14992978914E+03  0.12499899884E+03 0.  0.
          5    1    3    3  502    0 -0.40360235254E+02 -0.43278461564E+02 -0.36536660302E+01  0.59476155731E+02  0.47000000000E+01 0.  1.
         -5    1    3    3    0  502 -0.31908997373E+02  0.83667706894E+02 -0.25963547779E+02  0.93352370637E+02  0.47000000000E+01 0.  1.
          5    1    4    4  503    0  0.74440976587E+02  0.28594324864E+02 -0.79122073447E+01  0.80273204961E+02  0.47000000000E+01 0.  1.
         -5    1    4    4    0  503 -0.21717439605E+01 -0.68983570194E+02  0.81547710447E+01  0.69656584178E+02  0.47000000000E+01 0.  1.
<mgrwt>
<rscale>  0 0.14993083E+03</rscale>
<asrwt>0</asrwt>
<pdfrwt beam="1">  1        5 0.21029513E-01 0.14993125E+03</pdfrwt>
<pdfrwt beam="2">  1       -5 0.25548690E-01 0.14993125E+03</pdfrwt>
<totfact> 0.23003963E+02</totfact>
</mgrwt>
</event>
<event>
 8    1  0.3763376E-007  0.1348246E+03  0.7546771E-02  0.1220468E+00
         -5   -1    0    0    0  501 -0.00000000000E+00  0.00000000000E+00  0.22352938803E+03  0.22357879442E+03  0.47000000000E+01 0. -1.
          5   -1    0    0  501    0  0.00000000000E+00 -0.00000000000E+00 -0.86221489771E+02  0.86349495067E+02  0.47000000000E+01 0. -1.
         25    2    1    2    0    0  0.10026896891E+01 -0.50514317273E+02  0.10603580454E+03  0.17152629563E+03  0.12499990644E+03 0.  0.
         25    2    1    2    0    0 -0.10026896891E+01  0.50514317273E+02  0.31272093716E+02  0.13840199386E+03  0.12499786567E+03 0.  0.
          5    1    3    3  502    0 -0.19341529871E+02  0.38183773443E+02  0.26399119496E+02  0.50508403680E+02  0.47000000000E+01 0.  1.
         -5    1    3    3    0  502  0.20344219560E+02 -0.88698090717E+02  0.79636685047E+02  0.12101789195E+03  0.47000000000E+01 0.  1.
          5    1    4    4  503    0 -0.29249915957E+02 -0.34229079532E+02  0.13071341959E+02  0.47118334538E+02  0.47000000000E+01 0. -1.
         -5    1    4    4    0  503  0.28247226268E+02  0.84743396805E+02  0.18200751756E+02  0.91283659317E+02  0.47000000000E+01 0. -1.
<mgrwt>
<rscale>  0 0.13482415E+03</rscale>
<asrwt>0</asrwt>
<pdfrwt beam="2">  1        5 0.13278492E-01 0.13482462E+03</pdfrwt>
<pdfrwt beam="1">  1       -5 0.34402783E-01 0.13482462E+03</pdfrwt>
<totfact> 0.28754719E+02</totfact>
</mgrwt>
</event>
<event>
 8    1  0.3763376E-007  0.1384608E+03  0.7546771E-02  0.1215417E+00
         -5   -1    0    0    0  501 -0.00000000000E+00  0.00000000000E+00  0.41012966402E+02  0.41281393061E+02  0.47000000000E+01 0.  1.
          5   -1    0    0  501    0  0.00000000000E+00 -0.00000000000E+00 -0.51134190695E+03  0.51136350652E+03  0.47000000000E+01 0.  1.
         25    2    1    2    0    0 -0.52984775897E+02 -0.27170582483E+02 -0.15256582350E+03  0.20602582292E+03  0.12499872872E+03 0.  0.
         25    2    1    2    0    0  0.52984775897E+02  0.27170582483E+02 -0.31776311705E+03  0.34661907666E+03  0.12500303484E+03 0.  0.
          5    1    4    4  502    0 -0.28657237412E+02  0.18894031303E+02 -0.20017719907E+03  0.20315320008E+03  0.47000000000E+01 0.  1.
         -5    1    4    4    0  502  0.81642013309E+02  0.82765511799E+01 -0.11758591797E+03  0.14346587658E+03  0.47000000000E+01 0.  1.
          5    1    3    3  503    0  0.10929346119E+02  0.12462689465E+02 -0.12439135666E+03  0.12557893473E+03  0.47000000000E+01 0. -1.
         -5    1    3    3    0  503 -0.63914122016E+02 -0.39633271948E+02 -0.28174466839E+02  0.80446888194E+02  0.47000000000E+01 0. -1.
<mgrwt>
<rscale>  0 0.13845980E+03</rscale>
<asrwt>0</asrwt>
<pdfrwt beam="2">  1        5 0.78690291E-01 0.13846077E+03</pdfrwt>
<pdfrwt beam="1">  1       -5 0.63319972E-02 0.13846077E+03</pdfrwt>
<totfact> 0.17840939E+02</totfact>
</mgrwt>
</event>
<event>
 8    1  0.3763376E-007  0.2497214E+03  0.7546771E-02  0.1113483E+00
          5   -1    0    0  501    0  0.00000000000E+00  0.00000000000E+00  0.50687788982E+03  0.50689967961E+03  0.47000000000E+01 0.  1.
         -5   -1    0    0    0  501 -0.00000000000E+00 -0.00000000000E+00 -0.12316439600E+03  0.12325404026E+03  0.47000000000E+01 0.  1.
         25    2    1    2    0    0  0.18960079680E+03 -0.10386307053E+03  0.17883738465E+03  0.30714444887E+03  0.12497560864E+03 0.  0.
         25    2    1    2    0    0 -0.18960079680E+03  0.10386307053E+03  0.20487610917E+03  0.32300927100E+03  0.12499907788E+03 0.  0.
          5    1    3    3  502    0  0.81713346382E+02  0.28038046879E+01  0.14031824274E+02  0.83089797149E+02  0.47000000000E+01 0.  1.
         -5    1    3    3    0  502  0.10788745042E+03 -0.10666687522E+03  0.16480556038E+03  0.22405465173E+03  0.47000000000E+01 0.  1.
          5    1    4    4  503    0 -0.19224478911E+03  0.11490557410E+03  0.21231520918E+03  0.30864411213E+03  0.47000000000E+01 0. -1.
         -5    1    4    4    0  503  0.26439923082E+01 -0.11042503568E+02 -0.74391000114E+01  0.14365158870E+02  0.47000000000E+01 0. -1.
<mgrwt>
<rscale>  0 0.24971845E+03</rscale>
<asrwt>0</asrwt>
<pdfrwt beam="1">  1        5 0.77989787E-01 0.24972138E+03</pdfrwt>
<pdfrwt beam="2">  1       -5 0.18956940E-01 0.24972138E+03</pdfrwt>
<totfact> 0.30752577E+01</totfact>
</mgrwt>
</event>
<event>
 8    1  0.3763376E-007  0.1285425E+03  0.7546771E-02  0.1229635E+00
          5   -1    0    0  501    0  0.00000000000E+00  0.00000000000E+00  0.13725222659E+03  0.13733267530E+03  0.47000000000E+01 0.  1.
         -5   -1    0    0    0  501 -0.00000000000E+00 -0.00000000000E+00 -0.12483226379E+03  0.12492071119E+03  0.47000000000E+01 0.  1.
         25    2    1    2    0    0  0.29799312298E+02  0.32557851993E+01 -0.18968407344E+02  0.12993406581E+03  0.12499784730E+03 0.  0.
         25    2    1    2    0    0 -0.29799312298E+02 -0.32557851993E+01  0.31388370144E+02  0.13231932068E+03  0.12499829476E+03 0.  0.
          5    1    3    3  502    0 -0.23698084252E+02 -0.47872714109E+02 -0.14982361427E+02  0.55677258439E+02  0.47000000000E+01 0.  1.
         -5    1    3    3    0  502  0.53497396550E+02  0.51128499308E+02 -0.39860459174E+01  0.74256807373E+02  0.47000000000E+01 0.  1.
          5    1    4    4  503    0 -0.61009831328E+02 -0.70678376196E+01  0.62560066918E+02  0.87795249417E+02  0.47000000000E+01 0.  1.
         -5    1    4    4    0  503  0.31210519030E+02  0.38120524203E+01 -0.31171696774E+02  0.44524071260E+02  0.47000000000E+01 0.  1.
<mgrwt>
<rscale>  0 0.12854239E+03</rscale>
<asrwt>0</asrwt>
<pdfrwt beam="1">  1        5 0.21128719E-01 0.12854249E+03</pdfrwt>
<pdfrwt beam="2">  1       -5 0.19217956E-01 0.12854249E+03</pdfrwt>
<totfact> 0.37025766E+02</totfact>
</mgrwt>
</event>
<event>
 8    1  0.3763376E-007  0.1607574E+03  0.7546771E-02  0.1187856E+00
          5   -1    0    0  501    0  0.00000000000E+00  0.00000000000E+00  0.23638202998E+03  0.23642875057E+03  0.47000000000E+01 0. -1.
         -5   -1    0    0    0  501 -0.00000000000E+00 -0.00000000000E+00 -0.11175711677E+03  0.11185590350E+03  0.47000000000E+01 0. -1.
         25    2    1    2    0    0 -0.64504610578E+02 -0.77795490272E+02  0.35930666128E+02  0.16468291195E+03  0.12496585785E+03 0.  0.
         25    2    1    2    0    0  0.64504610578E+02  0.77795490272E+02  0.88694247082E+02  0.18360174213E+03  0.12501978705E+03 0.  0.
          5    1    4    4  502    0  0.86076416990E+02  0.26922093845E+02  0.90852352005E+02  0.12810225823E+03  0.47000000000E+01 0. -1.
         -5    1    4    4    0  502 -0.21571806412E+02  0.50873396427E+02 -0.21581049221E+01  0.55499483897E+02  0.47000000000E+01 0. -1.
          5    1    3    3  503    0  0.22317755302E+02 -0.68979110956E+02  0.23793634949E+02  0.76448852275E+02  0.47000000000E+01 0.  1.
         -5    1    3    3    0  503 -0.86822365879E+02 -0.88163793156E+01  0.12137031179E+02  0.88234059676E+02  0.47000000000E+01 0.  1.
<mgrwt>
<rscale>  0 0.16074688E+03</rscale>
<asrwt>0</asrwt>
<pdfrwt beam="1">  1        5 0.36377659E-01 0.16075736E+03</pdfrwt>
<pdfrwt beam="2">  1       -5 0.17204596E-01 0.16075736E+03</pdfrwt>
<totfact> 0.17032134E+02</totfact>
</mgrwt>
</event>
<event>
 8    1  0.3763376E-007  0.1621345E+03  0.7546771E-02  0.1186308E+00
         -5   -1    0    0    0  501 -0.00000000000E+00  0.00000000000E+00  0.33436126168E+02  0.33764841671E+02  0.47000000000E+01 0. -1.
          5   -1    0    0  501    0  0.00000000000E+00 -0.00000000000E+00 -0.12528524113E+04  0.12528612272E+04  0.47000000000E+01 0. -1.
         25    2    1    2    0    0 -0.13573962482E+02  0.10236221677E+03 -0.21538695327E+03  0.26958994391E+03  0.12499968934E+03 0.  0.
         25    2    1    2    0    0  0.13573962482E+02 -0.10236221677E+03 -0.10040293319E+04  0.10170361249E+04  0.12500121707E+03 0.  0.
          5    1    4    4  502    0  0.26451312358E+02 -0.44746639554E+02 -0.85613583320E+03  0.85772524072E+03  0.47000000000E+01 0.  1.
         -5    1    4    4    0  502 -0.12877349876E+02 -0.57615577220E+02 -0.14789349867E+03  0.15931088421E+03  0.47000000000E+01 0.  1.
          5    1    3    3  503    0 -0.42943180548E+02  0.83763791727E+02 -0.63352583794E+02  0.11356112642E+03  0.47000000000E+01 0. -1.
         -5    1    3    3    0  503  0.29369218066E+02  0.18598425047E+02 -0.15203436948E+03  0.15602881749E+03  0.47000000000E+01 0. -1.
<mgrwt>
<rscale>  0 0.16213416E+03</rscale>
<asrwt>0</asrwt>
<pdfrwt beam="2">  1        5 0.19277245E+00 0.16213445E+03</pdfrwt>
<pdfrwt beam="1">  1       -5 0.51699843E-02 0.16213445E+03</pdfrwt>
<totfact> 0.25432641E+01</totfact>
</mgrwt>
</event>
<event>
 8    1  0.3763376E-007  0.1293032E+03  0.7546771E-02  0.1228494E+00
          5   -1    0    0  501    0  0.00000000000E+00  0.00000000000E+00  0.36818351742E+03  0.36821351483E+03  0.47000000000E+01 0.  1.
         -5   -1    0    0    0  501 -0.00000000000E+00 -0.00000000000E+00 -0.54108424048E+02  0.54312167633E+02  0.47000000000E+01 0.  1.
         25    2    1    2    0    0  0.25961861630E+02  0.20515520230E+02  0.71785280263E+02  0.14789332310E+03  0.12499761488E+03 0.  0.
         25    2    1    2    0    0 -0.25961861630E+02 -0.20515520230E+02  0.24228981311E+03  0.27463235937E+03  0.12499469766E+03 0.  0.
          5    1    4    4  502    0 -0.14350816125E+02 -0.56639776440E+02  0.22528640791E+03  0.23278759801E+03  0.47000000000E+01 0.  1.
         -5    1    4    4    0  502 -0.11611045505E+02  0.36124256210E+02  0.17003405205E+02  0.41844761356E+02  0.47000000000E+01 0.  1.
          5    1    3    3  503    0  0.66034881659E+02  0.45230965797E+02  0.56808938415E+02  0.98263886278E+02  0.47000000000E+01 0. -1.
         -5    1    3    3    0  503 -0.40073020029E+02 -0.24715445567E+02  0.14976341848E+02  0.49629436818E+02  0.47000000000E+01 0. -1.
<mgrwt>
<rscale>  0 0.12930246E+03</rscale>
<asrwt>0</asrwt>
<pdfrwt beam="1">  1        5 0.56661598E-01 0.12930317E+03</pdfrwt>
<pdfrwt beam="2">  1       -5 0.83423530E-02 0.12930317E+03</pdfrwt>
<totfact> 0.22690380E+02</totfact>
</mgrwt>
</event>
<event>
 8    1  0.3763376E-007  0.1257352E+03  0.7546771E-02  0.1233926E+00
          5   -1    0    0  501    0  0.00000000000E+00  0.00000000000E+00  0.72134799797E+03  0.72136330942E+03  0.47000000000E+01 0.  1.
         -5   -1    0    0    0  501 -0.00000000000E+00 -0.00000000000E+00 -0.28008996886E+02  0.28400596940E+02  0.47000000000E+01 0.  1.
         25    2    1    2    0    0  0.11485443356E+02 -0.72664365956E+01  0.16948316161E+03  0.21103052580E+03  0.12499849695E+03 0.  0.
         25    2    1    2    0    0 -0.11485443356E+02  0.72664365956E+01  0.52385583947E+03  0.53873338056E+03  0.12499599301E+03 0.  0.
          5    1    3    3  502    0  0.25231125443E+02 -0.35334269186E+02  0.54848404782E+01  0.44014699193E+02  0.47000000000E+01 0.  1.
         -5    1    3    3    0  502 -0.13745682087E+02  0.28067832590E+02  0.16399832113E+03  0.16701582660E+03  0.47000000000E+01 0.  1.
          5    1    4    4  503    0  0.39644237671E+02  0.46247448849E+02  0.24083764981E+03  0.24846600506E+03  0.47000000000E+01 0.  1.
         -5    1    4    4    0  503 -0.51129681027E+02 -0.38981012253E+02  0.28301818967E+03  0.29026737550E+03  0.47000000000E+01 0.  1.
<mgrwt>
<rscale>  0 0.12573458E+03</rscale>
<asrwt>0</asrwt>
<pdfrwt beam="1">  1        5 0.11100792E+00 0.12573520E+03</pdfrwt>
<pdfrwt beam="2">  1       -5 0.43403770E-02 0.12573520E+03</pdfrwt>
<totfact> 0.14210155E+02</totfact>
</mgrwt>
</event>
<event>
 8    1  0.3763376E-007  0.1354202E+03  0.7546771E-02  0.1219629E+00
         -5   -1    0    0    0  501 -0.00000000000E+00  0.00000000000E+00  0.64717015848E+03  0.64718722487E+03  0.47000000000E+01 0.  1.
          5   -1    0    0  501    0  0.00000000000E+00 -0.00000000000E+00 -0.31936245985E+02  0.32280238655E+02  0.47000000000E+01 0.  1.
         25    2    1    2    0    0 -0.48269255554E+02  0.19578967608E+02  0.42430761951E+03  0.44539372906E+03  0.12500144360E+03 0.  0.
         25    2    1    2    0    0  0.48269255554E+02 -0.19578967608E+02  0.19092629299E+03  0.23407373447E+03  0.12499762722E+03 0.  0.
          5    1    4    4  502    0  0.14987340084E+02 -0.16834730809E+02 -0.13629947087E+02  0.26756195205E+02  0.47000000000E+01 0.  1.
         -5    1    4    4    0  502  0.33281915470E+02 -0.27442367984E+01  0.20455624007E+03  0.20731753926E+03  0.47000000000E+01 0.  1.
          5    1    3    3  503    0 -0.53361072830E+02  0.52041894847E+02  0.39207529102E+03  0.39912515172E+03  0.47000000000E+01 0.  1.
         -5    1    3    3    0  503  0.50918172760E+01 -0.32462927239E+02  0.32232328497E+02  0.46268577333E+02  0.47000000000E+01 0.  1.
<mgrwt>
<rscale>  0 0.13541927E+03</rscale>
<asrwt>0</asrwt>
<pdfrwt beam="2">  1        5 0.49410420E-02 0.13542015E+03</pdfrwt>
<pdfrwt beam="1">  1       -5 0.99592421E-01 0.13542015E+03</pdfrwt>
<totfact> 0.15366841E+02</totfact>
</mgrwt>
</event>
<event>
 8    1  0.3763376E-007  0.1289523E+03  0.7546771E-02  0.1229019E+00
          5   -1    0    0  501    0  0.00000000000E+00  0.00000000000E+00  0.41752629324E+02  0.42016330819E+02  0.47000000000E+01 0. -1.
         -5   -1    0    0    0  501 -0.00000000000E+00 -0.00000000000E+00 -0.39828556693E+03  0.39831329733E+03  0.47000000000E+01 0. -1.
         25    2    1    2    0    0 -0.24440909882E+02  0.20173328939E+02 -0.16451340031E+03  0.20902853274E+03  0.12499578930E+03 0.  0.
         25    2    1    2    0    0  0.24440909882E+02 -0.20173328939E+02 -0.19201953730E+03  0.23130109540E+03  0.12499749099E+03 0.  0.
          5    1    4    4  502    0  0.33169339737E+02  0.39639025024E+02 -0.33986574940E+02  0.62037365188E+02  0.47000000000E+01 0.  1.
         -5    1    4    4    0  502 -0.87284298547E+01 -0.59812353962E+02 -0.15803296236E+03  0.16926373021E+03  0.47000000000E+01 0.  1.
          5    1    3    3  503    0  0.34365919795E+02  0.27792190708E+02 -0.13597054761E+03  0.14305069774E+03  0.47000000000E+01 0.  1.
         -5    1    3    3    0  503 -0.58806829677E+02 -0.76188617696E+01 -0.28542852707E+02  0.65977835005E+02  0.47000000000E+01 0.  1.
<mgrwt>
<rscale>  0 0.12895188E+03</rscale>
<asrwt>0</asrwt>
<pdfrwt beam="1">  1        5 0.64458995E-02 0.12895229E+03</pdfrwt>
<pdfrwt beam="2">  1       -5 0.61297118E-01 0.12895229E+03</pdfrwt>
<totfact> 0.29624685E+02</totfact>
</mgrwt>
</event>
<event>
 8    1  0.3763376E-007  0.1262268E+03  0.7546771E-02  0.1233165E+00
          5   -1    0    0  501    0  0.00000000000E+00  0.00000000000E+00  0.32262413860E+03  0.32265837167E+03  0.47000000000E+01 0. -1.
         -5   -1    0    0    0  501 -0.00000000000E+00 -0.00000000000E+00 -0.14193348996E+03  0.14201128678E+03  0.47000000000E+01 0. -1.
         25    2    1    2    0    0  0.30792460120E+01 -0.17280437222E+02 -0.97292236379E+02  0.15937059105E+03  0.12500044307E+03 0.  0.
         25    2    1    2    0    0 -0.30792460120E+01  0.17280437222E+02  0.27798288502E+03  0.30529906739E+03  0.12499976367E+03 0.  0.
          5    1    4    4  502    0  0.29091485187E+02 -0.14820303304E+02  0.24903785477E+03  0.25121285598E+03  0.47000000000E+01 0.  1.
         -5    1    4    4    0  502 -0.32170731199E+02  0.32100740526E+02  0.28945030246E+02  0.54086211405E+02  0.47000000000E+01 0.  1.
          5    1    3    3  503    0  0.16079681277E+02 -0.69737518954E+02 -0.60403081172E+02  0.93768331087E+02  0.47000000000E+01 0.  1.
         -5    1    3    3    0  503 -0.13000435265E+02  0.52457081732E+02 -0.36889155207E+02  0.65602259967E+02  0.47000000000E+01 0.  1.
<mgrwt>
<rscale>  0 0.12622664E+03</rscale>
<asrwt>0</asrwt>
<pdfrwt beam="1">  1        5 0.49643101E-01 0.12622680E+03</pdfrwt>
<pdfrwt beam="2">  1       -5 0.21844539E-01 0.12622680E+03</pdfrwt>
<totfact> 0.53139480E+01</totfact>
</mgrwt>
</event>
<event>
 8    1  0.3763376E-007  0.1260027E+03  0.7546771E-02  0.1233515E+00
         -5   -1    0    0    0  501 -0.00000000000E+00  0.00000000000E+00  0.24080291731E+03  0.24084878032E+03  0.47000000000E+01 0. -1.
          5   -1    0    0  501    0  0.00000000000E+00 -0.00000000000E+00 -0.65953565621E+02  0.66120819854E+02  0.47000000000E+01 0. -1.
         25    2    1    2    0    0 -0.11180976745E+02 -0.11122479634E+02  0.95050796816E+02  0.15783324495E+03  0.12501182121E+03 0.  0.
         25    2    1    2    0    0  0.11180976745E+02  0.11122479634E+02  0.79798554869E+02  0.14913635522E+03  0.12500047718E+03 0.  0.
          5    1    3    3  502    0  0.19504738165E+02 -0.58628956700E+02  0.22955678710E+02  0.66082089553E+02  0.47000000000E+01 0.  1.
         -5    1    3    3    0  502 -0.30685714910E+02  0.47506477066E+02  0.72095118106E+02  0.91751155401E+02  0.47000000000E+01 0.  1.
          5    1    4    4  503    0 -0.13587633798E+02 -0.20793117792E+02 -0.25712196376E+02  0.36058072359E+02  0.47000000000E+01 0. -1.
         -5    1    4    4    0  503  0.24768610543E+02  0.31915597426E+02  0.10551075125E+03  0.11307828286E+03  0.47000000000E+01 0. -1.
<mgrwt>
<rscale>  0 0.12599988E+03</rscale>
<asrwt>0</asrwt>
<pdfrwt beam="2">  1        5 0.10163096E-01 0.12600270E+03</pdfrwt>
<pdfrwt beam="1">  1       -5 0.37062996E-01 0.12600270E+03</pdfrwt>
<totfact> 0.38742134E+02</totfact>
</mgrwt>
</event>
<event>
 8    1  0.3763376E-007  0.1763629E+03  0.7546771E-02  0.1171373E+00
          5   -1    0    0  501    0  0.00000000000E+00  0.00000000000E+00  0.37999203554E+02  0.38288764289E+02  0.47000000000E+01 0. -1.
         -5   -1    0    0    0  501 -0.00000000000E+00 -0.00000000000E+00 -0.84442163728E+03  0.84443471714E+03  0.47000000000E+01 0. -1.
         25    2    1    2    0    0 -0.28745410770E+02 -0.12103428035E+03 -0.48545361730E+03  0.51649285903E+03  0.12499625283E+03 0.  0.
         25    2    1    2    0    0  0.28745410770E+02  0.12103428035E+03 -0.32096881643E+03  0.36623062240E+03  0.12501316732E+03 0.  0.
          5    1    4    4  502    0  0.54037855394E+01  0.11115899881E+03 -0.12044463931E+03  0.16405646909E+03  0.47000000000E+01 0.  1.
         -5    1    4    4    0  502  0.23341625230E+02  0.98752815425E+01 -0.20052417713E+03  0.20217415331E+03  0.47000000000E+01 0.  1.
          5    1    3    3  503    0 -0.42435541126E+02 -0.81662145777E+02 -0.45604673505E+03  0.46526357665E+03  0.47000000000E+01 0.  1.
         -5    1    3    3    0  503  0.13690130356E+02 -0.39372134571E+02 -0.29406882244E+02  0.51229282380E+02  0.47000000000E+01 0.  1.
<mgrwt>
<rscale>  0 0.17635995E+03</rscale>
<asrwt>0</asrwt>
<pdfrwt beam="1">  1        5 0.58693120E-02 0.17636294E+03</pdfrwt>
<pdfrwt beam="2">  1       -5 0.12993429E+00 0.17636294E+03</pdfrwt>
<totfact> 0.63828676E+01</totfact>
</mgrwt>
</event>
<event>
 8    1  0.3763376E-007  0.1361817E+03  0.7546771E-02  0.1218562E+00
         -5   -1    0    0    0  501 -0.00000000000E+00  0.00000000000E+00  0.80854739361E+02  0.80991227161E+02  0.47000000000E+01 0. -1.
          5   -1    0    0  501    0  0.00000000000E+00 -0.00000000000E+00 -0.23206436591E+03  0.23211195558E+03  0.47000000000E+01 0. -1.
         25    2    1    2    0    0  0.49414105869E+02 -0.21876289499E+02 -0.57655641672E+02  0.14788383327E+03  0.12500051690E+03 0.  0.
         25    2    1    2    0    0 -0.49414105869E+02  0.21876289499E+02 -0.93553984874E+02  0.16521934947E+03  0.12499903781E+03 0.  0.
          5    1    4    4  502    0  0.25454301378E+02 -0.33801399163E+02 -0.33338628871E+02  0.54074117830E+02  0.47000000000E+01 0.  1.
         -5    1    4    4    0  502 -0.74868407247E+02  0.55677688662E+02 -0.60215356002E+02  0.11114523164E+03  0.47000000000E+01 0.  1.
          5    1    3    3  503    0  0.77067316428E+02  0.12548970719E+02 -0.66423268205E+02  0.10262060459E+03  0.47000000000E+01 0.  1.
         -5    1    3    3    0  503 -0.27653210559E+02 -0.34425260219E+02  0.87676265334E+01  0.45263228678E+02  0.47000000000E+01 0.  1.
<mgrwt>
<rscale>  0 0.13618136E+03</rscale>
<asrwt>0</asrwt>
<pdfrwt beam="2">  1        5 0.35716370E-01 0.13618170E+03</pdfrwt>
<pdfrwt beam="1">  1       -5 0.12453351E-01 0.13618170E+03</pdfrwt>
<totfact> 0.30009789E+02</totfact>
</mgrwt>
</event>
<event>
 8    1  0.3763376E-007  0.2258377E+03  0.7546771E-02  0.1129604E+00
          5   -1    0    0  501    0  0.00000000000E+00  0.00000000000E+00  0.16396024152E+03  0.16402759158E+03  0.47000000000E+01 0. -1.
         -5   -1    0    0    0  501 -0.00000000000E+00 -0.00000000000E+00 -0.32729456709E+03  0.32732831171E+03  0.47000000000E+01 0. -1.
         25    2    1    2    0    0  0.18541889864E+03 -0.31579992424E+02 -0.13661455581E+03  0.26394303391E+03  0.12499969757E+03 0.  0.
         25    2    1    2    0    0 -0.18541889864E+03  0.31579992424E+02 -0.26719769761E+02  0.22741286938E+03  0.12500081268E+03 0.  0.
          5    1    3    3  502    0  0.33117874494E+02 -0.15431127467E+02  0.22402977952E+02  0.43114924643E+02  0.47000000000E+01 0.  1.
         -5    1    3    3    0  502  0.15230102415E+03 -0.16148864957E+02 -0.15901753376E+03  0.22082810926E+03  0.47000000000E+01 0.  1.
          5    1    4    4  503    0 -0.14882137045E+03  0.69607238292E+02 -0.46566309274E+02  0.17083172740E+03  0.47000000000E+01 0.  1.
         -5    1    4    4    0  503 -0.36597528192E+02 -0.38027245868E+02  0.19846539513E+02  0.56581141988E+02  0.47000000000E+01 0.  1.
<mgrwt>
<rscale>  0 0.22583755E+03</rscale>
<asrwt>0</asrwt>
<pdfrwt beam="1">  1        5 0.25232429E-01 0.22583770E+03</pdfrwt>
<pdfrwt beam="2">  1       -5 0.50360787E-01 0.22583770E+03</pdfrwt>
<totfact> 0.46228334E+01</totfact>
</mgrwt>
</event>
<event>
 8    1  0.3763376E-007  0.1298370E+03  0.7546771E-02  0.1227703E+00
         -5   -1    0    0    0  501 -0.00000000000E+00  0.00000000000E+00  0.13229212954E+02  0.14039304662E+02  0.47000000000E+01 0.  1.
          5   -1    0    0  501    0  0.00000000000E+00 -0.00000000000E+00 -0.13899478504E+04  0.13899557967E+04  0.47000000000E+01 0.  1.
         25    2    1    2    0    0 -0.34730457132E+02 -0.52194549314E+01 -0.45442936606E+03  0.47261368134E+03  0.12499678273E+03 0.  0.
         25    2    1    2    0    0  0.34730457132E+02  0.52194549314E+01 -0.92228927137E+03  0.93138142002E+03  0.12498160711E+03 0.  0.
          5    1    4    4  502    0  0.53543958756E+02  0.50068008822E+02 -0.69667197554E+03  0.70053386252E+03  0.47000000000E+01 0.  1.
         -5    1    4    4    0  502 -0.18813501624E+02 -0.44848553890E+02 -0.22561729583E+03  0.23084755751E+03  0.47000000000E+01 0.  1.
          5    1    3    3  503    0  0.26393106946E+02 -0.38903482647E+02 -0.91208334238E+02  0.10271868034E+03  0.47000000000E+01 0.  1.
         -5    1    3    3    0  503 -0.61123564078E+02  0.33684027716E+02 -0.36322103182E+03  0.36989500100E+03  0.47000000000E+01 0.  1.
<mgrwt>
<rscale>  0 0.12983333E+03</rscale>
<asrwt>0</asrwt>
<pdfrwt beam="2">  1        5 0.21390094E+00 0.12983699E+03</pdfrwt>
<pdfrwt beam="1">  1       -5 0.20981906E-02 0.12983699E+03</pdfrwt>
<totfact> 0.74675965E+01</totfact>
</mgrwt>
</event>
<event>
 8    1  0.3763376E-007  0.1332713E+03  0.7546771E-02  0.1222682E+00
         -5   -1    0    0    0  501 -0.00000000000E+00  0.00000000000E+00  0.20349990105E+02  0.20885691209E+02  0.47000000000E+01 0.  1.
          5   -1    0    0  501    0  0.00000000000E+00 -0.00000000000E+00 -0.87096830366E+03  0.87098098486E+03  0.47000000000E+01 0.  1.
         25    2    1    2    0    0  0.23074963180E+02  0.40042689733E+02 -0.37736029630E+03  0.40020250066E+03  0.12500150951E+03 0.  0.
         25    2    1    2    0    0 -0.23074963180E+02 -0.40042689733E+02 -0.47325801726E+03  0.49166417541E+03  0.12499855822E+03 0.  0.
          5    1    3    3  502    0 -0.17627962546E+02  0.56464204371E+02 -0.33066001397E+03  0.33594208768E+03  0.47000000000E+01 0.  1.
         -5    1    3    3    0  502  0.40702925726E+02 -0.16421514638E+02 -0.46700282333E+02  0.64260412974E+02  0.47000000000E+01 0.  1.
          5    1    4    4  503    0 -0.59704479798E+02 -0.55987369290E+01 -0.11420140387E+03  0.12907370533E+03  0.47000000000E+01 0. -1.
         -5    1    4    4    0  503  0.36629516618E+02 -0.34443952804E+02 -0.35905661339E+03  0.36259047008E+03  0.47000000000E+01 0. -1.
<mgrwt>
<rscale>  0 0.13327064E+03</rscale>
<asrwt>0</asrwt>
<pdfrwt beam="2">  1        5 0.13403728E+00 0.13327133E+03</pdfrwt>
<pdfrwt beam="1">  1       -5 0.31729516E-02 0.13327133E+03</pdfrwt>
<totfact> 0.14932978E+02</totfact>
</mgrwt>
</event>
<event>
 8    1  0.3763376E-007  0.1344118E+03  0.7546771E-02  0.1221059E+00
         -5   -1    0    0    0  501 -0.00000000000E+00  0.00000000000E+00  0.50949941279E+03  0.50952109047E+03  0.47000000000E+01 0. -1.
          5   -1    0    0  501    0  0.00000000000E+00 -0.00000000000E+00 -0.39888117124E+02  0.40164062141E+02  0.47000000000E+01 0. -1.
         25    2    1    2    0    0  0.40587872237E+02 -0.28148468379E+02  0.32790710907E+03  0.35438622109E+03  0.12500723929E+03 0.  0.
         25    2    1    2    0    0 -0.40587872237E+02  0.28148468379E+02  0.14170418660E+03  0.19529893152E+03  0.12498753742E+03 0.  0.
          5    1    3    3  502    0  0.50403633545E+02 -0.59959480719E+02  0.30175539697E+03  0.31179171767E+03  0.47000000000E+01 0. -1.
         -5    1    3    3    0  502 -0.98157613086E+01  0.31811012340E+02  0.26151712096E+02  0.42594503421E+02  0.47000000000E+01 0. -1.
          5    1    4    4  503    0  0.22962437433E+02 -0.31678478922E+02  0.16775762534E+02  0.42828912761E+02  0.47000000000E+01 0. -1.
         -5    1    4    4    0  503 -0.63550309670E+02  0.59826947301E+02  0.12492842406E+03  0.15247001876E+03  0.47000000000E+01 0. -1.
<mgrwt>
<rscale>  0 0.13440718E+03</rscale>
<asrwt>0</asrwt>
<pdfrwt beam="2">  1        5 0.61595275E-02 0.13441176E+03</pdfrwt>
<pdfrwt beam="1">  1       -5 0.78407419E-01 0.13441176E+03</pdfrwt>
<totfact> 0.18662316E+02</totfact>
</mgrwt>
</event>
<event>
 8    1  0.3763376E-007  0.1310016E+03  0.7546771E-02  0.1225980E+00
         -5   -1    0    0    0  501 -0.00000000000E+00  0.00000000000E+00  0.17071342246E+03  0.17077810928E+03  0.47000000000E+01 0.  1.
          5   -1    0    0  501    0  0.00000000000E+00 -0.00000000000E+00 -0.12204171919E+03  0.12213218750E+03  0.47000000000E+01 0.  1.
         25    2    1    2    0    0  0.35022617021E+02 -0.17577866278E+02  0.85993351374E+02  0.15670445185E+03  0.12500345460E+03 0.  0.
         25    2    1    2    0    0 -0.35022617021E+02  0.17577866278E+02 -0.37321648104E+02  0.13620584493E+03  0.12499424663E+03 0.  0.
          5    1    3    3  502    0 -0.33708918177E+02 -0.45300845063E+02  0.39920992912E+02  0.69312577525E+02  0.47000000000E+01 0.  1.
         -5    1    3    3    0  502  0.68731535199E+02  0.27722978785E+02  0.46072358461E+02  0.87391874323E+02  0.47000000000E+01 0.  1.
          5    1    4    4  503    0 -0.21546192736E+02 -0.36737124331E+02  0.27134071647E+02  0.50716886435E+02  0.47000000000E+01 0.  1.
         -5    1    4    4    0  503 -0.13476424285E+02  0.54314990609E+02 -0.64455719750E+02  0.85488958497E+02  0.47000000000E+01 0.  1.
<mgrwt>
<rscale>  0 0.13099944E+03</rscale>
<asrwt>0</asrwt>
<pdfrwt beam="2">  1        5 0.18787584E-01 0.13100164E+03</pdfrwt>
<pdfrwt beam="1">  1       -5 0.26275539E-01 0.13100164E+03</pdfrwt>
<totfact> 0.25693086E+02</totfact>
</mgrwt>
</event>
<event>
 8    1  0.3763376E-007  0.1612252E+03  0.7546771E-02  0.1187321E+00
          5   -1    0    0  501    0  0.00000000000E+00  0.00000000000E+00  0.14848098625E+03  0.14855535426E+03  0.47000000000E+01 0. -1.
         -5   -1    0    0    0  501 -0.00000000000E+00 -0.00000000000E+00 -0.17777108863E+03  0.17783320824E+03  0.47000000000E+01 0. -1.
         25    2    1    2    0    0 -0.35860709988E+02 -0.95301362331E+02 -0.35332179198E+02  0.16505125241E+03  0.12500085140E+03 0.  0.
         25    2    1    2    0    0  0.35860709988E+02  0.95301362331E+02  0.60420768225E+01  0.16133731009E+03  0.12499952301E+03 0.  0.
          5    1    3    3  502    0 -0.34777705131E+02 -0.12093473843E+03 -0.49577081286E+02  0.13533172843E+03  0.47000000000E+01 0. -1.
         -5    1    3    3    0  502 -0.10830048577E+01  0.25633376095E+02  0.14244902088E+02  0.29719523971E+02  0.47000000000E+01 0. -1.
          5    1    4    4  503    0  0.52452221941E+02  0.19062110946E+02  0.46979365722E+02  0.73100960759E+02  0.47000000000E+01 0. -1.
         -5    1    4    4    0  503 -0.16591511953E+02  0.76239251385E+02 -0.40937288900E+02  0.88236349330E+02  0.47000000000E+01 0. -1.
<mgrwt>
<rscale>  0 0.16122491E+03</rscale>
<asrwt>0</asrwt>
<pdfrwt beam="1">  1        5 0.22853728E-01 0.16122516E+03</pdfrwt>
<pdfrwt beam="2">  1       -5 0.27359897E-01 0.16122516E+03</pdfrwt>
<totfact> 0.17630657E+02</totfact>
</mgrwt>
</event>
<event>
 8    1  0.3763376E-007  0.1493067E+03  0.7546771E-02  0.1201333E+00
         -5   -1    0    0    0  501 -0.00000000000E+00  0.00000000000E+00  0.11148858709E+04  0.11148957777E+04  0.47000000000E+01 0.  1.
          5   -1    0    0  501    0  0.00000000000E+00 -0.00000000000E+00 -0.19788560274E+02  0.20339054003E+02  0.47000000000E+01 0.  1.
         25    2    1    2    0    0 -0.52636796932E+02  0.62419004799E+02  0.58353159038E+03  0.60232585692E+03  0.12498222432E+03 0.  0.
         25    2    1    2    0    0  0.52636796932E+02 -0.62419004799E+02  0.51156572023E+03  0.53290897477E+03  0.12500289883E+03 0.  0.
          5    1    3    3  502    0 -0.63702985061E+01  0.58577308611E+02  0.97209386341E+02  0.11377010407E+03  0.47000000000E+01 0.  1.
         -5    1    3    3    0  502 -0.46266498426E+02  0.38416961875E+01  0.48632220404E+03  0.48855575285E+03  0.47000000000E+01 0.  1.
          5    1    4    4  503    0 -0.49581256974E+01  0.54125386905E+01  0.33517165701E+03  0.33528496573E+03  0.47000000000E+01 0. -1.
         -5    1    4    4    0  503  0.57594922630E+02 -0.67831543489E+02  0.17639406323E+03  0.19762400903E+03  0.47000000000E+01 0. -1.
<mgrwt>
<rscale>  0 0.14930237E+03</rscale>
<asrwt>0</asrwt>
<pdfrwt beam="2">  1        5 0.30875017E-02 0.14930670E+03</pdfrwt>
<pdfrwt beam="1">  1       -5 0.17156401E+00 0.14930670E+03</pdfrwt>
<totfact> 0.82026368E+01</totfact>
</mgrwt>
</event>
<event>
 8    1  0.3763376E-007  0.1346360E+03  0.7546771E-02  0.1220737E+00
         -5   -1    0    0    0  501 -0.00000000000E+00  0.00000000000E+00  0.74164891940E+02  0.74313667629E+02  0.47000000000E+01 0.  1.
          5   -1    0    0  501    0  0.00000000000E+00 -0.00000000000E+00 -0.34275588603E+03  0.34278810862E+03  0.47000000000E+01 0.  1.
         25    2    1    2    0    0 -0.10783018694E+02 -0.48826207338E+02 -0.22370696900E+02  0.13647519902E+03  0.12499903941E+03 0.  0.
         25    2    1    2    0    0  0.10783018694E+02  0.48826207338E+02 -0.24622029719E+03  0.28062657722E+03  0.12500627616E+03 0.  0.
          5    1    3    3  502    0  0.40304951046E+02  0.18569065187E+02 -0.26091509636E+02  0.51692902180E+02  0.47000000000E+01 0.  1.
         -5    1    3    3    0  502 -0.51087969740E+02 -0.67395272525E+02  0.37208127353E+01  0.84782296845E+02  0.47000000000E+01 0.  1.
          5    1    4    4  503    0  0.52323408639E+02  0.68836960389E+02 -0.18062685752E+03  0.20031080317E+03  0.47000000000E+01 0. -1.
         -5    1    4    4    0  503 -0.41540389944E+02 -0.20010753051E+02 -0.65593439668E+02  0.80315774054E+02  0.47000000000E+01 0. -1.
<mgrwt>
<rscale>  0 0.13463428E+03</rscale>
<asrwt>0</asrwt>
<pdfrwt beam="2">  1        5 0.52745597E-01 0.13463596E+03</pdfrwt>
<pdfrwt beam="1">  1       -5 0.11423907E-01 0.13463596E+03</pdfrwt>
<totfact> 0.15529823E+02</totfact>
</mgrwt>
</event>
<event>
 8    1  0.3763376E-007  0.1321044E+03  0.7546771E-02  0.1224367E+00
         -5   -1    0    0    0  501 -0.00000000000E+00  0.00000000000E+00  0.10439836801E+03  0.10450411113E+03  0.47000000000E+01 0. -1.
          5   -1    0    0  501    0  0.00000000000E+00 -0.00000000000E+00 -0.16712434750E+03  0.16719042296E+03  0.47000000000E+01 0. -1.
         25    2    1    2    0    0 -0.42512806874E+02 -0.43006071365E+01 -0.26805765473E+02  0.13479664019E+03  0.12500300466E+03 0.  0.
         25    2    1    2    0    0  0.42512806874E+02  0.43006071365E+01 -0.35920214020E+02  0.13689789390E+03  0.12499975044E+03 0.  0.
          5    1    4    4  502    0  0.41386229357E+02  0.61256420072E+02 -0.12489687526E+02  0.75121576627E+02  0.47000000000E+01 0. -1.
         -5    1    4    4    0  502  0.11265775177E+01 -0.56955812936E+02 -0.23430526493E+02  0.61776317273E+02  0.47000000000E+01 0. -1.
          5    1    3    3  503    0  0.34758124792E+02  0.10143315339E+02 -0.40866822022E+02  0.54801471033E+02  0.47000000000E+01 0. -1.
         -5    1    3    3    0  503 -0.77270931667E+02 -0.14443922475E+02  0.14061056549E+02  0.79995169156E+02  0.47000000000E+01 0. -1.
<mgrwt>
<rscale>  0 0.13210368E+03</rscale>
<asrwt>0</asrwt>
<pdfrwt beam="2">  1        5 0.25724655E-01 0.13210445E+03</pdfrwt>
<pdfrwt beam="1">  1       -5 0.16074504E-01 0.13210445E+03</pdfrwt>
<totfact> 0.35744011E+02</totfact>
</mgrwt>
</event>
<event>
 8    1  0.3763376E-007  0.1260989E+03  0.7546771E-02  0.1233367E+00
         -5   -1    0    0    0  501 -0.00000000000E+00  0.00000000000E+00  0.15541380172E+02  0.16236517412E+02  0.47000000000E+01 0. -1.
          5   -1    0    0  501    0  0.00000000000E+00 -0.00000000000E+00 -0.10001372390E+04  0.10001482824E+04  0.47000000000E+01 0. -1.
         25    2    1    2    0    0  0.11080170426E+02 -0.12421706595E+02 -0.49933353153E+03  0.51500961314E+03  0.12499542769E+03 0.  0.
         25    2    1    2    0    0 -0.11080170426E+02  0.12421706595E+02 -0.48526232731E+03  0.50137518671E+03  0.12498192897E+03 0.  0.
          5    1    3    3  502    0 -0.36476914877E+02  0.30308237050E+02 -0.10257663322E+03  0.11310707420E+03  0.47000000000E+01 0.  1.
         -5    1    3    3    0  502  0.47557085303E+02 -0.42729943645E+02 -0.39675689831E+03  0.40190253894E+03  0.47000000000E+01 0.  1.
          5    1    4    4  503    0 -0.40882218551E+02  0.57265365938E+02 -0.31241138092E+03  0.32027119580E+03  0.47000000000E+01 0.  1.
         -5    1    4    4    0  503  0.29802048125E+02 -0.44843659343E+02 -0.17285094639E+03  0.18110399091E+03  0.47000000000E+01 0.  1.
<mgrwt>
<rscale>  0 0.12609553E+03</rscale>
<asrwt>0</asrwt>
<pdfrwt beam="2">  1        5 0.15392154E+00 0.12609887E+03</pdfrwt>
<pdfrwt beam="1">  1       -5 0.24453039E-02 0.12609887E+03</pdfrwt>
<totfact> 0.15369919E+02</totfact>
</mgrwt>
</event>
<event>
 8    1  0.3763376E-007  0.1567430E+03  0.7546771E-02  0.1192425E+00
         -5   -1    0    0    0  501 -0.00000000000E+00  0.00000000000E+00  0.11999856350E+03  0.12009057100E+03  0.47000000000E+01 0. -1.
          5   -1    0    0  501    0  0.00000000000E+00 -0.00000000000E+00 -0.27000628406E+03  0.27004718742E+03  0.47000000000E+01 0. -1.
         25    2    1    2    0    0  0.16722925588E+01 -0.94550017684E+02  0.21025574554E+02  0.15814691379E+03  0.12500347656E+03 0.  0.
         25    2    1    2    0    0 -0.16722925588E+01  0.94550017684E+02 -0.17103329511E+03  0.23199084462E+03  0.12499944617E+03 0.  0.
          5    1    4    4  502    0 -0.63081404456E+02  0.48987000926E+02 -0.91954514506E+02  0.12188811503E+03  0.47000000000E+01 0. -1.
         -5    1    4    4    0  502  0.61409111897E+02  0.45563016758E+02 -0.79078780608E+02  0.11010272959E+03  0.47000000000E+01 0. -1.
          5    1    3    3  503    0  0.61796751854E+02 -0.34228604727E+02  0.24033211416E+01  0.70839973700E+02  0.47000000000E+01 0.  1.
         -5    1    3    3    0  503 -0.60124459295E+02 -0.60321412957E+02  0.18622253413E+02  0.87306940095E+02  0.47000000000E+01 0.  1.
<mgrwt>
<rscale>  0 0.15674221E+03</rscale>
<asrwt>0</asrwt>
<pdfrwt beam="2">  1        5 0.41549652E-01 0.15674301E+03</pdfrwt>
<pdfrwt beam="1">  1       -5 0.18471541E-01 0.15674301E+03</pdfrwt>
<totfact> 0.11295930E+02</totfact>
</mgrwt>
</event>
<event>
 8    1  0.3763376E-007  0.1955272E+03  0.7546771E-02  0.1153570E+00
          5   -1    0    0  501    0  0.00000000000E+00  0.00000000000E+00  0.10662088163E+04  0.10662191754E+04  0.47000000000E+01 0. -1.
         -5   -1    0    0    0  501 -0.00000000000E+00 -0.00000000000E+00 -0.54424930231E+02  0.54627493358E+02  0.47000000000E+01 0. -1.
         25    2    1    2    0    0 -0.56794926591E+02  0.13920388863E+03  0.17789833178E+03  0.26434582657E+03  0.12501005272E+03 0.  0.
         25    2    1    2    0    0  0.56794926591E+02 -0.13920388863E+03  0.83388555434E+03  0.85650084222E+03  0.12500075476E+03 0.  0.
          5    1    4    4  502    0  0.87802759099E+02 -0.11542930125E+03  0.74913285178E+03  0.76305659535E+03  0.47000000000E+01 0. -1.
         -5    1    4    4    0  502 -0.31007832507E+02 -0.23774587374E+02  0.84752702564E+02  0.93444246872E+02  0.47000000000E+01 0. -1.
          5    1    3    3  503    0 -0.65219569084E+02  0.48200995459E+02  0.14664787053E+03  0.16764431420E+03  0.47000000000E+01 0. -1.
         -5    1    3    3    0  503  0.84246424931E+01  0.91002893167E+02  0.31250461252E+02  0.96701512368E+02  0.47000000000E+01 0. -1.
<mgrwt>
<rscale>  0 0.19552575E+03</rscale>
<asrwt>0</asrwt>
<pdfrwt beam="1">  1        5 0.16404848E+00 0.19552723E+03</pdfrwt>
<pdfrwt beam="2">  1       -5 0.83894462E-02 0.19552723E+03</pdfrwt>
<totfact> 0.18839375E+01</totfact>
</mgrwt>
</event>
<event>
 8    1  0.3763376E-007  0.1256722E+03  0.7546771E-02  0.1234024E+00
         -5   -1    0    0    0  501 -0.00000000000E+00  0.00000000000E+00  0.47988689417E+03  0.47990990945E+03  0.47000000000E+01 0.  1.
          5   -1    0    0  501    0  0.00000000000E+00 -0.00000000000E+00 -0.33911548625E+02  0.34235699644E+02  0.47000000000E+01 0.  1.
         25    2    1    2    0    0 -0.16069010156E+01  0.12842361008E+02  0.27096007496E+03  0.29868365850E+03  0.12500022907E+03 0.  0.
         25    2    1    2    0    0  0.16069010156E+01 -0.12842361008E+02  0.17501527059E+03  0.21546195060E+03  0.12500399534E+03 0.  0.
          5    1    3    3  502    0  0.40987038159E+02 -0.31727204368E+02  0.18889865905E+03  0.19593709753E+03  0.47000000000E+01 0.  1.
         -5    1    3    3    0  502 -0.42593939175E+02  0.44569565375E+02  0.82061415901E+02  0.10274656097E+03  0.47000000000E+01 0.  1.
          5    1    4    4  503    0  0.10026573484E+00  0.28957303650E+02 -0.57213003336E+01  0.29889107805E+02  0.47000000000E+01 0. -1.
         -5    1    4    4    0  503  0.15066352807E+01 -0.41799664657E+02  0.18073657092E+03  0.18557284280E+03  0.47000000000E+01 0. -1.
<mgrwt>
<rscale>  0 0.12567128E+03</rscale>
<asrwt>0</asrwt>
<pdfrwt beam="2">  1        5 0.52438669E-02 0.12567222E+03</pdfrwt>
<pdfrwt beam="1">  1       -5 0.73855452E-01 0.12567222E+03</pdfrwt>
<totfact> 0.27353426E+02</totfact>
</mgrwt>
</event>
<event>
 8    1  0.3763376E-007  0.1479848E+03  0.7546771E-02  0.1202975E+00
         -5   -1    0    0    0  501 -0.00000000000E+00  0.00000000000E+00  0.22429534464E+03  0.22434458234E+03  0.47000000000E+01 0.  1.
          5   -1    0    0  501    0  0.00000000000E+00 -0.00000000000E+00 -0.97534385818E+02  0.97647562268E+02  0.47000000000E+01 0.  1.
         25    2    1    2    0    0 -0.71708485767E+02  0.33707123753E+02  0.65775735017E+02  0.16194426262E+03  0.12498487811E+03 0.  0.
         25    2    1    2    0    0  0.71708485767E+02 -0.33707123753E+02  0.60985223805E+02  0.16004788199E+03  0.12497139627E+03 0.  0.
          5    1    4    4  502    0  0.28429794512E+02 -0.15951449791E+02 -0.38107023726E+02  0.50368017865E+02  0.47000000000E+01 0.  1.
         -5    1    4    4    0  502  0.43278691255E+02 -0.17755673962E+02  0.99092247531E+02  0.10967986413E+03  0.47000000000E+01 0.  1.
          5    1    3    3  503    0 -0.10472085479E+03  0.31703694125E+02  0.67233870100E+02  0.12850706182E+03  0.47000000000E+01 0. -1.
         -5    1    3    3    0  503  0.33012369027E+02  0.20034296281E+01 -0.14581350831E+01  0.33437200795E+02  0.47000000000E+01 0. -1.
<mgrwt>
<rscale>  0 0.14798194E+03</rscale>
<asrwt>0</asrwt>
<pdfrwt beam="2">  1        5 0.15017784E-01 0.14798479E+03</pdfrwt>
<pdfrwt beam="1">  1       -5 0.34519469E-01 0.14798479E+03</pdfrwt>
<totfact> 0.23614653E+02</totfact>
</mgrwt>
</event>
<event>
 8    1  0.3763376E-007  0.1742863E+03  0.7546771E-02  0.1173450E+00
          5   -1    0    0  501    0  0.00000000000E+00  0.00000000000E+00  0.18666508861E+03  0.18672424937E+03  0.47000000000E+01 0. -1.
         -5   -1    0    0    0  501 -0.00000000000E+00 -0.00000000000E+00 -0.17352083375E+03  0.17358447438E+03  0.47000000000E+01 0. -1.
         25    2    1    2    0    0  0.12123348682E+03 -0.73051234174E+01 -0.38588874955E+02  0.17850654071E+03  0.12499824259E+03 0.  0.
         25    2    1    2    0    0 -0.12123348682E+03  0.73051234174E+01  0.51733129808E+02  0.18180218305E+03  0.12499917555E+03 0.  0.
          5    1    4    4  502    0 -0.54370408655E+02  0.57600821926E+02 -0.67168207339E+01  0.79631662702E+02  0.47000000000E+01 0.  1.
         -5    1    4    4    0  502 -0.66863078161E+02 -0.50295698509E+02  0.58449950542E+02  0.10217052035E+03  0.47000000000E+01 0.  1.
          5    1    3    3  503    0  0.25072232045E+02  0.11987889634E+02 -0.69962021139E+02  0.75426127565E+02  0.47000000000E+01 0. -1.
         -5    1    3    3    0  503  0.96161254772E+02 -0.19293013051E+02  0.31373146184E+02  0.10308041314E+03  0.47000000000E+01 0. -1.
<mgrwt>
<rscale>  0 0.17428614E+03</rscale>
<asrwt>0</asrwt>
<pdfrwt beam="1">  1        5 0.28727152E-01 0.17428631E+03</pdfrwt>
<pdfrwt beam="2">  1       -5 0.26704959E-01 0.17428631E+03</pdfrwt>
<totfact> 0.12169025E+02</totfact>
</mgrwt>
</event>
<event>
 8    1  0.3763376E-007  0.1620378E+03  0.7546771E-02  0.1186418E+00
         -5   -1    0    0    0  501 -0.00000000000E+00  0.00000000000E+00  0.52102246920E+03  0.52104366747E+03  0.47000000000E+01 0. -1.
          5   -1    0    0  501    0  0.00000000000E+00 -0.00000000000E+00 -0.51419987445E+02  0.51634340403E+02  0.47000000000E+01 0. -1.
         25    2    1    2    0    0  0.61016882435E+02 -0.83112891820E+02  0.27773074829E+03  0.32153859422E+03  0.12498754458E+03 0.  0.
         25    2    1    2    0    0 -0.61016882435E+02  0.83112891820E+02  0.19187173346E+03  0.25113941365E+03  0.12500172102E+03 0.  0.
          5    1    4    4  502    0 -0.43948094444E+02  0.94918182585E+02  0.20203740740E+03  0.22755680692E+03  0.47000000000E+01 0. -1.
         -5    1    4    4    0  502 -0.17068787991E+02 -0.11805290765E+02 -0.10165673932E+02  0.23582606727E+02  0.47000000000E+01 0. -1.
          5    1    3    3  503    0  0.62276762795E+01 -0.54706429180E+01  0.19565099039E+03  0.19588290361E+03  0.47000000000E+01 0. -1.
         -5    1    3    3    0  503  0.54789206156E+02 -0.77642248902E+02  0.82079757895E+02  0.12565569061E+03  0.47000000000E+01 0. -1.
<mgrwt>
<rscale>  0 0.16203505E+03</rscale>
<asrwt>0</asrwt>
<pdfrwt beam="2">  1        5 0.79288870E-02 0.16203778E+03</pdfrwt>
<pdfrwt beam="1">  1       -5 0.80175419E-01 0.16203778E+03</pdfrwt>
<totfact> 0.12251591E+02</totfact>
</mgrwt>
</event>
<event>
 8    1  0.3763376E-007  0.1258994E+03  0.7546771E-02  0.1233671E+00
         -5   -1    0    0    0  501 -0.00000000000E+00  0.00000000000E+00  0.25848789488E+02  0.26272607750E+02  0.47000000000E+01 0.  1.
          5   -1    0    0  501    0  0.00000000000E+00 -0.00000000000E+00 -0.74306272685E+03  0.74307759085E+03  0.47000000000E+01 0.  1.
         25    2    1    2    0    0  0.14929751887E+02  0.91246770444E+00 -0.19452297999E+03  0.23171072729E+03  0.12500776499E+03 0.  0.
         25    2    1    2    0    0 -0.14929751887E+02 -0.91246770444E+00 -0.52269095737E+03  0.53763947132E+03  0.12500653629E+03 0.  0.
          5    1    3    3  502    0  0.10050948652E+01 -0.12555048336E+02 -0.20749346588E+03  0.20792851617E+03  0.47000000000E+01 0.  1.
         -5    1    3    3    0  502  0.13924657021E+02  0.13467516041E+02  0.12970485887E+02  0.23782211117E+02  0.47000000000E+01 0.  1.
          5    1    4    4  503    0 -0.19698015393E+02 -0.32564935062E+02 -0.49051100232E+03  0.49200774405E+03  0.47000000000E+01 0. -1.
         -5    1    4    4    0  503  0.47682635069E+01  0.31652467357E+02 -0.32179955048E+02  0.45631727270E+02  0.47000000000E+01 0. -1.
<mgrwt>
<rscale>  0 0.12589914E+03</rscale>
<asrwt>0</asrwt>
<pdfrwt beam="2">  1        5 0.11435107E+00 0.12589945E+03</pdfrwt>
<pdfrwt beam="1">  1       -5 0.40104822E-02 0.12589945E+03</pdfrwt>
<totfact> 0.15031770E+02</totfact>
</mgrwt>
</event>
<event>
 8    1  0.3763376E-007  0.1687209E+03  0.7546771E-02  0.1179189E+00
          5   -1    0    0  501    0  0.00000000000E+00  0.00000000000E+00  0.13182869257E+03  0.13191244893E+03  0.47000000000E+01 0. -1.
         -5   -1    0    0    0  501 -0.00000000000E+00 -0.00000000000E+00 -0.21593423651E+03  0.21598538028E+03  0.47000000000E+01 0. -1.
         25    2    1    2    0    0  0.10511791803E+03  0.42288424770E+02 -0.37054378506E+02  0.17274190825E+03  0.12501460851E+03 0.  0.
         25    2    1    2    0    0 -0.10511791803E+03 -0.42288424770E+02 -0.47051165432E+02  0.17515592096E+03  0.12501078721E+03 0.  0.
          5    1    4    4  502    0 -0.96605046103E+02  0.17875471643E+02 -0.56581163038E+02  0.11347063686E+03  0.47000000000E+01 0. -1.
         -5    1    4    4    0  502 -0.85128719259E+01 -0.60163896413E+02  0.95299976059E+01  0.61685284099E+02  0.47000000000E+01 0. -1.
          5    1    3    3  503    0  0.11572308340E+03  0.67685911004E+01 -0.58212424620E+02  0.12980147240E+03  0.47000000000E+01 0. -1.
         -5    1    3    3    0  503 -0.10605165366E+02  0.35519833670E+02  0.21158046114E+02  0.42940435859E+02  0.47000000000E+01 0. -1.
<mgrwt>
<rscale>  0 0.16872019E+03</rscale>
<asrwt>0</asrwt>
<pdfrwt beam="1">  1        5 0.20291714E-01 0.16872089E+03</pdfrwt>
<pdfrwt beam="2">  1       -5 0.33231029E-01 0.16872089E+03</pdfrwt>
<totfact> 0.15255323E+02</totfact>
</mgrwt>
</event>
<event>
 8    1  0.3763376E-007  0.1540509E+03  0.7546771E-02  0.1195582E+00
          5   -1    0    0  501    0  0.00000000000E+00  0.00000000000E+00  0.35067608513E+03  0.35070758002E+03  0.47000000000E+01 0. -1.
         -5   -1    0    0    0  501 -0.00000000000E+00 -0.00000000000E+00 -0.68425947522E+02  0.68587172958E+02  0.47000000000E+01 0. -1.
         25    2    1    2    0    0 -0.70644227885E+02  0.55812075773E+02  0.16470969423E+03  0.22552375417E+03  0.12500434227E+03 0.  0.
         25    2    1    2    0    0  0.70644227885E+02 -0.55812075773E+02  0.11754044338E+03  0.19377099881E+03  0.12500339761E+03 0.  0.
          5    1    3    3  502    0 -0.13457350835E+02 -0.66059803625E+01 -0.18125534144E+02  0.23986751678E+02  0.47000000000E+01 0.  1.
         -5    1    3    3    0  502 -0.57186877050E+02  0.62418056136E+02  0.18283522837E+03  0.20153700249E+03  0.47000000000E+01 0.  1.
          5    1    4    4  503    0  0.32522703548E+02  0.31947621932E+02  0.51901329799E+01  0.46123792922E+02  0.47000000000E+01 0.  1.
         -5    1    4    4    0  503  0.38121524337E+02 -0.87759697706E+02  0.11235031040E+03  0.14764720589E+03  0.47000000000E+01 0.  1.
<mgrwt>
<rscale>  0 0.15405071E+03</rscale>
<asrwt>0</asrwt>
<pdfrwt beam="1">  1        5 0.53964992E-01 0.15405090E+03</pdfrwt>
<pdfrwt beam="2">  1       -5 0.10541893E-01 0.15405090E+03</pdfrwt>
<totfact> 0.17802252E+02</totfact>
</mgrwt>
</event>
<event>
 8    1  0.3763376E-007  0.1598641E+03  0.7546771E-02  0.1188853E+00
          5   -1    0    0  501    0  0.00000000000E+00  0.00000000000E+00  0.92299169406E+02  0.92418757150E+02  0.47000000000E+01 0. -1.
         -5   -1    0    0    0  501 -0.00000000000E+00 -0.00000000000E+00 -0.27709455508E+03  0.27713441225E+03  0.47000000000E+01 0. -1.
         25    2    1    2    0    0  0.36460957193E+02  0.92745369992E+02 -0.10057237149E+03  0.18885994459E+03  0.12498868631E+03 0.  0.
         25    2    1    2    0    0 -0.36460957193E+02 -0.92745369992E+02 -0.84223014176E+02  0.18069322481E+03  0.12500168128E+03 0.  0.
          5    1    4    4  502    0 -0.13020948342E+02 -0.34543726783E+02 -0.10738089866E+03  0.11364665219E+03  0.47000000000E+01 0.  1.
         -5    1    4    4    0  502 -0.23440008851E+02 -0.58201643210E+02  0.23157884485E+02  0.67046572627E+02  0.47000000000E+01 0.  1.
          5    1    3    3  503    0  0.96264298167E+00  0.97421412667E+02 -0.18615702859E+02  0.99300013698E+02  0.47000000000E+01 0. -1.
         -5    1    3    3    0  503  0.35498314211E+02 -0.46760426746E+01 -0.81956668634E+02  0.89559930887E+02  0.47000000000E+01 0. -1.
<mgrwt>
<rscale>  0 0.15986154E+03</rscale>
<asrwt>0</asrwt>
<pdfrwt beam="1">  1        5 0.14212137E-01 0.15986408E+03</pdfrwt>
<pdfrwt beam="2">  1       -5 0.42642196E-01 0.15986408E+03</pdfrwt>
<totfact> 0.17401868E+02</totfact>
</mgrwt>
</event>
<event>
 8    1  0.3763376E-007  0.1431419E+03  0.7546771E-02  0.1209163E+00
          5   -1    0    0  501    0  0.00000000000E+00  0.00000000000E+00  0.83338108087E+02  0.83470535278E+02  0.47000000000E+01 0. -1.
         -5   -1    0    0    0  501 -0.00000000000E+00 -0.00000000000E+00 -0.25940322169E+03  0.25944579669E+03  0.47000000000E+01 0. -1.
         25    2    1    2    0    0 -0.69487347186E+02  0.59629753465E+01 -0.12770244642E+03  0.19182512834E+03  0.12499966619E+03 0.  0.
         25    2    1    2    0    0  0.69487347186E+02 -0.59629753465E+01 -0.48362667180E+02  0.15109120363E+03  0.12500222295E+03 0.  0.
          5    1    4    4  502    0 -0.59319805126E+01 -0.51097551474E+02 -0.22004430300E+01  0.51701838546E+02  0.47000000000E+01 0.  1.
         -5    1    4    4    0  502  0.75419327699E+02  0.45134576128E+02 -0.46162224150E+02  0.99389365081E+02  0.47000000000E+01 0.  1.
          5    1    3    3  503    0 -0.62742147589E+02  0.58814904903E+02 -0.98649850267E+02  0.13095668399E+03  0.47000000000E+01 0.  1.
         -5    1    3    3    0  503 -0.67451995968E+01 -0.52851929556E+02 -0.29052596153E+02  0.60868444358E+02  0.47000000000E+01 0.  1.
<mgrwt>
<rscale>  0 0.14314134E+03</rscale>
<asrwt>0</asrwt>
<pdfrwt beam="1">  1        5 0.12834709E-01 0.14314190E+03</pdfrwt>
<pdfrwt beam="2">  1       -5 0.39921649E-01 0.14314190E+03</pdfrwt>
<totfact> 0.23080414E+02</totfact>
</mgrwt>
</event>
<event>
 8    1  0.3763376E-007  0.1351067E+03  0.7546771E-02  0.1220070E+00
          5   -1    0    0  501    0  0.00000000000E+00  0.00000000000E+00  0.40588120031E+03  0.40590841179E+03  0.47000000000E+01 0.  1.
         -5   -1    0    0    0  501 -0.00000000000E+00 -0.00000000000E+00 -0.44941248600E+02  0.45186345567E+02  0.47000000000E+01 0.  1.
         25    2    1    2    0    0 -0.28424750170E+02 -0.42675987189E+02  0.16885135839E+03  0.21625045316E+03  0.12499708378E+03 0.  0.
         25    2    1    2    0    0  0.28424750170E+02  0.42675987189E+02  0.19208859331E+03  0.23484430420E+03  0.12499845291E+03 0.  0.
          5    1    4    4  502    0  0.56875958068E+02 -0.10782387204E+02  0.38499803617E+02  0.69681126272E+02  0.47000000000E+01 0.  1.
         -5    1    4    4    0  502 -0.28451207899E+02  0.53458374393E+02  0.15358878970E+03  0.16516317793E+03  0.47000000000E+01 0.  1.
          5    1    3    3  503    0 -0.16695259633E+02  0.18642227304E+02 -0.95406093859E+01  0.27191497946E+02  0.47000000000E+01 0.  1.
         -5    1    3    3    0  503 -0.11729490537E+02 -0.61318214494E+02  0.17839196778E+03  0.18905895521E+03  0.47000000000E+01 0.  1.
<mgrwt>
<rscale>  0 0.13510638E+03</rscale>
<asrwt>0</asrwt>
<pdfrwt beam="1">  1        5 0.62464208E-01 0.13510670E+03</pdfrwt>
<pdfrwt beam="2">  1       -5 0.69349851E-02 0.13510670E+03</pdfrwt>
<totfact> 0.25529698E+02</totfact>
</mgrwt>
</event>
<event>
 8    1  0.3763376E-007  0.1489927E+03  0.7546771E-02  0.1201717E+00
         -5   -1    0    0    0  501 -0.00000000000E+00  0.00000000000E+00  0.25177021748E+03  0.25181408302E+03  0.47000000000E+01 0. -1.
          5   -1    0    0  501    0  0.00000000000E+00 -0.00000000000E+00 -0.89171309320E+02  0.89295086124E+02  0.47000000000E+01 0. -1.
         25    2    1    2    0    0  0.47832931280E+02  0.65463485385E+02  0.10035864689E+03  0.17964042683E+03  0.12500147085E+03 0.  0.
         25    2    1    2    0    0 -0.47832931280E+02 -0.65463485385E+02  0.62240261271E+02  0.16146874231E+03  0.12499938955E+03 0.  0.
          5    1    3    3  502    0 -0.23438290122E+01 -0.27870209702E+02 -0.64781120344E+01  0.29091202430E+02  0.47000000000E+01 0. -1.
         -5    1    3    3    0  502  0.50176760292E+02  0.93333695087E+02  0.10683675892E+03  0.15054922441E+03  0.47000000000E+01 0. -1.
          5    1    4    4  503    0 -0.81111486853E+02 -0.21310417030E+02  0.88426765677E+01  0.84459991134E+02  0.47000000000E+01 0.  1.
         -5    1    4    4    0  503  0.33278555573E+02 -0.44153068355E+02  0.53397584703E+02  0.77008751180E+02  0.47000000000E+01 0.  1.
<mgrwt>
<rscale>  0 0.14899226E+03</rscale>
<asrwt>0</asrwt>
<pdfrwt beam="2">  1        5 0.13731559E-01 0.14899270E+03</pdfrwt>
<pdfrwt beam="1">  1       -5 0.38746775E-01 0.14899270E+03</pdfrwt>
<totfact> 0.22028633E+02</totfact>
</mgrwt>
</event>
<event>
 8    1  0.3763376E-007  0.2067658E+03  0.7546771E-02  0.1144161E+00
          5   -1    0    0  501    0  0.00000000000E+00  0.00000000000E+00  0.41134129681E+03  0.41136814711E+03  0.47000000000E+01 0.  1.
         -5   -1    0    0    0  501 -0.00000000000E+00 -0.00000000000E+00 -0.10390838023E+03  0.10401462148E+03  0.47000000000E+01 0.  1.
         25    2    1    2    0    0  0.13745511648E+03 -0.90723335735E+02  0.16075657015E+03  0.26190600116E+03  0.12500978322E+03 0.  0.
         25    2    1    2    0    0 -0.13745511648E+03  0.90723335735E+02  0.14667634643E+03  0.25347676744E+03  0.12494754234E+03 0.  0.
          5    1    4    4  502    0  0.11134219597E+01  0.57481269974E+02  0.72840890445E+02  0.92915130238E+02  0.47000000000E+01 0.  1.
         -5    1    4    4    0  502 -0.13856853844E+03  0.33242065761E+02  0.73835455980E+02  0.16056163720E+03  0.47000000000E+01 0.  1.
          5    1    3    3  503    0  0.14936748494E+03 -0.10392825011E+03  0.16171515370E+03  0.24348636032E+03  0.47000000000E+01 0.  1.
         -5    1    3    3    0  503 -0.11912368460E+02  0.13204914377E+02 -0.95858354409E+00  0.18419640834E+02  0.47000000000E+01 0.  1.
<mgrwt>
<rscale>  0 0.20675635E+03</rscale>
<asrwt>0</asrwt>
<pdfrwt beam="1">  1        5 0.63293513E-01 0.20676576E+03</pdfrwt>
<pdfrwt beam="2">  1       -5 0.15996143E-01 0.20676576E+03</pdfrwt>
<totfact> 0.64721668E+01</totfact>
</mgrwt>
</event>
<event>
 8    1  0.3763376E-007  0.1815100E+03  0.7546771E-02  0.1166356E+00
          5   -1    0    0  501    0  0.00000000000E+00  0.00000000000E+00  0.33947171619E+03  0.33950425048E+03  0.47000000000E+01 0.  1.
         -5   -1    0    0    0  501 -0.00000000000E+00 -0.00000000000E+00 -0.11146281794E+03  0.11156186528E+03  0.47000000000E+01 0.  1.
         25    2    1    2    0    0 -0.12225389725E+02  0.13103179899E+03  0.32643358784E+02  0.18439480498E+03  0.12496824688E+03 0.  0.
         25    2    1    2    0    0  0.12225389725E+02 -0.13103179899E+03  0.19536553946E+03  0.26667131078E+03  0.12500840565E+03 0.  0.
          5    1    3    3  502    0 -0.51244878495E+02  0.80955981828E+02 -0.24331262115E+02  0.98964685023E+02  0.47000000000E+01 0. -1.
         -5    1    3    3    0  502  0.39019488770E+02  0.50075817162E+02  0.56974620899E+02  0.85430119952E+02  0.47000000000E+01 0. -1.
          5    1    4    4  503    0  0.54480292030E+02 -0.72899320747E+02  0.16503775693E+03  0.18852576587E+03  0.47000000000E+01 0. -1.
         -5    1    4    4    0  503 -0.42254902306E+02 -0.58132478243E+02  0.30327782535E+02  0.78145544908E+02  0.47000000000E+01 0. -1.
<mgrwt>
<rscale>  0 0.18150312E+03</rscale>
<asrwt>0</asrwt>
<pdfrwt beam="1">  1        5 0.52236540E-01 0.18151004E+03</pdfrwt>
<pdfrwt beam="2">  1       -5 0.17158247E-01 0.18151004E+03</pdfrwt>
<totfact> 0.83535085E+01</totfact>
</mgrwt>
</event>
<event>
 8    1  0.3763376E-007  0.1469467E+03  0.7546771E-02  0.1204277E+00
          5   -1    0    0  501    0  0.00000000000E+00  0.00000000000E+00  0.12101851083E+03  0.12110974347E+03  0.47000000000E+01 0. -1.
         -5   -1    0    0    0  501 -0.00000000000E+00 -0.00000000000E+00 -0.18420900459E+03  0.18426895390E+03  0.47000000000E+01 0. -1.
         25    2    1    2    0    0 -0.38699447601E+02  0.66849902599E+02 -0.59077821722E+02  0.15837444380E+03  0.12500287480E+03 0.  0.
         25    2    1    2    0    0  0.38699447601E+02 -0.66849902599E+02 -0.41126720339E+01  0.14700425356E+03  0.12500711889E+03 0.  0.
          5    1    3    3  502    0 -0.10254438424E+02  0.12309234484E+02 -0.88474875823E+02  0.90036461575E+02  0.47000000000E+01 0. -1.
         -5    1    3    3    0  502 -0.28445009177E+02  0.54540668114E+02  0.29397054101E+02  0.68337982230E+02  0.47000000000E+01 0. -1.
          5    1    4    4  503    0  0.31381731510E+02 -0.70416007959E+02 -0.55280454491E+02  0.94980239514E+02  0.47000000000E+01 0. -1.
         -5    1    4    4    0  503  0.73177160909E+01  0.35661053605E+01  0.51167782457E+02  0.52024014049E+02  0.47000000000E+01 0. -1.
<mgrwt>
<rscale>  0 0.14694581E+03</rscale>
<asrwt>0</asrwt>
<pdfrwt beam="1">  1        5 0.18629862E-01 0.14694671E+03</pdfrwt>
<pdfrwt beam="2">  1       -5 0.28351476E-01 0.14694671E+03</pdfrwt>
<totfact> 0.23418868E+02</totfact>
</mgrwt>
</event>
<event>
 8    1  0.3763376E-007  0.1338015E+03  0.7546771E-02  0.1221923E+00
          5   -1    0    0  501    0  0.00000000000E+00  0.00000000000E+00  0.24003880164E+03  0.24008481062E+03  0.47000000000E+01 0. -1.
         -5   -1    0    0    0  501 -0.00000000000E+00 -0.00000000000E+00 -0.79538596571E+02  0.79677338964E+02  0.47000000000E+01 0. -1.
         25    2    1    2    0    0  0.47696619948E+02 -0.16511546946E+01  0.39876296308E+02  0.13961721679E+03  0.12500061740E+03 0.  0.
         25    2    1    2    0    0 -0.47696619948E+02  0.16511546946E+01  0.12062390876E+03  0.18014493280E+03  0.12499750230E+03 0.  0.
          5    1    3    3  502    0  0.30346585297E+02  0.33930509336E+02  0.74089993751E+02  0.87083935814E+02  0.47000000000E+01 0.  1.
         -5    1    3    3    0  502  0.17350034651E+02 -0.35581664030E+02 -0.34213697443E+02  0.52533280977E+02  0.47000000000E+01 0.  1.
          5    1    4    4  503    0 -0.48294045386E+02 -0.54701249620E+02  0.45523633321E+02  0.86133807071E+02  0.47000000000E+01 0.  1.
         -5    1    4    4    0  503  0.59742543859E+00  0.56352404314E+02  0.75100275441E+02  0.94011125727E+02  0.47000000000E+01 0.  1.
<mgrwt>
<rscale>  0 0.13380080E+03</rscale>
<asrwt>0</asrwt>
<pdfrwt beam="1">  1        5 0.36943258E-01 0.13380153E+03</pdfrwt>
<pdfrwt beam="2">  1       -5 0.12250919E-01 0.13380153E+03</pdfrwt>
<totfact> 0.28689707E+02</totfact>
</mgrwt>
</event>
<event>
 8    1  0.3763376E-007  0.1353318E+03  0.7546771E-02  0.1219753E+00
          5   -1    0    0  501    0  0.00000000000E+00  0.00000000000E+00  0.58867227443E+02  0.59054555005E+02  0.47000000000E+01 0.  1.
         -5   -1    0    0    0  501 -0.00000000000E+00 -0.00000000000E+00 -0.31061911726E+03  0.31065467324E+03  0.47000000000E+01 0.  1.
         25    2    1    2    0    0  0.43141812111E+02  0.28792011796E+02 -0.13061284061E+03  0.18808086305E+03  0.12499800405E+03 0.  0.
         25    2    1    2    0    0 -0.43141812111E+02 -0.28792011796E+02 -0.12113904920E+03  0.18162836520E+03  0.12499599157E+03 0.  0.
          5    1    3    3  502    0 -0.14725731013E+02  0.59294112216E+02 -0.96093873973E+02  0.11396824783E+03  0.47000000000E+01 0. -1.
         -5    1    3    3    0  502  0.57867543124E+02 -0.30502100419E+02 -0.34518966637E+02  0.74112615221E+02  0.47000000000E+01 0. -1.
          5    1    4    4  503    0  0.41723530816E+02 -0.15796212857E+01 -0.19358589153E+02  0.46262222181E+02  0.47000000000E+01 0.  1.
         -5    1    4    4    0  503 -0.84865342927E+02 -0.27212390510E+02 -0.10178046005E+03  0.13536614302E+03  0.47000000000E+01 0.  1.
<mgrwt>
<rscale>  0 0.13533134E+03</rscale>
<asrwt>0</asrwt>
<pdfrwt beam="1">  1        5 0.90736416E-02 0.13533180E+03</pdfrwt>
<pdfrwt beam="2">  1       -5 0.47804701E-01 0.13533180E+03</pdfrwt>
<totfact> 0.28659762E+02</totfact>
</mgrwt>
</event>
<event>
 8    1  0.3763376E-007  0.1353361E+03  0.7546771E-02  0.1219747E+00
          5   -1    0    0  501    0  0.00000000000E+00  0.00000000000E+00  0.16699483178E+03  0.16706095846E+03  0.47000000000E+01 0.  1.
         -5   -1    0    0    0  501 -0.00000000000E+00 -0.00000000000E+00 -0.11498172900E+03  0.11507774764E+03  0.47000000000E+01 0.  1.
         25    2    1    2    0    0 -0.32628382911E+02 -0.40313632255E+02 -0.46665331163E+01  0.13541655618E+03  0.12500426729E+03 0.  0.
         25    2    1    2    0    0  0.32628382911E+02  0.40313632255E+02  0.56679635900E+02  0.14672214992E+03  0.12500003134E+03 0.  0.
          5    1    4    4  502    0 -0.22496317607E+01  0.14467903156E+01 -0.38059350856E+02  0.38441621101E+02  0.47000000000E+01 0. -1.
         -5    1    4    4    0  502  0.34878014671E+02  0.38866841940E+02  0.94738986756E+02  0.10828052882E+03  0.47000000000E+01 0. -1.
          5    1    3    3  503    0 -0.59934616277E+02 -0.42930371808E+02  0.39075492127E+02  0.83571281771E+02  0.47000000000E+01 0. -1.
         -5    1    3    3    0  503  0.27306233367E+02  0.26167395528E+01 -0.43742025243E+02  0.51845274413E+02  0.47000000000E+01 0. -1.
<mgrwt>
<rscale>  0 0.13533515E+03</rscale>
<asrwt>0</asrwt>
<pdfrwt beam="1">  1        5 0.25703985E-01 0.13533613E+03</pdfrwt>
<pdfrwt beam="2">  1       -5 0.17701969E-01 0.13533613E+03</pdfrwt>
<totfact> 0.30258823E+02</totfact>
</mgrwt>
</event>
<event>
 8    1  0.3763376E-007  0.1284706E+03  0.7546771E-02  0.1229745E+00
         -5   -1    0    0    0  501 -0.00000000000E+00  0.00000000000E+00  0.14412779952E+02  0.15159756791E+02  0.47000000000E+01 0.  1.
          5   -1    0    0  501    0  0.00000000000E+00 -0.00000000000E+00 -0.13193185995E+04  0.13193269713E+04  0.47000000000E+01 0.  1.
         25    2    1    2    0    0 -0.27765234699E+02 -0.10402754363E+02 -0.39022986818E+03  0.41083334937E+03  0.12500226148E+03 0.  0.
         25    2    1    2    0    0  0.27765234699E+02  0.10402754363E+02 -0.91467595140E+03  0.92365337868E+03  0.12499736924E+03 0.  0.
          5    1    4    4  502    0  0.30075319568E+02  0.34865510473E+02 -0.87822262718E+03  0.87944141452E+03  0.47000000000E+01 0. -1.
         -5    1    4    4    0  502 -0.23100848693E+01 -0.24462756110E+02 -0.36453324216E+02  0.44211964161E+02  0.47000000000E+01 0. -1.
          5    1    3    3  503    0 -0.53730645052E+02 -0.19083272921E+02 -0.37463166641E+03  0.37897510340E+03  0.47000000000E+01 0. -1.
         -5    1    3    3    0  503  0.25965410353E+02  0.86805185577E+01 -0.15598201770E+02  0.31858245961E+02  0.47000000000E+01 0. -1.
<mgrwt>
<rscale>  0 0.12846939E+03</rscale>
<asrwt>0</asrwt>
<pdfrwt beam="2">  1        5 0.20303010E+00 0.12847058E+03</pdfrwt>
<pdfrwt beam="1">  1       -5 0.22754555E-02 0.12847058E+03</pdfrwt>
<totfact> 0.77232797E+01</totfact>
</mgrwt>
</event>
<event>
 8    1  0.3763376E-007  0.1571831E+03  0.7546771E-02  0.1191918E+00
          5   -1    0    0  501    0  0.00000000000E+00  0.00000000000E+00  0.50824688627E+02  0.51041541650E+02  0.47000000000E+01 0. -1.
         -5   -1    0    0    0  501 -0.00000000000E+00 -0.00000000000E+00 -0.48483954156E+03  0.48486232176E+03  0.47000000000E+01 0. -1.
         25    2    1    2    0    0 -0.15791897930E+01  0.95278003493E+02 -0.21902154152E+03  0.26958664493E+03  0.12500452665E+03 0.  0.
         25    2    1    2    0    0  0.15791897930E+01 -0.95278003493E+02 -0.21499331142E+03  0.26631721848E+03  0.12498938002E+03 0.  0.
          5    1    4    4  502    0  0.61436038870E+02 -0.65466823020E+02 -0.11592166328E+03  0.14669769530E+03  0.47000000000E+01 0.  1.
         -5    1    4    4    0  502 -0.59856849077E+02 -0.29811180473E+02 -0.99071648131E+02  0.11961952318E+03  0.47000000000E+01 0.  1.
          5    1    3    3  503    0  0.13994917260E+02 -0.10903255068E+01 -0.14808857951E+03  0.14882662363E+03  0.47000000000E+01 0.  1.
         -5    1    3    3    0  503 -0.15574107053E+02  0.96368329000E+02 -0.70932962008E+02  0.12076002130E+03  0.47000000000E+01 0.  1.
<mgrwt>
<rscale>  0 0.15718008E+03</rscale>
<asrwt>0</asrwt>
<pdfrwt beam="1">  1        5 0.78376165E-02 0.15718309E+03</pdfrwt>
<pdfrwt beam="2">  1       -5 0.74609129E-01 0.15718309E+03</pdfrwt>
<totfact> 0.14613986E+02</totfact>
</mgrwt>
</event>
<event>
 8    1  0.3763376E-007  0.1427189E+03  0.7546771E-02  0.1209717E+00
          5   -1    0    0  501    0  0.00000000000E+00  0.00000000000E+00  0.11708567915E+03  0.11717997381E+03  0.47000000000E+01 0.  1.
         -5   -1    0    0    0  501 -0.00000000000E+00 -0.00000000000E+00 -0.19186847051E+03  0.19192602735E+03  0.47000000000E+01 0.  1.
         25    2    1    2    0    0 -0.28583930969E+02 -0.62659785567E+02 -0.84845197253E+02  0.16603286089E+03  0.12499965424E+03 0.  0.
         25    2    1    2    0    0  0.28583930969E+02  0.62659785567E+02  0.10062405894E+02  0.14307314027E+03  0.12500152646E+03 0.  0.
          5    1    4    4  502    0  0.74253417750E+02  0.34086662123E+02  0.27371237166E+02  0.86294525934E+02  0.47000000000E+01 0.  1.
         -5    1    4    4    0  502 -0.45669486780E+02  0.28573123444E+02 -0.17308831272E+02  0.56778614338E+02  0.47000000000E+01 0.  1.
          5    1    3    3  503    0 -0.73278203467E+02 -0.34930847714E+02 -0.78190684534E+02  0.11280838787E+03  0.47000000000E+01 0.  1.
         -5    1    3    3    0  503  0.44694272498E+02 -0.27728937853E+02 -0.66545127195E+01  0.53224473019E+02  0.47000000000E+01 0.  1.
<mgrwt>
<rscale>  0 0.14271844E+03</rscale>
<asrwt>0</asrwt>
<pdfrwt beam="1">  1        5 0.18024862E-01 0.14271885E+03</pdfrwt>
<pdfrwt beam="2">  1       -5 0.29529907E-01 0.14271885E+03</pdfrwt>
<totfact> 0.22765141E+02</totfact>
</mgrwt>
</event>
<event>
 8    1  0.3763376E-007  0.1361629E+03  0.7546771E-02  0.1218588E+00
         -5   -1    0    0    0  501 -0.00000000000E+00  0.00000000000E+00  0.72747834800E+02  0.72899502523E+02  0.47000000000E+01 0. -1.
          5   -1    0    0  501    0  0.00000000000E+00 -0.00000000000E+00 -0.26406700612E+03  0.26410882931E+03  0.47000000000E+01 0. -1.
         25    2    1    2    0    0 -0.40011044671E+02 -0.36247762632E+02 -0.63459246357E+02  0.15022451795E+03  0.12500218339E+03 0.  0.
         25    2    1    2    0    0  0.40011044671E+02  0.36247762632E+02 -0.12785992496E+03  0.18678381388E+03  0.12500099490E+03 0.  0.
          5    1    4    4  502    0  0.11588972857E+02 -0.35558506140E+02 -0.41905244961E+00  0.37695851970E+02  0.47000000000E+01 0. -1.
         -5    1    4    4    0  502  0.28422071814E+02  0.71806268773E+02 -0.12744087251E+03  0.14908796191E+03  0.47000000000E+01 0. -1.
          5    1    3    3  503    0 -0.19270882675E+02  0.32785975746E+02 -0.67778145076E+02  0.77860478259E+02  0.47000000000E+01 0.  1.
         -5    1    3    3    0  503 -0.20740161996E+02 -0.69033738378E+02  0.43188987193E+01  0.72364039690E+02  0.47000000000E+01 0.  1.
<mgrwt>
<rscale>  0 0.13616261E+03</rscale>
<asrwt>0</asrwt>
<pdfrwt beam="2">  1        5 0.40640577E-01 0.13616288E+03</pdfrwt>
<pdfrwt beam="1">  1       -5 0.11206859E-01 0.13616288E+03</pdfrwt>
<totfact> 0.27826003E+02</totfact>
</mgrwt>
</event>
<event>
 8    1  0.3763376E-007  0.1302329E+03  0.7546771E-02  0.1227112E+00
          5   -1    0    0  501    0  0.00000000000E+00  0.00000000000E+00  0.16667334691E+03  0.16673960109E+03  0.47000000000E+01 0.  1.
         -5   -1    0    0    0  501 -0.00000000000E+00 -0.00000000000E+00 -0.10606645759E+03  0.10617053935E+03  0.47000000000E+01 0.  1.
         25    2    1    2    0    0 -0.60787079021E+01  0.36017941697E+02  0.23731715148E+01  0.13025455041E+03  0.12500549246E+03 0.  0.
         25    2    1    2    0    0  0.60787079021E+01 -0.36017941697E+02  0.58233717808E+02  0.14265559002E+03  0.12500083464E+03 0.  0.
          5    1    4    4  502    0 -0.17506196359E+02  0.41150550430E+02  0.36315778503E+01  0.45112227492E+02  0.47000000000E+01 0.  1.
         -5    1    4    4    0  502  0.23584904261E+02 -0.77168492127E+02  0.54602139957E+02  0.97543362532E+02  0.47000000000E+01 0.  1.
          5    1    3    3  503    0  0.31601874004E+02  0.70415506117E+02 -0.87715921570E+01  0.77820644891E+02  0.47000000000E+01 0.  1.
         -5    1    3    3    0  503 -0.37680581906E+02 -0.34397564420E+02  0.11144763672E+02  0.52433905521E+02  0.47000000000E+01 0.  1.
<mgrwt>
<rscale>  0 0.13023181E+03</rscale>
<asrwt>0</asrwt>
<pdfrwt beam="1">  1        5 0.25655156E-01 0.13023293E+03</pdfrwt>
<pdfrwt beam="2">  1       -5 0.16331019E-01 0.13023293E+03</pdfrwt>
<totfact> 0.34726147E+02</totfact>
</mgrwt>
</event>
<event>
 8    1  0.3763376E-007  0.1653237E+03  0.7546771E-02  0.1182816E+00
          5   -1    0    0  501    0  0.00000000000E+00  0.00000000000E+00  0.30421880577E+02  0.30782800682E+02  0.47000000000E+01 0.  1.
         -5   -1    0    0    0  501 -0.00000000000E+00 -0.00000000000E+00 -0.89581207034E+03  0.89582439985E+03  0.47000000000E+01 0.  1.
         25    2    1    2    0    0  0.10764125362E+03  0.10897901289E+02 -0.40554573047E+03  0.43794692622E+03  0.12499906779E+03 0.  0.
         25    2    1    2    0    0 -0.10764125362E+03 -0.10897901289E+02 -0.45984445930E+03  0.48866027432E+03  0.12500613272E+03 0.  0.
          5    1    3    3  502    0  0.17108204389E+02 -0.48946057226E+02 -0.86983137885E+02  0.10137338631E+03  0.47000000000E+01 0. -1.
         -5    1    3    3    0  502  0.90533049226E+02  0.59843958514E+02 -0.31856259259E+03  0.33657353991E+03  0.47000000000E+01 0. -1.
          5    1    4    4  503    0 -0.35499754745E+02  0.42390118098E+02 -0.73962113510E+02  0.92464257604E+02  0.47000000000E+01 0.  1.
         -5    1    4    4    0  503 -0.72141498870E+02 -0.53288019386E+02 -0.38588234579E+03  0.39619601671E+03  0.47000000000E+01 0.  1.
<mgrwt>
<rscale>  0 0.16532240E+03</rscale>
<asrwt>0</asrwt>
<pdfrwt beam="1">  1        5 0.47090015E-02 0.16532373E+03</pdfrwt>
<pdfrwt beam="2">  1       -5 0.13784593E+00 0.16532373E+03</pdfrwt>
<totfact> 0.77538982E+01</totfact>
</mgrwt>
</event>
<event>
 8    1  0.3763376E-007  0.1262899E+03  0.7546771E-02  0.1233067E+00
         -5   -1    0    0    0  501 -0.00000000000E+00  0.00000000000E+00  0.11803016068E+04  0.11803109646E+04  0.47000000000E+01 0. -1.
          5   -1    0    0  501    0  0.00000000000E+00 -0.00000000000E+00 -0.13379229280E+02  0.14180753722E+02  0.47000000000E+01 0. -1.
         25    2    1    2    0    0  0.92299750709E+01 -0.15458171285E+02  0.66806475901E+03  0.67989667637E+03  0.12499928323E+03 0.  0.
         25    2    1    2    0    0 -0.92299750709E+01  0.15458171285E+02  0.49885761853E+03  0.51459504192E+03  0.12499994439E+03 0.  0.
          5    1    3    3  502    0  0.20530352553E+02 -0.24828233248E+02  0.66281381236E+03  0.66361297184E+03  0.47000000000E+01 0. -1.
         -5    1    3    3    0  502 -0.11300377482E+02  0.93700619632E+01  0.52509466525E+01  0.16283704529E+02  0.47000000000E+01 0. -1.
          5    1    4    4  503    0  0.48059083964E+02 -0.11697857554E+02  0.11168876048E+03  0.12224150130E+03  0.47000000000E+01 0. -1.
         -5    1    4    4    0  503 -0.57289059035E+02  0.27156028839E+02  0.38716885805E+03  0.39235354061E+03  0.47000000000E+01 0. -1.
<mgrwt>
<rscale>  0 0.12628972E+03</rscale>
<asrwt>0</asrwt>
<pdfrwt beam="2">  1        5 0.21207180E-02 0.12628988E+03</pdfrwt>
<pdfrwt beam="1">  1       -5 0.18164728E+00 0.12628988E+03</pdfrwt>
<totfact> 0.12043632E+02</totfact>
</mgrwt>
</event>
<event>
 8    1  0.3763376E-007  0.1329329E+03  0.7546771E-02  0.1223172E+00
         -5   -1    0    0    0  501 -0.00000000000E+00  0.00000000000E+00  0.49306759549E+03  0.49308999556E+03  0.47000000000E+01 0. -1.
          5   -1    0    0  501    0  0.00000000000E+00 -0.00000000000E+00 -0.41214165400E+02  0.41481290116E+02  0.47000000000E+01 0. -1.
         25    2    1    2    0    0 -0.36168333070E+01 -0.45095578937E+02  0.32370307339E+03  0.34993547786E+03  0.12499786485E+03 0.  0.
         25    2    1    2    0    0  0.36168333070E+01  0.45095578937E+02  0.12815035670E+03  0.18463580782E+03  0.12498469860E+03 0.  0.
          5    1    4    4  502    0 -0.24734700972E+02 -0.88767766956E+01  0.12001735919E+03  0.12295063686E+03  0.47000000000E+01 0. -1.
         -5    1    4    4    0  502  0.28351534279E+02  0.53972355632E+02  0.81329975108E+01  0.61685170965E+02  0.47000000000E+01 0. -1.
          5    1    3    3  503    0  0.26006678802E+02  0.36787492108E+02  0.97603841783E+02  0.10760235522E+03  0.47000000000E+01 0.  1.
         -5    1    3    3    0  503 -0.29623512109E+02 -0.81883071045E+02  0.22609923161E+03  0.24233312264E+03  0.47000000000E+01 0.  1.
<mgrwt>
<rscale>  0 0.13292982E+03</rscale>
<asrwt>0</asrwt>
<pdfrwt beam="2">  1        5 0.63629118E-02 0.13293291E+03</pdfrwt>
<pdfrwt beam="1">  1       -5 0.75878827E-01 0.13293291E+03</pdfrwt>
<totfact> 0.18978966E+02</totfact>
</mgrwt>
</event>
<event>
 8    1  0.3763376E-007  0.1638888E+03  0.7546771E-02  0.1184377E+00
         -5   -1    0    0    0  501 -0.00000000000E+00  0.00000000000E+00  0.16644320932E+03  0.16650955506E+03  0.47000000000E+01 0. -1.
          5   -1    0    0  501    0  0.00000000000E+00 -0.00000000000E+00 -0.16828991968E+03  0.16835553767E+03  0.47000000000E+01 0. -1.
         25    2    1    2    0    0  0.58547776526E+02  0.88353816966E+02  0.33345890913E+02  0.16724034890E+03  0.12499258678E+03 0.  0.
         25    2    1    2    0    0 -0.58547776526E+02 -0.88353816966E+02 -0.35192601276E+02  0.16762474384E+03  0.12500118581E+03 0.  0.
          5    1    4    4  502    0  0.34601574935E+02 -0.13710908856E+02 -0.30031074525E+02  0.48054276051E+02  0.47000000000E+01 0.  1.
         -5    1    4    4    0  502 -0.93149351461E+02 -0.74642908111E+02 -0.51615267513E+01  0.11957046779E+03  0.47000000000E+01 0.  1.
          5    1    3    3  503    0  0.55167963833E+02  0.80883229826E+02  0.75698212281E+02  0.12384631784E+03  0.47000000000E+01 0. -1.
         -5    1    3    3    0  503  0.33798126922E+01  0.74705871400E+01 -0.42352321367E+02  0.43394031056E+02  0.47000000000E+01 0. -1.
<mgrwt>
<rscale>  0 0.16388715E+03</rscale>
<asrwt>0</asrwt>
<pdfrwt beam="2">  1        5 0.25900908E-01 0.16388879E+03</pdfrwt>
<pdfrwt beam="1">  1       -5 0.25616799E-01 0.16388879E+03</pdfrwt>
<totfact> 0.15836569E+02</totfact>
</mgrwt>
</event>
<event>
 8    1  0.3763376E-007  0.1378433E+03  0.7546771E-02  0.1216263E+00
         -5   -1    0    0    0  501 -0.00000000000E+00  0.00000000000E+00  0.12005410101E+04  0.12005502100E+04  0.47000000000E+01 0. -1.
          5   -1    0    0  501    0  0.00000000000E+00 -0.00000000000E+00 -0.15799150560E+02  0.16483420714E+02  0.47000000000E+01 0. -1.
         25    2    1    2    0    0 -0.28336622666E+01 -0.58023999986E+02  0.67858721865E+03  0.69244495171E+03  0.12499833447E+03 0.  0.
         25    2    1    2    0    0  0.28336622666E+01  0.58023999986E+02  0.50615464085E+03  0.52458867904E+03  0.12500379000E+03 0.  0.
          5    1    3    3  502    0  0.59556451037E+02 -0.17594676239E+02  0.26663409570E+03  0.27381083704E+03  0.47000000000E+01 0. -1.
         -5    1    3    3    0  502 -0.62390113304E+02 -0.40429323747E+02  0.41195312295E+03  0.41863411467E+03  0.47000000000E+01 0. -1.
          5    1    4    4  503    0 -0.34671116724E+02  0.83269420747E+02  0.37701834821E+03  0.38768648114E+03  0.47000000000E+01 0. -1.
         -5    1    4    4    0  503  0.37504778991E+02 -0.25245420761E+02  0.12913629263E+03  0.13690219791E+03  0.47000000000E+01 0. -1.
<mgrwt>
<rscale>  0 0.13784201E+03</rscale>
<asrwt>0</asrwt>
<pdfrwt beam="2">  1        5 0.24839823E-02 0.13784325E+03</pdfrwt>
<pdfrwt beam="1">  1       -5 0.18475197E+00 0.13784325E+03</pdfrwt>
<totfact> 0.91487304E+01</totfact>
</mgrwt>
</event>
<event>
 8    1  0.3763376E-007  0.1307165E+03  0.7546771E-02  0.1226397E+00
         -5   -1    0    0    0  501 -0.00000000000E+00  0.00000000000E+00  0.27219619374E+03  0.27223676806E+03  0.47000000000E+01 0. -1.
          5   -1    0    0  501    0  0.00000000000E+00 -0.00000000000E+00 -0.64623325774E+02  0.64794013876E+02  0.47000000000E+01 0. -1.
         25    2    1    2    0    0  0.35933098246E+02 -0.13054332311E+02  0.13326474117E+03  0.18667165728E+03  0.12500085300E+03 0.  0.
         25    2    1    2    0    0 -0.35933098246E+02  0.13054332311E+02  0.74308126790E+02  0.15035912466E+03  0.12499826206E+03 0.  0.
          5    1    4    4  502    0 -0.36338233743E+02  0.65551592703E+02  0.58913305324E+02  0.95448132940E+02  0.47000000000E+01 0. -1.
         -5    1    4    4    0  502  0.40513549641E+00 -0.52497260392E+02  0.15394821466E+02  0.54910991718E+02  0.47000000000E+01 0. -1.
          5    1    3    3  503    0 -0.72348563183E+01  0.14279977546E+02  0.13431853920E+03  0.13535073283E+03  0.47000000000E+01 0.  1.
         -5    1    3    3    0  503  0.43167954565E+02 -0.27334309856E+02 -0.10537980236E+01  0.51320924455E+02  0.47000000000E+01 0.  1.
<mgrwt>
<rscale>  0 0.13071593E+03</rscale>
<asrwt>0</asrwt>
<pdfrwt beam="2">  1        5 0.99583011E-02 0.13071655E+03</pdfrwt>
<pdfrwt beam="1">  1       -5 0.41892588E-01 0.13071655E+03</pdfrwt>
<totfact> 0.31700276E+02</totfact>
</mgrwt>
</event>
<event>
 8    1  0.3763376E-007  0.1418695E+03  0.7546771E-02  0.1210837E+00
         -5   -1    0    0    0  501 -0.00000000000E+00  0.00000000000E+00  0.34740921084E+02  0.35057404321E+02  0.47000000000E+01 0. -1.
          5   -1    0    0  501    0  0.00000000000E+00 -0.00000000000E+00 -0.61773180160E+03  0.61774968127E+03  0.47000000000E+01 0. -1.
         25    2    1    2    0    0 -0.66865227520E+02  0.54863732812E+01 -0.20704877850E+03  0.25098696896E+03  0.12499681183E+03 0.  0.
         25    2    1    2    0    0  0.66865227520E+02 -0.54863732812E+01 -0.37594210202E+03  0.40182011663E+03  0.12500353241E+03 0.  0.
          5    1    4    4  502    0 -0.29619667014E+02  0.32721111425E+01 -0.18717995786E+03  0.18959551158E+03  0.47000000000E+01 0.  1.
         -5    1    4    4    0  502  0.96484894534E+02 -0.87584844237E+01 -0.18876214415E+03  0.21222460505E+03  0.47000000000E+01 0.  1.
          5    1    3    3  503    0 -0.44232411846E+02  0.54132497633E+02 -0.53168483799E+02  0.87953460575E+02  0.47000000000E+01 0. -1.
         -5    1    3    3    0  503 -0.22632815675E+02 -0.48646124352E+02 -0.15388029470E+03  0.16303350839E+03  0.47000000000E+01 0. -1.
<mgrwt>
<rscale>  0 0.14186797E+03</rscale>
<asrwt>0</asrwt>
<pdfrwt beam="2">  1        5 0.95061374E-01 0.14186945E+03</pdfrwt>
<pdfrwt beam="1">  1       -5 0.53704778E-02 0.14186945E+03</pdfrwt>
<totfact> 0.15195910E+02</totfact>
</mgrwt>
</event>
<event>
 8    1  0.3763376E-007  0.1603870E+03  0.7546771E-02  0.1188261E+00
          5   -1    0    0  501    0  0.00000000000E+00  0.00000000000E+00  0.16459166728E+03  0.16465875907E+03  0.47000000000E+01 0.  1.
         -5   -1    0    0    0  501 -0.00000000000E+00 -0.00000000000E+00 -0.16286897657E+03  0.16293677771E+03  0.47000000000E+01 0.  1.
         25    2    1    2    0    0  0.28636447897E+02  0.96328510172E+02 -0.32381429141E+02  0.16362269485E+03  0.12499840517E+03 0.  0.
         25    2    1    2    0    0 -0.28636447897E+02 -0.96328510172E+02  0.34104119847E+02  0.16397284193E+03  0.12499909552E+03 0.  0.
          5    1    3    3  502    0  0.39076617163E+02 -0.19412246076E+02 -0.12493516711E+02  0.45628886316E+02  0.47000000000E+01 0. -1.
         -5    1    3    3    0  502 -0.10440169266E+02  0.11574075625E+03 -0.19887912431E+02  0.11799380853E+03  0.47000000000E+01 0. -1.
          5    1    4    4  503    0 -0.19066795896E+01 -0.31968193001E+02  0.75942340575E+02  0.82552588590E+02  0.47000000000E+01 0. -1.
         -5    1    4    4    0  503 -0.26729768307E+02 -0.64360317171E+02 -0.41838220728E+02  0.81420253339E+02  0.47000000000E+01 0. -1.
<mgrwt>
<rscale>  0 0.16038690E+03</rscale>
<asrwt>0</asrwt>
<pdfrwt beam="1">  1        5 0.25332171E-01 0.16038704E+03</pdfrwt>
<pdfrwt beam="2">  1       -5 0.25067142E-01 0.16038704E+03</pdfrwt>
<totfact> 0.17120544E+02</totfact>
</mgrwt>
</event>
<event>
 8    1  0.3763376E-007  0.1254254E+03  0.7546771E-02  0.1234408E+00
          5   -1    0    0  501    0  0.00000000000E+00  0.00000000000E+00  0.97570949494E+01  0.10830092421E+02  0.47000000000E+01 0.  1.
         -5   -1    0    0    0  501 -0.00000000000E+00 -0.00000000000E+00 -0.16824346968E+04  0.16824412617E+04  0.47000000000E+01 0.  1.
         25    2    1    2    0    0 -0.30550844218E+00  0.10221715802E+02 -0.10934834392E+04  0.11006532449E+04  0.12500782743E+03 0.  0.
         25    2    1    2    0    0  0.30550844218E+00 -0.10221715802E+02 -0.57919416264E+03  0.59261810918E+03  0.12500307388E+03 0.  0.
          5    1    4    4  502    0  0.71676171154E+01  0.87916144066E+01  0.75145338933E+00  0.12301296728E+02  0.47000000000E+01 0.  1.
         -5    1    4    4    0  502 -0.68621086732E+01 -0.19013330209E+02 -0.57994561603E+03  0.58031681245E+03  0.47000000000E+01 0.  1.
          5    1    3    3  503    0  0.20982660863E+02  0.24838271208E+02 -0.10450392866E+04  0.10455555519E+04  0.47000000000E+01 0. -1.
         -5    1    3    3    0  503 -0.21288169305E+02 -0.14616555406E+02 -0.48444152678E+02  0.55097692991E+02  0.47000000000E+01 0. -1.
<mgrwt>
<rscale>  0 0.12542423E+03</rscale>
<asrwt>0</asrwt>
<pdfrwt beam="1">  1        5 0.15841361E-02 0.12542541E+03</pdfrwt>
<pdfrwt beam="2">  1       -5 0.25891893E+00 0.12542541E+03</pdfrwt>
<totfact> 0.59369625E+01</totfact>
</mgrwt>
</event>
<event>
 8    1  0.3763376E-007  0.1620798E+03  0.7546771E-02  0.1186369E+00
         -5   -1    0    0    0  501 -0.00000000000E+00  0.00000000000E+00  0.45574420784E+03  0.45576844228E+03  0.47000000000E+01 0.  1.
          5   -1    0    0  501    0  0.00000000000E+00 -0.00000000000E+00 -0.66645695700E+02  0.66811217287E+02  0.47000000000E+01 0.  1.
         25    2    1    2    0    0 -0.10105999292E+03  0.20787758280E+02  0.29109085739E+03  0.33317226967E+03  0.12499848383E+03 0.  0.
         25    2    1    2    0    0  0.10105999292E+03 -0.20787758280E+02  0.98007654751E+02  0.18940738990E+03  0.12499762355E+03 0.  0.
          5    1    4    4  502    0  0.11767038612E+03  0.91151935421E+01  0.45526456429E+02  0.12658655046E+03  0.47000000000E+01 0. -1.
         -5    1    4    4    0  502 -0.16610393199E+02 -0.29902951822E+02  0.52481198322E+02  0.62820839434E+02  0.47000000000E+01 0. -1.
          5    1    3    3  503    0 -0.74561692846E+02 -0.32081960804E+01  0.51294956178E+02  0.90680764727E+02  0.47000000000E+01 0. -1.
         -5    1    3    3    0  503 -0.26498300075E+02  0.23995954360E+02  0.23979590121E+03  0.24249150494E+03  0.47000000000E+01 0. -1.
<mgrwt>
<rscale>  0 0.16207967E+03</rscale>
<asrwt>0</asrwt>
<pdfrwt beam="2">  1        5 0.10267781E-01 0.16207984E+03</pdfrwt>
<pdfrwt beam="1">  1       -5 0.70129089E-01 0.16207984E+03</pdfrwt>
<totfact> 0.10631168E+02</totfact>
</mgrwt>
</event>
<event>
 8    1  0.3763376E-007  0.1299771E+03  0.7546771E-02  0.1227512E+00
          5   -1    0    0  501    0  0.00000000000E+00  0.00000000000E+00  0.11255175195E+04  0.11255273327E+04  0.47000000000E+01 0. -1.
         -5   -1    0    0    0  501 -0.00000000000E+00 -0.00000000000E+00 -0.15278757650E+02  0.15985319369E+02  0.47000000000E+01 0. -1.
         25    2    1    2    0    0 -0.33924880222E+02  0.10944485824E+02  0.43990603171E+03  0.45870617015E+03  0.12499341794E+03 0.  0.
         25    2    1    2    0    0  0.33924880222E+02 -0.10944485824E+02  0.67033273009E+03  0.68280648189E+03  0.12493215526E+03 0.  0.
          5    1    4    4  502    0  0.70704012143E+02  0.13627774326E+01  0.22823175951E+03  0.23898272018E+03  0.47000000000E+01 0.  1.
         -5    1    4    4    0  502 -0.36779131921E+02 -0.12307263256E+02  0.44210097057E+03  0.44382376171E+03  0.47000000000E+01 0.  1.
          5    1    3    3  503    0  0.29388247243E+02 -0.17303789608E+01  0.25371663546E+02  0.39146833824E+02  0.47000000000E+01 0.  1.
         -5    1    3    3    0  503 -0.63313127465E+02  0.12674864785E+02  0.41453436817E+03  0.41955933633E+03  0.47000000000E+01 0.  1.
<mgrwt>
<rscale>  0 0.12996232E+03</rscale>
<asrwt>0</asrwt>
<pdfrwt beam="1">  1        5 0.17321168E+00 0.12997705E+03</pdfrwt>
<pdfrwt beam="2">  1       -5 0.24056834E-02 0.12997705E+03</pdfrwt>
<totfact> 0.11428233E+02</totfact>
</mgrwt>
</event>
<event>
 8    1  0.3763376E-007  0.1264947E+03  0.7546771E-02  0.1232753E+00
          5   -1    0    0  501    0  0.00000000000E+00  0.00000000000E+00  0.23182273679E+02  0.23653917497E+02  0.47000000000E+01 0. -1.
         -5   -1    0    0    0  501 -0.00000000000E+00 -0.00000000000E+00 -0.69650280559E+03  0.69651866321E+03  0.47000000000E+01 0. -1.
         25    2    1    2    0    0 -0.76783150200E+00 -0.19357945757E+02 -0.38719760462E+03  0.40733520021E+03  0.12499864271E+03 0.  0.
         25    2    1    2    0    0  0.76783150200E+00  0.19357945757E+02 -0.28612292730E+03  0.31283738050E+03  0.12500230990E+03 0.  0.
          5    1    4    4  502    0  0.31250982337E+02  0.63610137181E+02 -0.13814998916E+03  0.15533957305E+03  0.47000000000E+01 0.  1.
         -5    1    4    4    0  502 -0.30483150835E+02 -0.44252191424E+02 -0.14797293814E+03  0.15749780745E+03  0.47000000000E+01 0.  1.
          5    1    3    3  503    0  0.29772088159E+02 -0.21222213122E+02 -0.26713177614E+02  0.45524097150E+02  0.47000000000E+01 0. -1.
         -5    1    3    3    0  503 -0.30539919661E+02  0.18642673654E+01 -0.36048442700E+03  0.36181110306E+03  0.47000000000E+01 0. -1.
<mgrwt>
<rscale>  0 0.12649375E+03</rscale>
<asrwt>0</asrwt>
<pdfrwt beam="1">  1        5 0.36040043E-02 0.12649465E+03</pdfrwt>
<pdfrwt beam="2">  1       -5 0.10719176E+00 0.12649465E+03</pdfrwt>
<totfact> 0.21050109E+02</totfact>
</mgrwt>
</event>
<event>
 8    1  0.3763376E-007  0.1416993E+03  0.7546771E-02  0.1211070E+00
         -5   -1    0    0    0  501 -0.00000000000E+00  0.00000000000E+00  0.56713821133E+03  0.56715768597E+03  0.47000000000E+01 0.  1.
          5   -1    0    0  501    0  0.00000000000E+00 -0.00000000000E+00 -0.35305865443E+02  0.35617329135E+02  0.47000000000E+01 0.  1.
         25    2    1    2    0    0  0.64514104510E+02 -0.17080690530E+02  0.25117259856E+03  0.28838577596E+03  0.12499944736E+03 0.  0.
         25    2    1    2    0    0 -0.64514104510E+02  0.17080690530E+02  0.28065974733E+03  0.31438923914E+03  0.12496751677E+03 0.  0.
          5    1    3    3  502    0  0.34296883139E+02  0.31398736481E+02  0.21095613584E+02  0.51276424974E+02  0.47000000000E+01 0.  1.
         -5    1    3    3    0  502  0.30217221371E+02 -0.48479427011E+02  0.23007698497E+03  0.23710935098E+03  0.47000000000E+01 0.  1.
          5    1    4    4  503    0  0.72968879226E+01  0.44889685422E+02  0.18962708321E+03  0.19506114200E+03  0.47000000000E+01 0. -1.
         -5    1    4    4    0  503 -0.71810992432E+02 -0.27808994892E+02  0.91032664118E+02  0.11932809714E+03  0.47000000000E+01 0. -1.
<mgrwt>
<rscale>  0 0.14169222E+03</rscale>
<asrwt>0</asrwt>
<pdfrwt beam="2">  1        5 0.54571287E-02 0.14169926E+03</pdfrwt>
<pdfrwt beam="1">  1       -5 0.87277485E-01 0.14169926E+03</pdfrwt>
<totfact> 0.18123700E+02</totfact>
</mgrwt>
</event>
<event>
 8    1  0.3763376E-007  0.1571736E+03  0.7546771E-02  0.1191925E+00
          5   -1    0    0  501    0  0.00000000000E+00  0.00000000000E+00  0.42660925847E+03  0.42663514789E+03  0.47000000000E+01 0.  1.
         -5   -1    0    0    0  501 -0.00000000000E+00 -0.00000000000E+00 -0.62698803989E+02  0.62874716871E+02  0.47000000000E+01 0.  1.
         25    2    1    2    0    0 -0.47331430824E+02 -0.82696842509E+02  0.11354108201E+03  0.19389463520E+03  0.12499808060E+03 0.  0.
         25    2    1    2    0    0  0.47331430824E+02  0.82696842509E+02  0.25036937248E+03  0.29561522956E+03  0.12499803665E+03 0.  0.
          5    1    4    4  502    0 -0.36927104181E+01 -0.16503268164E+02  0.13098668148E+03  0.13215746175E+03  0.47000000000E+01 0. -1.
         -5    1    4    4    0  502  0.51024141242E+02  0.99200110673E+02  0.11938269100E+03  0.16345776781E+03  0.47000000000E+01 0. -1.
          5    1    3    3  503    0  0.24951633908E+02 -0.67563951460E+01 -0.13150524957E+02  0.29381273231E+02  0.47000000000E+01 0. -1.
         -5    1    3    3    0  503 -0.72283064732E+02 -0.75940447363E+02  0.12669160696E+03  0.16451336197E+03  0.47000000000E+01 0. -1.
<mgrwt>
<rscale>  0 0.15717363E+03</rscale>
<asrwt>0</asrwt>
<pdfrwt beam="1">  1        5 0.65647715E-01 0.15717364E+03</pdfrwt>
<pdfrwt beam="2">  1       -5 0.96614934E-02 0.15717364E+03</pdfrwt>
<totfact> 0.13586727E+02</totfact>
</mgrwt>
</event>
<event>
 8    1  0.3763376E-007  0.1297463E+03  0.7546771E-02  0.1227840E+00
         -5   -1    0    0    0  501 -0.00000000000E+00  0.00000000000E+00  0.55100783338E+03  0.55102787810E+03  0.47000000000E+01 0.  1.
          5   -1    0    0  501    0  0.00000000000E+00 -0.00000000000E+00 -0.33465632569E+02  0.33794061065E+02  0.47000000000E+01 0.  1.
         25    2    1    2    0    0 -0.33385999245E+02 -0.95058636324E+01  0.34758834534E+03  0.37101448558E+03  0.12501641615E+03 0.  0.
         25    2    1    2    0    0  0.33385999245E+02  0.95058636324E+01  0.16995385547E+03  0.21380745359E+03  0.12499731129E+03 0.  0.
          5    1    3    3  502    0  0.96742036249E+01  0.46834099992E+02  0.21785303019E+03  0.22308979335E+03  0.47000000000E+01 0. -1.
         -5    1    3    3    0  502 -0.43060202870E+02 -0.56339963625E+02  0.12973531515E+03  0.14792469223E+03  0.47000000000E+01 0. -1.
          5    1    4    4  503    0  0.77667304579E+02  0.78739240955E+01  0.72468304466E+02  0.10662060792E+03  0.47000000000E+01 0. -1.
         -5    1    4    4    0  503 -0.44281305334E+02  0.16319395369E+01  0.97485551006E+02  0.10718684567E+03  0.47000000000E+01 0. -1.
<mgrwt>
<rscale>  0 0.12974165E+03</rscale>
<asrwt>0</asrwt>
<pdfrwt beam="2">  1        5 0.51753648E-02 0.12974626E+03</pdfrwt>
<pdfrwt beam="1">  1       -5 0.84797237E-01 0.12974626E+03</pdfrwt>
<totfact> 0.20567161E+02</totfact>
</mgrwt>
</event>
<event>
 8    1  0.3763376E-007  0.1276892E+03  0.7546771E-02  0.1230934E+00
          5   -1    0    0  501    0  0.00000000000E+00  0.00000000000E+00  0.62204355987E+02  0.62381663201E+02  0.47000000000E+01 0.  1.
         -5   -1    0    0    0  501 -0.00000000000E+00 -0.00000000000E+00 -0.30833127352E+03  0.30836709330E+03  0.47000000000E+01 0.  1.
         25    2    1    2    0    0 -0.13265095302E+02  0.22351685925E+02 -0.19527836251E+03  0.23330743525E+03  0.12499263923E+03 0.  0.
         25    2    1    2    0    0  0.13265095302E+02 -0.22351685925E+02 -0.50848555029E+02  0.13744132125E+03  0.12501592147E+03 0.  0.
          5    1    3    3  502    0 -0.24632858472E+02  0.62598200361E+02 -0.17302530415E+03  0.18570179934E+03  0.47000000000E+01 0. -1.
         -5    1    3    3    0  502  0.11367763170E+02 -0.40246514436E+02 -0.22253058363E+02  0.47605635908E+02  0.47000000000E+01 0. -1.
          5    1    4    4  503    0  0.10823752468E+02 -0.52841195450E+02 -0.78888784221E+02  0.95681115326E+02  0.47000000000E+01 0.  1.
         -5    1    4    4    0  503  0.24413428339E+01  0.30489509525E+02  0.28040229192E+02  0.41760205927E+02  0.47000000000E+01 0.  1.
<mgrwt>
<rscale>  0 0.12768354E+03</rscale>
<asrwt>0</asrwt>
<pdfrwt beam="1">  1        5 0.95862955E-02 0.12768924E+03</pdfrwt>
<pdfrwt beam="2">  1       -5 0.47451974E-01 0.12768924E+03</pdfrwt>
<totfact> 0.25923426E+02</totfact>
</mgrwt>
</event>
<event>
 8    1  0.3763376E-007  0.1362369E+03  0.7546771E-02  0.1218485E+00
         -5   -1    0    0    0  501 -0.00000000000E+00  0.00000000000E+00  0.53214161426E+02  0.53421315748E+02  0.47000000000E+01 0. -1.
          5   -1    0    0  501    0  0.00000000000E+00 -0.00000000000E+00 -0.35776084569E+03  0.35779171694E+03  0.47000000000E+01 0. -1.
         25    2    1    2    0    0 -0.30051247477E+02  0.45081390527E+02 -0.11812333356E+03  0.18031535623E+03  0.12500038605E+03 0.  0.
         25    2    1    2    0    0  0.30051247477E+02 -0.45081390527E+02 -0.18642335071E+03  0.23089767646E+03  0.12499864823E+03 0.  0.
          5    1    4    4  502    0 -0.31244692433E+02 -0.47919270337E+02 -0.34465794538E+02  0.66951237987E+02  0.47000000000E+01 0. -1.
         -5    1    4    4    0  502  0.61295939910E+02  0.28378798098E+01 -0.15195755617E+03  0.16394643847E+03  0.47000000000E+01 0. -1.
          5    1    3    3  503    0 -0.26717276640E+02  0.80017343120E+02 -0.37853072839E+02  0.92582575004E+02  0.47000000000E+01 0.  1.
         -5    1    3    3    0  503 -0.33339708368E+01 -0.34935952592E+02 -0.80270260722E+02  0.87732781225E+02  0.47000000000E+01 0.  1.
<mgrwt>
<rscale>  0 0.13623655E+03</rscale>
<asrwt>0</asrwt>
<pdfrwt beam="2">  1        5 0.55058438E-01 0.13623695E+03</pdfrwt>
<pdfrwt beam="1">  1       -5 0.82051040E-02 0.13623695E+03</pdfrwt>
<totfact> 0.25293913E+02</totfact>
</mgrwt>
</event>
<event>
 8    1  0.3763376E-007  0.1303364E+03  0.7546771E-02  0.1226962E+00
          5   -1    0    0  501    0  0.00000000000E+00  0.00000000000E+00  0.58916106944E+03  0.58917981614E+03  0.47000000000E+01 0. -1.
         -5   -1    0    0    0  501 -0.00000000000E+00 -0.00000000000E+00 -0.29575894104E+02  0.29947011739E+02  0.47000000000E+01 0. -1.
         25    2    1    2    0    0  0.28479304088E+02  0.23426414015E+02  0.22450150313E+03  0.25958735232E+03  0.12499920377E+03 0.  0.
         25    2    1    2    0    0 -0.28479304088E+02 -0.23426414015E+02  0.33508367221E+03  0.35953947555E+03  0.12501079740E+03 0.  0.
          5    1    4    4  502    0  0.49540135755E+02 -0.61797073783E+01  0.13756130787E+03  0.14641590507E+03  0.47000000000E+01 0. -1.
         -5    1    4    4    0  502 -0.78019439843E+02 -0.17246706637E+02  0.19752236434E+03  0.21312357049E+03  0.47000000000E+01 0. -1.
          5    1    3    3  503    0  0.36988041771E+01 -0.16452729953E+02 -0.10151899570E+02  0.20236712681E+02  0.47000000000E+01 0.  1.
         -5    1    3    3    0  503  0.24780499911E+02  0.39879143968E+02  0.23465340270E+03  0.23935063964E+03  0.47000000000E+01 0.  1.
<mgrwt>
<rscale>  0 0.13033358E+03</rscale>
<asrwt>0</asrwt>
<pdfrwt beam="1">  1        5 0.90670149E-01 0.13033636E+03</pdfrwt>
<pdfrwt beam="2">  1       -5 0.45801274E-02 0.13033636E+03</pdfrwt>
<totfact> 0.21542040E+02</totfact>
</mgrwt>
</event>
<event>
 8    1  0.3763376E-007  0.1416566E+03  0.7546771E-02  0.1211119E+00
         -5   -1    0    0    0  501 -0.00000000000E+00  0.00000000000E+00  0.20177131393E+03  0.20182604670E+03  0.47000000000E+01 0. -1.
          5   -1    0    0  501    0  0.00000000000E+00 -0.00000000000E+00 -0.99406101790E+02  0.99517149643E+02  0.47000000000E+01 0. -1.
         25    2    1    2    0    0 -0.47069119551E+02  0.47167688810E+02  0.46890204522E+02  0.14921148350E+03  0.12500033058E+03 0.  0.
         25    2    1    2    0    0  0.47069119551E+02 -0.47167688810E+02  0.55475007617E+02  0.15213171284E+03  0.12500515468E+03 0.  0.
          5    1    4    4  502    0  0.83519356134E+02 -0.37160636320E+02  0.65725100662E+02  0.11268662120E+03  0.47000000000E+01 0. -1.
         -5    1    4    4    0  502 -0.36450236583E+02 -0.10007052491E+02 -0.10250093045E+02  0.39445091633E+02  0.47000000000E+01 0. -1.
          5    1    3    3  503    0 -0.16482284131E+02 -0.42684529448E+02  0.88056890677E+01  0.46832306204E+02  0.47000000000E+01 0. -1.
         -5    1    3    3    0  503 -0.30586835420E+02  0.89852218259E+02  0.38084515455E+02  0.10237917730E+03  0.47000000000E+01 0. -1.
<mgrwt>
<rscale>  0 0.14165550E+03</rscale>
<asrwt>0</asrwt>
<pdfrwt beam="2">  1        5 0.15305999E-01 0.14165656E+03</pdfrwt>
<pdfrwt beam="1">  1       -5 0.31054493E-01 0.14165656E+03</pdfrwt>
<totfact> 0.27742671E+02</totfact>
</mgrwt>
</event>
<event>
 8    1  0.3763376E-007  0.1263899E+03  0.7546771E-02  0.1232914E+00
          5   -1    0    0  501    0  0.00000000000E+00  0.00000000000E+00  0.16477681596E+03  0.16484383239E+03  0.47000000000E+01 0.  1.
         -5   -1    0    0    0  501 -0.00000000000E+00 -0.00000000000E+00 -0.98990819586E+02  0.99102332780E+02  0.47000000000E+01 0.  1.
         25    2    1    2    0    0  0.17694956683E+02  0.60439185516E+01  0.13275233371E+02  0.12708203397E+03  0.12499588430E+03 0.  0.
         25    2    1    2    0    0 -0.17694956683E+02 -0.60439185516E+01  0.52510763000E+02  0.13686413120E+03  0.12499907894E+03 0.  0.
          5    1    3    3  502    0 -0.27982073995E+02  0.45015847286E+02 -0.21665360016E+02  0.57453466358E+02  0.47000000000E+01 0.  1.
         -5    1    3    3    0  502  0.45677030678E+02 -0.38971928735E+02  0.34940593387E+02  0.69628567608E+02  0.47000000000E+01 0.  1.
          5    1    4    4  503    0 -0.69213249099E+02  0.65835461286E+01  0.13820733045E+02  0.71041675039E+02  0.47000000000E+01 0.  1.
         -5    1    4    4    0  503  0.51518292415E+02 -0.12627464680E+02  0.38690029955E+02  0.65822456165E+02  0.47000000000E+01 0.  1.
<mgrwt>
<rscale>  0 0.12638912E+03</rscale>
<asrwt>0</asrwt>
<pdfrwt beam="1">  1        5 0.25364012E-01 0.12638991E+03</pdfrwt>
<pdfrwt beam="2">  1       -5 0.15243090E-01 0.12638991E+03</pdfrwt>
<totfact> 0.39789209E+02</totfact>
</mgrwt>
</event>
<event>
 8    1  0.3763376E-007  0.1377454E+03  0.7546771E-02  0.1216397E+00
         -5   -1    0    0    0  501 -0.00000000000E+00  0.00000000000E+00  0.12603349667E+03  0.12612110166E+03  0.47000000000E+01 0. -1.
          5   -1    0    0  501    0  0.00000000000E+00 -0.00000000000E+00 -0.20087162319E+03  0.20092660103E+03  0.47000000000E+01 0. -1.
         25    2    1    2    0    0  0.28788432865E+02 -0.50178342827E+02  0.44548340760E+02  0.14476519453E+03  0.12500306767E+03 0.  0.
         25    2    1    2    0    0 -0.28788432865E+02  0.50178342827E+02 -0.11938646728E+03  0.18228250816E+03  0.12500857674E+03 0.  0.
          5    1    4    4  502    0 -0.88131995517E+01 -0.25057088010E+02  0.11978100230E+02  0.29514319084E+02  0.47000000000E+01 0.  1.
         -5    1    4    4    0  502 -0.19975233314E+02  0.75235430836E+02 -0.13136456751E+03  0.15276818908E+03  0.47000000000E+01 0.  1.
          5    1    3    3  503    0  0.47240458824E+02 -0.69349247707E+02 -0.92629792366E+01  0.84551001720E+02  0.47000000000E+01 0. -1.
         -5    1    3    3    0  503 -0.18452025958E+02  0.19170904881E+02  0.53811319997E+02  0.60214192809E+02  0.47000000000E+01 0. -1.
<mgrwt>
<rscale>  0 0.13774411E+03</rscale>
<asrwt>0</asrwt>
<pdfrwt beam="2">  1        5 0.30914295E-01 0.13774536E+03</pdfrwt>
<pdfrwt beam="1">  1       -5 0.19400737E-01 0.13774536E+03</pdfrwt>
<totfact> 0.17940583E+02</totfact>
</mgrwt>
</event>
<event>
 8    1  0.3763376E-007  0.1606813E+03  0.7546771E-02  0.1187930E+00
          5   -1    0    0  501    0  0.00000000000E+00  0.00000000000E+00  0.16938457355E+02  0.17578433877E+02  0.47000000000E+01 0.  1.
         -5   -1    0    0    0  501 -0.00000000000E+00 -0.00000000000E+00 -0.18112655132E+04  0.18112716111E+04  0.47000000000E+01 0.  1.
         25    2    1    2    0    0 -0.79793760047E+01 -0.10064154889E+03 -0.12789990660E+04  0.12890524650E+04  0.12500101919E+03 0.  0.
         25    2    1    2    0    0  0.79793760047E+01  0.10064154889E+03 -0.51532798985E+03  0.53979758005E+03  0.12500439394E+03 0.  0.
          5    1    3    3  502    0  0.38226703878E+02 -0.60407193502E+02 -0.10334974221E+04  0.10359774715E+04  0.47000000000E+01 0. -1.
         -5    1    3    3    0  502 -0.46206079882E+02 -0.40234355388E+02 -0.24550164385E+03  0.25307499344E+03  0.47000000000E+01 0. -1.
          5    1    4    4  503    0 -0.48335750534E+01  0.81254477818E+02 -0.12811318531E+03  0.15185760390E+03  0.47000000000E+01 0.  1.
         -5    1    4    4    0  503  0.12812951058E+02  0.19387071072E+02 -0.38721480454E+03  0.38793997615E+03  0.47000000000E+01 0.  1.
<mgrwt>
<rscale>  0 0.16068068E+03</rscale>
<asrwt>0</asrwt>
<pdfrwt beam="1">  1        5 0.26556160E-02 0.16068133E+03</pdfrwt>
<pdfrwt beam="2">  1       -5 0.27870578E+00 0.16068133E+03</pdfrwt>
<totfact> 0.20902761E+01</totfact>
</mgrwt>
</event>
<event>
 8    1  0.3763376E-007  0.1313925E+03  0.7546771E-02  0.1225404E+00
         -5   -1    0    0    0  501 -0.00000000000E+00  0.00000000000E+00  0.23681067758E+03  0.23685731362E+03  0.47000000000E+01 0. -1.
          5   -1    0    0  501    0  0.00000000000E+00 -0.00000000000E+00 -0.94711993593E+02  0.94828538586E+02  0.47000000000E+01 0. -1.
         25    2    1    2    0    0 -0.29357863434E+02  0.27869216484E+02  0.15079365508E+03  0.20000599394E+03  0.12500037530E+03 0.  0.
         25    2    1    2    0    0  0.29357863434E+02 -0.27869216484E+02 -0.86949710961E+01  0.13167985827E+03  0.12500162070E+03 0.  0.
          5    1    3    3  502    0 -0.26121405421E+02  0.72474022504E+02  0.56862948138E+02  0.95866034809E+02  0.47000000000E+01 0. -1.
         -5    1    3    3    0  502 -0.32364580128E+01 -0.44604806020E+02  0.93930706945E+02  0.10413995913E+03  0.47000000000E+01 0. -1.
          5    1    4    4  503    0  0.14314246246E+02 -0.17745485592E+02 -0.66742050466E+02  0.70685155477E+02  0.47000000000E+01 0. -1.
         -5    1    4    4    0  503  0.15043617187E+02 -0.10123730892E+02  0.58047079370E+02  0.60994702791E+02  0.47000000000E+01 0. -1.
<mgrwt>
<rscale>  0 0.13139218E+03</rscale>
<asrwt>0</asrwt>
<pdfrwt beam="2">  1        5 0.14583629E-01 0.13139248E+03</pdfrwt>
<pdfrwt beam="1">  1       -5 0.36444964E-01 0.13139248E+03</pdfrwt>
<totfact> 0.21450024E+02</totfact>
</mgrwt>
</event>
<event>
 8    1  0.3763376E-007  0.1402609E+03  0.7546771E-02  0.1212980E+00
         -5   -1    0    0    0  501 -0.00000000000E+00  0.00000000000E+00  0.98319556142E+02  0.98431829811E+02  0.47000000000E+01 0.  1.
          5   -1    0    0  501    0  0.00000000000E+00 -0.00000000000E+00 -0.20160674338E+03  0.20166152081E+03  0.47000000000E+01 0.  1.
         25    2    1    2    0    0  0.22235568541E+02 -0.59603678539E+02 -0.37580498538E+02  0.14520472387E+03  0.12500039584E+03 0.  0.
         25    2    1    2    0    0 -0.22235568541E+02  0.59603678539E+02 -0.65706688703E+02  0.15488862676E+03  0.12500439494E+03 0.  0.
          5    1    3    3  502    0 -0.47783344341E+02 -0.43200953754E+02 -0.14913008006E+01  0.64605606411E+02  0.47000000000E+01 0.  1.
         -5    1    3    3    0  502  0.70018912882E+02 -0.16402724785E+02 -0.36089197737E+02  0.80599117458E+02  0.47000000000E+01 0.  1.
          5    1    4    4  503    0 -0.52005312244E+02 -0.17647278830E+02 -0.39896958836E+02  0.68042900262E+02  0.47000000000E+01 0. -1.
         -5    1    4    4    0  503  0.29769743703E+02  0.77250957369E+02 -0.25809729867E+02  0.86845726495E+02  0.47000000000E+01 0. -1.
<mgrwt>
<rscale>  0 0.14026000E+03</rscale>
<asrwt>0</asrwt>
<pdfrwt beam="2">  1        5 0.31029272E-01 0.14026089E+03</pdfrwt>
<pdfrwt beam="1">  1       -5 0.15138936E-01 0.14026089E+03</pdfrwt>
<totfact> 0.28250663E+02</totfact>
</mgrwt>
</event>
<event>
 8    1  0.3763376E-007  0.1272754E+03  0.7546771E-02  0.1231556E+00
          5   -1    0    0  501    0  0.00000000000E+00  0.00000000000E+00  0.38457551026E+02  0.38743686336E+02  0.47000000000E+01 0.  1.
         -5   -1    0    0    0  501 -0.00000000000E+00 -0.00000000000E+00 -0.43826914920E+03  0.43829434988E+03  0.47000000000E+01 0.  1.
         25    2    1    2    0    0 -0.14941260705E+02 -0.18667858612E+02 -0.24943574830E+03  0.28003058891E+03  0.12500883161E+03 0.  0.
         25    2    1    2    0    0  0.14941260705E+02  0.18667858612E+02 -0.15037584988E+03  0.19700744731E+03  0.12500923107E+03 0.  0.
          5    1    4    4  502    0 -0.32360751129E+02  0.55932998366E+02 -0.59996272433E+02  0.88302668282E+02  0.47000000000E+01 0. -1.
         -5    1    4    4    0  502  0.47302011833E+02 -0.37265139755E+02 -0.90379577445E+02  0.10870477903E+03  0.47000000000E+01 0. -1.
          5    1    3    3  503    0 -0.42452289294E+02 -0.81853841733E+01 -0.18636756823E+02  0.47314015738E+02  0.47000000000E+01 0. -1.
         -5    1    3    3    0  503  0.27511028589E+02 -0.10482474438E+02 -0.23079899147E+03  0.23271657317E+03  0.47000000000E+01 0. -1.
<mgrwt>
<rscale>  0 0.12727534E+03</rscale>
<asrwt>0</asrwt>
<pdfrwt beam="1">  1        5 0.59404955E-02 0.12727544E+03</pdfrwt>
<pdfrwt beam="2">  1       -5 0.67449968E-01 0.12727544E+03</pdfrwt>
<totfact> 0.27370681E+02</totfact>
</mgrwt>
</event>
<event>
 8    1  0.3763376E-007  0.1543962E+03  0.7546771E-02  0.1195173E+00
          5   -1    0    0  501    0  0.00000000000E+00  0.00000000000E+00  0.38826811246E+03  0.38829655825E+03  0.47000000000E+01 0.  1.
         -5   -1    0    0    0  501 -0.00000000000E+00 -0.00000000000E+00 -0.93634460599E+02  0.93752345099E+02  0.47000000000E+01 0.  1.
         25    2    1    2    0    0 -0.43586953088E+02 -0.79452066360E+02  0.57600829948E+01  0.15450365325E+03  0.12500298789E+03 0.  0.
         25    2    1    2    0    0  0.43586953088E+02  0.79452066360E+02  0.28887356886E+03  0.32754525010E+03  0.12500199499E+03 0.  0.
          5    1    3    3  502    0 -0.67082540487E+02 -0.92829831416E+02 -0.20585696718E+02  0.11646160633E+03  0.47000000000E+01 0.  1.
         -5    1    3    3    0  502  0.23495587399E+02  0.13377765056E+02  0.26345779712E+02  0.38042046919E+02  0.47000000000E+01 0.  1.
          5    1    4    4  503    0 -0.13499827984E+02 -0.27653882157E+02  0.40671091635E+02  0.51217284667E+02  0.47000000000E+01 0. -1.
         -5    1    4    4    0  503  0.57086781072E+02  0.10710594852E+03  0.24820247723E+03  0.27632796544E+03  0.47000000000E+01 0. -1.
<mgrwt>
<rscale>  0 0.15439604E+03</rscale>
<asrwt>0</asrwt>
<pdfrwt beam="1">  1        5 0.59744811E-01 0.15439624E+03</pdfrwt>
<pdfrwt beam="2">  1       -5 0.14416558E-01 0.15439624E+03</pdfrwt>
<totfact> 0.81796778E+01</totfact>
</mgrwt>
</event>
<event>
 8    1  0.3763376E-007  0.1464383E+03  0.7546771E-02  0.1204919E+00
          5   -1    0    0  501    0  0.00000000000E+00  0.00000000000E+00  0.71839887652E+03  0.71841425082E+03  0.47000000000E+01 0.  1.
         -5   -1    0    0    0  501 -0.00000000000E+00 -0.00000000000E+00 -0.30112530533E+02  0.30477114285E+02  0.47000000000E+01 0.  1.
         25    2    1    2    0    0  0.57925593187E+02 -0.49637566883E+02  0.29798598008E+03  0.33202383936E+03  0.12499969273E+03 0.  0.
         25    2    1    2    0    0 -0.57925593187E+02  0.49637566883E+02  0.39030036590E+03  0.41686752575E+03  0.12499958403E+03 0.  0.
          5    1    4    4  502    0  0.34747063958E+01  0.57898766564E+02  0.30959265319E+03  0.31501435152E+03  0.47000000000E+01 0.  1.
         -5    1    4    4    0  502 -0.61400299583E+02 -0.82611996816E+01  0.80707712710E+02  0.10185317423E+03  0.47000000000E+01 0.  1.
          5    1    3    3  503    0  0.31410209892E+02 -0.46103885425E+02  0.29962923809E+03  0.30481459915E+03  0.47000000000E+01 0. -1.
         -5    1    3    3    0  503  0.26515383295E+02 -0.35336814578E+01 -0.16432580049E+01  0.27209240210E+02  0.47000000000E+01 0. -1.
<mgrwt>
<rscale>  0 0.14643831E+03</rscale>
<asrwt>0</asrwt>
<pdfrwt beam="1">  1        5 0.11055213E+00 0.14643833E+03</pdfrwt>
<pdfrwt beam="2">  1       -5 0.46619247E-02 0.14643833E+03</pdfrwt>
<totfact> 0.13412995E+02</totfact>
</mgrwt>
</event>
<event>
 8    1  0.3763376E-007  0.1285411E+03  0.7546771E-02  0.1229642E+00
         -5   -1    0    0    0  501 -0.00000000000E+00  0.00000000000E+00  0.77135844411E+03  0.77137276287E+03  0.47000000000E+01 0. -1.
          5   -1    0    0  501    0  0.00000000000E+00 -0.00000000000E+00 -0.21183514621E+02  0.21698647232E+02  0.47000000000E+01 0. -1.
         25    2    1    2    0    0 -0.15981710004E+02 -0.25314031972E+02  0.39166496232E+03  0.41221869999E+03  0.12500639439E+03 0.  0.
         25    2    1    2    0    0  0.15981710004E+02  0.25314031972E+02  0.35850996716E+03  0.38085271011E+03  0.12499269968E+03 0.  0.
          5    1    4    4  502    0  0.62277610395E+02  0.45876967641E+02  0.22560648379E+03  0.23854469695E+03  0.47000000000E+01 0. -1.
         -5    1    4    4    0  502 -0.46295900390E+02 -0.20562935669E+02  0.13290348337E+03  0.14230801316E+03  0.47000000000E+01 0. -1.
          5    1    3    3  503    0  0.60327115775E+01  0.43064657023E+02  0.24459844690E+03  0.24847826569E+03  0.47000000000E+01 0.  1.
         -5    1    3    3    0  503 -0.22014421582E+02 -0.68378688994E+02  0.14706651542E+03  0.16374043430E+03  0.47000000000E+01 0.  1.
<mgrwt>
<rscale>  0 0.12853777E+03</rscale>
<asrwt>0</asrwt>
<pdfrwt beam="2">  1        5 0.32997294E-02 0.12854110E+03</pdfrwt>
<pdfrwt beam="1">  1       -5 0.11871125E+00 0.12854110E+03</pdfrwt>
<totfact> 0.18937658E+02</totfact>
</mgrwt>
</event>
<event>
 8    1  0.3763376E-007  0.1968447E+03  0.7546771E-02  0.1152429E+00
          5   -1    0    0  501    0  0.00000000000E+00  0.00000000000E+00  0.31138130223E+03  0.31141677119E+03  0.47000000000E+01 0. -1.
         -5   -1    0    0    0  501 -0.00000000000E+00 -0.00000000000E+00 -0.19376294714E+03  0.19381994140E+03  0.47000000000E+01 0. -1.
         25    2    1    2    0    0 -0.14951733678E+03  0.27715265247E+02 -0.92346167395E+02  0.21742958900E+03  0.12499696643E+03 0.  0.
         25    2    1    2    0    0  0.14951733678E+03 -0.27715265247E+02  0.20996452248E+03  0.28780712359E+03  0.12499707901E+03 0.  0.
          5    1    4    4  502    0  0.17206155390E+02 -0.55129957061E+02  0.90086461374E+02  0.10711220506E+03  0.47000000000E+01 0.  1.
         -5    1    4    4    0  502  0.13231118139E+03  0.27414691815E+02  0.11987806111E+03  0.18069491853E+03  0.47000000000E+01 0.  1.
          5    1    3    3  503    0 -0.14834707818E+03  0.26158115413E+02 -0.11791715854E+03  0.19135738524E+03  0.47000000000E+01 0.  1.
         -5    1    3    3    0  503 -0.11702585978E+01  0.15571498335E+01  0.25570991148E+02  0.26072203764E+02  0.47000000000E+01 0.  1.
<mgrwt>
<rscale>  0 0.19684469E+03</rscale>
<asrwt>0</asrwt>
<pdfrwt beam="1">  1        5 0.47911928E-01 0.19684471E+03</pdfrwt>
<pdfrwt beam="2">  1       -5 0.29816797E-01 0.19684471E+03</pdfrwt>
<totfact> 0.35833126E+01</totfact>
</mgrwt>
</event>
<event>
 8    1  0.3763376E-007  0.1545682E+03  0.7546771E-02  0.1194970E+00
         -5   -1    0    0    0  501 -0.00000000000E+00  0.00000000000E+00  0.48145403697E+02  0.48374268957E+02  0.47000000000E+01 0.  1.
          5   -1    0    0  501    0  0.00000000000E+00 -0.00000000000E+00 -0.51164994859E+03  0.51167153516E+03  0.47000000000E+01 0.  1.
         25    2    1    2    0    0 -0.81912722443E+02 -0.39446813612E+02 -0.28254563576E+03  0.32205953310E+03  0.12499824547E+03 0.  0.
         25    2    1    2    0    0  0.81912722443E+02  0.39446813612E+02 -0.18095890913E+03  0.23798627102E+03  0.12500237276E+03 0.  0.
          5    1    4    4  502    0  0.14136829960E+02 -0.36346606709E+02 -0.12604079530E+02  0.41253831354E+02  0.47000000000E+01 0.  1.
         -5    1    4    4    0  502  0.67775892483E+02  0.75793420321E+02 -0.16835482960E+03  0.19673243966E+03  0.47000000000E+01 0.  1.
          5    1    3    3  503    0  0.54663618014E+01  0.11709380627E+02 -0.17016752603E+03  0.17072219429E+03  0.47000000000E+01 0. -1.
         -5    1    3    3    0  503 -0.87379084244E+02 -0.51156194239E+02 -0.11237810973E+03  0.15133733881E+03  0.47000000000E+01 0. -1.
<mgrwt>
<rscale>  0 0.15456740E+03</rscale>
<asrwt>0</asrwt>
<pdfrwt beam="2">  1        5 0.78734638E-01 0.15456823E+03</pdfrwt>
<pdfrwt beam="1">  1       -5 0.74262511E-02 0.15456823E+03</pdfrwt>
<totfact> 0.14086311E+02</totfact>
</mgrwt>
</event>
<event>
 8    1  0.3763376E-007  0.1721699E+03  0.7546771E-02  0.1175604E+00
          5   -1    0    0  501    0  0.00000000000E+00  0.00000000000E+00  0.20192992411E+03  0.20198461389E+03  0.47000000000E+01 0.  1.
         -5   -1    0    0    0  501 -0.00000000000E+00 -0.00000000000E+00 -0.17798848734E+03  0.17805053110E+03  0.47000000000E+01 0.  1.
         25    2    1    2    0    0  0.94365718900E+02 -0.71501533144E+02 -0.67693373616E+02  0.18499820923E+03  0.12499834576E+03 0.  0.
         25    2    1    2    0    0 -0.94365718900E+02  0.71501533144E+02  0.91634810383E+02  0.19503693576E+03  0.12500043877E+03 0.  0.
          5    1    4    4  502    0 -0.38237752713E+01 -0.14247749095E+02 -0.21568377499E+02  0.26550038033E+02  0.47000000000E+01 0. -1.
         -5    1    4    4    0  502 -0.90541943628E+02  0.85749282239E+02  0.11320318788E+03  0.16848689773E+03  0.47000000000E+01 0. -1.
          5    1    3    3  503    0 -0.12296984556E+02  0.15759431740E+02 -0.39116348606E+02  0.44178662793E+02  0.47000000000E+01 0. -1.
         -5    1    3    3    0  503  0.10666270346E+03 -0.87260964884E+02 -0.28577025010E+02  0.14081954644E+03  0.47000000000E+01 0. -1.
<mgrwt>
<rscale>  0 0.17216950E+03</rscale>
<asrwt>0</asrwt>
<pdfrwt beam="1">  1        5 0.31075122E-01 0.17216988E+03</pdfrwt>
<pdfrwt beam="2">  1       -5 0.27391824E-01 0.17216988E+03</pdfrwt>
<totfact> 0.98868305E+01</totfact>
</mgrwt>
</event>
<event>
 8    1  0.3763376E-007  0.1473849E+03  0.7546771E-02  0.1203725E+00
          5   -1    0    0  501    0  0.00000000000E+00  0.00000000000E+00  0.18538100158E+03  0.18544057200E+03  0.47000000000E+01 0.  1.
         -5   -1    0    0    0  501 -0.00000000000E+00 -0.00000000000E+00 -0.12029269003E+03  0.12038447273E+03  0.47000000000E+01 0.  1.
         25    2    1    2    0    0  0.49746207096E+02  0.60180415069E+02  0.57643083331E+02  0.15825221487E+03  0.12499868390E+03 0.  0.
         25    2    1    2    0    0 -0.49746207096E+02 -0.60180415069E+02  0.74452282154E+01  0.14757282986E+03  0.12500376479E+03 0.  0.
          5    1    3    3  502    0  0.50276896700E+02 -0.28894846222E+02  0.23050736044E+02  0.62578789634E+02  0.47000000000E+01 0. -1.
         -5    1    3    3    0  502 -0.53068960350E+00  0.89075261291E+02  0.34592347288E+02  0.95673425236E+02  0.47000000000E+01 0. -1.
          5    1    4    4  503    0  0.10494544230E+01 -0.51272859063E+02 -0.48920590884E+02  0.71030427589E+02  0.47000000000E+01 0. -1.
         -5    1    4    4    0  503 -0.50795661519E+02 -0.89075560066E+01  0.56365819100E+02  0.76542402275E+02  0.47000000000E+01 0. -1.
<mgrwt>
<rscale>  0 0.14738382E+03</rscale>
<asrwt>0</asrwt>
<pdfrwt beam="1">  1        5 0.28531797E-01 0.14738490E+03</pdfrwt>
<pdfrwt beam="2">  1       -5 0.18518210E-01 0.14738490E+03</pdfrwt>
<totfact> 0.23413295E+02</totfact>
</mgrwt>
</event>
<event>
 8    1  0.3763376E-007  0.1283292E+03  0.7546771E-02  0.1229956E+00
          5   -1    0    0  501    0  0.00000000000E+00  0.00000000000E+00  0.71801572457E+02  0.71955234746E+02  0.47000000000E+01 0. -1.
         -5   -1    0    0    0  501 -0.00000000000E+00 -0.00000000000E+00 -0.26631233937E+03  0.26635381000E+03  0.47000000000E+01 0. -1.
         25    2    1    2    0    0 -0.21308952923E+02 -0.19722743014E+02 -0.16060225714E+03  0.20557562849E+03  0.12500078385E+03 0.  0.
         25    2    1    2    0    0  0.21308952923E+02  0.19722743014E+02 -0.33908509777E+02  0.13273341626E+03  0.12500125875E+03 0.  0.
          5    1    3    3  502    0 -0.59500752583E+02 -0.50882644534E+02 -0.90607590975E+02  0.11983826023E+03  0.47000000000E+01 0.  1.
         -5    1    3    3    0  502  0.38191799660E+02  0.31159901520E+02 -0.69994666166E+02  0.85737368257E+02  0.47000000000E+01 0.  1.
          5    1    4    4  503    0  0.60064665980E+02  0.31998935374E+02 -0.54130464279E+02  0.87085550623E+02  0.47000000000E+01 0. -1.
         -5    1    4    4    0  503 -0.38755713057E+02 -0.12276192360E+02  0.20221954502E+02  0.45647865638E+02  0.47000000000E+01 0. -1.
<mgrwt>
<rscale>  0 0.12832904E+03</rscale>
<asrwt>0</asrwt>
<pdfrwt beam="1">  1        5 0.11061406E-01 0.12832916E+03</pdfrwt>
<pdfrwt beam="2">  1       -5 0.40986139E-01 0.12832916E+03</pdfrwt>
<totfact> 0.27403873E+02</totfact>
</mgrwt>
</event>
<event>
 8    1  0.3763376E-007  0.1463545E+03  0.7546771E-02  0.1205026E+00
         -5   -1    0    0    0  501 -0.00000000000E+00  0.00000000000E+00  0.49345794343E+03  0.49348032578E+03  0.47000000000E+01 0. -1.
          5   -1    0    0  501    0  0.00000000000E+00 -0.00000000000E+00 -0.48882971825E+02  0.49108399836E+02  0.47000000000E+01 0. -1.
         25    2    1    2    0    0 -0.60357100820E+02 -0.46383420144E+02  0.31409050356E+03  0.34651478512E+03  0.12500100240E+03 0.  0.
         25    2    1    2    0    0  0.60357100820E+02  0.46383420144E+02  0.13048446804E+03  0.19607394049E+03  0.12499756980E+03 0.  0.
          5    1    3    3  502    0 -0.30978330310E+02 -0.70254553173E+02  0.29299550289E+03  0.30292542631E+03  0.47000000000E+01 0. -1.
         -5    1    3    3    0  502 -0.29378770510E+02  0.23871133029E+02  0.21095000670E+02  0.43589358817E+02  0.47000000000E+01 0. -1.
          5    1    4    4  503    0  0.93394859347E+02  0.54897314532E+02  0.11577098540E+03  0.15862322010E+03  0.47000000000E+01 0.  1.
         -5    1    4    4    0  503 -0.33037758527E+02 -0.85138943888E+01  0.14713482642E+02  0.37450720388E+02  0.47000000000E+01 0.  1.
<mgrwt>
<rscale>  0 0.14635381E+03</rscale>
<asrwt>0</asrwt>
<pdfrwt beam="2">  1        5 0.75395197E-02 0.14635454E+03</pdfrwt>
<pdfrwt beam="1">  1       -5 0.75935668E-01 0.14635454E+03</pdfrwt>
<totfact> 0.14660394E+02</totfact>
</mgrwt>
</event>
<event>
 8    1  0.3763376E-007  0.1511667E+03  0.7546771E-02  0.1199048E+00
         -5   -1    0    0    0  501 -0.00000000000E+00  0.00000000000E+00  0.43331719417E+02  0.43585868211E+02  0.47000000000E+01 0.  1.
          5   -1    0    0  501    0  0.00000000000E+00 -0.00000000000E+00 -0.89939005043E+03  0.89940233090E+03  0.47000000000E+01 0.  1.
         25    2    1    2    0    0 -0.29972939167E+01  0.84943703215E+02 -0.12409247325E+03  0.19557689523E+03  0.12500785392E+03 0.  0.
         25    2    1    2    0    0  0.29972939167E+01 -0.84943703215E+02 -0.73196585776E+03  0.74741130388E+03  0.12500089498E+03 0.  0.
          5    1    3    3  502    0  0.43502519242E+02  0.93826230479E+02 -0.82318251409E+02  0.13226569934E+03  0.47000000000E+01 0.  1.
         -5    1    3    3    0  502 -0.46499813159E+02 -0.88825272631E+01 -0.41774221844E+02  0.63311195890E+02  0.47000000000E+01 0.  1.
          5    1    4    4  503    0  0.32466189632E+02 -0.53219299415E+02 -0.66234828773E+03  0.66529218510E+03  0.47000000000E+01 0. -1.
         -5    1    4    4    0  503 -0.29468895716E+02 -0.31724403800E+02 -0.69617570036E+02  0.82119118778E+02  0.47000000000E+01 0. -1.
<mgrwt>
<rscale>  0 0.15116529E+03</rscale>
<asrwt>0</asrwt>
<pdfrwt beam="2">  1        5 0.13838818E+00 0.15116673E+03</pdfrwt>
<pdfrwt beam="1">  1       -5 0.66869136E-02 0.15116673E+03</pdfrwt>
<totfact> 0.41531533E+01</totfact>
</mgrwt>
</event>
<event>
 8    1  0.3763376E-007  0.1396180E+03  0.7546771E-02  0.1213844E+00
          5   -1    0    0  501    0  0.00000000000E+00  0.00000000000E+00  0.35875795744E+02  0.36182353714E+02  0.47000000000E+01 0. -1.
         -5   -1    0    0    0  501 -0.00000000000E+00 -0.00000000000E+00 -0.59055509751E+03  0.59057379996E+03  0.47000000000E+01 0. -1.
         25    2    1    2    0    0 -0.53849191942E+02 -0.31116720411E+02 -0.36834677332E+03  0.39391929896E+03  0.12500033167E+03 0.  0.
         25    2    1    2    0    0  0.53849191942E+02  0.31116720411E+02 -0.18633252845E+03  0.23283685472E+03  0.12500081597E+03 0.  0.
          5    1    4    4  502    0  0.22509010519E+02  0.47799841599E+02 -0.11371951567E+02  0.54248425727E+02  0.47000000000E+01 0. -1.
         -5    1    4    4    0  502  0.31340181423E+02 -0.16683121188E+02 -0.17496057689E+03  0.17858842899E+03  0.47000000000E+01 0. -1.
          5    1    3    3  503    0 -0.26673361990E+01  0.22837342364E+02 -0.26750680137E+03  0.26853423928E+03  0.47000000000E+01 0. -1.
         -5    1    3    3    0  503 -0.51181855743E+02 -0.53954062775E+02 -0.10083997195E+03  0.12538505967E+03  0.47000000000E+01 0. -1.
<mgrwt>
<rscale>  0 0.13961791E+03</rscale>
<asrwt>0</asrwt>
<pdfrwt beam="1">  1        5 0.55443737E-02 0.13961801E+03</pdfrwt>
<pdfrwt beam="2">  1       -5 0.90879643E-01 0.13961801E+03</pdfrwt>
<totfact> 0.15960709E+02</totfact>
</mgrwt>
</event>
<event>
 8    1  0.3763376E-007  0.1437423E+03  0.7546771E-02  0.1208384E+00
         -5   -1    0    0    0  501 -0.00000000000E+00  0.00000000000E+00  0.24900684184E+02  0.25340364497E+02  0.47000000000E+01 0.  1.
          5   -1    0    0  501    0  0.00000000000E+00 -0.00000000000E+00 -0.13029193328E+04  0.13029278099E+04  0.47000000000E+01 0.  1.
         25    2    1    2    0    0  0.56462618870E+02  0.42976332918E+02 -0.23557629116E+03  0.27596216855E+03  0.12499574791E+03 0.  0.
         25    2    1    2    0    0 -0.56462618870E+02 -0.42976332918E+02 -0.10424423575E+04  0.10523060059E+04  0.12500747487E+03 0.  0.
          5    1    4    4  502    0 -0.81077195612E+02 -0.69325235773E+02 -0.81740824235E+03  0.82435297332E+03  0.47000000000E+01 0.  1.
         -5    1    4    4    0  502  0.24614576742E+02  0.26348902854E+02 -0.22503411515E+03  0.22795303256E+03  0.47000000000E+01 0.  1.
          5    1    3    3  503    0 -0.15562782090E+02  0.47990476599E+02 -0.17311591348E+03  0.18037875577E+03  0.47000000000E+01 0. -1.
         -5    1    3    3    0  503  0.72025400960E+02 -0.50141436810E+01 -0.62460377674E+02  0.95583412785E+02  0.47000000000E+01 0. -1.
<mgrwt>
<rscale>  0 0.14373979E+03</rscale>
<asrwt>0</asrwt>
<pdfrwt beam="2">  1        5 0.20048355E+00 0.14374234E+03</pdfrwt>
<pdfrwt beam="1">  1       -5 0.38653492E-02 0.14374234E+03</pdfrwt>
<totfact> 0.35280900E+01</totfact>
</mgrwt>
</event>
<event>
 8    1  0.3763376E-007  0.2035867E+03  0.7546771E-02  0.1146748E+00
          5   -1    0    0  501    0  0.00000000000E+00  0.00000000000E+00  0.13848377639E+03  0.13856351007E+03  0.47000000000E+01 0. -1.
         -5   -1    0    0    0  501 -0.00000000000E+00 -0.00000000000E+00 -0.31364963458E+03  0.31368484705E+03  0.47000000000E+01 0. -1.
         25    2    1    2    0    0 -0.10905523329E+03 -0.11802348369E+03 -0.13626474795E+03  0.24497841973E+03  0.12499503186E+03 0.  0.
         25    2    1    2    0    0  0.10905523329E+03  0.11802348369E+03 -0.38901110238E+02  0.20726993740E+03  0.12499977584E+03 0.  0.
          5    1    4    4  502    0 -0.23844254809E+02  0.46203145779E+02 -0.55752945106E+01  0.52501934023E+02  0.47000000000E+01 0.  1.
         -5    1    4    4    0  502  0.13289948810E+03  0.71820337910E+02 -0.33325815727E+02  0.15476800337E+03  0.47000000000E+01 0.  1.
          5    1    3    3  503    0 -0.58336598144E+02 -0.20453469738E+02 -0.11815612105E+03  0.13343336183E+03  0.47000000000E+01 0. -1.
         -5    1    3    3    0  503 -0.50718635145E+02 -0.97570013951E+02 -0.18108626894E+02  0.11154505790E+03  0.47000000000E+01 0. -1.
<mgrwt>
<rscale>  0 0.20358594E+03</rscale>
<asrwt>0</asrwt>
<pdfrwt beam="1">  1        5 0.21314039E-01 0.20358667E+03</pdfrwt>
<pdfrwt beam="2">  1       -5 0.48262632E-01 0.20358667E+03</pdfrwt>
<totfact> 0.68073191E+01</totfact>
</mgrwt>
</event>
<event>
 8    1  0.3763376E-007  0.1323450E+03  0.7546771E-02  0.1224023E+00
          5   -1    0    0  501    0  0.00000000000E+00  0.00000000000E+00  0.46428706479E+03  0.46431085334E+03  0.47000000000E+01 0. -1.
         -5   -1    0    0    0  501 -0.00000000000E+00 -0.00000000000E+00 -0.37583211227E+02  0.37875952346E+02  0.47000000000E+01 0. -1.
         25    2    1    2    0    0  0.87400503176E+01  0.42541570583E+02  0.20578670671E+03  0.24466990637E+03  0.12501608183E+03 0.  0.
         25    2    1    2    0    0 -0.87400503176E+01 -0.42541570583E+02  0.22091714685E+03  0.25751689931E+03  0.12499757579E+03 0.  0.
          5    1    4    4  502    0  0.17483204038E+02  0.40402333418E+02  0.89420351557E+02  0.99780259780E+02  0.47000000000E+01 0. -1.
         -5    1    4    4    0  502 -0.26223254356E+02 -0.82943904001E+02  0.13149679529E+03  0.15773663953E+03  0.47000000000E+01 0. -1.
          5    1    3    3  503    0 -0.38958409514E+02  0.71091448981E+01  0.17114479119E+03  0.17572969915E+03  0.47000000000E+01 0.  1.
         -5    1    3    3    0  503  0.47698459832E+02  0.35432425685E+02  0.34641915524E+02  0.68940207219E+02  0.47000000000E+01 0.  1.
<mgrwt>
<rscale>  0 0.13234061E+03</rscale>
<asrwt>0</asrwt>
<pdfrwt beam="1">  1        5 0.71453121E-01 0.13234498E+03</pdfrwt>
<pdfrwt beam="2">  1       -5 0.58063815E-02 0.13234498E+03</pdfrwt>
<totfact> 0.25336897E+02</totfact>
</mgrwt>
</event>
<event>
 8    1  0.3763376E-007  0.1265140E+03  0.7546771E-02  0.1232739E+00
         -5   -1    0    0    0  501 -0.00000000000E+00  0.00000000000E+00  0.22760518740E+02  0.23240723167E+02  0.47000000000E+01 0. -1.
          5   -1    0    0  501    0  0.00000000000E+00 -0.00000000000E+00 -0.70583433720E+03  0.70584998517E+03  0.47000000000E+01 0. -1.
         25    2    1    2    0    0  0.13192298690E+02  0.14344794947E+02 -0.38643256427E+03  0.40661518498E+03  0.12500388808E+03 0.  0.
         25    2    1    2    0    0 -0.13192298690E+02 -0.14344794947E+02 -0.29664125418E+03  0.32247552336E+03  0.12495847149E+03 0.  0.
          5    1    3    3  502    0  0.38900762868E+02 -0.82343689555E+01 -0.36224325162E+03  0.36444936209E+03  0.47000000000E+01 0.  1.
         -5    1    3    3    0  502 -0.25708464178E+02  0.22579163902E+02 -0.24189312650E+02  0.42165822883E+02  0.47000000000E+01 0.  1.
          5    1    4    4  503    0  0.13527231614E+02  0.10271502885E+02  0.52352219355E+01  0.18384431331E+02  0.47000000000E+01 0. -1.
         -5    1    4    4    0  503 -0.26719530304E+02 -0.24616297832E+02 -0.30187647612E+03  0.30409109203E+03  0.47000000000E+01 0. -1.
<mgrwt>
<rscale>  0 0.12650274E+03</rscale>
<asrwt>0</asrwt>
<pdfrwt beam="2">  1        5 0.10862802E+00 0.12651396E+03</pdfrwt>
<pdfrwt beam="1">  1       -5 0.35397613E-02 0.12651396E+03</pdfrwt>
<totfact> 0.20974351E+02</totfact>
</mgrwt>
</event>
<event>
 8    1  0.3763376E-007  0.1524171E+03  0.7546771E-02  0.1197545E+00
         -5   -1    0    0    0  501 -0.00000000000E+00  0.00000000000E+00  0.12728553049E+04  0.12728639822E+04  0.47000000000E+01 0.  1.
          5   -1    0    0  501    0  0.00000000000E+00 -0.00000000000E+00 -0.20843036910E+02  0.21366379844E+02  0.47000000000E+01 0.  1.
         25    2    1    2    0    0  0.62453605532E+02  0.60864576593E+02  0.86452072960E+03  0.87785366206E+03  0.12500404217E+03 0.  0.
         25    2    1    2    0    0 -0.62453605532E+02 -0.60864576593E+02  0.38749153840E+03  0.41637670000E+03  0.12495965128E+03 0.  0.
          5    1    4    4  502    0 -0.24535027923E+02  0.37720650820E+02  0.91638240914E+02  0.10219820102E+03  0.47000000000E+01 0.  1.
         -5    1    4    4    0  502 -0.37918577609E+02 -0.98585227413E+02  0.29585329748E+03  0.31417849898E+03  0.47000000000E+01 0.  1.
          5    1    3    3  503    0  0.94794881892E+01  0.85461489852E+02  0.37080542568E+03  0.38067345673E+03  0.47000000000E+01 0. -1.
         -5    1    3    3    0  503  0.52974117343E+02 -0.24596913259E+02  0.49371530392E+03  0.49718020533E+03  0.47000000000E+01 0. -1.
<mgrwt>
<rscale>  0 0.15240796E+03</rscale>
<asrwt>0</asrwt>
<pdfrwt beam="2">  1        5 0.32475457E-02 0.15241706E+03</pdfrwt>
<pdfrwt beam="1">  1       -5 0.19586482E+00 0.15241706E+03</pdfrwt>
<totfact> 0.51205539E+01</totfact>
</mgrwt>
</event>
<event>
 8    1  0.3763376E-007  0.1308192E+03  0.7546771E-02  0.1226249E+00
          5   -1    0    0  501    0  0.00000000000E+00  0.00000000000E+00  0.31453867375E+02  0.31803078040E+02  0.47000000000E+01 0.  1.
         -5   -1    0    0    0  501 -0.00000000000E+00 -0.00000000000E+00 -0.54085757792E+03  0.54087799881E+03  0.47000000000E+01 0.  1.
         25    2    1    2    0    0 -0.12784385439E+02  0.36332478200E+02 -0.25987104905E+03  0.29094093718E+03  0.12502070753E+03 0.  0.
         25    2    1    2    0    0  0.12784385439E+02 -0.36332478200E+02 -0.24953266150E+03  0.28174013967E+03  0.12500987026E+03 0.  0.
          5    1    3    3  502    0  0.29303893443E+02 -0.43133206754E+00 -0.22033369282E+03  0.22232393125E+03  0.47000000000E+01 0. -1.
         -5    1    3    3    0  502 -0.42088278882E+02  0.36763810268E+02 -0.39537356229E+02  0.68617005926E+02  0.47000000000E+01 0. -1.
          5    1    4    4  503    0 -0.48985862223E+02 -0.16120380461E+02 -0.50577091137E+02  0.72385174668E+02  0.47000000000E+01 0. -1.
         -5    1    4    4    0  503  0.61770247662E+02 -0.20212097739E+02 -0.19895557036E+03  0.20935496500E+03  0.47000000000E+01 0. -1.
<mgrwt>
<rscale>  0 0.13081662E+03</rscale>
<asrwt>0</asrwt>
<pdfrwt beam="1">  1        5 0.48674901E-02 0.13081921E+03</pdfrwt>
<pdfrwt beam="2">  1       -5 0.83237285E-01 0.13081921E+03</pdfrwt>
<totfact> 0.23849181E+02</totfact>
</mgrwt>
</event>
<event>
 8    1  0.3763376E-007  0.1391125E+03  0.7546771E-02  0.1214531E+00
         -5   -1    0    0    0  501 -0.00000000000E+00  0.00000000000E+00  0.43831566414E+02  0.44082833556E+02  0.47000000000E+01 0.  1.
          5   -1    0    0  501    0  0.00000000000E+00 -0.00000000000E+00 -0.54466488978E+03  0.54468516793E+03  0.47000000000E+01 0.  1.
         25    2    1    2    0    0  0.53177797110E+02  0.29974835132E+02 -0.12138371126E+03  0.18462476121E+03  0.12500371292E+03 0.  0.
         25    2    1    2    0    0 -0.53177797110E+02 -0.29974835132E+02 -0.37944961210E+03  0.40414324027E+03  0.12499352658E+03 0.  0.
          5    1    4    4  502    0 -0.67706369048E+02  0.30069819181E+02 -0.24710998109E+03  0.25801895122E+03  0.47000000000E+01 0. -1.
         -5    1    4    4    0  502  0.14528571938E+02 -0.60044654313E+02 -0.13233963102E+03  0.14612428905E+03  0.47000000000E+01 0. -1.
          5    1    3    3  503    0  0.42971030830E+02 -0.44038165840E+02 -0.72548878905E+02  0.95243369173E+02  0.47000000000E+01 0.  1.
         -5    1    3    3    0  503  0.10206766280E+02  0.74013000971E+02 -0.48834832355E+02  0.89381392034E+02  0.47000000000E+01 0.  1.
<mgrwt>
<rscale>  0 0.13911025E+03</rscale>
<asrwt>0</asrwt>
<pdfrwt beam="2">  1        5 0.83815482E-01 0.13911253E+03</pdfrwt>
<pdfrwt beam="1">  1       -5 0.67642064E-02 0.13911253E+03</pdfrwt>
<totfact> 0.13803693E+02</totfact>
</mgrwt>
</event>
<event>
 8    1  0.3763376E-007  0.1266883E+03  0.7546771E-02  0.1232457E+00
         -5   -1    0    0    0  501 -0.00000000000E+00  0.00000000000E+00  0.36220058405E+02  0.36523726958E+02  0.47000000000E+01 0. -1.
          5   -1    0    0  501    0  0.00000000000E+00 -0.00000000000E+00 -0.46430827941E+03  0.46433206688E+03  0.47000000000E+01 0. -1.
         25    2    1    2    0    0 -0.20472311823E+02  0.20426005870E+01 -0.15786356078E+03  0.20240763887E+03  0.12499864272E+03 0.  0.
         25    2    1    2    0    0  0.20472311823E+02 -0.20426005870E+01 -0.27022466023E+03  0.29844815497E+03  0.12500658559E+03 0.  0.
          5    1    3    3  502    0  0.20902747831E+02 -0.38053504521E+02 -0.11673830328E+02  0.45203566095E+02  0.47000000000E+01 0. -1.
         -5    1    3    3    0  502 -0.41375059653E+02  0.40096105108E+02 -0.14618973045E+03  0.15720407277E+03  0.47000000000E+01 0. -1.
          5    1    4    4  503    0  0.56871666824E+02 -0.30668825462E+02 -0.22268082036E+03  0.23191334825E+03  0.47000000000E+01 0.  1.
         -5    1    4    4    0  503 -0.36399355002E+02  0.28626224875E+02 -0.47543839869E+02  0.66534806715E+02  0.47000000000E+01 0.  1.
<mgrwt>
<rscale>  0 0.12668638E+03</rscale>
<asrwt>0</asrwt>
<pdfrwt beam="2">  1        5 0.71457228E-01 0.12668833E+03</pdfrwt>
<pdfrwt beam="1">  1       -5 0.55975059E-02 0.12668833E+03</pdfrwt>
<totfact> 0.26515871E+02</totfact>
</mgrwt>
</event>
<event>
 8    1  0.3763376E-007  0.1448106E+03  0.7546771E-02  0.1206999E+00
         -5   -1    0    0    0  501 -0.00000000000E+00  0.00000000000E+00  0.39140916759E+03  0.39143738512E+03  0.47000000000E+01 0.  1.
          5   -1    0    0  501    0  0.00000000000E+00 -0.00000000000E+00 -0.54215400819E+02  0.54418743884E+02  0.47000000000E+01 0.  1.
         25    2    1    2    0    0  0.61311633685E+02  0.39823554401E+02  0.19517194707E+03  0.24302714987E+03  0.12500029896E+03 0.  0.
         25    2    1    2    0    0 -0.61311633685E+02 -0.39823554401E+02  0.14202181970E+03  0.20282897913E+03  0.12499746236E+03 0.  0.
          5    1    4    4  502    0  0.25607902944E+02 -0.39101918394E+02  0.89723273457E+02  0.10127724579E+03  0.47000000000E+01 0.  1.
         -5    1    4    4    0  502 -0.86919536629E+02 -0.72163600709E+00  0.52298546239E+02  0.10155173334E+03  0.47000000000E+01 0.  1.
          5    1    3    3  503    0  0.67174024149E+02 -0.28177302360E+02  0.12676418777E+03  0.14627904563E+03  0.47000000000E+01 0. -1.
         -5    1    3    3    0  503 -0.58623904636E+01  0.68000856760E+02  0.68407759299E+02  0.96748104242E+02  0.47000000000E+01 0. -1.
<mgrwt>
<rscale>  0 0.14480998E+03</rscale>
<asrwt>0</asrwt>
<pdfrwt beam="2">  1        5 0.83586432E-02 0.14481059E+03</pdfrwt>
<pdfrwt beam="1">  1       -5 0.60234608E-01 0.14481059E+03</pdfrwt>
<totfact> 0.20570457E+02</totfact>
</mgrwt>
</event>
<event>
 8    1  0.3763376E-007  0.1254869E+03  0.7546771E-02  0.1234311E+00
          5   -1    0    0  501    0  0.00000000000E+00  0.00000000000E+00  0.13760945028E+02  0.14541444497E+02  0.47000000000E+01 0. -1.
         -5   -1    0    0    0  501 -0.00000000000E+00 -0.00000000000E+00 -0.11461749092E+04  0.11461845456E+04  0.47000000000E+01 0. -1.
         25    2    1    2    0    0 -0.10778169996E+02  0.21601514114E+01 -0.66643172395E+03  0.67814292631E+03  0.12500300243E+03 0.  0.
         25    2    1    2    0    0  0.10778169996E+02 -0.21601514114E+01 -0.46598224022E+03  0.48258306374E+03  0.12500451995E+03 0.  0.
          5    1    3    3  502    0  0.88985018733E+01  0.49743226328E+02 -0.52691385953E+03  0.52935231866E+03  0.47000000000E+01 0.  1.
         -5    1    3    3    0  502 -0.19676671869E+02 -0.47583074917E+02 -0.13951786441E+03  0.14879060765E+03  0.47000000000E+01 0.  1.
          5    1    4    4  503    0  0.20780776997E+02 -0.43770022116E+02 -0.76146281205E+02  0.90376997460E+02  0.47000000000E+01 0. -1.
         -5    1    4    4    0  503 -0.10002607002E+02  0.41609870705E+02 -0.38983595902E+03  0.39220606628E+03  0.47000000000E+01 0. -1.
<mgrwt>
<rscale>  0 0.12548653E+03</rscale>
<asrwt>0</asrwt>
<pdfrwt beam="1">  1        5 0.21778491E-02 0.12548691E+03</pdfrwt>
<pdfrwt beam="2">  1       -5 0.17639531E+00 0.12548691E+03</pdfrwt>
<totfact> 0.12556398E+02</totfact>
</mgrwt>
</event>
<event>
 8    1  0.3763376E-007  0.1360486E+03  0.7546771E-02  0.1218747E+00
         -5   -1    0    0    0  501 -0.00000000000E+00  0.00000000000E+00  0.10484407164E+03  0.10494936569E+03  0.47000000000E+01 0.  1.
          5   -1    0    0  501    0  0.00000000000E+00 -0.00000000000E+00 -0.18165739843E+03  0.18171818953E+03  0.47000000000E+01 0.  1.
         25    2    1    2    0    0 -0.38284583165E+00  0.53695777682E+02 -0.13833998196E+02  0.13674887166E+03  0.12500196512E+03 0.  0.
         25    2    1    2    0    0  0.38284583165E+00 -0.53695777682E+02 -0.62979328596E+02  0.14991868355E+03  0.12500333090E+03 0.  0.
          5    1    4    4  502    0  0.59097561323E+01 -0.88722093438E+02 -0.15354614192E+02  0.90357010013E+02  0.47000000000E+01 0. -1.
         -5    1    4    4    0  502 -0.55269103007E+01  0.35026315755E+02 -0.47624714404E+02  0.59561673540E+02  0.47000000000E+01 0. -1.
          5    1    3    3  503    0  0.14312437846E+02  0.15447122883E+02  0.53556510356E+02  0.57739495010E+02  0.47000000000E+01 0.  1.
         -5    1    3    3    0  503 -0.14695283678E+02  0.38248654799E+02 -0.67390508552E+02  0.79009376654E+02  0.47000000000E+01 0.  1.
<mgrwt>
<rscale>  0 0.13604827E+03</rscale>
<asrwt>0</asrwt>
<pdfrwt beam="2">  1        5 0.27960068E-01 0.13604858E+03</pdfrwt>
<pdfrwt beam="1">  1       -5 0.16142633E-01 0.13604858E+03</pdfrwt>
<totfact> 0.30505458E+02</totfact>
</mgrwt>
</event>
<event>
 8    1  0.3763376E-007  0.1798708E+03  0.7546771E-02  0.1167929E+00
         -5   -1    0    0    0  501 -0.00000000000E+00  0.00000000000E+00  0.40081064890E+03  0.40083820460E+03  0.47000000000E+01 0. -1.
          5   -1    0    0  501    0  0.00000000000E+00 -0.00000000000E+00 -0.10175666517E+03  0.10186515060E+03  0.47000000000E+01 0. -1.
         25    2    1    2    0    0  0.23187148713E+02 -0.12724267813E+03  0.26399972983E+03  0.31944860712E+03  0.12499284874E+03 0.  0.
         25    2    1    2    0    0 -0.23187148713E+02  0.12724267813E+03  0.35054253898E+02  0.18325474808E+03  0.12500063589E+03 0.  0.
          5    1    3    3  502    0  0.60446645857E+00 -0.13718467688E+03  0.26000529216E+03  0.29401503857E+03  0.47000000000E+01 0. -1.
         -5    1    3    3    0  502  0.22582682255E+02  0.99419987503E+01  0.39944376662E+01  0.25433568551E+02  0.47000000000E+01 0. -1.
          5    1    4    4  503    0  0.38181219725E+02  0.19524453950E+02  0.40363943950E+02  0.59079165642E+02  0.47000000000E+01 0.  1.
         -5    1    4    4    0  503 -0.61368368438E+02  0.10771822418E+03 -0.53096900519E+01  0.12417558244E+03  0.47000000000E+01 0.  1.
<mgrwt>
<rscale>  0 0.17986944E+03</rscale>
<asrwt>0</asrwt>
<pdfrwt beam="2">  1        5 0.15665336E-01 0.17987079E+03</pdfrwt>
<pdfrwt beam="1">  1       -5 0.61673643E-01 0.17987079E+03</pdfrwt>
<totfact> 0.68580483E+01</totfact>
</mgrwt>
</event>
<event>
 8    1  0.3763376E-007  0.1726681E+03  0.7546771E-02  0.1175094E+00
         -5   -1    0    0    0  501 -0.00000000000E+00  0.00000000000E+00  0.53999401921E+02  0.54203555307E+02  0.47000000000E+01 0. -1.
          5   -1    0    0  501    0  0.00000000000E+00 -0.00000000000E+00 -0.13064879714E+04  0.13064964253E+04  0.47000000000E+01 0. -1.
         25    2    1    2    0    0  0.71013955025E+02  0.95632660642E+02 -0.10888084207E+03  0.20413058425E+03  0.12500268024E+03 0.  0.
         25    2    1    2    0    0 -0.71013955025E+02 -0.95632660642E+02 -0.11436077274E+04  0.11565693964E+04  0.12500218756E+03 0.  0.
          5    1    4    4  502    0  0.20487753724E+01 -0.75780584884E+02 -0.84759820378E+03  0.85099453557E+03  0.47000000000E+01 0.  1.
         -5    1    4    4    0  502 -0.73062730397E+02 -0.19852075758E+02 -0.29600952359E+03  0.30557486078E+03  0.47000000000E+01 0.  1.
          5    1    3    3  503    0  0.26194053617E+02  0.48553273152E+02  0.20677978369E+02  0.59103448022E+02  0.47000000000E+01 0.  1.
         -5    1    3    3    0  503  0.44819901408E+02  0.47079387491E+02 -0.12955882044E+03  0.14502713623E+03  0.47000000000E+01 0.  1.
<mgrwt>
<rscale>  0 0.17266797E+03</rscale>
<asrwt>0</asrwt>
<pdfrwt beam="2">  1        5 0.20101448E+00 0.17266806E+03</pdfrwt>
<pdfrwt beam="1">  1       -5 0.83239556E-02 0.17266806E+03</pdfrwt>
<totfact> 0.10102133E+01</totfact>
</mgrwt>
</event>
<event>
 8    1  0.3763376E-007  0.1362285E+03  0.7546771E-02  0.1218497E+00
          5   -1    0    0  501    0  0.00000000000E+00  0.00000000000E+00  0.16496508822E+03  0.16503202819E+03  0.47000000000E+01 0. -1.
         -5   -1    0    0    0  501 -0.00000000000E+00 -0.00000000000E+00 -0.14078339451E+03  0.14086182652E+03  0.47000000000E+01 0. -1.
         25    2    1    2    0    0  0.47727758562E+02  0.25581538720E+02 -0.56599720764E+02  0.14751510195E+03  0.12499929141E+03 0.  0.
         25    2    1    2    0    0 -0.47727758562E+02 -0.25581538720E+02  0.80781414469E+02  0.15837875276E+03  0.12500335332E+03 0.  0.
          5    1    4    4  502    0 -0.60441342815E+02 -0.25975072890E+02  0.10881229273E+03  0.12724018777E+03  0.47000000000E+01 0.  1.
         -5    1    4    4    0  502  0.12713584252E+02  0.39353416932E+00 -0.28030878264E+02  0.31138564995E+02  0.47000000000E+01 0.  1.
          5    1    3    3  503    0  0.52897715759E+02 -0.30976798388E+02 -0.65502748882E+02  0.89835574702E+02  0.47000000000E+01 0.  1.
         -5    1    3    3    0  503 -0.51699571961E+01  0.56558337109E+02  0.89030281189E+01  0.57679527248E+02  0.47000000000E+01 0.  1.
<mgrwt>
<rscale>  0 0.13622752E+03</rscale>
<asrwt>0</asrwt>
<pdfrwt beam="1">  1        5 0.25390427E-01 0.13622846E+03</pdfrwt>
<pdfrwt beam="2">  1       -5 0.21670166E-01 0.13622846E+03</pdfrwt>
<totfact> 0.21307857E+02</totfact>
</mgrwt>
</event>
<event>
 8    1  0.3763376E-007  0.1674738E+03  0.7546771E-02  0.1180510E+00
         -5   -1    0    0    0  501 -0.00000000000E+00  0.00000000000E+00  0.24236778269E+02  0.24688285093E+02  0.47000000000E+01 0.  1.
          5   -1    0    0  501    0  0.00000000000E+00 -0.00000000000E+00 -0.11487428331E+04  0.11487524479E+04  0.47000000000E+01 0.  1.
         25    2    1    2    0    0  0.86094794593E+02  0.70772263975E+02 -0.53382099793E+03  0.55947503637E+03  0.12500572581E+03 0.  0.
         25    2    1    2    0    0 -0.86094794593E+02 -0.70772263975E+02 -0.59068505691E+03  0.61396569665E+03  0.12499605275E+03 0.  0.
          5    1    4    4  502    0 -0.21755124215E+00  0.30811796970E+01  0.50389577176E+01  0.75512973553E+01  0.47000000000E+01 0. -1.
         -5    1    4    4    0  502 -0.85877243351E+02 -0.73853443672E+02 -0.59572401463E+03  0.60641439930E+03  0.47000000000E+01 0. -1.
          5    1    3    3  503    0  0.66044729174E+02  0.43155644930E+02 -0.11676182692E+03  0.14099549697E+03  0.47000000000E+01 0. -1.
         -5    1    3    3    0  503  0.20050065419E+02  0.27616619045E+02 -0.41705917100E+03  0.41847953939E+03  0.47000000000E+01 0. -1.
<mgrwt>
<rscale>  0 0.16747195E+03</rscale>
<asrwt>0</asrwt>
<pdfrwt beam="2">  1        5 0.17676510E+00 0.16747375E+03</pdfrwt>
<pdfrwt beam="1">  1       -5 0.37642069E-02 0.16747375E+03</pdfrwt>
<totfact> 0.56219441E+01</totfact>
</mgrwt>
</event>
<event>
 8    1  0.3763376E-007  0.1329778E+03  0.7546771E-02  0.1223104E+00
          5   -1    0    0  501    0  0.00000000000E+00  0.00000000000E+00  0.14199639286E+03  0.14207415523E+03  0.47000000000E+01 0. -1.
         -5   -1    0    0    0  501 -0.00000000000E+00 -0.00000000000E+00 -0.24441990815E+03  0.24446509260E+03  0.47000000000E+01 0. -1.
         25    2    1    2    0    0 -0.28398345493E+01  0.45276617124E+02 -0.18661925615E+03  0.22915025319E+03  0.12500022020E+03 0.  0.
         25    2    1    2    0    0  0.28398345493E+01 -0.45276617124E+02  0.84195740861E+02  0.15738899464E+03  0.12499734452E+03 0.  0.
          5    1    4    4  502    0  0.70558904349E+00  0.42896041205E+02  0.16899832489E+02  0.46349353233E+02  0.47000000000E+01 0.  1.
         -5    1    4    4    0  502  0.21342455059E+01 -0.88172658329E+02  0.67295908372E+02  0.11103964141E+03  0.47000000000E+01 0.  1.
          5    1    3    3  503    0 -0.56283568304E+02  0.49067853081E+02 -0.78795568517E+02  0.10865691826E+03  0.47000000000E+01 0. -1.
         -5    1    3    3    0  503  0.53443733755E+02 -0.37912359578E+01 -0.10782368763E+03  0.12049333493E+03  0.47000000000E+01 0. -1.
<mgrwt>
<rscale>  0 0.13297711E+03</rscale>
<asrwt>0</asrwt>
<pdfrwt beam="1">  1        5 0.21855056E-01 0.13297779E+03</pdfrwt>
<pdfrwt beam="2">  1       -5 0.37612520E-01 0.13297779E+03</pdfrwt>
<totfact> 0.95915179E+01</totfact>
</mgrwt>
</event>
<event>
 8    1  0.3763376E-007  0.1674824E+03  0.7546771E-02  0.1180501E+00
          5   -1    0    0  501    0  0.00000000000E+00  0.00000000000E+00  0.21437131730E+02  0.21946312146E+02  0.47000000000E+01 0. -1.
         -5   -1    0    0    0  501 -0.00000000000E+00 -0.00000000000E+00 -0.20338999985E+04  0.20339054290E+04  0.47000000000E+01 0. -1.
         25    2    1    2    0    0 -0.51991763572E+02 -0.98588220558E+02 -0.16267584137E+04  0.16353572317E+04  0.12501023216E+03 0.  0.
         25    2    1    2    0    0  0.51991763572E+02  0.98588220558E+02 -0.38570445313E+03  0.42049450942E+03  0.12499970628E+03 0.  0.
          5    1    3    3  502    0 -0.25235837412E+02 -0.75246215110E+02 -0.38703105557E+03  0.39511260212E+03  0.47000000000E+01 0. -1.
         -5    1    3    3    0  502 -0.26755926161E+02 -0.23342005448E+02 -0.12397273581E+04  0.12402446296E+04  0.47000000000E+01 0. -1.
          5    1    4    4  503    0  0.65753672944E+02  0.35221943845E+02 -0.31785742535E+03  0.32652651298E+03  0.47000000000E+01 0. -1.
         -5    1    4    4    0  503 -0.13761909372E+02  0.63366276713E+02 -0.67847027785E+02  0.93967996431E+02  0.47000000000E+01 0. -1.
<mgrwt>
<rscale>  0 0.16748039E+03</rscale>
<asrwt>0</asrwt>
<pdfrwt beam="1">  1        5 0.33376073E-02 0.16748235E+03</pdfrwt>
<pdfrwt beam="2">  1       -5 0.31294713E+00 0.16748235E+03</pdfrwt>
<totfact> 0.88190692E+00</totfact>
</mgrwt>
</event>
<event>
 8    1  0.3763376E-007  0.1660383E+03  0.7546771E-02  0.1182046E+00
          5   -1    0    0  501    0  0.00000000000E+00  0.00000000000E+00  0.15343840050E+03  0.15351036690E+03  0.47000000000E+01 0.  1.
         -5   -1    0    0    0  501 -0.00000000000E+00 -0.00000000000E+00 -0.20376638090E+03  0.20382057793E+03  0.47000000000E+01 0.  1.
         25    2    1    2    0    0 -0.94732128793E+02  0.54496344002E+02 -0.86776701857E+02  0.18733906158E+03  0.12498680040E+03 0.  0.
         25    2    1    2    0    0  0.94732128793E+02 -0.54496344002E+02  0.36448721451E+02  0.16999188325E+03  0.12499881336E+03 0.  0.
          5    1    4    4  502    0  0.12154260483E+03 -0.59135921983E+02  0.17207788571E+02  0.13633730247E+03  0.47000000000E+01 0. -1.
         -5    1    4    4    0  502 -0.26810476038E+02  0.46395779810E+01  0.19240932880E+02  0.33654580778E+02  0.47000000000E+01 0. -1.
          5    1    3    3  503    0 -0.35209421844E+02 -0.29551847476E+01  0.28315533832E+02  0.45522477522E+02  0.47000000000E+01 0. -1.
         -5    1    3    3    0  503 -0.59522706949E+02  0.57451528749E+02 -0.11509223569E+03  0.14181658406E+03  0.47000000000E+01 0. -1.
<mgrwt>
<rscale>  0 0.16603608E+03</rscale>
<asrwt>0</asrwt>
<pdfrwt beam="1">  1        5 0.23615613E-01 0.16603834E+03</pdfrwt>
<pdfrwt beam="2">  1       -5 0.31358379E-01 0.16603834E+03</pdfrwt>
<totfact> 0.12786647E+02</totfact>
</mgrwt>
</event>
<event>
 8    1  0.3763376E-007  0.1270250E+03  0.7546771E-02  0.1231938E+00
          5   -1    0    0  501    0  0.00000000000E+00  0.00000000000E+00  0.94357901279E+03  0.94359071815E+03  0.47000000000E+01 0. -1.
         -5   -1    0    0    0  501 -0.00000000000E+00 -0.00000000000E+00 -0.24611424342E+02  0.25056181037E+02  0.47000000000E+01 0. -1.
         25    2    1    2    0    0 -0.21684543713E+02 -0.62900017304E+01  0.18906266171E+03  0.22777137390E+03  0.12500130063E+03 0.  0.
         25    2    1    2    0    0  0.21684543713E+02  0.62900017304E+01  0.72990492674E+03  0.74087552528E+03  0.12500223331E+03 0.  0.
          5    1    3    3  502    0 -0.59030971058E+02 -0.13105200722E+02  0.17785257032E+03  0.18790962881E+03  0.47000000000E+01 0.  1.
         -5    1    3    3    0  502  0.37346427345E+02  0.68151989916E+01  0.11210091390E+02  0.39861745091E+02  0.47000000000E+01 0.  1.
          5    1    4    4  503    0  0.52715858563E+02  0.38084982191E+02  0.23255287411E+03  0.24152092429E+03  0.47000000000E+01 0.  1.
         -5    1    4    4    0  503 -0.31031314850E+02 -0.31794980460E+02  0.49735205262E+03  0.49935460099E+03  0.47000000000E+01 0.  1.
<mgrwt>
<rscale>  0 0.12702474E+03</rscale>
<asrwt>0</asrwt>
<pdfrwt beam="1">  1        5 0.14520112E+00 0.12702497E+03</pdfrwt>
<pdfrwt beam="2">  1       -5 0.38214852E-02 0.12702497E+03</pdfrwt>
<totfact> 0.87805468E+01</totfact>
</mgrwt>
</event>
<event>
 8    1  0.3763376E-007  0.1397105E+03  0.7546771E-02  0.1213722E+00
         -5   -1    0    0    0  501 -0.00000000000E+00  0.00000000000E+00  0.59300679687E+02  0.59486642294E+02  0.47000000000E+01 0.  1.
          5   -1    0    0  501    0  0.00000000000E+00 -0.00000000000E+00 -0.34731297961E+03  0.34734477944E+03  0.47000000000E+01 0.  1.
         25    2    1    2    0    0 -0.15786612695E+02  0.60369178547E+02 -0.96576028792E+02  0.16984092880E+03  0.12500142759E+03 0.  0.
         25    2    1    2    0    0  0.15786612695E+02 -0.60369178547E+02 -0.19143627113E+03  0.23699049294E+03  0.12499197166E+03 0.  0.
          5    1    4    4  502    0  0.32893844994E+02  0.31691770019E+02 -0.60674024972E+02  0.76090739461E+02  0.47000000000E+01 0.  1.
         -5    1    4    4    0  502 -0.17107232299E+02 -0.92060948566E+02 -0.13076224616E+03  0.16089975348E+03  0.47000000000E+01 0.  1.
          5    1    3    3  503    0 -0.54063567412E+02  0.10525825090E+02 -0.91130394711E+02  0.10658565173E+03  0.47000000000E+01 0.  1.
         -5    1    3    3    0  503  0.38276954717E+02  0.49843353457E+02 -0.54456340808E+01  0.63255277067E+02  0.47000000000E+01 0.  1.
<mgrwt>
<rscale>  0 0.13970834E+03</rscale>
<asrwt>0</asrwt>
<pdfrwt beam="2">  1        5 0.53449516E-01 0.13971046E+03</pdfrwt>
<pdfrwt beam="1">  1       -5 0.91399326E-02 0.13971046E+03</pdfrwt>
<totfact> 0.22570853E+02</totfact>
</mgrwt>
</event>
<event>
 8    1  0.3763376E-007  0.1575129E+03  0.7546771E-02  0.1191535E+00
          5   -1    0    0  501    0  0.00000000000E+00  0.00000000000E+00  0.38964471580E+02  0.39246911286E+02  0.47000000000E+01 0.  1.
         -5   -1    0    0    0  501 -0.00000000000E+00 -0.00000000000E+00 -0.14343677241E+04  0.14343754244E+04  0.47000000000E+01 0.  1.
         25    2    1    2    0    0  0.28788806857E+02  0.91406961068E+02 -0.12479849122E+04  0.12578852919E+04  0.12500015344E+03 0.  0.
         25    2    1    2    0    0 -0.28788806857E+02 -0.91406961068E+02 -0.14741834032E+03  0.21573704380E+03  0.12500510819E+03 0.  0.
          5    1    3    3  502    0  0.38001201217E+02  0.10620221796E+03 -0.65729690360E+03  0.66692151853E+03  0.47000000000E+01 0. -1.
         -5    1    3    3    0  502 -0.92123943605E+01 -0.14795256892E+02 -0.59068800864E+03  0.59096377333E+03  0.47000000000E+01 0. -1.
          5    1    4    4  503    0 -0.44088415201E+01 -0.70548813895E+01  0.22483707714E+02  0.24429824959E+02  0.47000000000E+01 0. -1.
         -5    1    4    4    0  503 -0.24379965337E+02 -0.84352079679E+02 -0.16990204803E+03  0.19130721884E+03  0.47000000000E+01 0. -1.
<mgrwt>
<rscale>  0 0.15751189E+03</rscale>
<asrwt>0</asrwt>
<pdfrwt beam="1">  1        5 0.60168536E-02 0.15751287E+03</pdfrwt>
<pdfrwt beam="2">  1       -5 0.22069424E+00 0.15751287E+03</pdfrwt>
<totfact> 0.12720215E+01</totfact>
</mgrwt>
</event>
<event>
 8    1  0.3763376E-007  0.1281233E+03  0.7546771E-02  0.1230274E+00
          5   -1    0    0  501    0  0.00000000000E+00  0.00000000000E+00  0.10088975375E+04  0.10089084851E+04  0.47000000000E+01 0.  1.
         -5   -1    0    0    0  501 -0.00000000000E+00 -0.00000000000E+00 -0.22156579672E+02  0.22649592110E+02  0.47000000000E+01 0.  1.
         25    2    1    2    0    0  0.92127486941E+01  0.26545238164E+02  0.22326582671E+03  0.25740702032E+03  0.12498488040E+03 0.  0.
         25    2    1    2    0    0 -0.92127486941E+01 -0.26545238164E+02  0.76347513114E+03  0.77415105684E+03  0.12500423406E+03 0.  0.
          5    1    4    4  502    0 -0.79159990567E+01  0.48524147095E+02  0.21877754101E+03  0.22428321012E+03  0.47000000000E+01 0. -1.
         -5    1    4    4    0  502 -0.12967496375E+01 -0.75069385260E+02  0.54469759013E+03  0.54986784672E+03  0.47000000000E+01 0. -1.
          5    1    3    3  503    0  0.47060142215E+02 -0.32587271431E+02  0.10923375560E+03  0.12341268414E+03  0.47000000000E+01 0. -1.
         -5    1    3    3    0  503 -0.37847393521E+02  0.59132509595E+02  0.11403207111E+03  0.13399433618E+03  0.47000000000E+01 0. -1.
<mgrwt>
<rscale>  0 0.12811859E+03</rscale>
<asrwt>0</asrwt>
<pdfrwt beam="1">  1        5 0.15525376E+00 0.12812331E+03</pdfrwt>
<pdfrwt beam="2">  1       -5 0.34474709E-02 0.12812331E+03</pdfrwt>
<totfact> 0.86792556E+01</totfact>
</mgrwt>
</event>
<event>
 8    1  0.3763376E-007  0.1337871E+03  0.7546771E-02  0.1221951E+00
         -5   -1    0    0    0  501 -0.00000000000E+00  0.00000000000E+00  0.16233432951E+03  0.16240235385E+03  0.47000000000E+01 0.  1.
          5   -1    0    0  501    0  0.00000000000E+00 -0.00000000000E+00 -0.15597568230E+03  0.15604647855E+03  0.47000000000E+01 0.  1.
         25    2    1    2    0    0 -0.36661809645E+02  0.30396985359E+02  0.89490025953E+02  0.16095794144E+03  0.12502371439E+03 0.  0.
         25    2    1    2    0    0  0.36661809645E+02 -0.30396985359E+02 -0.83131378747E+02  0.15749089097E+03  0.12499795839E+03 0.  0.
          5    1    4    4  502    0  0.19136828140E+02 -0.61980398936E+02 -0.98436729840E+02  0.11798164190E+03  0.47000000000E+01 0. -1.
         -5    1    4    4    0  502  0.17524981505E+02  0.31583413578E+02  0.15305351093E+02  0.39509249070E+02  0.47000000000E+01 0. -1.
          5    1    3    3  503    0 -0.65580263006E+02  0.38120875087E+02  0.10281753246E+03  0.12785736973E+03  0.47000000000E+01 0. -1.
         -5    1    3    3    0  503  0.28918453361E+02 -0.77238897289E+01 -0.13327506509E+02  0.33100571703E+02  0.47000000000E+01 0. -1.
<mgrwt>
<rscale>  0 0.13378111E+03</rscale>
<asrwt>0</asrwt>
<pdfrwt beam="2">  1        5 0.24006937E-01 0.13378712E+03</pdfrwt>
<pdfrwt beam="1">  1       -5 0.24985191E-01 0.13378712E+03</pdfrwt>
<totfact> 0.17990871E+02</totfact>
</mgrwt>
</event>
<event>
 8    1  0.3763376E-007  0.1336001E+03  0.7546771E-02  0.1222214E+00
          5   -1    0    0  501    0  0.00000000000E+00  0.00000000000E+00  0.14840403354E+03  0.14847844008E+03  0.47000000000E+01 0. -1.
         -5   -1    0    0    0  501 -0.00000000000E+00 -0.00000000000E+00 -0.12338674572E+03  0.12347622856E+03  0.47000000000E+01 0. -1.
         25    2    1    2    0    0  0.47122061627E+02 -0.83972267039E+00 -0.96273433460E+01  0.13394655822E+03  0.12501120307E+03 0.  0.
         25    2    1    2    0    0 -0.47122061627E+02  0.83972267039E+00  0.34644631162E+02  0.13800811042E+03  0.12499917699E+03 0.  0.
          5    1    3    3  502    0  0.63913927946E+02  0.44486856291E+02  0.15079989834E+02  0.79457955307E+02  0.47000000000E+01 0.  1.
         -5    1    3    3    0  502 -0.16791866319E+02 -0.45326578961E+02 -0.24707333180E+02  0.54488602915E+02  0.47000000000E+01 0.  1.
          5    1    4    4  503    0 -0.10148187935E+02  0.15670725428E+02  0.77177819084E+02  0.79542838222E+02  0.47000000000E+01 0. -1.
         -5    1    4    4    0  503 -0.36973873692E+02 -0.14831002758E+02 -0.42533187923E+02  0.58465272201E+02  0.47000000000E+01 0. -1.
<mgrwt>
<rscale>  0 0.13359732E+03</rscale>
<asrwt>0</asrwt>
<pdfrwt beam="1">  1        5 0.22843997E-01 0.13360013E+03</pdfrwt>
<pdfrwt beam="2">  1       -5 0.18995183E-01 0.13360013E+03</pdfrwt>
<totfact> 0.33119868E+02</totfact>
</mgrwt>
</event>
<event>
 8    1  0.3763376E-007  0.1436116E+03  0.7546771E-02  0.1208551E+00
         -5   -1    0    0    0  501 -0.00000000000E+00  0.00000000000E+00  0.13542502378E+03  0.13550655728E+03  0.47000000000E+01 0.  1.
          5   -1    0    0  501    0  0.00000000000E+00 -0.00000000000E+00 -0.16191539570E+03  0.16198359598E+03  0.47000000000E+01 0.  1.
         25    2    1    2    0    0  0.61727792676E+02  0.34474094257E+02  0.23309680925E+02  0.14548905612E+03  0.12499976264E+03 0.  0.
         25    2    1    2    0    0 -0.61727792676E+02 -0.34474094257E+02 -0.49800052852E+02  0.15200109714E+03  0.12500201880E+03 0.  0.
          5    1    4    4  502    0  0.37727837879E+02 -0.31156308697E-01 -0.93941885115E+01  0.39162884209E+02  0.47000000000E+01 0.  1.
         -5    1    4    4    0  502 -0.99455630556E+02 -0.34442937948E+02 -0.40405864341E+02  0.11283821293E+03  0.47000000000E+01 0.  1.
          5    1    3    3  503    0 -0.55301498389E+01 -0.41104920246E+02  0.86038239323E+00  0.41749578244E+02  0.47000000000E+01 0. -1.
         -5    1    3    3    0  503  0.67257942515E+02  0.75579014503E+02  0.22449298532E+02  0.10373947787E+03  0.47000000000E+01 0. -1.
<mgrwt>
<rscale>  0 0.14361110E+03</rscale>
<asrwt>0</asrwt>
<pdfrwt beam="2">  1        5 0.24921579E-01 0.14361159E+03</pdfrwt>
<pdfrwt beam="1">  1       -5 0.20846137E-01 0.14361159E+03</pdfrwt>
<totfact> 0.24178333E+02</totfact>
</mgrwt>
</event>
<event>
 8    1  0.3763376E-007  0.1265483E+03  0.7546771E-02  0.1232691E+00
          5   -1    0    0  501    0  0.00000000000E+00  0.00000000000E+00  0.44154999977E+02  0.44404436974E+02  0.47000000000E+01 0.  1.
         -5   -1    0    0    0  501 -0.00000000000E+00 -0.00000000000E+00 -0.37747058062E+03  0.37749984005E+03  0.47000000000E+01 0.  1.
         25    2    1    2    0    0 -0.17466602468E+02 -0.82801658630E+01 -0.21041855699E+03  0.24554109561E+03  0.12506325264E+03 0.  0.
         25    2    1    2    0    0  0.17466602468E+02  0.82801658630E+01 -0.12289702366E+03  0.17636318141E+03  0.12500659976E+03 0.  0.
          5    1    3    3  502    0  0.42889322654E+02 -0.25995774003E+02 -0.41620384271E+02  0.65342334291E+02  0.47000000000E+01 0. -1.
         -5    1    3    3    0  502 -0.60355925123E+02  0.17715608140E+02 -0.16879817271E+03  0.18019876132E+03  0.47000000000E+01 0. -1.
          5    1    4    4  503    0  0.66629833721E+02  0.52786913365E+01 -0.10333735191E+03  0.12315883088E+03  0.47000000000E+01 0.  1.
         -5    1    4    4    0  503 -0.49163231253E+02  0.30014745265E+01 -0.19559671752E+02  0.53204350532E+02  0.47000000000E+01 0.  1.
<mgrwt>
<rscale>  0 0.12653425E+03</rscale>
<asrwt>0</asrwt>
<pdfrwt beam="1">  1        5 0.68145154E-02 0.12654825E+03</pdfrwt>
<pdfrwt beam="2">  1       -5 0.58093833E-01 0.12654825E+03</pdfrwt>
<totfact> 0.30113544E+02</totfact>
</mgrwt>
</event>
<event>
 8    1  0.3763376E-007  0.1295837E+03  0.7546771E-02  0.1228075E+00
          5   -1    0    0  501    0  0.00000000000E+00  0.00000000000E+00  0.12495501006E+03  0.12504337063E+03  0.47000000000E+01 0.  1.
         -5   -1    0    0    0  501 -0.00000000000E+00 -0.00000000000E+00 -0.15272375893E+03  0.15279606193E+03  0.47000000000E+01 0.  1.
         25    2    1    2    0    0 -0.28258891851E+02  0.19175079338E+02 -0.62231889362E+02  0.14375236099E+03  0.12500273837E+03 0.  0.
         25    2    1    2    0    0  0.28258891851E+02 -0.19175079338E+02  0.34463140492E+02  0.13408707158E+03  0.12500154429E+03 0.  0.
          5    1    3    3  502    0  0.20703463881E+02  0.52775928124E+02 -0.62055118523E+02  0.84183488529E+02  0.47000000000E+01 0. -1.
         -5    1    3    3    0  502 -0.48962355731E+02 -0.33600848786E+02 -0.17677083943E+00  0.59568872458E+02  0.47000000000E+01 0. -1.
          5    1    4    4  503    0 -0.17755831197E+02  0.21867855379E+02 -0.32280506050E+02  0.43099811035E+02  0.47000000000E+01 0.  1.
         -5    1    4    4    0  503  0.46014723048E+02 -0.41042934717E+02  0.66743646543E+02  0.90987260543E+02  0.47000000000E+01 0.  1.
<mgrwt>
<rscale>  0 0.12958340E+03</rscale>
<asrwt>0</asrwt>
<pdfrwt beam="1">  1        5 0.19236207E-01 0.12958369E+03</pdfrwt>
<pdfrwt beam="2">  1       -5 0.23508322E-01 0.12958369E+03</pdfrwt>
<totfact> 0.30306889E+02</totfact>
</mgrwt>
</event>
<event>
 8    1  0.3763376E-007  0.1402566E+03  0.7546771E-02  0.1212985E+00
         -5   -1    0    0    0  501 -0.00000000000E+00  0.00000000000E+00  0.91776220589E+02  0.91896488865E+02  0.47000000000E+01 0.  1.
          5   -1    0    0  501    0  0.00000000000E+00 -0.00000000000E+00 -0.25339542098E+03  0.25343900524E+03  0.47000000000E+01 0.  1.
         25    2    1    2    0    0 -0.63411755457E+02  0.50438034605E+01 -0.12796816407E+02  0.14083607023E+03  0.12499819793E+03 0.  0.
         25    2    1    2    0    0  0.63411755457E+02 -0.50438034605E+01 -0.14882238399E+03  0.20449942387E+03  0.12500168680E+03 0.  0.
          5    1    4    4  502    0  0.86048231062E+01  0.58219065143E+00 -0.14888071243E+03  0.14920435134E+03  0.47000000000E+01 0.  1.
         -5    1    4    4    0  502  0.54806932351E+02 -0.56259941119E+01  0.58328441234E-01  0.55295072526E+02  0.47000000000E+01 0.  1.
          5    1    3    3  503    0 -0.86602969656E+02 -0.29805906766E+02  0.11144776723E+02  0.92383778228E+02  0.47000000000E+01 0.  1.
         -5    1    3    3    0  503  0.23191214199E+02  0.34849710226E+02 -0.23941593130E+02  0.48452292005E+02  0.47000000000E+01 0.  1.
<mgrwt>
<rscale>  0 0.14025582E+03</rscale>
<asrwt>0</asrwt>
<pdfrwt beam="2">  1        5 0.38996515E-01 0.14025659E+03</pdfrwt>
<pdfrwt beam="1">  1       -5 0.14132023E-01 0.14025659E+03</pdfrwt>
<totfact> 0.20235466E+02</totfact>
</mgrwt>
</event>
<event>
 8    1  0.3763376E-007  0.1387800E+03  0.7546771E-02  0.1214980E+00
         -5   -1    0    0    0  501 -0.00000000000E+00  0.00000000000E+00  0.72873737618E+02  0.73025143851E+02  0.47000000000E+01 0.  1.
          5   -1    0    0  501    0  0.00000000000E+00 -0.00000000000E+00 -0.31661686380E+03  0.31665174631E+03  0.47000000000E+01 0.  1.
         25    2    1    2    0    0  0.12180736760E+02 -0.59047021705E+02 -0.42349851920E+02  0.14509739541E+03  0.12499929230E+03 0.  0.
         25    2    1    2    0    0 -0.12180736760E+02  0.59047021705E+02 -0.20139327426E+03  0.24457949476E+03  0.12499982887E+03 0.  0.
          5    1    4    4  502    0 -0.51138344468E+02  0.73872004989E+02 -0.98178380938E+02  0.13316639170E+03  0.47000000000E+01 0. -1.
         -5    1    4    4    0  502  0.38957607707E+02 -0.14824983285E+02 -0.10321489333E+03  0.11141310305E+03  0.47000000000E+01 0. -1.
          5    1    3    3  503    0 -0.36167474192E+02 -0.22853026611E+02 -0.67052005457E+02  0.79676900357E+02  0.47000000000E+01 0.  1.
         -5    1    3    3    0  503  0.48348210953E+02 -0.36193995094E+02  0.24702153537E+02  0.65420495050E+02  0.47000000000E+01 0.  1.
<mgrwt>
<rscale>  0 0.13877984E+03</rscale>
<asrwt>0</asrwt>
<pdfrwt beam="2">  1        5 0.48724616E-01 0.13877996E+03</pdfrwt>
<pdfrwt beam="1">  1       -5 0.11225674E-01 0.13877996E+03</pdfrwt>
<totfact> 0.19146585E+02</totfact>
</mgrwt>
</event>
<event>
 8    1  0.3763376E-007  0.1444707E+03  0.7546771E-02  0.1207437E+00
          5   -1    0    0  501    0  0.00000000000E+00  0.00000000000E+00  0.92644108549E+02  0.92763251607E+02  0.47000000000E+01 0.  1.
         -5   -1    0    0    0  501 -0.00000000000E+00 -0.00000000000E+00 -0.23110992906E+03  0.23115771523E+03  0.47000000000E+01 0.  1.
         25    2    1    2    0    0 -0.72277499282E+02 -0.47685344611E+01 -0.95559558929E+02  0.17321351921E+03  0.12499807243E+03 0.  0.
         25    2    1    2    0    0  0.72277499282E+02  0.47685344611E+01 -0.42906261582E+02  0.15070744763E+03  0.12500004666E+03 0.  0.
          5    1    3    3  502    0 -0.58100403921E+02  0.55904365788E+02 -0.64913326937E+02  0.10361845909E+03  0.47000000000E+01 0.  1.
         -5    1    3    3    0  502 -0.14177095361E+02 -0.60672900249E+02 -0.30646231991E+02  0.69595060118E+02  0.47000000000E+01 0.  1.
          5    1    4    4  503    0  0.63391674044E+02 -0.47226888683E+02 -0.54962495085E+02  0.96394238515E+02  0.47000000000E+01 0. -1.
         -5    1    4    4    0  503  0.88858252378E+01  0.51995423144E+02  0.12056233503E+02  0.54313209115E+02  0.47000000000E+01 0. -1.
<mgrwt>
<rscale>  0 0.14447029E+03</rscale>
<asrwt>0</asrwt>
<pdfrwt beam="1">  1        5 0.14265781E-01 0.14447071E+03</pdfrwt>
<pdfrwt beam="2">  1       -5 0.35568214E-01 0.14447071E+03</pdfrwt>
<totfact> 0.24206827E+02</totfact>
</mgrwt>
</event>
<event>
 8    1  0.3763376E-007  0.1828614E+03  0.7546771E-02  0.1165063E+00
          5   -1    0    0  501    0  0.00000000000E+00  0.00000000000E+00  0.48458515384E+02  0.48685908775E+02  0.47000000000E+01 0. -1.
         -5   -1    0    0    0  501 -0.00000000000E+00 -0.00000000000E+00 -0.72754163135E+03  0.72755681246E+03  0.47000000000E+01 0. -1.
         25    2    1    2    0    0 -0.12668627720E+03  0.41986288303E+02 -0.42980372492E+03  0.46708621998E+03  0.12500413474E+03 0.  0.
         25    2    1    2    0    0  0.12668627720E+03 -0.41986288303E+02 -0.24927939105E+03  0.30915650126E+03  0.12500106491E+03 0.  0.
          5    1    3    3  502    0 -0.14655560503E+03  0.15370878494E+02 -0.32122137207E+03  0.35344033322E+03  0.47000000000E+01 0.  1.
         -5    1    3    3    0  502  0.19869327823E+02  0.26615409809E+02 -0.10858235285E+03  0.11364588676E+03  0.47000000000E+01 0.  1.
          5    1    4    4  503    0 -0.13317837663E+02 -0.34980951213E+02 -0.85977870766E+02  0.93889914311E+02  0.47000000000E+01 0. -1.
         -5    1    4    4    0  503  0.14000411487E+03 -0.70053370902E+01 -0.16330152029E+03  0.21526658694E+03  0.47000000000E+01 0. -1.
<mgrwt>
<rscale>  0 0.18286088E+03</rscale>
<asrwt>0</asrwt>
<pdfrwt beam="1">  1        5 0.74738163E-02 0.18286141E+03</pdfrwt>
<pdfrwt beam="2">  1       -5 0.11194813E+00 0.18286141E+03</pdfrwt>
<totfact> 0.62662494E+01</totfact>
</mgrwt>
</event>
<event>
 8    1  0.3763376E-007  0.1643645E+03  0.7546771E-02  0.1183857E+00
         -5   -1    0    0    0  501 -0.00000000000E+00  0.00000000000E+00  0.64793467122E+02  0.64963708190E+02  0.47000000000E+01 0. -1.
          5   -1    0    0  501    0  0.00000000000E+00 -0.00000000000E+00 -0.41773069804E+03  0.41775713768E+03  0.47000000000E+01 0. -1.
         25    2    1    2    0    0  0.41411613663E+02  0.98362022114E+02 -0.16191129836E+03  0.23071568781E+03  0.12499780368E+03 0.  0.
         25    2    1    2    0    0 -0.41411613663E+02 -0.98362022114E+02 -0.19102593255E+03  0.25200515806E+03  0.12500273453E+03 0.  0.
          5    1    3    3  502    0  0.74498564627E+02  0.10458626924E+03 -0.14118290335E+03  0.19090056586E+03  0.47000000000E+01 0. -1.
         -5    1    3    3    0  502 -0.33086950964E+02 -0.62242471307E+01 -0.20728395012E+02  0.39815121955E+02  0.47000000000E+01 0. -1.
          5    1    4    4  503    0  0.43323776866E+01  0.14144507309E+02 -0.97279812773E+02  0.98510347459E+02  0.47000000000E+01 0. -1.
         -5    1    4    4    0  503 -0.45743991349E+02 -0.11250652942E+03 -0.93746119778E+02  0.15349481060E+03  0.47000000000E+01 0. -1.
<mgrwt>
<rscale>  0 0.16436357E+03</rscale>
<asrwt>0</asrwt>
<pdfrwt beam="2">  1        5 0.64281389E-01 0.16436451E+03</pdfrwt>
<pdfrwt beam="1">  1       -5 0.99833552E-02 0.16436451E+03</pdfrwt>
<totfact> 0.13631970E+02</totfact>
</mgrwt>
</event>
<event>
 8    1  0.3763376E-007  0.1262955E+03  0.7546771E-02  0.1233073E+00
          5   -1    0    0  501    0  0.00000000000E+00  0.00000000000E+00  0.70686909563E+03  0.70688472070E+03  0.47000000000E+01 0.  1.
         -5   -1    0    0    0  501 -0.00000000000E+00 -0.00000000000E+00 -0.23365204545E+02  0.23833228556E+02  0.47000000000E+01 0.  1.
         25    2    1    2    0    0 -0.19911077659E+01  0.17672652583E+02  0.26451296982E+03  0.29311717247E+03  0.12503710824E+03 0.  0.
         25    2    1    2    0    0  0.19911077659E+01 -0.17672652583E+02  0.41899092127E+03  0.43760077678E+03  0.12499904230E+03 0.  0.
          5    1    3    3  502    0 -0.15509663924E+02 -0.52216647636E+02  0.12454724238E+03  0.13601923963E+03  0.47000000000E+01 0. -1.
         -5    1    3    3    0  502  0.13518556158E+02  0.69889300219E+02  0.13996572744E+03  0.15709793284E+03  0.47000000000E+01 0. -1.
          5    1    4    4  503    0  0.59898203488E+02 -0.29446251774E+02  0.22938315801E+03  0.23894267033E+03  0.47000000000E+01 0.  1.
         -5    1    4    4    0  503 -0.57907095722E+02  0.11773599191E+02  0.18960776326E+03  0.19865810646E+03  0.47000000000E+01 0.  1.
<mgrwt>
<rscale>  0 0.12628613E+03</rscale>
<asrwt>0</asrwt>
<pdfrwt beam="1">  1        5 0.10878631E+00 0.12629555E+03</pdfrwt>
<pdfrwt beam="2">  1       -5 0.36318502E-02 0.12629555E+03</pdfrwt>
<totfact> 0.20031204E+02</totfact>
</mgrwt>
</event>
<event>
 8    1  0.3763376E-007  0.1362798E+03  0.7546771E-02  0.1218425E+00
          5   -1    0    0  501    0  0.00000000000E+00  0.00000000000E+00  0.23047825263E+04  0.23047873185E+04  0.47000000000E+01 0.  1.
         -5   -1    0    0    0  501 -0.00000000000E+00 -0.00000000000E+00 -0.78590141479E+01  0.91571886175E+01  0.47000000000E+01 0.  1.
         25    2    1    2    0    0  0.50824422459E+02 -0.19076676931E+02  0.88096923017E+03  0.89144715791E+03  0.12499683724E+03 0.  0.
         25    2    1    2    0    0 -0.50824422459E+02  0.19076676931E+02  0.14159542820E+04  0.14224973492E+04  0.12500055330E+03 0.  0.
          5    1    3    3  502    0 -0.37621247004E+02  0.13356004247E+02  0.33327241617E+03  0.33568785271E+03  0.47000000000E+01 0. -1.
         -5    1    3    3    0  502  0.88445669463E+02 -0.32432681179E+02  0.54769681400E+03  0.55575930520E+03  0.47000000000E+01 0. -1.
          5    1    4    4  503    0  0.21448457437E+02 -0.37834210460E+02  0.50998997029E+03  0.51186260227E+03  0.47000000000E+01 0. -1.
         -5    1    4    4    0  503 -0.72272879896E+02  0.56910887392E+02  0.90596431167E+03  0.91063474691E+03  0.47000000000E+01 0. -1.
<mgrwt>
<rscale>  0 0.13627893E+03</rscale>
<asrwt>0</asrwt>
<pdfrwt beam="1">  1        5 0.35468207E+00 0.13627979E+03</pdfrwt>
<pdfrwt beam="2">  1       -5 0.13093076E-02 0.13627979E+03</pdfrwt>
<totfact> 0.20044804E+01</totfact>
</mgrwt>
</event>
<event>
 8    1  0.3763376E-007  0.1543880E+03  0.7546771E-02  0.1195184E+00
         -5   -1    0    0    0  501 -0.00000000000E+00  0.00000000000E+00  0.52566774530E+03  0.52568875625E+03  0.47000000000E+01 0.  1.
          5   -1    0    0  501    0  0.00000000000E+00 -0.00000000000E+00 -0.49277364803E+02  0.49500996777E+02  0.47000000000E+01 0.  1.
         25    2    1    2    0    0  0.10423038607E+02  0.90010422888E+02  0.15567058941E+03  0.21924641504E+03  0.12500056856E+03 0.  0.
         25    2    1    2    0    0 -0.10423038607E+02 -0.90010422888E+02  0.32071979109E+03  0.35594333799E+03  0.12499583792E+03 0.  0.
          5    1    3    3  502    0  0.61097071282E+02  0.54303308033E+02  0.12623111722E+03  0.15045958373E+03  0.47000000000E+01 0. -1.
         -5    1    3    3    0  502 -0.50674032675E+02  0.35707114855E+02  0.29439472190E+02  0.68786831310E+02  0.47000000000E+01 0. -1.
          5    1    4    4  503    0 -0.63044980212E+02 -0.21094445254E+02  0.15854942086E+03  0.17198736583E+03  0.47000000000E+01 0.  1.
         -5    1    4    4    0  503  0.52621941604E+02 -0.68915977634E+02  0.16217037023E+03  0.18395597216E+03  0.47000000000E+01 0.  1.
<mgrwt>
<rscale>  0 0.15438705E+03</rscale>
<asrwt>0</asrwt>
<pdfrwt beam="2">  1        5 0.75999517E-02 0.15438801E+03</pdfrwt>
<pdfrwt beam="1">  1       -5 0.80890780E-01 0.15438801E+03</pdfrwt>
<totfact> 0.12713510E+02</totfact>
</mgrwt>
</event>
<event>
 8    1  0.3763376E-007  0.1304550E+03  0.7546771E-02  0.1226784E+00
          5   -1    0    0  501    0  0.00000000000E+00  0.00000000000E+00  0.10994239291E+02  0.11956726040E+02  0.47000000000E+01 0. -1.
         -5   -1    0    0    0  501 -0.00000000000E+00 -0.00000000000E+00 -0.15341552788E+04  0.15341624782E+04  0.47000000000E+01 0. -1.
         25    2    1    2    0    0 -0.36701035594E+02 -0.68130727102E+01 -0.90405781738E+03  0.91342160718E+03  0.12500044531E+03 0.  0.
         25    2    1    2    0    0  0.36701035594E+02  0.68130727102E+01 -0.61910322214E+03  0.63269759705E+03  0.12499626266E+03 0.  0.
          5    1    4    4  502    0 -0.21861228235E+02 -0.32104907323E+02 -0.80504594610E+02  0.89508201453E+02  0.47000000000E+01 0. -1.
         -5    1    4    4    0  502  0.58562263828E+02  0.38917980033E+02 -0.53859862753E+03  0.54318939560E+03  0.47000000000E+01 0. -1.
          5    1    3    3  503    0  0.44806938238E+02 -0.67584698337E+01 -0.42753280649E+03  0.42995317100E+03  0.47000000000E+01 0.  1.
         -5    1    3    3    0  503 -0.81507973832E+02 -0.54602876493E-01 -0.47652501089E+03  0.48346843618E+03  0.47000000000E+01 0.  1.
<mgrwt>
<rscale>  0 0.13045395E+03</rscale>
<asrwt>0</asrwt>
<pdfrwt beam="1">  1        5 0.17660139E-02 0.13045496E+03</pdfrwt>
<pdfrwt beam="2">  1       -5 0.23609832E+00 0.13045496E+03</pdfrwt>
<totfact> 0.70576189E+01</totfact>
</mgrwt>
</event>
<event>
 8    1  0.3763376E-007  0.1485040E+03  0.7546771E-02  0.1202324E+00
         -5   -1    0    0    0  501 -0.00000000000E+00  0.00000000000E+00  0.19739811707E+03  0.19745406206E+03  0.47000000000E+01 0. -1.
          5   -1    0    0  501    0  0.00000000000E+00 -0.00000000000E+00 -0.11380341271E+03  0.11390042469E+03  0.47000000000E+01 0. -1.
         25    2    1    2    0    0  0.48497630211E+02  0.63843200368E+02  0.63458157480E+02  0.16149149865E+03  0.12499836806E+03 0.  0.
         25    2    1    2    0    0 -0.48497630211E+02 -0.63843200368E+02  0.20136546883E+02  0.14986298809E+03  0.12500184123E+03 0.  0.
          5    1    4    4  502    0  0.94688152940E+01  0.21560588937E+02  0.38053393720E+02  0.44996313538E+02  0.47000000000E+01 0. -1.
         -5    1    4    4    0  502 -0.57966445505E+02 -0.85403789304E+02 -0.17916846837E+02  0.10486667456E+03  0.47000000000E+01 0. -1.
          5    1    3    3  503    0  0.82507387246E+02  0.18332264383E+02  0.13558771092E+02  0.85729056574E+02  0.47000000000E+01 0. -1.
         -5    1    3    3    0  503 -0.34009757035E+02  0.45510935985E+02  0.49899386389E+02  0.75762442079E+02  0.47000000000E+01 0. -1.
<mgrwt>
<rscale>  0 0.14850326E+03</rscale>
<asrwt>0</asrwt>
<pdfrwt beam="2">  1        5 0.17519983E-01 0.14850399E+03</pdfrwt>
<pdfrwt beam="1">  1       -5 0.30380707E-01 0.14850399E+03</pdfrwt>
<totfact> 0.22990748E+02</totfact>
</mgrwt>
</event>
<event>
 8    1  0.3763376E-007  0.1283054E+03  0.7546771E-02  0.1230012E+00
         -5   -1    0    0    0  501 -0.00000000000E+00  0.00000000000E+00  0.58845493004E+02  0.59032889536E+02  0.47000000000E+01 0.  1.
          5   -1    0    0  501    0  0.00000000000E+00 -0.00000000000E+00 -0.29032710172E+03  0.29036514252E+03  0.47000000000E+01 0.  1.
         25    2    1    2    0    0 -0.28613026607E+02 -0.24922103330E+01 -0.81249211564E+02  0.15186741037E+03  0.12504942843E+03 0.  0.
         25    2    1    2    0    0  0.28613026607E+02  0.24922103330E+01 -0.15023239715E+03  0.19753062168E+03  0.12499462767E+03 0.  0.
          5    1    4    4  502    0 -0.40205126058E+02  0.31536271292E+02 -0.79035520465E+02  0.94232118004E+02  0.47000000000E+01 0.  1.
         -5    1    4    4    0  502  0.68818152664E+02 -0.29044060959E+02 -0.71196876684E+02  0.10329850368E+03  0.47000000000E+01 0.  1.
          5    1    3    3  503    0  0.43572249200E+02 -0.15446397835E+02 -0.58965515325E+02  0.75074323867E+02  0.47000000000E+01 0. -1.
         -5    1    3    3    0  503 -0.72185275807E+02  0.12954187502E+02 -0.22283696239E+02  0.76793086507E+02  0.47000000000E+01 0. -1.
<mgrwt>
<rscale>  0 0.12829205E+03</rscale>
<asrwt>0</asrwt>
<pdfrwt beam="2">  1        5 0.44683048E-01 0.12830540E+03</pdfrwt>
<pdfrwt beam="1">  1       -5 0.90704943E-02 0.12830540E+03</pdfrwt>
<totfact> 0.32404485E+02</totfact>
</mgrwt>
</event>
<event>
 8    1  0.3763376E-007  0.1292562E+03  0.7546771E-02  0.1228569E+00
         -5   -1    0    0    0  501 -0.00000000000E+00  0.00000000000E+00  0.64142053177E+03  0.64143775113E+03  0.47000000000E+01 0.  1.
          5   -1    0    0  501    0  0.00000000000E+00 -0.00000000000E+00 -0.29734693167E+02  0.30103853204E+02  0.47000000000E+01 0.  1.
         25    2    1    2    0    0 -0.19265539079E+02  0.26596647350E+02  0.42690550797E+03  0.44604008686E+03  0.12499961481E+03 0.  0.
         25    2    1    2    0    0  0.19265539079E+02 -0.26596647350E+02  0.18478033063E+03  0.22550151748E+03  0.12501448376E+03 0.  0.
          5    1    4    4  502    0 -0.42554460490E+02  0.17169433445E+02  0.36105265919E+02  0.58577741331E+02  0.47000000000E+01 0.  1.
         -5    1    4    4    0  502  0.61819999569E+02 -0.43766080795E+02  0.14867506471E+03  0.16692377614E+03  0.47000000000E+01 0.  1.
          5    1    3    3  503    0  0.37115312503E+02  0.26060701307E+02  0.33519110457E+03  0.33827780471E+03  0.47000000000E+01 0.  1.
         -5    1    3    3    0  503 -0.56380851582E+02  0.53594604355E+00  0.91714403393E+02  0.10776228214E+03  0.47000000000E+01 0.  1.
<mgrwt>
<rscale>  0 0.12925260E+03</rscale>
<asrwt>0</asrwt>
<pdfrwt beam="2">  1        5 0.46042896E-02 0.12925619E+03</pdfrwt>
<pdfrwt beam="1">  1       -5 0.98709805E-01 0.12925619E+03</pdfrwt>
<totfact> 0.17372521E+02</totfact>
</mgrwt>
</event>
<event>
 8    1  0.3763376E-007  0.1257756E+03  0.7546771E-02  0.1233862E+00
          5   -1    0    0  501    0  0.00000000000E+00  0.00000000000E+00  0.20767577420E+03  0.20772895126E+03  0.47000000000E+01 0. -1.
         -5   -1    0    0    0  501 -0.00000000000E+00 -0.00000000000E+00 -0.79021737304E+02  0.79161385577E+02  0.47000000000E+01 0. -1.
         25    2    1    2    0    0  0.29599528537E+01 -0.13646934060E+02  0.36490205010E+02  0.13096199760E+03  0.12499803848E+03 0.  0.
         25    2    1    2    0    0 -0.29599528537E+01  0.13646934060E+02  0.92163831891E+02  0.15592833924E+03  0.12499789974E+03 0.  0.
          5    1    3    3  502    0  0.44793378944E+01  0.52595505977E+02  0.36827949113E+02  0.64534793351E+02  0.47000000000E+01 0.  1.
         -5    1    3    3    0  502 -0.15193850407E+01 -0.66242440037E+02 -0.33774410289E+00  0.66427204247E+02  0.47000000000E+01 0.  1.
          5    1    4    4  503    0  0.29072709117E+02  0.60528740674E+02  0.61741839624E+02  0.91340547530E+02  0.47000000000E+01 0.  1.
         -5    1    4    4    0  503 -0.32032661971E+02 -0.46881806614E+02  0.30421992267E+02  0.64587791709E+02  0.47000000000E+01 0.  1.
<mgrwt>
<rscale>  0 0.12577560E+03</rscale>
<asrwt>0</asrwt>
<pdfrwt beam="1">  1        5 0.31964951E-01 0.12577563E+03</pdfrwt>
<pdfrwt beam="2">  1       -5 0.12172023E-01 0.12577563E+03</pdfrwt>
<totfact> 0.37888038E+02</totfact>
</mgrwt>
</event>
<event>
 8    1  0.3763376E-007  0.1868657E+03  0.7546771E-02  0.1161320E+00
          5   -1    0    0  501    0  0.00000000000E+00  0.00000000000E+00  0.24466353627E+03  0.24470867574E+03  0.47000000000E+01 0.  1.
         -5   -1    0    0    0  501 -0.00000000000E+00 -0.00000000000E+00 -0.14961916237E+03  0.14969296493E+03  0.47000000000E+01 0.  1.
         25    2    1    2    0    0  0.13890242756E+03  0.63456544327E+00  0.90151592304E+02  0.20747555241E+03  0.12499803278E+03 0.  0.
         25    2    1    2    0    0 -0.13890242756E+03 -0.63456544327E+00  0.48927815946E+01  0.18692608826E+03  0.12499254420E+03 0.  0.
          5    1    4    4  502    0 -0.15985952368E+03  0.13916380004E+02  0.37015193192E-01  0.16053293841E+03  0.47000000000E+01 0. -1.
         -5    1    4    4    0  502  0.20957096127E+02 -0.14550945447E+02  0.48557664014E+01  0.26393149847E+02  0.47000000000E+01 0. -1.
          5    1    3    3  503    0  0.92101618718E+02  0.40951476761E+02  0.10301801328E+03  0.14420309525E+03  0.47000000000E+01 0. -1.
         -5    1    3    3    0  503  0.46800808838E+02 -0.40316911318E+02 -0.12866420979E+02  0.63272457158E+02  0.47000000000E+01 0. -1.
<mgrwt>
<rscale>  0 0.18686480E+03</rscale>
<asrwt>0</asrwt>
<pdfrwt beam="1">  1        5 0.37649693E-01 0.18686571E+03</pdfrwt>
<pdfrwt beam="2">  1       -5 0.23027482E-01 0.18686571E+03</pdfrwt>
<totfact> 0.96211371E+01</totfact>
</mgrwt>
</event>
<event>
 8    1  0.3763376E-007  0.1562818E+03  0.7546771E-02  0.1192960E+00
         -5   -1    0    0    0  501 -0.00000000000E+00  0.00000000000E+00  0.70647852378E+02  0.70804018570E+02  0.47000000000E+01 0.  1.
          5   -1    0    0  501    0  0.00000000000E+00 -0.00000000000E+00 -0.38758552228E+03  0.38761401817E+03  0.47000000000E+01 0.  1.
         25    2    1    2    0    0  0.73968236125E+02  0.57689928718E+02 -0.82653159920E+02  0.17679234016E+03  0.12499823544E+03 0.  0.
         25    2    1    2    0    0 -0.73968236125E+02 -0.57689928718E+02 -0.23428450998E+03  0.28162569658E+03  0.12499749408E+03 0.  0.
          5    1    3    3  502    0  0.10156064753E+03  0.12133451757E+02 -0.60401128742E+02  0.11887881279E+03  0.47000000000E+01 0. -1.
         -5    1    3    3    0  502 -0.27592411402E+02  0.45556476961E+02 -0.22252031178E+02  0.57913527363E+02  0.47000000000E+01 0. -1.
          5    1    4    4  503    0 -0.99951125148E+02 -0.18139546738E+02 -0.19507939180E+03  0.21999393100E+03  0.47000000000E+01 0. -1.
         -5    1    4    4    0  503  0.25982889022E+02 -0.39550381980E+02 -0.39205118188E+02  0.61631765583E+02  0.47000000000E+01 0. -1.
<mgrwt>
<rscale>  0 0.15628161E+03</rscale>
<asrwt>0</asrwt>
<pdfrwt beam="2">  1        5 0.59642745E-01 0.15628175E+03</pdfrwt>
<pdfrwt beam="1">  1       -5 0.10883105E-01 0.15628175E+03</pdfrwt>
<totfact> 0.13608575E+02</totfact>
</mgrwt>
</event>
<event>
 8    1  0.3763376E-007  0.1261909E+03  0.7546771E-02  0.1233220E+00
         -5   -1    0    0    0  501 -0.00000000000E+00  0.00000000000E+00  0.21935139384E+03  0.21940174106E+03  0.47000000000E+01 0.  1.
          5   -1    0    0  501    0  0.00000000000E+00 -0.00000000000E+00 -0.74482159146E+02  0.74630302365E+02  0.47000000000E+01 0.  1.
         25    2    1    2    0    0  0.56315032206E+00  0.17284869001E+02  0.96620714844E+02  0.15893306251E+03  0.12500028794E+03 0.  0.
         25    2    1    2    0    0 -0.56315032206E+00 -0.17284869001E+02  0.48248519851E+02  0.13509898092E+03  0.12499892456E+03 0.  0.
          5    1    3    3  502    0  0.16602056108E+02 -0.41954248371E+02  0.11965178917E+01  0.45379608620E+02  0.47000000000E+01 0. -1.
         -5    1    3    3    0  502 -0.16038905786E+02  0.59239117372E+02  0.95424196953E+02  0.11355345389E+03  0.47000000000E+01 0. -1.
          5    1    4    4  503    0  0.51025349290E+02 -0.84997504254E+01  0.61907017969E+02  0.80810895931E+02  0.47000000000E+01 0. -1.
         -5    1    4    4    0  503 -0.51588499612E+02 -0.87851185752E+01 -0.13658498118E+02  0.54288084986E+02  0.47000000000E+01 0. -1.
<mgrwt>
<rscale>  0 0.12619061E+03</rscale>
<asrwt>0</asrwt>
<pdfrwt beam="2">  1        5 0.11474062E-01 0.12619095E+03</pdfrwt>
<pdfrwt beam="1">  1       -5 0.33761637E-01 0.12619095E+03</pdfrwt>
<totfact> 0.37778388E+02</totfact>
</mgrwt>
</event>
<event>
 8    1  0.3763376E-007  0.1525006E+03  0.7546771E-02  0.1197435E+00
         -5   -1    0    0    0  501 -0.00000000000E+00  0.00000000000E+00  0.41829434768E+03  0.41832075170E+03  0.47000000000E+01 0.  1.
          5   -1    0    0  501    0  0.00000000000E+00 -0.00000000000E+00 -0.58195380708E+02  0.58384863927E+02  0.47000000000E+01 0.  1.
         25    2    1    2    0    0  0.80461346966E+02 -0.34002119984E+02  0.23154483221E+03  0.27725336625E+03  0.12500498890E+03 0.  0.
         25    2    1    2    0    0 -0.80461346966E+02  0.34002119984E+02  0.12855413476E+03  0.19945224938E+03  0.12499944680E+03 0.  0.
          5    1    3    3  502    0  0.28401859339E+01 -0.20373585809E+02 -0.98425754250E+01  0.23283383471E+02  0.47000000000E+01 0. -1.
         -5    1    3    3    0  502  0.77621161032E+02 -0.13628534175E+02  0.24138740764E+03  0.25396998278E+03  0.47000000000E+01 0. -1.
          5    1    4    4  503    0 -0.82587443806E+02 -0.11208864749E+02  0.12934236615E+03  0.15394109979E+03  0.47000000000E+01 0. -1.
         -5    1    4    4    0  503  0.21260968399E+01  0.45210984733E+02 -0.78823139217E+00  0.45511149590E+02  0.47000000000E+01 0. -1.
<mgrwt>
<rscale>  0 0.15249942E+03</rscale>
<asrwt>0</asrwt>
<pdfrwt beam="2">  1        5 0.89697422E-02 0.15250056E+03</pdfrwt>
<pdfrwt beam="1">  1       -5 0.64369583E-01 0.15250056E+03</pdfrwt>
<totfact> 0.15996510E+02</totfact>
</mgrwt>
</event>
<event>
 8    1  0.3763376E-007  0.1444209E+03  0.7546771E-02  0.1207502E+00
          5   -1    0    0  501    0  0.00000000000E+00  0.00000000000E+00  0.36389985233E+02  0.36692247482E+02  0.47000000000E+01 0. -1.
         -5   -1    0    0    0  501 -0.00000000000E+00 -0.00000000000E+00 -0.96818789915E+03  0.96819930699E+03  0.47000000000E+01 0. -1.
         25    2    1    2    0    0  0.15195150221E+02 -0.70725449882E+02 -0.78788109418E+03  0.80100813257E+03  0.12499771207E+03 0.  0.
         25    2    1    2    0    0 -0.15195150221E+02  0.70725449882E+02 -0.14391681974E+03  0.20388342191E+03  0.12499366733E+03 0.  0.
          5    1    3    3  502    0  0.27341381146E+02 -0.21341370999E+02 -0.68741650916E+03  0.68830701892E+03  0.47000000000E+01 0.  1.
         -5    1    3    3    0  502 -0.12146230925E+02 -0.49384078883E+02 -0.10046458502E+03  0.11270111364E+03  0.47000000000E+01 0.  1.
          5    1    4    4  503    0 -0.63398941025E+02  0.35328704196E+02 -0.11782927327E+03  0.13846794107E+03  0.47000000000E+01 0.  1.
         -5    1    4    4    0  503  0.48203790804E+02  0.35396745686E+02 -0.26087546466E+02  0.65415480841E+02  0.47000000000E+01 0.  1.
<mgrwt>
<rscale>  0 0.14442007E+03</rscale>
<asrwt>0</asrwt>
<pdfrwt beam="1">  1        5 0.56225885E-02 0.14442095E+03</pdfrwt>
<pdfrwt beam="2">  1       -5 0.14897609E+00 0.14442095E+03</pdfrwt>
<totfact> 0.44993395E+01</totfact>
</mgrwt>
</event>
<event>
 8    1  0.3763376E-007  0.1337041E+03  0.7546771E-02  0.1222065E+00
         -5   -1    0    0    0  501 -0.00000000000E+00  0.00000000000E+00  0.21429025393E+03  0.21434178997E+03  0.47000000000E+01 0. -1.
          5   -1    0    0  501    0  0.00000000000E+00 -0.00000000000E+00 -0.85682723801E+02  0.85811532780E+02  0.47000000000E+01 0. -1.
         25    2    1    2    0    0 -0.15611112782E+02  0.44775632403E+02  0.89363259486E+02  0.16080881538E+03  0.12500047543E+03 0.  0.
         25    2    1    2    0    0  0.15611112782E+02 -0.44775632403E+02  0.39244270638E+02  0.13934450737E+03  0.12501285877E+03 0.  0.
          5    1    3    3  502    0 -0.63532037714E+02  0.54761231495E+02  0.63052237964E+02  0.10503707442E+03  0.47000000000E+01 0.  1.
         -5    1    3    3    0  502  0.47920924932E+02 -0.99855990929E+01  0.26311021522E+02  0.55771740955E+02  0.47000000000E+01 0.  1.
          5    1    4    4  503    0  0.36684526342E+01  0.90695920479E+01 -0.40691459675E+02  0.42114129875E+02  0.47000000000E+01 0. -1.
         -5    1    4    4    0  503  0.11942660148E+02 -0.53845224450E+02  0.79935730313E+02  0.97230377497E+02  0.47000000000E+01 0. -1.
<mgrwt>
<rscale>  0 0.13370118E+03</rscale>
<asrwt>0</asrwt>
<pdfrwt beam="2">  1        5 0.13195830E-01 0.13370407E+03</pdfrwt>
<pdfrwt beam="1">  1       -5 0.32981604E-01 0.13370407E+03</pdfrwt>
<totfact> 0.31537358E+02</totfact>
</mgrwt>
</event>
<event>
 8    1  0.3763376E-007  0.2227721E+03  0.7546771E-02  0.1131833E+00
         -5   -1    0    0    0  501 -0.00000000000E+00  0.00000000000E+00  0.36965365651E+03  0.36968353463E+03  0.47000000000E+01 0. -1.
          5   -1    0    0  501    0  0.00000000000E+00 -0.00000000000E+00 -0.13462123411E+03  0.13470325414E+03  0.47000000000E+01 0. -1.
         25    2    1    2    0    0  0.16055159006E+03 -0.90696997468E+02  0.13200194124E+03  0.25894384079E+03  0.12499856707E+03 0.  0.
         25    2    1    2    0    0 -0.16055159006E+03  0.90696997468E+02  0.10303048116E+03  0.24544294798E+03  0.12499680892E+03 0.  0.
          5    1    3    3  502    0  0.12191552896E+03  0.22126115221E+01  0.73725918437E+02  0.14256890580E+03  0.47000000000E+01 0. -1.
         -5    1    3    3    0  502  0.38636061103E+02 -0.92909608990E+02  0.58276022798E+02  0.11637493499E+03  0.47000000000E+01 0. -1.
          5    1    4    4  503    0 -0.14616842512E+03  0.56592896825E+02  0.12640477029E+03  0.20141554167E+03  0.47000000000E+01 0. -1.
         -5    1    4    4    0  503 -0.14383164941E+02  0.34104100643E+02 -0.23374289122E+02  0.44027406309E+02  0.47000000000E+01 0. -1.
<mgrwt>
<rscale>  0 0.22277183E+03</rscale>
<asrwt>0</asrwt>
<pdfrwt beam="2">  1        5 0.20719567E-01 0.22277208E+03</pdfrwt>
<pdfrwt beam="1">  1       -5 0.56878400E-01 0.22277208E+03</pdfrwt>
<totfact> 0.51600401E+01</totfact>
</mgrwt>
</event>
<event>
 8    1  0.3763376E-007  0.1308810E+03  0.7546771E-02  0.1226166E+00
          5   -1    0    0  501    0  0.00000000000E+00  0.00000000000E+00  0.32565698629E+03  0.32569090058E+03  0.47000000000E+01 0.  1.
         -5   -1    0    0    0  501 -0.00000000000E+00 -0.00000000000E+00 -0.64174705827E+02  0.64346583965E+02  0.47000000000E+01 0.  1.
         25    2    1    2    0    0  0.77896414882E+01  0.38003719212E+02  0.47504515883E+02  0.13920621173E+03  0.12496691228E+03 0.  0.
         25    2    1    2    0    0 -0.77896414882E+01 -0.38003719212E+02  0.21397776458E+03  0.25083127282E+03  0.12499953000E+03 0.  0.
          5    1    3    3  502    0  0.55563370413E+02  0.13512310422E+01  0.55014219542E+02  0.78343910477E+02  0.47000000000E+01 0. -1.
         -5    1    3    3    0  502 -0.47773728925E+02  0.36652488169E+02 -0.75097036594E+01  0.60862301250E+02  0.47000000000E+01 0. -1.
          5    1    4    4  503    0  0.26814616536E+01  0.37179559943E+02  0.20187674392E+02  0.42651402222E+02  0.47000000000E+01 0.  1.
         -5    1    4    4    0  503 -0.10471103142E+02 -0.75183279155E+02  0.19379009019E+03  0.20817987059E+03  0.47000000000E+01 0.  1.
<mgrwt>
<rscale>  0 0.13087324E+03</rscale>
<asrwt>0</asrwt>
<pdfrwt beam="1">  1        5 0.50116905E-01 0.13088103E+03</pdfrwt>
<pdfrwt beam="2">  1       -5 0.98888619E-02 0.13088103E+03</pdfrwt>
<totfact> 0.22082424E+02</totfact>
</mgrwt>
</event>
<event>
 8    1  0.3763376E-007  0.1257809E+03  0.7546771E-02  0.1233862E+00
          5   -1    0    0  501    0  0.00000000000E+00  0.00000000000E+00  0.74594756919E+03  0.74596237571E+03  0.47000000000E+01 0.  1.
         -5   -1    0    0    0  501 -0.00000000000E+00 -0.00000000000E+00 -0.21398239304E+02  0.21908323653E+02  0.47000000000E+01 0.  1.
         25    2    1    2    0    0  0.13725998259E+02  0.13786989241E+01  0.30613762676E+03  0.33096202602E+03  0.12500124925E+03 0.  0.
         25    2    1    2    0    0 -0.13725998259E+02 -0.13786989241E+01  0.41841170313E+03  0.43690867334E+03  0.12502212480E+03 0.  0.
          5    1    4    4  502    0 -0.41146549069E+01  0.58665766152E+02  0.27157053731E+03  0.27790510833E+03  0.47000000000E+01 0. -1.
         -5    1    4    4    0  502 -0.96113433518E+01 -0.60044465076E+02  0.14684116582E+03  0.15900356501E+03  0.47000000000E+01 0. -1.
          5    1    3    3  503    0 -0.65807313166E+01  0.49179411011E+02  0.53985730216E+02  0.73474278213E+02  0.47000000000E+01 0.  1.
         -5    1    3    3    0  503  0.20306729575E+02 -0.47800712087E+02  0.25215189654E+03  0.25748774781E+03  0.47000000000E+01 0.  1.
<mgrwt>
<rscale>  0 0.12577572E+03</rscale>
<asrwt>0</asrwt>
<pdfrwt beam="1">  1        5 0.11480155E+00 0.12578090E+03</pdfrwt>
<pdfrwt beam="2">  1       -5 0.33324128E-02 0.12578090E+03</pdfrwt>
<totfact> 0.20120083E+02</totfact>
</mgrwt>
</event>
<event>
 8    1  0.3763376E-007  0.1362725E+03  0.7546771E-02  0.1218434E+00
         -5   -1    0    0    0  501 -0.00000000000E+00  0.00000000000E+00  0.61380699723E+02  0.61560379291E+02  0.47000000000E+01 0.  1.
          5   -1    0    0  501    0  0.00000000000E+00 -0.00000000000E+00 -0.50701627303E+03  0.50703805688E+03  0.47000000000E+01 0.  1.
         25    2    1    2    0    0  0.35004562542E+02  0.41470873518E+02 -0.42027839068E+02  0.14260619585E+03  0.12500014036E+03 0.  0.
         25    2    1    2    0    0 -0.35004562542E+02 -0.41470873518E+02 -0.40360773424E+03  0.42599224032E+03  0.12500013168E+03 0.  0.
          5    1    3    3  502    0  0.43296497862E+02  0.31991795400E+02  0.35020508587E+02  0.64394003772E+02  0.47000000000E+01 0.  1.
         -5    1    3    3    0  502 -0.82919353198E+01  0.94790781185E+01 -0.77048347655E+02  0.78212192078E+02  0.47000000000E+01 0.  1.
          5    1    4    4  503    0 -0.17721496679E+02 -0.47230267653E+02 -0.47693070886E+02  0.69580662814E+02  0.47000000000E+01 0. -1.
         -5    1    4    4    0  503 -0.17283065863E+02  0.57593941344E+01 -0.35591466336E+03  0.35641157750E+03  0.47000000000E+01 0. -1.
<mgrwt>
<rscale>  0 0.13627247E+03</rscale>
<asrwt>0</asrwt>
<pdfrwt beam="2">  1        5 0.78017998E-01 0.13627248E+03</pdfrwt>
<pdfrwt beam="1">  1       -5 0.94586821E-02 0.13627248E+03</pdfrwt>
<totfact> 0.91111203E+01</totfact>
</mgrwt>
</event>
<event>
 8    1  0.3763376E-007  0.1357714E+03  0.7546771E-02  0.1219138E+00
          5   -1    0    0  501    0  0.00000000000E+00  0.00000000000E+00  0.10678064059E+04  0.10678167495E+04  0.47000000000E+01 0. -1.
         -5   -1    0    0    0  501 -0.00000000000E+00 -0.00000000000E+00 -0.18446060178E+02  0.19035417938E+02  0.47000000000E+01 0. -1.
         25    2    1    2    0    0 -0.48644512371E+02  0.20957192291E+02  0.37152291064E+03  0.39555087647E+03  0.12500292097E+03 0.  0.
         25    2    1    2    0    0  0.48644512371E+02 -0.20957192291E+02  0.67783743510E+03  0.69130129097E+03  0.12501357521E+03 0.  0.
          5    1    3    3  502    0  0.31204805172E+02  0.23133948432E+01  0.27696312969E+02  0.42050771855E+02  0.47000000000E+01 0. -1.
         -5    1    3    3    0  502 -0.79849317543E+02  0.18643797447E+02  0.34382659767E+03  0.35350010461E+03  0.47000000000E+01 0. -1.
          5    1    4    4  503    0  0.62469887406E+02  0.37747738196E+02  0.43081763028E+03  0.43698203525E+03  0.47000000000E+01 0. -1.
         -5    1    4    4    0  503 -0.13825375034E+02 -0.58704930486E+02  0.24701980482E+03  0.25431925572E+03  0.47000000000E+01 0. -1.
<mgrwt>
<rscale>  0 0.13576900E+03</rscale>
<asrwt>0</asrwt>
<pdfrwt beam="1">  1        5 0.16432403E+00 0.13577145E+03</pdfrwt>
<pdfrwt beam="2">  1       -5 0.28839865E-02 0.13577145E+03</pdfrwt>
<totfact> 0.10067248E+02</totfact>
</mgrwt>
</event>
<event>
 8    1  0.3763376E-007  0.1411880E+03  0.7546771E-02  0.1211743E+00
          5   -1    0    0  501    0  0.00000000000E+00  0.00000000000E+00  0.24579662008E+03  0.24584155150E+03  0.47000000000E+01 0.  1.
         -5   -1    0    0    0  501 -0.00000000000E+00 -0.00000000000E+00 -0.84535865460E+02  0.84666419253E+02  0.47000000000E+01 0.  1.
         25    2    1    2    0    0 -0.21417294585E+02 -0.62053067070E+02  0.46743950776E+02  0.14872469812E+03  0.12499902103E+03 0.  0.
         25    2    1    2    0    0  0.21417294585E+02  0.62053067070E+02  0.11451680385E+03  0.18178327263E+03  0.12498710415E+03 0.  0.
          5    1    4    4  502    0  0.50845778736E+02 -0.15302171111E+02  0.69062462119E+02  0.87241981465E+02  0.47000000000E+01 0. -1.
         -5    1    4    4    0  502 -0.29428484151E+02  0.77355238181E+02  0.45454341728E+02  0.94541291166E+02  0.47000000000E+01 0. -1.
          5    1    3    3  503    0 -0.35637866294E+02 -0.74424113139E+02 -0.14996859292E+02  0.84000011423E+02  0.47000000000E+01 0.  1.
         -5    1    3    3    0  503  0.14220571708E+02  0.12371046070E+02  0.61740810068E+02  0.64724686700E+02  0.47000000000E+01 0.  1.
<mgrwt>
<rscale>  0 0.14118532E+03</rscale>
<asrwt>0</asrwt>
<pdfrwt beam="1">  1        5 0.37828363E-01 0.14118796E+03</pdfrwt>
<pdfrwt beam="2">  1       -5 0.13019017E-01 0.14118796E+03</pdfrwt>
<totfact> 0.24993744E+02</totfact>
</mgrwt>
</event>
<event>
 8    1  0.3763376E-007  0.1759909E+03  0.7546771E-02  0.1171741E+00
         -5   -1    0    0    0  501 -0.00000000000E+00  0.00000000000E+00  0.64356710109E+02  0.64528103459E+02  0.47000000000E+01 0.  1.
          5   -1    0    0  501    0  0.00000000000E+00 -0.00000000000E+00 -0.48112831105E+03  0.48115126696E+03  0.47000000000E+01 0.  1.
         25    2    1    2    0    0 -0.10603016828E+02  0.12343065600E+03 -0.21874515871E+03  0.28075055652E+03  0.12499551880E+03 0.  0.
         25    2    1    2    0    0  0.10603016828E+02 -0.12343065600E+03 -0.19802644223E+03  0.26492881390E+03  0.12500101521E+03 0.  0.
          5    1    4    4  502    0 -0.11438411423E+02 -0.68142684148E+02 -0.19295691278E+03  0.20500907992E+03  0.47000000000E+01 0.  1.
         -5    1    4    4    0  502  0.22041428251E+02 -0.55287971852E+02 -0.50695294475E+01  0.59919733975E+02  0.47000000000E+01 0.  1.
          5    1    3    3  503    0 -0.51540348038E+02  0.98078488109E+02 -0.88725999836E+02  0.14202179534E+03  0.47000000000E+01 0.  1.
         -5    1    3    3    0  503  0.40937331210E+02  0.25352167891E+02 -0.13001915887E+03  0.13872876118E+03  0.47000000000E+01 0.  1.
<mgrwt>
<rscale>  0 0.17598995E+03</rscale>
<asrwt>0</asrwt>
<pdfrwt beam="2">  1        5 0.74034688E-01 0.17599092E+03</pdfrwt>
<pdfrwt beam="1">  1       -5 0.99159825E-02 0.17599092E+03</pdfrwt>
<totfact> 0.10233889E+02</totfact>
</mgrwt>
</event>
<event>
 8    1  0.3763376E-007  0.1347135E+03  0.7546771E-02  0.1220625E+00
          5   -1    0    0  501    0  0.00000000000E+00  0.00000000000E+00  0.48125476151E+02  0.48354435730E+02  0.47000000000E+01 0. -1.
         -5   -1    0    0    0  501 -0.00000000000E+00 -0.00000000000E+00 -0.37780996175E+03  0.37783919489E+03  0.47000000000E+01 0. -1.
         25    2    1    2    0    0 -0.49943132016E+02 -0.53237508677E+01 -0.17978308306E+03  0.22465416349E+03  0.12499950983E+03 0.  0.
         25    2    1    2    0    0  0.49943132016E+02  0.53237508677E+01 -0.14990140253E+03  0.20153946713E+03  0.12500027029E+03 0.  0.
          5    1    3    3  502    0 -0.53185911356E+01  0.29228419992E+02 -0.16276319691E+03  0.16551899050E+03  0.47000000000E+01 0. -1.
         -5    1    3    3    0  502 -0.44624540880E+02 -0.34552170860E+02 -0.17019886156E+02  0.59135172991E+02  0.47000000000E+01 0. -1.
          5    1    4    4  503    0  0.82954766377E+02 -0.27844052525E+02 -0.10021961135E+03  0.13312717613E+03  0.47000000000E+01 0. -1.
         -5    1    4    4    0  503 -0.33011634361E+02  0.33167803393E+02 -0.49681791185E+02  0.68412291005E+02  0.47000000000E+01 0. -1.
<mgrwt>
<rscale>  0 0.13471332E+03</rscale>
<asrwt>0</asrwt>
<pdfrwt beam="1">  1        5 0.74237806E-02 0.13471350E+03</pdfrwt>
<pdfrwt beam="2">  1       -5 0.58144469E-01 0.13471350E+03</pdfrwt>
<totfact> 0.26573683E+02</totfact>
</mgrwt>
</event>
<event>
 8    1  0.3763376E-007  0.1450366E+03  0.7546771E-02  0.1206717E+00
         -5   -1    0    0    0  501 -0.00000000000E+00  0.00000000000E+00  0.89829358551E+01  0.10138201841E+02  0.47000000000E+01 0. -1.
          5   -1    0    0  501    0  0.00000000000E+00 -0.00000000000E+00 -0.23766894491E+04  0.23766940963E+04  0.47000000000E+01 0. -1.
         25    2    1    2    0    0  0.33756736083E+02 -0.65273087628E+02 -0.85723313778E+03  0.86941164282E+03  0.12501143535E+03 0.  0.
         25    2    1    2    0    0 -0.33756736083E+02  0.65273087628E+02 -0.15104733754E+04  0.15174206553E+04  0.12504212908E+03 0.  0.
          5    1    4    4  502    0  0.22516337696E+02  0.54545979424E+02 -0.31178946347E+03  0.31735943166E+03  0.47000000000E+01 0. -1.
         -5    1    4    4    0  502 -0.56273073779E+02  0.10727108204E+02 -0.11986839120E+04  0.12000612237E+04  0.47000000000E+01 0. -1.
          5    1    3    3  503    0 -0.68024065227E+01  0.74604576237E+01 -0.57507843823E+03  0.57518625791E+03  0.47000000000E+01 0. -1.
         -5    1    3    3    0  503  0.40559142606E+02 -0.72733545252E+02 -0.28215469955E+03  0.29422538492E+03  0.47000000000E+01 0. -1.
<mgrwt>
<rscale>  0 0.14503003E+03</rscale>
<asrwt>0</asrwt>
<pdfrwt beam="2">  1        5 0.36573328E+00 0.14503664E+03</pdfrwt>
<pdfrwt beam="1">  1       -5 0.14712161E-02 0.14503664E+03</pdfrwt>
<totfact> 0.14288982E+01</totfact>
</mgrwt>
</event>
<event>
 8    1  0.3763376E-007  0.1621716E+03  0.7546771E-02  0.1186269E+00
         -5   -1    0    0    0  501 -0.00000000000E+00  0.00000000000E+00  0.12968432195E+04  0.12968517363E+04  0.47000000000E+01 0.  1.
          5   -1    0    0  501    0  0.00000000000E+00 -0.00000000000E+00 -0.20017337522E+02  0.20561707164E+02  0.47000000000E+01 0.  1.
         25    2    1    2    0    0  0.86525184956E+02  0.56454438541E+02  0.65877138834E+03  0.67843891014E+03  0.12500360571E+03 0.  0.
         25    2    1    2    0    0 -0.86525184956E+02 -0.56454438541E+02  0.61805449365E+03  0.63897453334E+03  0.12499354332E+03 0.  0.
          5    1    4    4  502    0 -0.11565807709E+03 -0.26394496463E+02  0.41802478654E+03  0.43455755936E+03  0.47000000000E+01 0. -1.
         -5    1    4    4    0  502  0.29132892134E+02 -0.30059942078E+02  0.20002970711E+03  0.20441697397E+03  0.47000000000E+01 0. -1.
          5    1    3    3  503    0  0.43778635725E+02 -0.31786020652E+02  0.13435874607E+03  0.14491819313E+03  0.47000000000E+01 0.  1.
         -5    1    3    3    0  503  0.42746549232E+02  0.88240459193E+02  0.52441264227E+03  0.53352071702E+03  0.47000000000E+01 0.  1.
<mgrwt>
<rscale>  0 0.16216961E+03</rscale>
<asrwt>0</asrwt>
<pdfrwt beam="2">  1        5 0.31221198E-02 0.16217155E+03</pdfrwt>
<pdfrwt beam="1">  1       -5 0.19955689E+00 0.16217155E+03</pdfrwt>
<totfact> 0.52386387E+01</totfact>
</mgrwt>
</event>
<event>
 8    1  0.3763376E-007  0.1349062E+03  0.7546771E-02  0.1220356E+00
         -5   -1    0    0    0  501 -0.00000000000E+00  0.00000000000E+00  0.39465862840E+03  0.39468661362E+03  0.47000000000E+01 0.  1.
          5   -1    0    0  501    0  0.00000000000E+00 -0.00000000000E+00 -0.48364598685E+02  0.48592431571E+02  0.47000000000E+01 0.  1.
         25    2    1    2    0    0  0.50210198449E+02  0.72740009565E+01  0.22241081491E+03  0.26012134165E+03  0.12499026633E+03 0.  0.
         25    2    1    2    0    0 -0.50210198449E+02 -0.72740009565E+01  0.12388321481E+03  0.18315770354E+03  0.12500287331E+03 0.  0.
          5    1    3    3  502    0  0.36485833245E+02 -0.55475196606E+02  0.14408013823E+03  0.15871323102E+03  0.47000000000E+01 0. -1.
         -5    1    3    3    0  502  0.13724365204E+02  0.62749197562E+02  0.78330676676E+02  0.10140811064E+03  0.47000000000E+01 0. -1.
          5    1    4    4  503    0 -0.89247003139E+02  0.14177804147E+01  0.60036398775E+02  0.10767310179E+03  0.47000000000E+01 0. -1.
         -5    1    4    4    0  503  0.39036804691E+02 -0.86917813713E+01  0.63846816031E+02  0.75484601749E+02  0.47000000000E+01 0. -1.
<mgrwt>
<rscale>  0 0.13490332E+03</rscale>
<asrwt>0</asrwt>
<pdfrwt beam="2">  1        5 0.74603860E-02 0.13490624E+03</pdfrwt>
<pdfrwt beam="1">  1       -5 0.60736389E-01 0.13490624E+03</pdfrwt>
<totfact> 0.23969499E+02</totfact>
</mgrwt>
</event>
<event>
 8    1  0.3763376E-007  0.1341914E+03  0.7546771E-02  0.1221372E+00
          5   -1    0    0  501    0  0.00000000000E+00  0.00000000000E+00  0.81448435095E+02  0.81583929664E+02  0.47000000000E+01 0.  1.
         -5   -1    0    0    0  501 -0.00000000000E+00 -0.00000000000E+00 -0.26096412136E+03  0.26100644175E+03  0.47000000000E+01 0.  1.
         25    2    1    2    0    0  0.80227825248E+01  0.48093594942E+02 -0.15700997965E+03  0.20654168331E+03  0.12501989570E+03 0.  0.
         25    2    1    2    0    0 -0.80227825248E+01 -0.48093594942E+02 -0.22505706611E+02  0.13604868811E+03  0.12500151916E+03 0.  0.
          5    1    4    4  502    0 -0.37625478354E+02  0.28149015145E+01  0.36389485098E+02  0.52629696158E+02  0.47000000000E+01 0.  1.
         -5    1    4    4    0  502  0.29602695829E+02 -0.50908496456E+02 -0.58895191709E+02  0.83418991952E+02  0.47000000000E+01 0.  1.
          5    1    3    3  503    0 -0.53517267211E+02  0.31557547540E+02 -0.11272861011E+03  0.12880142171E+03  0.47000000000E+01 0.  1.
         -5    1    3    3    0  503  0.61540049736E+02  0.16536047402E+02 -0.44281369542E+02  0.77740261600E+02  0.47000000000E+01 0.  1.
<mgrwt>
<rscale>  0 0.13418712E+03</rscale>
<asrwt>0</asrwt>
<pdfrwt beam="1">  1        5 0.12544207E-01 0.13419141E+03</pdfrwt>
<pdfrwt beam="2">  1       -5 0.40162004E-01 0.13419141E+03</pdfrwt>
<totfact> 0.23236758E+02</totfact>
</mgrwt>
</event>
<event>
 8    1  0.3763376E-007  0.1418501E+03  0.7546771E-02  0.1210861E+00
          5   -1    0    0  501    0  0.00000000000E+00  0.00000000000E+00  0.15827884524E+03  0.15834861177E+03  0.47000000000E+01 0. -1.
         -5   -1    0    0    0  501 -0.00000000000E+00 -0.00000000000E+00 -0.14857923178E+03  0.14865355064E+03  0.47000000000E+01 0. -1.
         25    2    1    2    0    0 -0.44971189484E+02 -0.49739719714E+02 -0.53640237471E+02  0.15165295825E+03  0.12499958827E+03 0.  0.
         25    2    1    2    0    0  0.44971189484E+02  0.49739719714E+02  0.63339850931E+02  0.15534920416E+03  0.12499996367E+03 0.  0.
          5    1    4    4  502    0 -0.90997543280E+01 -0.18555699720E+02 -0.23922356188E+02  0.31960736014E+02  0.47000000000E+01 0. -1.
         -5    1    4    4    0  502  0.54070943812E+02  0.68295419435E+02  0.87262207119E+02  0.12338846815E+03  0.47000000000E+01 0. -1.
          5    1    3    3  503    0 -0.68706941620E+02  0.16584667053E+02 -0.21081789663E+02  0.73906879676E+02  0.47000000000E+01 0.  1.
         -5    1    3    3    0  503  0.23735752136E+02 -0.66324386767E+02 -0.32558447808E+02  0.77746078571E+02  0.47000000000E+01 0.  1.
<mgrwt>
<rscale>  0 0.14184997E+03</rscale>
<asrwt>0</asrwt>
<pdfrwt beam="1">  1        5 0.24361675E-01 0.14185006E+03</pdfrwt>
<pdfrwt beam="2">  1       -5 0.22869427E-01 0.14185006E+03</pdfrwt>
<totfact> 0.21116609E+02</totfact>
</mgrwt>
</event>
<event>
 8    1  0.3763376E-007  0.1290085E+03  0.7546771E-02  0.1228935E+00
          5   -1    0    0  501    0  0.00000000000E+00  0.00000000000E+00  0.28226627755E+03  0.28230540455E+03  0.47000000000E+01 0.  1.
         -5   -1    0    0    0  501 -0.00000000000E+00 -0.00000000000E+00 -0.63713879273E+02  0.63886997206E+02  0.47000000000E+01 0.  1.
         25    2    1    2    0    0 -0.49307790183E+01 -0.31513039532E+02  0.61408365751E+02  0.14287629406E+03  0.12500105511E+03 0.  0.
         25    2    1    2    0    0  0.49307790183E+01  0.31513039532E+02  0.15714403252E+03  0.20331610770E+03  0.12500323375E+03 0.  0.
          5    1    3    3  502    0 -0.53030738432E+02  0.76530789327E+01  0.60103642615E+02  0.80655853423E+02  0.47000000000E+01 0.  1.
         -5    1    3    3    0  502  0.48099959414E+02 -0.39166118465E+02  0.13047231360E+01  0.62220440642E+02  0.47000000000E+01 0.  1.
          5    1    4    4  503    0  0.40056654108E+02  0.29028594199E+02  0.84104859334E+01  0.50398621937E+02  0.47000000000E+01 0. -1.
         -5    1    4    4    0  503 -0.35125875090E+02  0.24844453332E+01  0.14873354659E+03  0.15291748576E+03  0.47000000000E+01 0. -1.
<mgrwt>
<rscale>  0 0.12900797E+03</rscale>
<asrwt>0</asrwt>
<pdfrwt beam="1">  1        5 0.43441907E-01 0.12900850E+03</pdfrwt>
<pdfrwt beam="2">  1       -5 0.98184620E-02 0.12900850E+03</pdfrwt>
<totfact> 0.30001036E+02</totfact>
</mgrwt>
</event>
<event>
 8    1  0.3763376E-007  0.1335111E+03  0.7546771E-02  0.1222348E+00
          5   -1    0    0  501    0  0.00000000000E+00  0.00000000000E+00  0.15197298802E+02  0.15907479086E+02  0.47000000000E+01 0. -1.
         -5   -1    0    0    0  501 -0.00000000000E+00 -0.00000000000E+00 -0.12345349808E+04  0.12345439275E+04  0.47000000000E+01 0. -1.
         25    2    1    2    0    0  0.30994234638E+02 -0.35087158477E+02 -0.77790165086E+03  0.78927574176E+03  0.12503386284E+03 0.  0.
         25    2    1    2    0    0 -0.30994234638E+02  0.35087158477E+02 -0.44143603114E+03  0.46117566478E+03  0.12500189169E+03 0.  0.
          5    1    4    4  502    0 -0.53687205468E+02  0.56583929415E+02 -0.40699194481E+03  0.41442561485E+03  0.47000000000E+01 0.  1.
         -5    1    4    4    0  502  0.22692970830E+02 -0.21496770937E+02 -0.34444086330E+02  0.46750049935E+02  0.47000000000E+01 0.  1.
          5    1    3    3  503    0  0.87672757216E+01  0.21751024808E+02 -0.61159144803E+03  0.61205895264E+03  0.47000000000E+01 0.  1.
         -5    1    3    3    0  503  0.22226958917E+02 -0.56838183285E+02 -0.16631020283E+03  0.17721678912E+03  0.47000000000E+01 0.  1.
<mgrwt>
<rscale>  0 0.13350363E+03</rscale>
<asrwt>0</asrwt>
<pdfrwt beam="1">  1        5 0.23933644E-02 0.13351112E+03</pdfrwt>
<pdfrwt beam="2">  1       -5 0.18998370E+00 0.13351112E+03</pdfrwt>
<totfact> 0.88444939E+01</totfact>
</mgrwt>
</event>
<event>
 8    1  0.3763376E-007  0.1298480E+03  0.7546771E-02  0.1227682E+00
          5   -1    0    0  501    0  0.00000000000E+00  0.00000000000E+00  0.19259058410E+04  0.19259115759E+04  0.47000000000E+01 0.  1.
         -5   -1    0    0    0  501 -0.00000000000E+00 -0.00000000000E+00 -0.83426830021E+01  0.95755083246E+01  0.47000000000E+01 0.  1.
         25    2    1    2    0    0  0.33907464011E+02 -0.92061687429E+01  0.81050453364E+03  0.82083946869E+03  0.12500145860E+03 0.  0.
         25    2    1    2    0    0 -0.33907464011E+02  0.92061687429E+01  0.11070586243E+04  0.11146476156E+04  0.12500415797E+03 0.  0.
          5    1    4    4  502    0 -0.14275332410E+02  0.13431460484E+02  0.10820233886E+04  0.10822111128E+04  0.47000000000E+01 0. -1.
         -5    1    4    4    0  502 -0.19632131602E+02 -0.42252917412E+01  0.25035235728E+02  0.32436502732E+02  0.47000000000E+01 0. -1.
          5    1    3    3  503    0 -0.21404096336E+02  0.45390700129E+02  0.25819402869E+03  0.26306785712E+03  0.47000000000E+01 0. -1.
         -5    1    3    3    0  503  0.55311560347E+02 -0.54596868872E+02  0.55231050495E+03  0.55777161157E+03  0.47000000000E+01 0. -1.
<mgrwt>
<rscale>  0 0.12984737E+03</rscale>
<asrwt>0</asrwt>
<pdfrwt beam="1">  1        5 0.29638844E+00 0.12984802E+03</pdfrwt>
<pdfrwt beam="2">  1       -5 0.13787637E-02 0.12984802E+03</pdfrwt>
<totfact> 0.43346935E+01</totfact>
</mgrwt>
</event>
<event>
 8    1  0.3763376E-007  0.1259240E+03  0.7546771E-02  0.1233632E+00
          5   -1    0    0  501    0  0.00000000000E+00  0.00000000000E+00  0.12105027049E+03  0.12114147921E+03  0.47000000000E+01 0.  1.
         -5   -1    0    0    0  501 -0.00000000000E+00 -0.00000000000E+00 -0.13239952902E+03  0.13248292451E+03  0.47000000000E+01 0.  1.
         25    2    1    2    0    0 -0.13139987567E+02  0.77624433727E+01  0.82060429237E+01  0.12619107298E+03  0.12499573177E+03 0.  0.
         25    2    1    2    0    0  0.13139987567E+02 -0.77624433727E+01 -0.19555301456E+02  0.12743333074E+03  0.12499571660E+03 0.  0.
          5    1    4    4  502    0  0.24045131837E+02  0.53435604054E+02  0.79050980084E+01  0.59313680716E+02  0.47000000000E+01 0.  1.
         -5    1    4    4    0  502 -0.10905144270E+02 -0.61198047426E+02 -0.27460399464E+02  0.68119650021E+02  0.47000000000E+01 0.  1.
          5    1    3    3  503    0 -0.16766288959E+01 -0.50769597062E+02 -0.26017150695E+02  0.57265567321E+02  0.47000000000E+01 0. -1.
         -5    1    3    3    0  503 -0.11463358671E+02  0.58532040435E+02  0.34223193619E+02  0.68925505663E+02  0.47000000000E+01 0. -1.
<mgrwt>
<rscale>  0 0.12592397E+03</rscale>
<asrwt>0</asrwt>
<pdfrwt beam="1">  1        5 0.18636550E-01 0.12592398E+03</pdfrwt>
<pdfrwt beam="2">  1       -5 0.20382590E-01 0.12592398E+03</pdfrwt>
<totfact> 0.41602664E+02</totfact>
</mgrwt>
</event>
<event>
 8    1  0.3763376E-007  0.1363845E+03  0.7546771E-02  0.1218280E+00
          5   -1    0    0  501    0  0.00000000000E+00  0.00000000000E+00  0.90443728624E+02  0.90565766421E+02  0.47000000000E+01 0. -1.
         -5   -1    0    0    0  501 -0.00000000000E+00 -0.00000000000E+00 -0.20559670174E+03  0.20565041640E+03  0.47000000000E+01 0. -1.
         25    2    1    2    0    0  0.50466201302E+01 -0.54315047153E+02 -0.62547883536E+02  0.15003807118E+03  0.12499436926E+03 0.  0.
         25    2    1    2    0    0 -0.50466201302E+01  0.54315047153E+02 -0.52605089579E+02  0.14617811165E+03  0.12500060861E+03 0.  0.
          5    1    3    3  502    0 -0.35276675455E+02 -0.33351846064E+02  0.22331416023E+02  0.53643001488E+02  0.47000000000E+01 0.  1.
         -5    1    3    3    0  502  0.40323295585E+02 -0.20963201089E+02 -0.84879299559E+02  0.96395069689E+02  0.47000000000E+01 0.  1.
          5    1    4    4  503    0 -0.18668631976E+02  0.69085410187E+02  0.16893851492E+02  0.73680417607E+02  0.47000000000E+01 0. -1.
         -5    1    4    4    0  503  0.13622011846E+02 -0.14770363034E+02 -0.69498941072E+02  0.72497694039E+02  0.47000000000E+01 0. -1.
<mgrwt>
<rscale>  0 0.13638312E+03</rscale>
<asrwt>0</asrwt>
<pdfrwt beam="1">  1        5 0.13927939E-01 0.13638455E+03</pdfrwt>
<pdfrwt beam="2">  1       -5 0.31643781E-01 0.13638455E+03</pdfrwt>
<totfact> 0.31289757E+02</totfact>
</mgrwt>
</event>
<event>
 8    1  0.3763376E-007  0.1263567E+03  0.7546771E-02  0.1232967E+00
          5   -1    0    0  501    0  0.00000000000E+00  0.00000000000E+00  0.65947554244E+03  0.65949229038E+03  0.47000000000E+01 0.  1.
         -5   -1    0    0    0  501 -0.00000000000E+00 -0.00000000000E+00 -0.42747846365E+02  0.43005445805E+02  0.47000000000E+01 0.  1.
         25    2    1    2    0    0  0.18330958497E+02  0.20889867056E+01  0.76531484362E+02  0.14772034238E+03  0.12499537412E+03 0.  0.
         25    2    1    2    0    0 -0.18330958497E+02 -0.20889867056E+01  0.54019621171E+03  0.55477739380E+03  0.12500248647E+03 0.  0.
          5    1    4    4  502    0 -0.71560566333E+02 -0.95833118498E+01  0.31670543161E+03  0.32486485641E+03  0.47000000000E+01 0.  1.
         -5    1    4    4    0  502  0.53229607836E+02  0.74943251441E+01  0.22349078010E+03  0.22991253739E+03  0.47000000000E+01 0.  1.
          5    1    3    3  503    0  0.54097636098E+00  0.17658820369E+02 -0.31832134881E+02  0.36708328800E+02  0.47000000000E+01 0. -1.
         -5    1    3    3    0  503  0.17789982136E+02 -0.15569833663E+02  0.10836361924E+03  0.11101201358E+03  0.47000000000E+01 0. -1.
<mgrwt>
<rscale>  0 0.12635492E+03</rscale>
<asrwt>0</asrwt>
<pdfrwt beam="1">  1        5 0.10147888E+00 0.12635668E+03</pdfrwt>
<pdfrwt beam="2">  1       -5 0.65976956E-02 0.12635668E+03</pdfrwt>
<totfact> 0.88403854E+01</totfact>
</mgrwt>
</event>
<event>
 8    1  0.3763376E-007  0.1351289E+03  0.7546771E-02  0.1220040E+00
          5   -1    0    0  501    0  0.00000000000E+00  0.00000000000E+00  0.52291263055E+02  0.52502058930E+02  0.47000000000E+01 0. -1.
         -5   -1    0    0    0  501 -0.00000000000E+00 -0.00000000000E+00 -0.34880441279E+03  0.34883607666E+03  0.47000000000E+01 0. -1.
         25    2    1    2    0    0  0.32374844810E+02  0.39816959949E+02 -0.14026428745E+03  0.19476623911E+03  0.12500518664E+03 0.  0.
         25    2    1    2    0    0 -0.32374844810E+02 -0.39816959949E+02 -0.15624886228E+03  0.20657189648E+03  0.12499888229E+03 0.  0.
          5    1    4    4  502    0 -0.55424354791E+02  0.84246579005E+01 -0.13939045554E+03  0.15031507928E+03  0.47000000000E+01 0. -1.
         -5    1    4    4    0  502  0.23049509981E+02 -0.48241617850E+02 -0.16858406744E+02  0.56256817197E+02  0.47000000000E+01 0. -1.
          5    1    3    3  503    0 -0.41090552137E+01  0.13081421434E+02  0.21946857435E+02  0.26301377773E+02  0.47000000000E+01 0.  1.
         -5    1    3    3    0  503  0.36483900024E+02  0.26735538515E+02 -0.16221114489E+03  0.16846486134E+03  0.47000000000E+01 0.  1.
<mgrwt>
<rscale>  0 0.13512743E+03</rscale>
<asrwt>0</asrwt>
<pdfrwt beam="1">  1        5 0.80634607E-02 0.13512889E+03</pdfrwt>
<pdfrwt beam="2">  1       -5 0.53680867E-01 0.13512889E+03</pdfrwt>
<totfact> 0.27443662E+02</totfact>
</mgrwt>
</event>
<event>
 8    1  0.3763376E-007  0.1277497E+03  0.7546771E-02  0.1230837E+00
          5   -1    0    0  501    0  0.00000000000E+00  0.00000000000E+00  0.18344460471E+03  0.18350480375E+03  0.47000000000E+01 0. -1.
         -5   -1    0    0    0  501 -0.00000000000E+00 -0.00000000000E+00 -0.93433983891E+02  0.93552121011E+02  0.47000000000E+01 0. -1.
         25    2    1    2    0    0  0.12905881955E+02  0.22952740362E+02  0.14254029511E+02  0.12854245200E+03  0.12500637795E+03 0.  0.
         25    2    1    2    0    0 -0.12905881955E+02 -0.22952740362E+02  0.75756591310E+02  0.14851447276E+03  0.12499638960E+03 0.  0.
          5    1    4    4  502    0 -0.22683797826E+02 -0.29914561919E+02 -0.26023646025E+02  0.45921191742E+02  0.47000000000E+01 0. -1.
         -5    1    4    4    0  502  0.97779158711E+01  0.69618215575E+01  0.10178023733E+03  0.10259328102E+03  0.47000000000E+01 0. -1.
          5    1    3    3  503    0 -0.56738078240E+01 -0.54512051685E+01  0.65916055744E+02  0.66550162568E+02  0.47000000000E+01 0.  1.
         -5    1    3    3    0  503  0.18579689779E+02  0.28403945530E+02 -0.51662026233E+02  0.61992289428E+02  0.47000000000E+01 0.  1.
<mgrwt>
<rscale>  0 0.12774725E+03</rscale>
<asrwt>0</asrwt>
<pdfrwt beam="1">  1        5 0.28235965E-01 0.12774970E+03</pdfrwt>
<pdfrwt beam="2">  1       -5 0.14388177E-01 0.12774970E+03</pdfrwt>
<totfact> 0.36044581E+02</totfact>
</mgrwt>
</event>
<event>
 8    1  0.3763376E-007  0.1266098E+03  0.7546771E-02  0.1232575E+00
          5   -1    0    0  501    0  0.00000000000E+00  0.00000000000E+00  0.19469548026E+03  0.19475220162E+03  0.47000000000E+01 0. -1.
         -5   -1    0    0    0  501 -0.00000000000E+00 -0.00000000000E+00 -0.13339511591E+03  0.13347788936E+03  0.47000000000E+01 0. -1.
         25    2    1    2    0    0 -0.17909663486E+02 -0.91865228321E+01 -0.70959487263E+02  0.14513800430E+03  0.12499857283E+03 0.  0.
         25    2    1    2    0    0  0.17909663486E+02  0.91865228321E+01  0.13225985161E+03  0.18309208668E+03  0.12499958244E+03 0.  0.
          5    1    4    4  502    0  0.52985600573E+02  0.26656453232E+02  0.17929850375E+02  0.62141853058E+02  0.47000000000E+01 0. -1.
         -5    1    4    4    0  502 -0.35075937087E+02 -0.17469930400E+02  0.11433000124E+03  0.12095023363E+03  0.47000000000E+01 0. -1.
          5    1    3    3  503    0 -0.64152388749E+02  0.19774896764E+01 -0.72968390783E+02  0.97292936543E+02  0.47000000000E+01 0.  1.
         -5    1    3    3    0  503  0.46242725263E+02 -0.11164012508E+02  0.20089035193E+01  0.47845067754E+02  0.47000000000E+01 0.  1.
<mgrwt>
<rscale>  0 0.12660956E+03</rscale>
<asrwt>0</asrwt>
<pdfrwt beam="1">  1        5 0.29963881E-01 0.12660981E+03</pdfrwt>
<pdfrwt beam="2">  1       -5 0.20533056E-01 0.12660981E+03</pdfrwt>
<totfact> 0.16669405E+02</totfact>
</mgrwt>
</event>
<event>
 8    1  0.3763376E-007  0.1269651E+03  0.7546771E-02  0.1232040E+00
         -5   -1    0    0    0  501 -0.00000000000E+00  0.00000000000E+00  0.17668693487E+03  0.17674943551E+03  0.47000000000E+01 0.  1.
          5   -1    0    0  501    0  0.00000000000E+00 -0.00000000000E+00 -0.92638899625E+02  0.92758049374E+02  0.47000000000E+01 0.  1.
         25    2    1    2    0    0 -0.97699525221E+01  0.19847099896E+02  0.24544086816E+02  0.12929029882E+03  0.12499683926E+03 0.  0.
         25    2    1    2    0    0  0.97699525221E+01 -0.19847099896E+02  0.59503948425E+02  0.14021718606E+03  0.12502311803E+03 0.  0.
          5    1    4    4  502    0  0.64566876291E+02 -0.28287667429E+02  0.26081107829E+02  0.75308617224E+02  0.47000000000E+01 0.  1.
         -5    1    4    4    0  502 -0.54796923769E+02  0.84405675331E+01  0.33422840596E+02  0.64908568836E+02  0.47000000000E+01 0.  1.
          5    1    3    3  503    0  0.79127615466E+01 -0.31020495862E+02  0.57499732956E+02  0.65978725729E+02  0.47000000000E+01 0. -1.
         -5    1    3    3    0  503 -0.17682714069E+02  0.50867595757E+02 -0.32955646140E+02  0.63311573093E+02  0.47000000000E+01 0. -1.
<mgrwt>
<rscale>  0 0.12695864E+03</rscale>
<asrwt>0</asrwt>
<pdfrwt beam="2">  1        5 0.14266112E-01 0.12696511E+03</pdfrwt>
<pdfrwt beam="1">  1       -5 0.27196578E-01 0.12696511E+03</pdfrwt>
<totfact> 0.39272959E+02</totfact>
</mgrwt>
</event>
<event>
 8    1  0.3763376E-007  0.1403937E+03  0.7546771E-02  0.1212800E+00
          5   -1    0    0  501    0  0.00000000000E+00  0.00000000000E+00  0.11099958851E+03  0.11109904882E+03  0.47000000000E+01 0. -1.
         -5   -1    0    0    0  501 -0.00000000000E+00 -0.00000000000E+00 -0.25503734553E+03  0.25508064924E+03  0.47000000000E+01 0. -1.
         25    2    1    2    0    0 -0.54645616027E+02 -0.33148619173E+02 -0.17303178619E+03  0.22282330911E+03  0.12500101497E+03 0.  0.
         25    2    1    2    0    0  0.54645616027E+02  0.33148619173E+02  0.28994029173E+02  0.14335638896E+03  0.12500170488E+03 0.  0.
          5    1    3    3  502    0 -0.73199207664E+02 -0.64664894155E+02 -0.94118743942E+02  0.13572067086E+03  0.47000000000E+01 0.  1.
         -5    1    3    3    0  502  0.18553591637E+02  0.31516274981E+02 -0.78913042252E+02  0.87102638242E+02  0.47000000000E+01 0.  1.
          5    1    4    4  503    0  0.91711010169E+02  0.39127416951E+01  0.27306703514E+02  0.95885165645E+02  0.47000000000E+01 0. -1.
         -5    1    4    4    0  503 -0.37065394142E+02  0.29235877478E+02  0.16873256586E+01  0.47471223312E+02  0.47000000000E+01 0. -1.
<mgrwt>
<rscale>  0 0.14039358E+03</rscale>
<asrwt>0</asrwt>
<pdfrwt beam="1">  1        5 0.17087842E-01 0.14039373E+03</pdfrwt>
<pdfrwt beam="2">  1       -5 0.39247496E-01 0.14039373E+03</pdfrwt>
<totfact> 0.14147129E+02</totfact>
</mgrwt>
</event>
<event>
 8    1  0.3763376E-007  0.1262490E+03  0.7546771E-02  0.1233131E+00
         -5   -1    0    0    0  501 -0.00000000000E+00  0.00000000000E+00  0.63858292327E+03  0.63860021915E+03  0.47000000000E+01 0.  1.
          5   -1    0    0  501    0  0.00000000000E+00 -0.00000000000E+00 -0.36687566696E+02  0.36987397179E+02  0.47000000000E+01 0.  1.
         25    2    1    2    0    0  0.79759801487E+01 -0.15841419189E+02  0.49285890200E+03  0.50877103944E+03  0.12499402574E+03 0.  0.
         25    2    1    2    0    0 -0.79759801487E+01  0.15841419189E+02  0.10903645458E+03  0.16681657689E+03  0.12499702027E+03 0.  0.
          5    1    3    3  502    0 -0.43097906235E+02 -0.18688641534E+02  0.39892547747E+03  0.40170924985E+03  0.47000000000E+01 0. -1.
         -5    1    3    3    0  502  0.51073886384E+02  0.28472223451E+01  0.93933424529E+02  0.10706178958E+03  0.47000000000E+01 0. -1.
          5    1    4    4  503    0 -0.59302388940E+02  0.63602598859E+01  0.95497115317E+02  0.11268990759E+03  0.47000000000E+01 0.  1.
         -5    1    4    4    0  503  0.51326408791E+02  0.94811593028E+01  0.13539339261E+02  0.54126669293E+02  0.47000000000E+01 0.  1.
<mgrwt>
<rscale>  0 0.12624831E+03</rscale>
<asrwt>0</asrwt>
<pdfrwt beam="2">  1        5 0.56686357E-02 0.12624905E+03</pdfrwt>
<pdfrwt beam="1">  1       -5 0.98267916E-01 0.12624905E+03</pdfrwt>
<totfact> 0.12331107E+02</totfact>
</mgrwt>
</event>
<event>
 8    1  0.3763376E-007  0.1318773E+03  0.7546771E-02  0.1224698E+00
          5   -1    0    0  501    0  0.00000000000E+00  0.00000000000E+00  0.24793512867E+02  0.25235060536E+02  0.47000000000E+01 0. -1.
         -5   -1    0    0    0  501 -0.00000000000E+00 -0.00000000000E+00 -0.71100848544E+03  0.71102401954E+03  0.47000000000E+01 0. -1.
         25    2    1    2    0    0  0.20295722584E+02 -0.36786461574E+02 -0.39868285563E+03  0.41992814671E+03  0.12500587552E+03 0.  0.
         25    2    1    2    0    0 -0.20295722584E+02  0.36786461574E+02 -0.28753211694E+03  0.31633093337E+03  0.12500152409E+03 0.  0.
          5    1    3    3  502    0 -0.12669048583E+02 -0.38685494849E+02 -0.37898403168E+03  0.38119294139E+03  0.47000000000E+01 0. -1.
         -5    1    3    3    0  502  0.32964771167E+02  0.18990332751E+01 -0.19698823955E+02  0.38735205314E+02  0.47000000000E+01 0. -1.
          5    1    4    4  503    0 -0.50398963993E+02  0.13412080206E+02 -0.26833872040E+03  0.27340025298E+03  0.47000000000E+01 0. -1.
         -5    1    4    4    0  503  0.30103241408E+02  0.23374381368E+02 -0.19193396545E+02  0.42930680388E+02  0.47000000000E+01 0. -1.
<mgrwt>
<rscale>  0 0.13187629E+03</rscale>
<asrwt>0</asrwt>
<pdfrwt beam="1">  1        5 0.38495473E-02 0.13187733E+03</pdfrwt>
<pdfrwt beam="2">  1       -5 0.10942107E+00 0.13187733E+03</pdfrwt>
<totfact> 0.18227934E+02</totfact>
</mgrwt>
</event>
<event>
 8    1  0.3763376E-007  0.1794646E+03  0.7546771E-02  0.1168323E+00
          5   -1    0    0  501    0  0.00000000000E+00  0.00000000000E+00  0.24386962686E+03  0.24391491324E+03  0.47000000000E+01 0. -1.
         -5   -1    0    0    0  501 -0.00000000000E+00 -0.00000000000E+00 -0.14666834755E+03  0.14674363418E+03  0.47000000000E+01 0. -1.
         25    2    1    2    0    0  0.11932737877E+03  0.48390323765E+02 -0.13211751215E+02  0.17994886995E+03  0.12500559454E+03 0.  0.
         25    2    1    2    0    0 -0.11932737877E+03 -0.48390323765E+02  0.11041303052E+03  0.21070967748E+03  0.12500753623E+03 0.  0.
          5    1    4    4  502    0  0.69183196739E+01 -0.15834970158E+02  0.72749745682E+02  0.74921458367E+02  0.47000000000E+01 0.  1.
         -5    1    4    4    0  502 -0.12624569845E+03 -0.32555353608E+02  0.37663284840E+02  0.13578821911E+03  0.47000000000E+01 0.  1.
          5    1    3    3  503    0 -0.49430654553E+00  0.58439215891E+02  0.19557086987E+01  0.58662603841E+02  0.47000000000E+01 0.  1.
         -5    1    3    3    0  503  0.11982168532E+03 -0.10048892125E+02 -0.15167459914E+02  0.12128626611E+03  0.47000000000E+01 0.  1.
<mgrwt>
<rscale>  0 0.17946423E+03</rscale>
<asrwt>0</asrwt>
<pdfrwt beam="1">  1        5 0.37527679E-01 0.17946457E+03</pdfrwt>
<pdfrwt beam="2">  1       -5 0.22573636E-01 0.17946457E+03</pdfrwt>
<totfact> 0.99420773E+01</totfact>
</mgrwt>
</event>
<event>
 8    1  0.3763376E-007  0.1435269E+03  0.7546771E-02  0.1208661E+00
          5   -1    0    0  501    0  0.00000000000E+00  0.00000000000E+00  0.36877749533E+03  0.36880744442E+03  0.47000000000E+01 0. -1.
         -5   -1    0    0    0  501 -0.00000000000E+00 -0.00000000000E+00 -0.56531083694E+02  0.56726126464E+02  0.47000000000E+01 0. -1.
         25    2    1    2    0    0  0.50718401595E+02  0.49021602536E+02  0.13081917891E+03  0.19419997513E+03  0.12499799596E+03 0.  0.
         25    2    1    2    0    0 -0.50718401595E+02 -0.49021602536E+02  0.18142723272E+03  0.23133359576E+03  0.12499567183E+03 0.  0.
          5    1    3    3  502    0 -0.28497391652E+02 -0.22143311297E+02  0.26187137096E+02  0.44836187566E+02  0.47000000000E+01 0. -1.
         -5    1    3    3    0  502  0.79215793247E+02  0.71164913833E+02  0.10463204181E+03  0.14936378756E+03  0.47000000000E+01 0. -1.
          5    1    4    4  503    0 -0.83256671418E+02 -0.48251064231E+02  0.17196575925E+03  0.19711456286E+03  0.47000000000E+01 0.  1.
         -5    1    4    4    0  503  0.32538269824E+02 -0.77053830469E+00  0.94614734701E+01  0.34219032900E+02  0.47000000000E+01 0.  1.
<mgrwt>
<rscale>  0 0.14352640E+03</rscale>
<asrwt>0</asrwt>
<pdfrwt beam="1">  1        5 0.56752305E-01 0.14352691E+03</pdfrwt>
<pdfrwt beam="2">  1       -5 0.87143970E-02 0.14352691E+03</pdfrwt>
<totfact> 0.21733737E+02</totfact>
</mgrwt>
</event>
<event>
 8    1  0.3763376E-007  0.1430822E+03  0.7546771E-02  0.1209244E+00
          5   -1    0    0  501    0  0.00000000000E+00  0.00000000000E+00  0.41479065633E+03  0.41481728336E+03  0.47000000000E+01 0.  1.
         -5   -1    0    0    0  501 -0.00000000000E+00 -0.00000000000E+00 -0.49681124000E+02  0.49902946626E+02  0.47000000000E+01 0.  1.
         25    2    1    2    0    0  0.29895279896E+02  0.62869051438E+02  0.16006524493E+03  0.21469374606E+03  0.12500510619E+03 0.  0.
         25    2    1    2    0    0 -0.29895279896E+02 -0.62869051438E+02  0.20504428739E+03  0.25002648392E+03  0.12499534984E+03 0.  0.
          5    1    4    4  502    0  0.47205584991E+02 -0.16603879375E+02  0.51040705516E+02  0.71633090707E+02  0.47000000000E+01 0. -1.
         -5    1    4    4    0  502 -0.77100864887E+02 -0.46265172063E+02  0.15400358188E+03  0.17839339322E+03  0.47000000000E+01 0. -1.
          5    1    3    3  503    0 -0.33566726000E+02  0.58174647250E+02  0.12476263786E+03  0.14177030889E+03  0.47000000000E+01 0. -1.
         -5    1    3    3    0  503  0.63462005896E+02  0.46944041883E+01  0.35302607071E+02  0.72923437173E+02  0.47000000000E+01 0. -1.
<mgrwt>
<rscale>  0 0.14308009E+03</rscale>
<asrwt>0</asrwt>
<pdfrwt beam="1">  1        5 0.63833057E-01 0.14308222E+03</pdfrwt>
<pdfrwt beam="2">  1       -5 0.76623615E-02 0.14308222E+03</pdfrwt>
<totfact> 0.20931737E+02</totfact>
</mgrwt>
</event>
<event>
 8    1  0.3763376E-007  0.1424927E+03  0.7546771E-02  0.1210016E+00
          5   -1    0    0  501    0  0.00000000000E+00  0.00000000000E+00  0.15309084986E+03  0.15316297957E+03  0.47000000000E+01 0.  1.
         -5   -1    0    0    0  501 -0.00000000000E+00 -0.00000000000E+00 -0.14039817569E+03  0.14047682277E+03  0.47000000000E+01 0.  1.
         25    2    1    2    0    0  0.68340998546E+02  0.29331523699E+01 -0.28510887584E+02  0.14531700476E+03  0.12500026278E+03 0.  0.
         25    2    1    2    0    0 -0.68340998546E+02 -0.29331523699E+01  0.41203561755E+02  0.14832279759E+03  0.12499129297E+03 0.  0.
          5    1    3    3  502    0  0.94680716207E+02  0.52383071324E+01  0.13050172144E+02  0.95834622533E+02  0.47000000000E+01 0. -1.
         -5    1    3    3    0  502 -0.26339717661E+02 -0.23051547626E+01 -0.41561059729E+02  0.49482382225E+02  0.47000000000E+01 0. -1.
          5    1    4    4  503    0 -0.45501949490E+02  0.20152847744E+01  0.86084530757E+02  0.97504488183E+02  0.47000000000E+01 0. -1.
         -5    1    4    4    0  503 -0.22839049056E+02 -0.49484371443E+01 -0.44880969002E+02  0.50818309403E+02  0.47000000000E+01 0. -1.
<mgrwt>
<rscale>  0 0.14249070E+03</rscale>
<asrwt>0</asrwt>
<pdfrwt beam="1">  1        5 0.23564037E-01 0.14249267E+03</pdfrwt>
<pdfrwt beam="2">  1       -5 0.21611317E-01 0.14249267E+03</pdfrwt>
<totfact> 0.25078916E+02</totfact>
</mgrwt>
</event>
<event>
 8    1  0.3763376E-007  0.1267857E+03  0.7546771E-02  0.1232306E+00
         -5   -1    0    0    0  501 -0.00000000000E+00  0.00000000000E+00  0.15975087537E+03  0.15981999932E+03  0.47000000000E+01 0. -1.
          5   -1    0    0  501    0  0.00000000000E+00 -0.00000000000E+00 -0.12845835449E+03  0.12854430691E+03  0.47000000000E+01 0. -1.
         25    2    1    2    0    0  0.20227211843E+02 -0.63687808743E+01  0.82897340425E+02  0.15147868657E+03  0.12499648782E+03 0.  0.
         25    2    1    2    0    0 -0.20227211843E+02  0.63687808743E+01 -0.51604819546E+02  0.13688561965E+03  0.12499965600E+03 0.  0.
          5    1    3    3  502    0 -0.12960995161E+02  0.54428400969E+02  0.47531339875E+02  0.73564641628E+02  0.47000000000E+01 0. -1.
         -5    1    3    3    0  502  0.33188207004E+02 -0.60797181843E+02  0.35366000550E+02  0.77914044941E+02  0.47000000000E+01 0. -1.
          5    1    4    4  503    0 -0.24453360396E+00 -0.44439984045E+02 -0.66479614569E+02  0.80103689877E+02  0.47000000000E+01 0.  1.
         -5    1    4    4    0  503 -0.19982678239E+02  0.50808764919E+02  0.14874795024E+02  0.56781929777E+02  0.47000000000E+01 0.  1.
<mgrwt>
<rscale>  0 0.12678493E+03</rscale>
<asrwt>0</asrwt>
<pdfrwt beam="2">  1        5 0.19774753E-01 0.12678571E+03</pdfrwt>
<pdfrwt beam="1">  1       -5 0.24588986E-01 0.12678571E+03</pdfrwt>
<totfact> 0.26219731E+02</totfact>
</mgrwt>
</event>
<event>
 8    1  0.3763376E-007  0.1252645E+03  0.7546771E-02  0.1234664E+00
          5   -1    0    0  501    0  0.00000000000E+00  0.00000000000E+00  0.69706190292E+02  0.69864461388E+02  0.47000000000E+01 0.  1.
         -5   -1    0    0    0  501 -0.00000000000E+00 -0.00000000000E+00 -0.45005617105E+03  0.45008071177E+03  0.47000000000E+01 0.  1.
         25    2    1    2    0    0  0.50593677347E+01 -0.63570953658E+01 -0.37413269608E+03  0.39454589407E+03  0.12500071355E+03 0.  0.
         25    2    1    2    0    0 -0.50593677347E+01  0.63570953658E+01 -0.62172846798E+01  0.12539927908E+03  0.12498125740E+03 0.  0.
          5    1    4    4  502    0 -0.26118017465E+02 -0.11410354232E+02  0.52750854608E+02  0.60142245401E+02  0.47000000000E+01 0. -1.
         -5    1    4    4    0  502  0.21058649731E+02  0.17767449597E+02 -0.58968139288E+02  0.65257033680E+02  0.47000000000E+01 0. -1.
          5    1    3    3  503    0  0.89716453021E+01 -0.37863885290E+02 -0.31152394247E+02  0.50067213783E+02  0.47000000000E+01 0.  1.
         -5    1    3    3    0  503 -0.39122775674E+01  0.31506789924E+02 -0.34298030184E+03  0.34447868029E+03  0.47000000000E+01 0.  1.
<mgrwt>
<rscale>  0 0.12525962E+03</rscale>
<asrwt>0</asrwt>
<pdfrwt beam="1">  1        5 0.10738092E-01 0.12526447E+03</pdfrwt>
<pdfrwt beam="2">  1       -5 0.69253471E-01 0.12526447E+03</pdfrwt>
<totfact> 0.93071971E+01</totfact>
</mgrwt>
</event>
<event>
 8    1  0.3763376E-007  0.1377165E+03  0.7546771E-02  0.1216438E+00
          5   -1    0    0  501    0  0.00000000000E+00  0.00000000000E+00  0.86302878804E+03  0.86304158589E+03  0.47000000000E+01 0.  1.
         -5   -1    0    0    0  501 -0.00000000000E+00 -0.00000000000E+00 -0.29512910968E+02  0.29884810754E+02  0.47000000000E+01 0.  1.
         25    2    1    2    0    0 -0.52663418076E+02  0.23797100853E+02  0.18891651433E+03  0.23377983952E+03  0.12499530539E+03 0.  0.
         25    2    1    2    0    0  0.52663418076E+02 -0.23797100853E+02  0.64459936274E+03  0.65914655712E+03  0.12500443075E+03 0.  0.
          5    1    4    4  502    0  0.38409317310E+02  0.29004041969E+02  0.52867798715E+03  0.53088512336E+03  0.47000000000E+01 0.  1.
         -5    1    4    4    0  502  0.14254100765E+02 -0.52801142822E+02  0.11592137559E+03  0.12826143377E+03  0.47000000000E+01 0.  1.
          5    1    3    3  503    0  0.24013257368E+02 -0.28402532783E+02  0.92968091192E+02  0.10024218861E+03  0.47000000000E+01 0.  1.
         -5    1    3    3    0  503 -0.76676675444E+02  0.52199633636E+02  0.95948423135E+02  0.13353765091E+03  0.47000000000E+01 0.  1.
<mgrwt>
<rscale>  0 0.13771447E+03</rscale>
<asrwt>0</asrwt>
<pdfrwt beam="1">  1        5 0.13280324E+00 0.13771654E+03</pdfrwt>
<pdfrwt beam="2">  1       -5 0.45700403E-02 0.13771654E+03</pdfrwt>
<totfact> 0.85128368E+01</totfact>
</mgrwt>
</event>
<event>
 8    1  0.3763376E-007  0.1294946E+03  0.7546771E-02  0.1228231E+00
          5   -1    0    0  501    0  0.00000000000E+00  0.00000000000E+00  0.12711403434E+03  0.12720089514E+03  0.47000000000E+01 0. -1.
         -5   -1    0    0    0  501 -0.00000000000E+00 -0.00000000000E+00 -0.13789744432E+03  0.13797751682E+03  0.47000000000E+01 0. -1.
         25    2    1    2    0    0  0.11279793813E+02 -0.31705141463E+02 -0.33524284297E+02  0.13370217682E+03  0.12497977719E+03 0.  0.
         25    2    1    2    0    0 -0.11279793813E+02  0.31705141463E+02  0.22740874316E+02  0.13147623514E+03  0.12504560488E+03 0.  0.
          5    1    3    3  502    0 -0.12836697443E+02  0.42329344465E+02 -0.33518902658E+02  0.55697046954E+02  0.47000000000E+01 0.  1.
         -5    1    3    3    0  502  0.24116491256E+02 -0.74034485928E+02 -0.53816386580E-02  0.78005129870E+02  0.47000000000E+01 0.  1.
          5    1    4    4  503    0  0.56300228354E+02  0.67825158469E+01  0.48389906625E+01  0.57107127966E+02  0.47000000000E+01 0. -1.
         -5    1    4    4    0  503 -0.67580022167E+02  0.24922625616E+02  0.17901883654E+02  0.74369107175E+02  0.47000000000E+01 0. -1.
<mgrwt>
<rscale>  0 0.12947871E+03</rscale>
<asrwt>0</asrwt>
<pdfrwt beam="1">  1        5 0.19568846E-01 0.12949461E+03</pdfrwt>
<pdfrwt beam="2">  1       -5 0.21227832E-01 0.12949461E+03</pdfrwt>
<totfact> 0.35585472E+02</totfact>
</mgrwt>
</event>
<event>
 8    1  0.3763376E-007  0.1321208E+03  0.7546771E-02  0.1224345E+00
          5   -1    0    0  501    0  0.00000000000E+00  0.00000000000E+00  0.58630861092E+02  0.58818941442E+02  0.47000000000E+01 0. -1.
         -5   -1    0    0    0  501 -0.00000000000E+00 -0.00000000000E+00 -0.29793175967E+03  0.29796882961E+03  0.47000000000E+01 0. -1.
         25    2    1    2    0    0 -0.30157367711E+02  0.30348474030E+02 -0.10980975042E+03  0.17179085512E+03  0.12499367949E+03 0.  0.
         25    2    1    2    0    0  0.30157367711E+02 -0.30348474030E+02 -0.12949114816E+03  0.18499691593E+03  0.12500161899E+03 0.  0.
          5    1    4    4  502    0 -0.82978371224E+01 -0.69593507974E+02 -0.42810737689E+02  0.82261532411E+02  0.47000000000E+01 0.  1.
         -5    1    4    4    0  502  0.38455204834E+02  0.39245033944E+02 -0.86680410467E+02  0.10273538352E+03  0.47000000000E+01 0.  1.
          5    1    3    3  503    0 -0.48536002928E+02  0.14201183602E+02  0.79655575715E+01  0.51409700479E+02  0.47000000000E+01 0.  1.
         -5    1    3    3    0  503  0.18378635217E+02  0.16147290428E+02 -0.11777530799E+03  0.12038115464E+03  0.47000000000E+01 0.  1.
<mgrwt>
<rscale>  0 0.13211891E+03</rscale>
<asrwt>0</asrwt>
<pdfrwt beam="1">  1        5 0.90374519E-02 0.13212078E+03</pdfrwt>
<pdfrwt beam="2">  1       -5 0.45852973E-01 0.13212078E+03</pdfrwt>
<totfact> 0.31232138E+02</totfact>
</mgrwt>
</event>
<event>
 8    1  0.3763376E-007  0.1491360E+03  0.7546771E-02  0.1201539E+00
          5   -1    0    0  501    0  0.00000000000E+00  0.00000000000E+00  0.17231857581E+02  0.17861324578E+02  0.47000000000E+01 0. -1.
         -5   -1    0    0    0  501 -0.00000000000E+00 -0.00000000000E+00 -0.13016252271E+04  0.13016337126E+04  0.47000000000E+01 0. -1.
         25    2    1    2    0    0 -0.79421165833E+02  0.17576439716E+02 -0.74987519243E+03  0.76456153781E+03  0.12499955228E+03 0.  0.
         25    2    1    2    0    0  0.79421165833E+02 -0.17576439716E+02 -0.53451817708E+03  0.55493349937E+03  0.12499941712E+03 0.  0.
          5    1    3    3  502    0 -0.82707737929E+02 -0.39484718298E+02 -0.46716222764E+03  0.47609058993E+03  0.47000000000E+01 0.  1.
         -5    1    3    3    0  502  0.32865720962E+01  0.57061158013E+02 -0.28271296479E+03  0.28847094788E+03  0.47000000000E+01 0.  1.
          5    1    4    4  503    0  0.78628920094E+02 -0.39893623979E+01 -0.14428201125E+03  0.16443178177E+03  0.47000000000E+01 0.  1.
         -5    1    4    4    0  503  0.79224573868E+00 -0.13587077318E+02 -0.39023616583E+03  0.39050171759E+03  0.47000000000E+01 0.  1.
<mgrwt>
<rscale>  0 0.14913595E+03</rscale>
<asrwt>0</asrwt>
<pdfrwt beam="1">  1        5 0.27001293E-02 0.14913598E+03</pdfrwt>
<pdfrwt beam="2">  1       -5 0.20029903E+00 0.14913598E+03</pdfrwt>
<totfact> 0.63984679E+01</totfact>
</mgrwt>
</event>
<event>
 8    1  0.3763376E-007  0.1582456E+03  0.7546771E-02  0.1190696E+00
          5   -1    0    0  501    0  0.00000000000E+00  0.00000000000E+00  0.67183787231E+02  0.67347986360E+02  0.47000000000E+01 0.  1.
         -5   -1    0    0    0  501 -0.00000000000E+00 -0.00000000000E+00 -0.40813893684E+03  0.40816599781E+03  0.47000000000E+01 0.  1.
         25    2    1    2    0    0 -0.64246023667E+02 -0.72724056336E+02 -0.24113662901E+03  0.28841663959E+03  0.12498377580E+03 0.  0.
         25    2    1    2    0    0  0.64246023667E+02  0.72724056336E+02 -0.99818520601E+02  0.18709734458E+03  0.12500135746E+03 0.  0.
          5    1    3    3  502    0 -0.84594334152E+02 -0.80357909288E+02 -0.23909613317E+03  0.26608766573E+03  0.47000000000E+01 0. -1.
         -5    1    3    3    0  502  0.20348310484E+02  0.76338529514E+01 -0.20404958430E+01  0.22328973862E+02  0.47000000000E+01 0. -1.
          5    1    4    4  503    0  0.48592858487E+02 -0.12099915512E+02  0.58240228410E+01  0.50632826243E+02  0.47000000000E+01 0.  1.
         -5    1    4    4    0  503  0.15653165180E+02  0.84823971848E+02 -0.10564254344E+03  0.13646451834E+03  0.47000000000E+01 0.  1.
<mgrwt>
<rscale>  0 0.15824216E+03</rscale>
<asrwt>0</asrwt>
<pdfrwt beam="1">  1        5 0.10350680E-01 0.15824563E+03</pdfrwt>
<pdfrwt beam="2">  1       -5 0.62805317E-01 0.15824563E+03</pdfrwt>
<totfact> 0.13317347E+02</totfact>
</mgrwt>
</event>
<event>
 8    1  0.3763376E-007  0.1722233E+03  0.7546771E-02  0.1175550E+00
         -5   -1    0    0    0  501 -0.00000000000E+00  0.00000000000E+00  0.19514720894E+03  0.19520379903E+03  0.47000000000E+01 0.  1.
          5   -1    0    0  501    0  0.00000000000E+00 -0.00000000000E+00 -0.18615789147E+03  0.18621721338E+03  0.47000000000E+01 0.  1.
         25    2    1    2    0    0  0.30540099900E+02 -0.11445922804E+03  0.86311535066E+02  0.19263646823E+03  0.12500206087E+03 0.  0.
         25    2    1    2    0    0 -0.30540099900E+02  0.11445922804E+03 -0.77322217600E+02  0.18878454418E+03  0.12500906448E+03 0.  0.
          5    1    4    4  502    0  0.66550913357E+01  0.80610700754E+02  0.16077978561E+02  0.82601251270E+02  0.47000000000E+01 0.  1.
         -5    1    4    4    0  502 -0.37195191236E+02  0.33848527281E+02 -0.93400196161E+02  0.10618329291E+03  0.47000000000E+01 0.  1.
          5    1    3    3  503    0  0.53050058495E+02 -0.38703662955E+02  0.92150900209E+02  0.11325264077E+03  0.47000000000E+01 0.  1.
         -5    1    3    3    0  503 -0.22509958595E+02 -0.75755565080E+02 -0.58393651428E+01  0.79383827458E+02  0.47000000000E+01 0.  1.
<mgrwt>
<rscale>  0 0.17222207E+03</rscale>
<asrwt>0</asrwt>
<pdfrwt beam="2">  1        5 0.28648592E-01 0.17222334E+03</pdfrwt>
<pdfrwt beam="1">  1       -5 0.30031564E-01 0.17222334E+03</pdfrwt>
<totfact> 0.96907608E+01</totfact>
</mgrwt>
</event>
<event>
 8    1  0.3763376E-007  0.1294186E+03  0.7546771E-02  0.1228327E+00
         -5   -1    0    0    0  501 -0.00000000000E+00  0.00000000000E+00  0.34285832375E+02  0.34606477741E+02  0.47000000000E+01 0. -1.
          5   -1    0    0  501    0  0.00000000000E+00 -0.00000000000E+00 -0.50044187575E+03  0.50046394575E+03  0.47000000000E+01 0. -1.
         25    2    1    2    0    0  0.31836711210E+02  0.10367139304E+02 -0.18739857658E+03  0.22773525210E+03  0.12499625909E+03 0.  0.
         25    2    1    2    0    0 -0.31836711210E+02 -0.10367139304E+02 -0.27875746680E+03  0.30733517140E+03  0.12501251348E+03 0.  0.
          5    1    4    4  502    0 -0.19072980929E+02 -0.37965583571E+02 -0.20780393134E+02  0.47529768316E+02  0.47000000000E+01 0. -1.
         -5    1    4    4    0  502 -0.12763730281E+02  0.27598444266E+02 -0.25797707366E+03  0.25980540308E+03  0.47000000000E+01 0. -1.
          5    1    3    3  503    0 -0.46890695217E+02 -0.19013141606E+01 -0.49277345636E+02  0.68210696276E+02  0.47000000000E+01 0.  1.
         -5    1    3    3    0  503  0.78727406428E+02  0.12268453465E+02 -0.13812123094E+03  0.15952455582E+03  0.47000000000E+01 0.  1.
<mgrwt>
<rscale>  0 0.12941471E+03</rscale>
<asrwt>0</asrwt>
<pdfrwt beam="2">  1        5 0.77017415E-01 0.12941863E+03</pdfrwt>
<pdfrwt beam="1">  1       -5 0.53011065E-02 0.12941863E+03</pdfrwt>
<totfact> 0.24671758E+02</totfact>
</mgrwt>
</event>
<event>
 8    1  0.3763376E-007  0.1564585E+03  0.7546771E-02  0.1192761E+00
          5   -1    0    0  501    0  0.00000000000E+00  0.00000000000E+00  0.45893108337E+02  0.46133148525E+02  0.47000000000E+01 0. -1.
         -5   -1    0    0    0  501 -0.00000000000E+00 -0.00000000000E+00 -0.55510936602E+03  0.55512926264E+03  0.47000000000E+01 0. -1.
         25    2    1    2    0    0  0.92361431237E+02 -0.17977186664E+02 -0.31638165813E+03  0.35295411406E+03  0.12500175923E+03 0.  0.
         25    2    1    2    0    0 -0.92361431237E+02  0.17977186664E+02 -0.19283459955E+03  0.24830829710E+03  0.12497205450E+03 0.  0.
          5    1    4    4  502    0 -0.75892586987E+02  0.17790778748E+02 -0.28570709992E+02  0.83153905726E+02  0.47000000000E+01 0.  1.
         -5    1    4    4    0  502 -0.16468844250E+02  0.18640791633E+00 -0.16426388956E+03  0.16515439138E+03  0.47000000000E+01 0.  1.
          5    1    3    3  503    0  0.25411576657E+02  0.50983755505E+02 -0.15315213909E+03  0.16347097376E+03  0.47000000000E+01 0.  1.
         -5    1    3    3    0  503  0.66949854580E+02 -0.68960942169E+02 -0.16322951905E+03  0.18948314031E+03  0.47000000000E+01 0.  1.
<mgrwt>
<rscale>  0 0.15645254E+03</rscale>
<asrwt>0</asrwt>
<pdfrwt beam="1">  1        5 0.70804737E-02 0.15645847E+03</pdfrwt>
<pdfrwt beam="2">  1       -5 0.85421431E-01 0.15645847E+03</pdfrwt>
<totfact> 0.12684167E+02</totfact>
</mgrwt>
</event>
<event>
 8    1  0.3763376E-007  0.1256441E+03  0.7546771E-02  0.1234067E+00
         -5   -1    0    0    0  501 -0.00000000000E+00  0.00000000000E+00  0.58051961886E+02  0.58241911703E+02  0.47000000000E+01 0.  1.
          5   -1    0    0  501    0  0.00000000000E+00 -0.00000000000E+00 -0.36372562266E+03  0.36375598769E+03  0.47000000000E+01 0.  1.
         25    2    1    2    0    0 -0.12470488197E+02 -0.27204008998E+01 -0.46493396078E+02  0.13396863434E+03  0.12499218156E+03 0.  0.
         25    2    1    2    0    0  0.12470488197E+02  0.27204008998E+01 -0.25918026469E+03  0.28802926505E+03  0.12499413691E+03 0.  0.
          5    1    4    4  502    0  0.20066023701E+02 -0.58293106609E+02 -0.15629348846E+03  0.16807877951E+03  0.47000000000E+01 0. -1.
         -5    1    4    4    0  502 -0.75955355031E+01  0.61013507509E+02 -0.10288677623E+03  0.11995048554E+03  0.47000000000E+01 0. -1.
          5    1    3    3  503    0  0.34003596502E+02  0.45390755620E+02 -0.10524703052E+02  0.57874213991E+02  0.47000000000E+01 0.  1.
         -5    1    3    3    0  503 -0.46474084699E+02 -0.48111156520E+02 -0.35968693026E+02  0.76094420349E+02  0.47000000000E+01 0.  1.
<mgrwt>
<rscale>  0 0.12564365E+03</rscale>
<asrwt>0</asrwt>
<pdfrwt beam="2">  1        5 0.55974734E-01 0.12564413E+03</pdfrwt>
<pdfrwt beam="1">  1       -5 0.89480186E-02 0.12564413E+03</pdfrwt>
<totfact> 0.20436069E+02</totfact>
</mgrwt>
</event>
<event>
 8    1  0.3763376E-007  0.1331954E+03  0.7546771E-02  0.1222791E+00
         -5   -1    0    0    0  501 -0.00000000000E+00  0.00000000000E+00  0.20725649936E+02  0.21251883805E+02  0.47000000000E+01 0.  1.
          5   -1    0    0  501    0  0.00000000000E+00 -0.00000000000E+00 -0.92410695027E+03  0.92411890227E+03  0.47000000000E+01 0.  1.
         25    2    1    2    0    0  0.43620485737E+02  0.14547225606E+02 -0.31318004208E+03  0.34032655070E+03  0.12500421515E+03 0.  0.
         25    2    1    2    0    0 -0.43620485737E+02 -0.14547225606E+02 -0.59020125825E+03  0.60504423537E+03  0.12500653172E+03 0.  0.
          5    1    3    3  502    0  0.59324426548E+02  0.44142725381E+02 -0.99893865469E+02  0.12437380008E+03  0.47000000000E+01 0.  1.
         -5    1    3    3    0  502 -0.15703940811E+02 -0.29595499775E+02 -0.21328617661E+03  0.21595275061E+03  0.47000000000E+01 0.  1.
          5    1    4    4  503    0 -0.65120371521E+02 -0.29926173478E+02 -0.17763264536E+03  0.19160293667E+03  0.47000000000E+01 0.  1.
         -5    1    4    4    0  503  0.21499885783E+02  0.15378947872E+02 -0.41256861289E+03  0.41344129870E+03  0.47000000000E+01 0.  1.
<mgrwt>
<rscale>  0 0.13319481E+03</rscale>
<asrwt>0</asrwt>
<pdfrwt beam="2">  1        5 0.14221167E+00 0.13319535E+03</pdfrwt>
<pdfrwt beam="1">  1       -5 0.32299611E-02 0.13319535E+03</pdfrwt>
<totfact> 0.12398315E+02</totfact>
</mgrwt>
</event>
<event>
 8    1  0.3763376E-007  0.1424057E+03  0.7546771E-02  0.1210133E+00
         -5   -1    0    0    0  501 -0.00000000000E+00  0.00000000000E+00  0.16979884870E+03  0.16986388380E+03  0.47000000000E+01 0. -1.
          5   -1    0    0  501    0  0.00000000000E+00 -0.00000000000E+00 -0.12030373068E+03  0.12039550497E+03  0.47000000000E+01 0. -1.
         25    2    1    2    0    0 -0.29416491726E+02  0.61556376394E+02  0.38091376192E+02  0.14741212650E+03  0.12499945855E+03 0.  0.
         25    2    1    2    0    0  0.29416491726E+02 -0.61556376394E+02  0.11403741820E+02  0.14284726226E+03  0.12498310905E+03 0.  0.
          5    1    4    4  502    0 -0.16866783532E+02 -0.85528551495E+02  0.20627413519E+02  0.89706196531E+02  0.47000000000E+01 0.  1.
         -5    1    4    4    0  502  0.46283275258E+02  0.23972175100E+02 -0.92236716990E+01  0.53141065733E+02  0.47000000000E+01 0.  1.
          5    1    3    3  503    0 -0.21561578142E+02 -0.14298584517E+02 -0.33581511715E+02  0.42651601380E+02  0.47000000000E+01 0.  1.
         -5    1    3    3    0  503 -0.78549135834E+01  0.75854960912E+02  0.71672887907E+02  0.10476052512E+03  0.47000000000E+01 0.  1.
<mgrwt>
<rscale>  0 0.14240211E+03</rscale>
<asrwt>0</asrwt>
<pdfrwt beam="2">  1        5 0.18520329E-01 0.14240570E+03</pdfrwt>
<pdfrwt beam="1">  1       -5 0.26134962E-01 0.14240570E+03</pdfrwt>
<totfact> 0.27432867E+02</totfact>
</mgrwt>
</event>
<event>
 8    1  0.3763376E-007  0.2158940E+03  0.7546771E-02  0.1136982E+00
          5   -1    0    0  501    0  0.00000000000E+00  0.00000000000E+00  0.14795320909E+03  0.14802784225E+03  0.47000000000E+01 0.  1.
         -5   -1    0    0    0  501 -0.00000000000E+00 -0.00000000000E+00 -0.31522392094E+03  0.31525895757E+03  0.47000000000E+01 0.  1.
         25    2    1    2    0    0  0.17545826278E+03 -0.14095840051E+02 -0.91485921718E+02  0.23447782975E+03  0.12500353630E+03 0.  0.
         25    2    1    2    0    0 -0.17545826278E+03  0.14095840051E+02 -0.75784790124E+02  0.22880897007E+03  0.12500366270E+03 0.  0.
          5    1    4    4  502    0 -0.16305960048E+03 -0.37261100579E+01 -0.14723664061E+02  0.16383282177E+03  0.47000000000E+01 0. -1.
         -5    1    4    4    0  502 -0.12398662295E+02  0.17821950109E+02 -0.61061126062E+02  0.64976148304E+02  0.47000000000E+01 0. -1.
          5    1    3    3  503    0  0.13929126821E+02 -0.72930355497E+00  0.28961935851E+02  0.32487477371E+02  0.47000000000E+01 0. -1.
         -5    1    3    3    0  503  0.16152913596E+03 -0.13366536496E+02 -0.12044785757E+03  0.20199035238E+03  0.47000000000E+01 0. -1.
<mgrwt>
<rscale>  0 0.21589396E+03</rscale>
<asrwt>0</asrwt>
<pdfrwt beam="1">  1        5 0.22770468E-01 0.21589398E+03</pdfrwt>
<pdfrwt beam="2">  1       -5 0.48504424E-01 0.21589398E+03</pdfrwt>
<totfact> 0.60315627E+01</totfact>
</mgrwt>
</event>
<event>
 8    1  0.3763376E-007  0.1270357E+03  0.7546771E-02  0.1231926E+00
          5   -1    0    0  501    0  0.00000000000E+00  0.00000000000E+00  0.70284835668E+02  0.70441806656E+02  0.47000000000E+01 0. -1.
         -5   -1    0    0    0  501 -0.00000000000E+00 -0.00000000000E+00 -0.23348406195E+03  0.23353136232E+03  0.47000000000E+01 0. -1.
         25    2    1    2    0    0 -0.77317159582E+01 -0.21221897918E+02 -0.10229096292E+03  0.16309061857E+03  0.12499984155E+03 0.  0.
         25    2    1    2    0    0  0.77317159582E+01  0.21221897918E+02 -0.60908263360E+02  0.14088255040E+03  0.12501171177E+03 0.  0.
          5    1    4    4  502    0  0.18542486064E+02 -0.26359465483E+02 -0.81459449271E+02  0.87728997974E+02  0.47000000000E+01 0. -1.
         -5    1    4    4    0  502 -0.10810770106E+02  0.47581363401E+02  0.20551185911E+02  0.53153552428E+02  0.47000000000E+01 0. -1.
          5    1    3    3  503    0 -0.22611282824E+02 -0.11193414750E+01 -0.12612341527E+03  0.12822530529E+03  0.47000000000E+01 0. -1.
         -5    1    3    3    0  503  0.14879566866E+02 -0.20102556443E+02  0.23832452346E+02  0.34865313285E+02  0.47000000000E+01 0. -1.
<mgrwt>
<rscale>  0 0.12703281E+03</rscale>
<asrwt>0</asrwt>
<pdfrwt beam="1">  1        5 0.10828765E-01 0.12703573E+03</pdfrwt>
<pdfrwt beam="2">  1       -5 0.35936338E-01 0.12703573E+03</pdfrwt>
<totfact> 0.37007668E+02</totfact>
</mgrwt>
</event>
<event>
 8    1  0.3763376E-007  0.1398638E+03  0.7546771E-02  0.1213513E+00
          5   -1    0    0  501    0  0.00000000000E+00  0.00000000000E+00  0.47553937112E+02  0.47785635235E+02  0.47000000000E+01 0.  1.
         -5   -1    0    0    0  501 -0.00000000000E+00 -0.00000000000E+00 -0.45112156727E+03  0.45114605003E+03  0.47000000000E+01 0.  1.
         25    2    1    2    0    0 -0.36124937435E+02 -0.51290849403E+02 -0.27697491236E+03  0.31028490622E+03  0.12500343441E+03 0.  0.
         25    2    1    2    0    0  0.36124937435E+02  0.51290849403E+02 -0.12659271780E+03  0.18864677905E+03  0.12500451475E+03 0.  0.
          5    1    4    4  502    0  0.52303126601E+02  0.63472500741E+02 -0.26677979163E+02  0.86592031821E+02  0.47000000000E+01 0. -1.
         -5    1    4    4    0  502 -0.16178189166E+02 -0.12181651339E+02 -0.99914738641E+02  0.10205474723E+03  0.47000000000E+01 0. -1.
          5    1    3    3  503    0 -0.69898987008E+02 -0.69930563483E+02 -0.17346956302E+03  0.19972463891E+03  0.47000000000E+01 0.  1.
         -5    1    3    3    0  503  0.33774049573E+02  0.18639714081E+02 -0.10350534934E+03  0.11056026731E+03  0.47000000000E+01 0.  1.
<mgrwt>
<rscale>  0 0.13986359E+03</rscale>
<asrwt>0</asrwt>
<pdfrwt beam="1">  1        5 0.73356968E-02 0.13986383E+03</pdfrwt>
<pdfrwt beam="2">  1       -5 0.69423021E-01 0.13986383E+03</pdfrwt>
<totfact> 0.18554702E+02</totfact>
</mgrwt>
</event>
<event>
 8    1  0.3763376E-007  0.1329794E+03  0.7546771E-02  0.1223105E+00
          5   -1    0    0  501    0  0.00000000000E+00  0.00000000000E+00  0.68368415341E+03  0.68370030834E+03  0.47000000000E+01 0.  1.
         -5   -1    0    0    0  501 -0.00000000000E+00 -0.00000000000E+00 -0.26005726462E+02  0.26427027998E+02  0.47000000000E+01 0.  1.
         25    2    1    2    0    0  0.44582541261E+02 -0.83498365341E+01  0.28668047221E+03  0.31602092690E+03  0.12500484126E+03 0.  0.
         25    2    1    2    0    0 -0.44582541261E+02  0.83498365341E+01  0.37099795474E+03  0.39410640944E+03  0.12499222689E+03 0.  0.
          5    1    4    4  502    0 -0.65331105845E+02 -0.22907585840E+02  0.10777237049E+03  0.12817911188E+03  0.47000000000E+01 0. -1.
         -5    1    4    4    0  502  0.20748564584E+02  0.31257422374E+02  0.26322558425E+03  0.26592729756E+03  0.47000000000E+01 0. -1.
          5    1    3    3  503    0 -0.42189342322E+01 -0.50675881873E+02  0.20766184317E+03  0.21384895491E+03  0.47000000000E+01 0.  1.
         -5    1    3    3    0  503  0.48801475493E+02  0.42326045339E+02  0.79018629044E+02  0.10217197199E+03  0.47000000000E+01 0.  1.
<mgrwt>
<rscale>  0 0.13297648E+03</rscale>
<asrwt>0</asrwt>
<pdfrwt beam="1">  1        5 0.10521581E+00 0.13297945E+03</pdfrwt>
<pdfrwt beam="2">  1       -5 0.40345320E-02 0.13297945E+03</pdfrwt>
<totfact> 0.18651078E+02</totfact>
</mgrwt>
</event>
<event>
 8    1  0.3763376E-007  0.1257586E+03  0.7546771E-02  0.1233891E+00
         -5   -1    0    0    0  501 -0.00000000000E+00  0.00000000000E+00  0.19835431315E+03  0.19840998852E+03  0.47000000000E+01 0. -1.
          5   -1    0    0  501    0  0.00000000000E+00 -0.00000000000E+00 -0.11535571243E+03  0.11545142004E+03  0.47000000000E+01 0. -1.
         25    2    1    2    0    0 -0.39053893793E+01 -0.13205400636E+02  0.12881294113E+03  0.18001750938E+03  0.12499558075E+03 0.  0.
         25    2    1    2    0    0  0.39053893793E+01  0.13205400636E+02 -0.45814340406E+02  0.13384389918E+03  0.12500240354E+03 0.  0.
          5    1    3    3  502    0  0.23683900529E+01  0.47667057934E+01  0.15056521410E+03  0.15073255937E+03  0.47000000000E+01 0. -1.
         -5    1    3    3    0  502 -0.62737794322E+01 -0.17972106430E+02 -0.21752272969E+02  0.29284950012E+02  0.47000000000E+01 0. -1.
          5    1    4    4  503    0  0.11454265943E+02  0.68376826881E+02 -0.30589473055E+02  0.75923622967E+02  0.47000000000E+01 0. -1.
         -5    1    4    4    0  503 -0.75488765634E+01 -0.55171426245E+02 -0.15224867352E+02  0.57920276218E+02  0.47000000000E+01 0. -1.
<mgrwt>
<rscale>  0 0.12575694E+03</rscale>
<asrwt>0</asrwt>
<pdfrwt beam="2">  1        5 0.17758678E-01 0.12575864E+03</pdfrwt>
<pdfrwt beam="1">  1       -5 0.30527693E-01 0.12575864E+03</pdfrwt>
<totfact> 0.20982470E+02</totfact>
</mgrwt>
</event>
<event>
 8    1  0.3763376E-007  0.1676091E+03  0.7546771E-02  0.1180365E+00
          5   -1    0    0  501    0  0.00000000000E+00  0.00000000000E+00  0.13546733905E+03  0.13554884710E+03  0.47000000000E+01 0. -1.
         -5   -1    0    0    0  501 -0.00000000000E+00 -0.00000000000E+00 -0.20735678544E+03  0.20741004428E+03  0.47000000000E+01 0. -1.
         25    2    1    2    0    0  0.11103079863E+03  0.11794068721E+02 -0.40611367308E+02  0.17245634413E+03  0.12499987670E+03 0.  0.
         25    2    1    2    0    0 -0.11103079863E+03 -0.11794068721E+02 -0.31278079084E+02  0.17050254725E+03  0.12500344829E+03 0.  0.
          5    1    3    3  502    0  0.12494134520E+03  0.26921944161E+02 -0.13610059289E+01  0.12790259244E+03  0.47000000000E+01 0.  1.
         -5    1    3    3    0  502 -0.13910546564E+02 -0.15127875439E+02 -0.39250361379E+02  0.44553751687E+02  0.47000000000E+01 0.  1.
          5    1    4    4  503    0 -0.73107098115E+02 -0.48131291308E+02  0.27182760293E+02  0.91772879735E+02  0.47000000000E+01 0. -1.
         -5    1    4    4    0  503 -0.37923700517E+02  0.36337222586E+02 -0.58460839377E+02  0.78729667513E+02  0.47000000000E+01 0. -1.
<mgrwt>
<rscale>  0 0.16760840E+03</rscale>
<asrwt>0</asrwt>
<pdfrwt beam="1">  1        5 0.20851496E-01 0.16760907E+03</pdfrwt>
<pdfrwt beam="2">  1       -5 0.31911410E-01 0.16760907E+03</pdfrwt>
<totfact> 0.15681836E+02</totfact>
</mgrwt>
</event>
<event>
 8    1  0.3763376E-007  0.1366591E+03  0.7546771E-02  0.1217898E+00
          5   -1    0    0  501    0  0.00000000000E+00  0.00000000000E+00  0.15993882263E+03  0.16000786538E+03  0.47000000000E+01 0.  1.
         -5   -1    0    0    0  501 -0.00000000000E+00 -0.00000000000E+00 -0.14631542998E+03  0.14639089811E+03  0.47000000000E+01 0.  1.
         25    2    1    2    0    0  0.25058785666E+02  0.49209330937E+02 -0.62165520331E+02  0.15013415987E+03  0.12500485211E+03 0.  0.
         25    2    1    2    0    0 -0.25058785666E+02 -0.49209330937E+02  0.75788912982E+02  0.15626460361E+03  0.12500066408E+03 0.  0.
          5    1    3    3  502    0 -0.41259416992E+02 -0.11869450817E+02 -0.54891936957E+01  0.43536704063E+02  0.47000000000E+01 0.  1.
         -5    1    3    3    0  502  0.66318202658E+02  0.61078781754E+02 -0.56676326636E+02  0.10659745581E+03  0.47000000000E+01 0.  1.
          5    1    4    4  503    0 -0.85366823902E+00 -0.49837903703E+02 -0.22527797172E+02  0.54901157004E+02  0.47000000000E+01 0.  1.
         -5    1    4    4    0  503 -0.24205117427E+02  0.62857276601E+00  0.98316710153E+02  0.10136344661E+03  0.47000000000E+01 0.  1.
<mgrwt>
<rscale>  0 0.13665816E+03</rscale>
<asrwt>0</asrwt>
<pdfrwt beam="1">  1        5 0.24617089E-01 0.13665912E+03</pdfrwt>
<pdfrwt beam="2">  1       -5 0.22521182E-01 0.13665912E+03</pdfrwt>
<totfact> 0.21045531E+02</totfact>
</mgrwt>
</event>
<event>
 8    1  0.3763376E-007  0.1354596E+03  0.7546771E-02  0.1219586E+00
          5   -1    0    0  501    0  0.00000000000E+00  0.00000000000E+00  0.20208243853E+03  0.20213708705E+03  0.47000000000E+01 0. -1.
         -5   -1    0    0    0  501 -0.00000000000E+00 -0.00000000000E+00 -0.14298247483E+03  0.14305970120E+03  0.47000000000E+01 0. -1.
         25    2    1    2    0    0 -0.40757431288E+02  0.32461498199E+02 -0.74817975387E+02  0.15471501915E+03  0.12499636250E+03 0.  0.
         25    2    1    2    0    0  0.40757431288E+02 -0.32461498199E+02  0.13391793909E+03  0.19048176910E+03  0.12503748589E+03 0.  0.
          5    1    4    4  502    0  0.19781568273E+02 -0.31449877406E+01 -0.22152870270E+02  0.30233111855E+02  0.47000000000E+01 0.  1.
         -5    1    4    4    0  502  0.20975863015E+02 -0.29316510458E+02  0.15607080936E+03  0.16024865724E+03  0.47000000000E+01 0.  1.
          5    1    3    3  503    0 -0.62263688247E+01  0.47824494170E+02  0.20085695967E+02  0.52454504990E+02  0.47000000000E+01 0.  1.
         -5    1    3    3    0  503 -0.34531062463E+02 -0.15362995971E+02 -0.94903671353E+02  0.10226051416E+03  0.47000000000E+01 0.  1.
<mgrwt>
<rscale>  0 0.13545006E+03</rscale>
<asrwt>0</asrwt>
<pdfrwt beam="1">  1        5 0.31099750E-01 0.13545955E+03</pdfrwt>
<pdfrwt beam="2">  1       -5 0.22007448E-01 0.13545955E+03</pdfrwt>
<totfact> 0.13923760E+02</totfact>
</mgrwt>
</event>
<event>
 8    1  0.3763376E-007  0.1302827E+03  0.7546771E-02  0.1227038E+00
          5   -1    0    0  501    0  0.00000000000E+00  0.00000000000E+00  0.52255503286E+03  0.52257616896E+03  0.47000000000E+01 0.  1.
         -5   -1    0    0    0  501 -0.00000000000E+00 -0.00000000000E+00 -0.35013318411E+02  0.35327361437E+02  0.47000000000E+01 0.  1.
         25    2    1    2    0    0 -0.16241290502E+02 -0.32924734986E+02  0.16634189656E+03  0.21128714829E+03  0.12499925916E+03 0.  0.
         25    2    1    2    0    0  0.16241290502E+02  0.32924734986E+02  0.32119981788E+03  0.34661638211E+03  0.12500310254E+03 0.  0.
          5    1    3    3  502    0  0.39065757407E+01 -0.54957721130E+02  0.17188372762E+03  0.18055945908E+03  0.47000000000E+01 0. -1.
         -5    1    3    3    0  502 -0.20147866243E+02  0.22032986144E+02 -0.55418310516E+01  0.30727689207E+02  0.47000000000E+01 0. -1.
          5    1    4    4  503    0 -0.16377300112E+02 -0.36041429141E+02  0.45391512304E+02  0.60412581163E+02  0.47000000000E+01 0.  1.
         -5    1    4    4    0  503  0.32618590615E+02  0.68966164127E+02  0.27580830558E+03  0.28620380094E+03  0.47000000000E+01 0.  1.
<mgrwt>
<rscale>  0 0.13028182E+03</rscale>
<asrwt>0</asrwt>
<pdfrwt beam="1">  1        5 0.80418862E-01 0.13028274E+03</pdfrwt>
<pdfrwt beam="2">  1       -5 0.54124476E-02 0.13028274E+03</pdfrwt>
<totfact> 0.21625325E+02</totfact>
</mgrwt>
</event>
<event>
 8    1  0.3763376E-007  0.1252065E+03  0.7546771E-02  0.1234748E+00
          5   -1    0    0  501    0  0.00000000000E+00  0.00000000000E+00  0.25983166875E+02  0.26404828362E+02  0.47000000000E+01 0.  1.
         -5   -1    0    0    0  501 -0.00000000000E+00 -0.00000000000E+00 -0.62045557182E+03  0.62047337300E+03  0.47000000000E+01 0.  1.
         25    2    1    2    0    0  0.70928309764E+01 -0.41113723695E+00 -0.35869640274E+03  0.37991941366E+03  0.12500069702E+03 0.  0.
         25    2    1    2    0    0 -0.70928309764E+01  0.41113723695E+00 -0.23577600220E+03  0.26695878770E+03  0.12500477522E+03 0.  0.
          5    1    3    3  502    0  0.10070089540E+02  0.41584757424E+02 -0.31891263474E+03  0.32180437746E+03  0.47000000000E+01 0.  1.
         -5    1    3    3    0  502 -0.29772585635E+01 -0.41995894661E+02 -0.39783767996E+02  0.58115036203E+02  0.47000000000E+01 0.  1.
          5    1    4    4  503    0  0.43913516936E+02 -0.38134171283E+02 -0.14038781390E+03  0.15203105038E+03  0.47000000000E+01 0.  1.
         -5    1    4    4    0  503 -0.51006347913E+02  0.38545308520E+02 -0.95388188304E+02  0.11492773731E+03  0.47000000000E+01 0.  1.
<mgrwt>
<rscale>  0 0.12520550E+03</rscale>
<asrwt>0</asrwt>
<pdfrwt beam="1">  1        5 0.40312156E-02 0.12520651E+03</pdfrwt>
<pdfrwt beam="2">  1       -5 0.95488497E-01 0.12520651E+03</pdfrwt>
<totfact> 0.23153423E+02</totfact>
</mgrwt>
</event>
<event>
 8    1  0.3763376E-007  0.1344759E+03  0.7546771E-02  0.1220962E+00
          5   -1    0    0  501    0  0.00000000000E+00  0.00000000000E+00  0.11483009794E+04  0.11483105980E+04  0.47000000000E+01 0.  1.
         -5   -1    0    0    0  501 -0.00000000000E+00 -0.00000000000E+00 -0.16520204301E+02  0.17175772185E+02  0.47000000000E+01 0.  1.
         25    2    1    2    0    0 -0.66767445606E+00  0.49579477812E+02  0.41639408443E+03  0.43757032804E+03  0.12500075208E+03 0.  0.
         25    2    1    2    0    0  0.66767445606E+00 -0.49579477812E+02  0.71538669071E+03  0.72791604211E+03  0.12500030681E+03 0.  0.
          5    1    4    4  502    0  0.34547591807E+02 -0.11080653536E+02  0.58391219738E+02  0.68905308395E+02  0.47000000000E+01 0. -1.
         -5    1    4    4    0  502 -0.33879917351E+02 -0.38498824276E+02  0.65699547097E+03  0.65901073371E+03  0.47000000000E+01 0. -1.
          5    1    3    3  503    0 -0.24729248775E+02  0.52000455287E+02  0.40719554452E+03  0.41127349121E+03  0.47000000000E+01 0. -1.
         -5    1    3    3    0  503  0.24061574319E+02 -0.24209774745E+01  0.91985399089E+01  0.26296836827E+02  0.47000000000E+01 0. -1.
<mgrwt>
<rscale>  0 0.13447576E+03</rscale>
<asrwt>0</asrwt>
<pdfrwt beam="1">  1        5 0.17671289E+00 0.13447587E+03</pdfrwt>
<pdfrwt beam="2">  1       -5 0.25927375E-02 0.13447587E+03</pdfrwt>
<totfact> 0.96683588E+01</totfact>
</mgrwt>
</event>
<event>
 8    1  0.3763376E-007  0.1280039E+03  0.7546771E-02  0.1230450E+00
         -5   -1    0    0    0  501 -0.00000000000E+00  0.00000000000E+00  0.17590467786E+03  0.17596745635E+03  0.47000000000E+01 0.  1.
          5   -1    0    0  501    0  0.00000000000E+00 -0.00000000000E+00 -0.97674817095E+02  0.97787831015E+02  0.47000000000E+01 0.  1.
         25    2    1    2    0    0  0.24733709915E+02 -0.12164794760E+02  0.69019239876E+02  0.14542576849E+03  0.12500104011E+03 0.  0.
         25    2    1    2    0    0 -0.24733709915E+02  0.12164794760E+02  0.92106208929E+01  0.12832951888E+03  0.12499556488E+03 0.  0.
          5    1    3    3  502    0  0.40044652870E+02  0.84031959078E+01  0.98085830298E+02  0.10638189710E+03  0.47000000000E+01 0.  1.
         -5    1    3    3    0  502 -0.15310942955E+02 -0.20567990668E+02 -0.29066590423E+02  0.39043871390E+02  0.47000000000E+01 0.  1.
          5    1    4    4  503    0 -0.68766910860E+02  0.30695858458E+02 -0.10987202275E+02  0.76249146681E+02  0.47000000000E+01 0.  1.
         -5    1    4    4    0  503  0.44033200946E+02 -0.18531063698E+02  0.20197823168E+02  0.52080372195E+02  0.47000000000E+01 0.  1.
<mgrwt>
<rscale>  0 0.12800256E+03</rscale>
<asrwt>0</asrwt>
<pdfrwt beam="2">  1        5 0.15040417E-01 0.12800390E+03</pdfrwt>
<pdfrwt beam="1">  1       -5 0.27075781E-01 0.12800390E+03</pdfrwt>
<totfact> 0.36119315E+02</totfact>
</mgrwt>
</event>
<event>
 8    1  0.3763376E-007  0.1542400E+03  0.7546771E-02  0.1195359E+00
         -5   -1    0    0    0  501 -0.00000000000E+00  0.00000000000E+00  0.38916020682E+03  0.38918858741E+03  0.47000000000E+01 0. -1.
          5   -1    0    0  501    0  0.00000000000E+00 -0.00000000000E+00 -0.65056369063E+02  0.65225923954E+02  0.47000000000E+01 0. -1.
         25    2    1    2    0    0  0.49323591662E+02  0.75696641585E+02  0.21863592008E+03  0.26756614624E+03  0.12500871499E+03 0.  0.
         25    2    1    2    0    0 -0.49323591662E+02 -0.75696641585E+02  0.10546791767E+03  0.18684836512E+03  0.12500412653E+03 0.  0.
          5    1    3    3  502    0  0.47079835961E+02 -0.41014976028E+01  0.16394477362E+03  0.17068483247E+03  0.47000000000E+01 0.  1.
         -5    1    3    3    0  502  0.22437557016E+01  0.79798139188E+02  0.54691146463E+02  0.96881313776E+02  0.47000000000E+01 0.  1.
          5    1    4    4  503    0 -0.13235356744E+01  0.15974772791E+02 -0.18747782064E+02  0.25110046689E+02  0.47000000000E+01 0. -1.
         -5    1    4    4    0  503 -0.48000055988E+02 -0.91671414376E+02  0.12421569974E+03  0.16173831843E+03  0.47000000000E+01 0. -1.
<mgrwt>
<rscale>  0 0.15423907E+03</rscale>
<asrwt>0</asrwt>
<pdfrwt beam="2">  1        5 0.10023898E-01 0.15424000E+03</pdfrwt>
<pdfrwt beam="1">  1       -5 0.59886026E-01 0.15424000E+03</pdfrwt>
<totfact> 0.15516573E+02</totfact>
</mgrwt>
</event>
<event>
 8    1  0.3763376E-007  0.1582566E+03  0.7546771E-02  0.1190681E+00
         -5   -1    0    0    0  501 -0.00000000000E+00  0.00000000000E+00  0.13099392575E+03  0.13107821551E+03  0.47000000000E+01 0.  1.
          5   -1    0    0  501    0  0.00000000000E+00 -0.00000000000E+00 -0.20965389291E+03  0.20970656835E+03  0.47000000000E+01 0.  1.
         25    2    1    2    0    0 -0.69321546964E+02 -0.67926469010E+02  0.11463582524E+02  0.15866559430E+03  0.12499550002E+03 0.  0.
         25    2    1    2    0    0  0.69321546964E+02  0.67926469010E+02 -0.90123549685E+02  0.18211918957E+03  0.12500265171E+03 0.  0.
          5    1    4    4  502    0  0.72372476262E+02 -0.25753748119E+01 -0.84184006104E+02  0.11114605148E+03  0.47000000000E+01 0. -1.
         -5    1    4    4    0  502 -0.30509292974E+01  0.70501843822E+02 -0.59395435812E+01  0.70973138086E+02  0.47000000000E+01 0. -1.
          5    1    3    3  503    0  0.31963608219E+02 -0.23950868011E+02  0.24947386013E+02  0.47326297106E+02  0.47000000000E+01 0. -1.
         -5    1    3    3    0  503 -0.10128515518E+03 -0.43975600999E+02 -0.13483803489E+02  0.11133929720E+03  0.47000000000E+01 0. -1.
<mgrwt>
<rscale>  0 0.15825517E+03</rscale>
<asrwt>0</asrwt>
<pdfrwt beam="2">  1        5 0.32264981E-01 0.15825658E+03</pdfrwt>
<pdfrwt beam="1">  1       -5 0.20163448E-01 0.15825658E+03</pdfrwt>
<totfact> 0.16054063E+02</totfact>
</mgrwt>
</event>
<event>
 8    1  0.3763376E-007  0.1736577E+03  0.7546771E-02  0.1174087E+00
         -5   -1    0    0    0  501 -0.00000000000E+00  0.00000000000E+00  0.24212830381E+03  0.24217391582E+03  0.47000000000E+01 0. -1.
          5   -1    0    0  501    0  0.00000000000E+00 -0.00000000000E+00 -0.21808302844E+03  0.21813366841E+03  0.47000000000E+01 0. -1.
         25    2    1    2    0    0 -0.68296060279E+02 -0.99329390548E+02  0.16279385691E+03  0.23802807445E+03  0.12499937880E+03 0.  0.
         25    2    1    2    0    0  0.68296060279E+02  0.99329390548E+02 -0.13874858154E+03  0.22227950978E+03  0.12500532754E+03 0.  0.
          5    1    3    3  502    0 -0.83291169835E+02 -0.72974884483E+02  0.50831380129E+02  0.12193716392E+03  0.47000000000E+01 0.  1.
         -5    1    3    3    0  502  0.14995109556E+02 -0.26354506065E+02  0.11196247678E+03  0.11609091053E+03  0.47000000000E+01 0.  1.
          5    1    4    4  503    0  0.37553677527E+02 -0.22341499362E+02 -0.16280988711E+02  0.46867706184E+02  0.47000000000E+01 0.  1.
         -5    1    4    4    0  503  0.30742382752E+02  0.12167088991E+03 -0.12246759283E+03  0.17541180360E+03  0.47000000000E+01 0.  1.
<mgrwt>
<rscale>  0 0.17365667E+03</rscale>
<asrwt>0</asrwt>
<pdfrwt beam="2">  1        5 0.33558639E-01 0.17365774E+03</pdfrwt>
<pdfrwt beam="1">  1       -5 0.37257912E-01 0.17365774E+03</pdfrwt>
<totfact> 0.46137602E+01</totfact>
</mgrwt>
</event>
<event>
 8    1  0.3763376E-007  0.1602214E+03  0.7546771E-02  0.1188450E+00
          5   -1    0    0  501    0  0.00000000000E+00  0.00000000000E+00  0.11035110768E+03  0.11045115195E+03  0.47000000000E+01 0. -1.
         -5   -1    0    0    0  501 -0.00000000000E+00 -0.00000000000E+00 -0.25468628784E+03  0.25472965123E+03  0.47000000000E+01 0. -1.
         25    2    1    2    0    0 -0.47867559094E+02  0.88035760089E+02 -0.12618843610E+03  0.20394709870E+03  0.12501719639E+03 0.  0.
         25    2    1    2    0    0  0.47867559094E+02 -0.88035760089E+02 -0.18146744065E+02  0.16123370448E+03  0.12500161948E+03 0.  0.
          5    1    3    3  502    0 -0.12770727124E+02  0.67553417013E+02 -0.14376227084E+03  0.15942470366E+03  0.47000000000E+01 0.  1.
         -5    1    3    3    0  502 -0.35096831969E+02  0.20482343075E+02  0.17573834738E+02  0.44522395034E+02  0.47000000000E+01 0.  1.
          5    1    4    4  503    0 -0.41479025826E+02 -0.39031125740E+02 -0.15389033369E+02  0.59184885807E+02  0.47000000000E+01 0.  1.
         -5    1    4    4    0  503  0.89346584919E+02 -0.49004634348E+02 -0.27577106964E+01  0.10204881867E+03  0.47000000000E+01 0.  1.
<mgrwt>
<rscale>  0 0.16021836E+03</rscale>
<asrwt>0</asrwt>
<pdfrwt beam="1">  1        5 0.16988125E-01 0.16022140E+03</pdfrwt>
<pdfrwt beam="2">  1       -5 0.39193537E-01 0.16022140E+03</pdfrwt>
<totfact> 0.14966460E+02</totfact>
</mgrwt>
</event>
<event>
 8    1  0.3763376E-007  0.2979465E+03  0.7546771E-02  0.1086272E+00
         -5   -1    0    0    0  501 -0.00000000000E+00  0.00000000000E+00  0.62490566023E+03  0.62492333465E+03  0.47000000000E+01 0.  1.
          5   -1    0    0  501    0  0.00000000000E+00 -0.00000000000E+00 -0.16142392297E+03  0.16149233080E+03  0.47000000000E+01 0.  1.
         25    2    1    2    0    0  0.12577212729E+03 -0.23943360497E+03  0.36810630321E+03  0.47357606681E+03  0.12499984562E+03 0.  0.
         25    2    1    2    0    0 -0.12577212729E+03  0.23943360497E+03  0.95375434049E+02  0.31283959863E+03  0.12500024744E+03 0.  0.
          5    1    3    3  502    0  0.17546418014E+02 -0.14637408235E+03  0.24014020076E+03  0.28182025263E+03  0.47000000000E+01 0. -1.
         -5    1    3    3    0  502  0.10822570928E+03 -0.93059522622E+02  0.12796610245E+03  0.19175581419E+03  0.47000000000E+01 0. -1.
          5    1    4    4  503    0 -0.46409020585E+02  0.68374711699E+02  0.92582927559E+02  0.12418770820E+03  0.47000000000E+01 0.  1.
         -5    1    4    4    0  503 -0.79363106705E+02  0.17105889327E+03  0.27925064903E+01  0.18865189044E+03  0.47000000000E+01 0.  1.
<mgrwt>
<rscale>  0 0.29794650E+03</rscale>
<asrwt>0</asrwt>
<pdfrwt beam="2">  1        5 0.24841071E-01 0.29794654E+03</pdfrwt>
<pdfrwt beam="1">  1       -5 0.96145955E-01 0.29794654E+03</pdfrwt>
<totfact> 0.11566144E+01</totfact>
</mgrwt>
</event>
<event>
 8    1  0.3763376E-007  0.1542217E+03  0.7546771E-02  0.1195384E+00
          5   -1    0    0  501    0  0.00000000000E+00  0.00000000000E+00  0.12489875254E+03  0.12498715288E+03  0.47000000000E+01 0.  1.
         -5   -1    0    0    0  501 -0.00000000000E+00 -0.00000000000E+00 -0.26373169791E+03  0.26377357427E+03  0.47000000000E+01 0.  1.
         25    2    1    2    0    0  0.38275951800E+02  0.81795698959E+02 -0.17201161253E+03  0.23102453095E+03  0.12501501590E+03 0.  0.
         25    2    1    2    0    0 -0.38275951800E+02 -0.81795698959E+02  0.33178667162E+02  0.15773619619E+03  0.12499719509E+03 0.  0.
          5    1    4    4  502    0 -0.28716513395E+02  0.10875869806E+02  0.53871854309E+02  0.62186729873E+02  0.47000000000E+01 0.  1.
         -5    1    4    4    0  502 -0.95594384045E+01 -0.92671568765E+02 -0.20693187147E+02  0.95549466321E+02  0.47000000000E+01 0.  1.
          5    1    3    3  503    0  0.29330763610E+02  0.70998356634E+02 -0.21666195878E+02  0.79953576421E+02  0.47000000000E+01 0. -1.
         -5    1    3    3    0  503  0.89451881899E+01  0.10797342325E+02 -0.15034541665E+03  0.15107095453E+03  0.47000000000E+01 0. -1.
<mgrwt>
<rscale>  0 0.15421811E+03</rscale>
<asrwt>0</asrwt>
<pdfrwt beam="1">  1        5 0.19225214E-01 0.15422172E+03</pdfrwt>
<pdfrwt beam="2">  1       -5 0.40584128E-01 0.15422172E+03</pdfrwt>
<totfact> 0.10950625E+02</totfact>
</mgrwt>
</event>
<event>
 8    1  0.3763376E-007  0.1602709E+03  0.7546771E-02  0.1188393E+00
          5   -1    0    0  501    0  0.00000000000E+00  0.00000000000E+00  0.13147603993E+02  0.13962431406E+02  0.47000000000E+01 0. -1.
         -5   -1    0    0    0  501 -0.00000000000E+00 -0.00000000000E+00 -0.22373723472E+04  0.22373772838E+04  0.47000000000E+01 0. -1.
         25    2    1    2    0    0 -0.41711644554E+02  0.91220653638E+02 -0.15529569929E+04  0.15612053655E+04  0.12500281099E+03 0.  0.
         25    2    1    2    0    0  0.41711644554E+02 -0.91220653638E+02 -0.67126775031E+03  0.69013434962E+03  0.12499583587E+03 0.  0.
          5    1    3    3  502    0  0.48448562731E+01  0.10618237888E+03 -0.12218523186E+04  0.12264759878E+04  0.47000000000E+01 0.  1.
         -5    1    3    3    0  502 -0.46556500828E+02 -0.14961725242E+02 -0.33110467427E+03  0.33472937773E+03  0.47000000000E+01 0.  1.
          5    1    4    4  503    0  0.63664863681E+01 -0.54780397891E+02 -0.59978360554E+03  0.60233204100E+03  0.47000000000E+01 0. -1.
         -5    1    4    4    0  503  0.35345158186E+02 -0.36440255747E+02 -0.71484144769E+02  0.87802308623E+02  0.47000000000E+01 0. -1.
<mgrwt>
<rscale>  0 0.16026957E+03</rscale>
<asrwt>0</asrwt>
<pdfrwt beam="1">  1        5 0.20857689E-02 0.16027093E+03</pdfrwt>
<pdfrwt beam="2">  1       -5 0.34427389E+00 0.16027093E+03</pdfrwt>
<totfact> 0.11671446E+01</totfact>
</mgrwt>
</event>
<event>
 8    1  0.3763376E-007  0.1874732E+03  0.7546771E-02  0.1160762E+00
          5   -1    0    0  501    0  0.00000000000E+00  0.00000000000E+00  0.15276358378E+03  0.15283586794E+03  0.47000000000E+01 0. -1.
         -5   -1    0    0    0  501 -0.00000000000E+00 -0.00000000000E+00 -0.25067188632E+03  0.25071594403E+03  0.47000000000E+01 0. -1.
         25    2    1    2    0    0  0.13955172251E+03  0.68743981090E+01 -0.10700831190E+03  0.21586335808E+03  0.12499707973E+03 0.  0.
         25    2    1    2    0    0 -0.13955172251E+03 -0.68743981090E+01  0.91000093603E+01  0.18768845388E+03  0.12498881928E+03 0.  0.
          5    1    4    4  502    0  0.21599154182E+02  0.14540936595E+01  0.13954301555E+02  0.26181107342E+02  0.47000000000E+01 0. -1.
         -5    1    4    4    0  502 -0.16115087669E+03 -0.83284917686E+01 -0.48542921950E+01  0.16150734654E+03  0.47000000000E+01 0. -1.
          5    1    3    3  503    0  0.12969624088E+03 -0.19193123178E+02 -0.31049346989E+02  0.13481707171E+03  0.47000000000E+01 0.  1.
         -5    1    3    3    0  503  0.98554816313E+01  0.26067521287E+02 -0.75958964912E+02  0.81046286373E+02  0.47000000000E+01 0.  1.
<mgrwt>
<rscale>  0 0.18747185E+03</rscale>
<asrwt>0</asrwt>
<pdfrwt beam="1">  1        5 0.23511039E-01 0.18747323E+03</pdfrwt>
<pdfrwt beam="2">  1       -5 0.38573855E-01 0.18747323E+03</pdfrwt>
<totfact> 0.88083996E+01</totfact>
</mgrwt>
</event>
<event>
 8    1  0.3763376E-007  0.1652961E+03  0.7546771E-02  0.1182844E+00
          5   -1    0    0  501    0  0.00000000000E+00  0.00000000000E+00  0.50374048333E+02  0.50592832946E+02  0.47000000000E+01 0.  1.
         -5   -1    0    0    0  501 -0.00000000000E+00 -0.00000000000E+00 -0.58463044674E+03  0.58464933871E+03  0.47000000000E+01 0.  1.
         25    2    1    2    0    0  0.71919873025E+02 -0.80785800706E+02 -0.35388555708E+03  0.39058648010E+03  0.12499598873E+03 0.  0.
         25    2    1    2    0    0 -0.71919873025E+02  0.80785800706E+02 -0.18037084133E+03  0.24465569156E+03  0.12499581304E+03 0.  0.
          5    1    3    3  502    0  0.10608391324E+03 -0.72825862558E+02 -0.29511197901E+03  0.32197915004E+03  0.47000000000E+01 0.  1.
         -5    1    3    3    0  502 -0.34164040215E+02 -0.79599381483E+01 -0.58773578064E+02  0.68607330057E+02  0.47000000000E+01 0.  1.
          5    1    4    4  503    0 -0.19654545857E+02 -0.33307783692E+02 -0.53078803677E+02  0.65841924540E+02  0.47000000000E+01 0.  1.
         -5    1    4    4    0  503 -0.52265327168E+02  0.11409358440E+03 -0.12729203765E+03  0.17881376702E+03  0.47000000000E+01 0.  1.
<mgrwt>
<rscale>  0 0.16529610E+03</rscale>
<asrwt>0</asrwt>
<pdfrwt beam="1">  1        5 0.77681368E-02 0.16529613E+03</pdfrwt>
<pdfrwt beam="2">  1       -5 0.89961424E-01 0.16529613E+03</pdfrwt>
<totfact> 0.97365578E+01</totfact>
</mgrwt>
</event>
<event>
 8    1  0.3763376E-007  0.1281301E+03  0.7546771E-02  0.1230259E+00
         -5   -1    0    0    0  501 -0.00000000000E+00  0.00000000000E+00  0.31744749281E+02  0.32090794738E+02  0.47000000000E+01 0. -1.
          5   -1    0    0  501    0  0.00000000000E+00 -0.00000000000E+00 -0.54705677945E+03  0.54707696894E+03  0.47000000000E+01 0. -1.
         25    2    1    2    0    0 -0.22956356906E+02  0.16248133052E+02 -0.18647234109E+03  0.22624727969E+03  0.12499960569E+03 0.  0.
         25    2    1    2    0    0  0.22956356906E+02 -0.16248133052E+02 -0.32883968908E+03  0.35292048399E+03  0.12500532291E+03 0.  0.
          5    1    3    3  502    0  0.25849428991E+02 -0.34513790560E+02 -0.12617075564E+03  0.13341868047E+03  0.47000000000E+01 0.  1.
         -5    1    3    3    0  502 -0.48805785896E+02  0.50761923613E+02 -0.60301585452E+02  0.92828599223E+02  0.47000000000E+01 0.  1.
          5    1    4    4  503    0  0.47744524662E+02 -0.19822644986E+02 -0.47291295191E+02  0.70221317919E+02  0.47000000000E+01 0.  1.
         -5    1    4    4    0  503 -0.24788167757E+02  0.35745119331E+01 -0.28154839389E+03  0.28269916607E+03  0.47000000000E+01 0.  1.
<mgrwt>
<rscale>  0 0.12812872E+03</rscale>
<asrwt>0</asrwt>
<pdfrwt beam="2">  1        5 0.84190746E-01 0.12813012E+03</pdfrwt>
<pdfrwt beam="1">  1       -5 0.49119799E-02 0.12813012E+03</pdfrwt>
<totfact> 0.22708276E+02</totfact>
</mgrwt>
</event>
<event>
 8    1  0.3763376E-007  0.1513927E+03  0.7546771E-02  0.1198774E+00
         -5   -1    0    0    0  501 -0.00000000000E+00  0.00000000000E+00  0.15884658492E+03  0.15891610221E+03  0.47000000000E+01 0. -1.
          5   -1    0    0  501    0  0.00000000000E+00 -0.00000000000E+00 -0.20344137340E+03  0.20349565699E+03  0.47000000000E+01 0. -1.
         25    2    1    2    0    0 -0.70326809387E+02  0.48465636454E+02  0.75501547776E+02  0.16916871503E+03  0.12499116926E+03 0.  0.
         25    2    1    2    0    0  0.70326809387E+02 -0.48465636454E+02 -0.12009633626E+03  0.19324304416E+03  0.12499986440E+03 0.  0.
          5    1    4    4  502    0  0.87645914020E+02  0.92107782023E+01 -0.52923666479E+02  0.10290602098E+03  0.47000000000E+01 0.  1.
         -5    1    4    4    0  502 -0.17319104633E+02 -0.57676414656E+02 -0.67172669781E+02  0.90337023188E+02  0.47000000000E+01 0.  1.
          5    1    3    3  503    0 -0.36676822180E+02 -0.24188401108E+02  0.77193343430E+02  0.88944759842E+02  0.47000000000E+01 0.  1.
         -5    1    3    3    0  503 -0.33649987207E+02  0.72654037562E+02 -0.16917956537E+01  0.80223955186E+02  0.47000000000E+01 0.  1.
<mgrwt>
<rscale>  0 0.15139089E+03</rscale>
<asrwt>0</asrwt>
<pdfrwt beam="2">  1        5 0.31308196E-01 0.15139268E+03</pdfrwt>
<pdfrwt beam="1">  1       -5 0.24447459E-01 0.15139268E+03</pdfrwt>
<totfact> 0.11666029E+02</totfact>
</mgrwt>
</event>
<event>
 8    1  0.3763376E-007  0.1509013E+03  0.7546771E-02  0.1199371E+00
         -5   -1    0    0    0  501 -0.00000000000E+00  0.00000000000E+00  0.99427503991E+02  0.99538527967E+02  0.47000000000E+01 0. -1.
          5   -1    0    0  501    0  0.00000000000E+00 -0.00000000000E+00 -0.26675172970E+03  0.26679313203E+03  0.47000000000E+01 0. -1.
         25    2    1    2    0    0 -0.74288284882E+02 -0.40325378768E+02 -0.14549534521E+02  0.15159624669E+03  0.12499939045E+03 0.  0.
         25    2    1    2    0    0  0.74288284882E+02  0.40325378768E+02 -0.15277469119E+03  0.21473541330E+03  0.12500522396E+03 0.  0.
          5    1    3    3  502    0 -0.75871402362E+02 -0.16496031290E+02 -0.61201637831E+02  0.98976356863E+02  0.47000000000E+01 0. -1.
         -5    1    3    3    0  502  0.15831174799E+01 -0.23829347479E+02  0.46652103309E+02  0.52619889827E+02  0.47000000000E+01 0. -1.
          5    1    4    4  503    0 -0.26342611498E+02 -0.41509430085E-01  0.69744710436E+00  0.26767729378E+02  0.47000000000E+01 0.  1.
         -5    1    4    4    0  503  0.10063089638E+03  0.40366888198E+02 -0.15347213829E+03  0.18796768393E+03  0.47000000000E+01 0.  1.
<mgrwt>
<rscale>  0 0.15090006E+03</rscale>
<asrwt>0</asrwt>
<pdfrwt beam="2">  1        5 0.41050452E-01 0.15090126E+03</pdfrwt>
<pdfrwt beam="1">  1       -5 0.15308264E-01 0.15090126E+03</pdfrwt>
<totfact> 0.16148660E+02</totfact>
</mgrwt>
</event>
<event>
 8    1  0.3763376E-007  0.1576660E+03  0.7546771E-02  0.1191363E+00
         -5   -1    0    0    0  501 -0.00000000000E+00  0.00000000000E+00  0.12714931291E+03  0.12723614963E+03  0.47000000000E+01 0.  1.
          5   -1    0    0  501    0  0.00000000000E+00 -0.00000000000E+00 -0.20655842474E+03  0.20661188938E+03  0.47000000000E+01 0.  1.
         25    2    1    2    0    0  0.95828018837E+02  0.71940489822E+01 -0.75325814709E+00  0.15766780739E+03  0.12499522612E+03 0.  0.
         25    2    1    2    0    0 -0.95828018837E+02 -0.71940489822E+01 -0.78655853684E+02  0.17618023163E+03  0.12497186548E+03 0.  0.
          5    1    3    3  502    0  0.11413969133E+03  0.34797173035E+02  0.15591617026E+02  0.12043214234E+03  0.47000000000E+01 0.  1.
         -5    1    3    3    0  502 -0.18311672491E+02 -0.27603124053E+02 -0.16344875173E+02  0.37235665045E+02  0.47000000000E+01 0.  1.
          5    1    4    4  503    0 -0.83579356327E+02  0.49712432408E+02 -0.62103414841E+02  0.11548055626E+03  0.47000000000E+01 0. -1.
         -5    1    4    4    0  503 -0.12248662510E+02 -0.56906481390E+02 -0.16552438843E+02  0.60699675363E+02  0.47000000000E+01 0. -1.
<mgrwt>
<rscale>  0 0.15766138E+03</rscale>
<asrwt>0</asrwt>
<pdfrwt beam="2">  1        5 0.31789012E-01 0.15766601E+03</pdfrwt>
<pdfrwt beam="1">  1       -5 0.19572225E-01 0.15766601E+03</pdfrwt>
<totfact> 0.17459662E+02</totfact>
</mgrwt>
</event>
<event>
 8    1  0.3763376E-007  0.1303574E+03  0.7546771E-02  0.1226928E+00
         -5   -1    0    0    0  501 -0.00000000000E+00  0.00000000000E+00  0.26089804079E+03  0.26094037190E+03  0.47000000000E+01 0.  1.
          5   -1    0    0  501    0  0.00000000000E+00 -0.00000000000E+00 -0.65408887655E+02  0.65577531093E+02  0.47000000000E+01 0.  1.
         25    2    1    2    0    0  0.35682335853E+02  0.96949183042E+01  0.11066918441E+03  0.17099919485E+03  0.12500334287E+03 0.  0.
         25    2    1    2    0    0 -0.35682335853E+02 -0.96949183042E+01  0.84819968723E+02  0.15551870814E+03  0.12499768380E+03 0.  0.
          5    1    3    3  502    0  0.15158653189E+02  0.64642291291E+02  0.35185182933E+02  0.75289426136E+02  0.47000000000E+01 0. -1.
         -5    1    3    3    0  502  0.20523682665E+02 -0.54947372987E+02  0.75484001476E+02  0.95709768713E+02  0.47000000000E+01 0. -1.
          5    1    4    4  503    0 -0.75628323592E+02 -0.32432043168E+02  0.66151878455E+02  0.10568652599E+03  0.47000000000E+01 0. -1.
         -5    1    4    4    0  503  0.39945987738E+02  0.22737124864E+02  0.18668090268E+02  0.49832182149E+02  0.47000000000E+01 0. -1.
<mgrwt>
<rscale>  0 0.13035606E+03</rscale>
<asrwt>0</asrwt>
<pdfrwt beam="2">  1        5 0.10079135E-01 0.13035742E+03</pdfrwt>
<pdfrwt beam="1">  1       -5 0.40154388E-01 0.13035742E+03</pdfrwt>
<totfact> 0.33825321E+02</totfact>
</mgrwt>
</event>
<event>
 8    1  0.3763376E-007  0.1402333E+03  0.7546771E-02  0.1213020E+00
          5   -1    0    0  501    0  0.00000000000E+00  0.00000000000E+00  0.77880929099E+03  0.77882347276E+03  0.47000000000E+01 0. -1.
         -5   -1    0    0    0  501 -0.00000000000E+00 -0.00000000000E+00 -0.25148645988E+02  0.25584065257E+02  0.47000000000E+01 0. -1.
         25    2    1    2    0    0 -0.64363246890E+01  0.63229639177E+02  0.34774668736E+03  0.37495263217E+03  0.12498921657E+03 0.  0.
         25    2    1    2    0    0  0.64363246890E+01 -0.63229639177E+02  0.40591395764E+03  0.42945490584E+03  0.12500384635E+03 0.  0.
          5    1    3    3  502    0 -0.50400905230E+02 -0.74316140413E+01  0.18709006301E+03  0.19395943342E+03  0.47000000000E+01 0. -1.
         -5    1    3    3    0  502  0.43964580541E+02  0.70661253218E+02  0.16065662435E+03  0.18099319876E+03  0.47000000000E+01 0. -1.
          5    1    4    4  503    0 -0.35235334503E+02 -0.84208551467E+02  0.30023049018E+03  0.31383601797E+03  0.47000000000E+01 0. -1.
         -5    1    4    4    0  503  0.41671659192E+02  0.20978912290E+02  0.10568346746E+03  0.11561888788E+03  0.47000000000E+01 0. -1.
<mgrwt>
<rscale>  0 0.14023003E+03</rscale>
<asrwt>0</asrwt>
<pdfrwt beam="1">  1        5 0.11985140E+00 0.14023329E+03</pdfrwt>
<pdfrwt beam="2">  1       -5 0.39036072E-02 0.14023329E+03</pdfrwt>
<totfact> 0.14465244E+02</totfact>
</mgrwt>
</event>
<event>
 8    1  0.3763376E-007  0.1477138E+03  0.7546771E-02  0.1203312E+00
          5   -1    0    0  501    0  0.00000000000E+00  0.00000000000E+00  0.24385474281E+02  0.24834277842E+02  0.47000000000E+01 0.  1.
         -5   -1    0    0    0  501 -0.00000000000E+00 -0.00000000000E+00 -0.94135128636E+03  0.94136301942E+03  0.47000000000E+01 0.  1.
         25    2    1    2    0    0  0.32816801661E+02  0.71530969147E+02 -0.57547071128E+03  0.59412615937E+03  0.12500292672E+03 0.  0.
         25    2    1    2    0    0 -0.32816801661E+02 -0.71530969147E+02 -0.34149510079E+03  0.37207113789E+03  0.12499762303E+03 0.  0.
          5    1    3    3  502    0 -0.59210514502E+01  0.90633038655E+02 -0.48864895071E+03  0.49704053514E+03  0.47000000000E+01 0. -1.
         -5    1    3    3    0  502  0.38737853111E+02 -0.19102069508E+02 -0.86821760574E+02  0.97085624231E+02  0.47000000000E+01 0. -1.
          5    1    4    4  503    0 -0.34762582334E+02  0.95147174099E+00 -0.16004795713E+02  0.38569235341E+02  0.47000000000E+01 0.  1.
         -5    1    4    4    0  503  0.19457806732E+01 -0.72482440888E+02 -0.32549030508E+03  0.33350190255E+03  0.47000000000E+01 0.  1.
<mgrwt>
<rscale>  0 0.14771263E+03</rscale>
<asrwt>0</asrwt>
<pdfrwt beam="1">  1        5 0.37870381E-02 0.14771376E+03</pdfrwt>
<pdfrwt beam="2">  1       -5 0.14485867E+00 0.14771376E+03</pdfrwt>
<totfact> 0.94008166E+01</totfact>
</mgrwt>
</event>
<event>
 8    1  0.3763376E-007  0.1313300E+03  0.7546771E-02  0.1225497E+00
          5   -1    0    0  501    0  0.00000000000E+00  0.00000000000E+00  0.29855147612E+03  0.29858846912E+03  0.47000000000E+01 0. -1.
         -5   -1    0    0    0  501 -0.00000000000E+00 -0.00000000000E+00 -0.60319254970E+02  0.60502086908E+02  0.47000000000E+01 0. -1.
         25    2    1    2    0    0 -0.27563649182E+02 -0.29357406755E+02  0.81293270101E+02  0.15445085570E+03  0.12499943590E+03 0.  0.
         25    2    1    2    0    0  0.27563649182E+02  0.29357406755E+02  0.15693895105E+03  0.20463970033E+03  0.12500384197E+03 0.  0.
          5    1    3    3  502    0 -0.45021496868E+02 -0.14088654261E+02  0.10849244491E+03  0.11839816705E+03  0.47000000000E+01 0.  1.
         -5    1    3    3    0  502  0.17457847686E+02 -0.15268752494E+02 -0.27199174807E+02  0.36052688648E+02  0.47000000000E+01 0.  1.
          5    1    4    4  503    0  0.38178382867E+02  0.38742531323E+02  0.82641863124E+01  0.55217383378E+02  0.47000000000E+01 0. -1.
         -5    1    4    4    0  503 -0.10614733685E+02 -0.93851245676E+01  0.14867476474E+03  0.14942231695E+03  0.47000000000E+01 0. -1.
<mgrwt>
<rscale>  0 0.13132897E+03</rscale>
<asrwt>0</asrwt>
<pdfrwt beam="1">  1        5 0.45947906E-01 0.13133001E+03</pdfrwt>
<pdfrwt beam="2">  1       -5 0.92967949E-02 0.13133001E+03</pdfrwt>
<totfact> 0.29546346E+02</totfact>
</mgrwt>
</event>
<event>
 8    1  0.3763376E-007  0.1450221E+03  0.7546771E-02  0.1206729E+00
         -5   -1    0    0    0  501 -0.00000000000E+00  0.00000000000E+00  0.10355272053E+03  0.10365932630E+03  0.47000000000E+01 0.  1.
          5   -1    0    0  501    0  0.00000000000E+00 -0.00000000000E+00 -0.21065348368E+03  0.21070590923E+03  0.47000000000E+01 0.  1.
         25    2    1    2    0    0 -0.54677142188E+02 -0.49146317825E+02 -0.23308487202E+02  0.14687628049E+03  0.12499762302E+03 0.  0.
         25    2    1    2    0    0  0.54677142188E+02  0.49146317825E+02 -0.83792275951E+02  0.16748895505E+03  0.12500581635E+03 0.  0.
          5    1    3    3  502    0  0.25151330472E+02  0.87721111362E+01 -0.38422079210E+02  0.46988142431E+02  0.47000000000E+01 0.  1.
         -5    1    3    3    0  502 -0.79828472660E+02 -0.57918428962E+02  0.15113592008E+02  0.99888138055E+02  0.47000000000E+01 0.  1.
          5    1    4    4  503    0 -0.27529481815E+02 -0.12793613729E+02 -0.50678853874E+02  0.59262004280E+02  0.47000000000E+01 0.  1.
         -5    1    4    4    0  503  0.82206624003E+02  0.61939931554E+02 -0.33113422077E+02  0.10822695077E+03  0.47000000000E+01 0.  1.
<mgrwt>
<rscale>  0 0.14502032E+03</rscale>
<asrwt>0</asrwt>
<pdfrwt beam="2">  1        5 0.32420461E-01 0.14502208E+03</pdfrwt>
<pdfrwt beam="1">  1       -5 0.15943421E-01 0.14502208E+03</pdfrwt>
<totfact> 0.23842907E+02</totfact>
</mgrwt>
</event>
<event>
 8    1  0.3763376E-007  0.1699806E+03  0.7546771E-02  0.1177869E+00
          5   -1    0    0  501    0  0.00000000000E+00  0.00000000000E+00  0.12171409884E+03  0.12180481048E+03  0.47000000000E+01 0. -1.
         -5   -1    0    0    0  501 -0.00000000000E+00 -0.00000000000E+00 -0.23748332066E+03  0.23752982464E+03  0.47000000000E+01 0. -1.
         25    2    1    2    0    0  0.58477977698E+02  0.99234418274E+02 -0.51489875314E+02  0.17760613092E+03  0.12500234732E+03 0.  0.
         25    2    1    2    0    0 -0.58477977698E+02 -0.99234418274E+02 -0.64279346509E+02  0.18172850420E+03  0.12500508472E+03 0.  0.
          5    1    3    3  502    0  0.53166479250E+02  0.97026621396E+02  0.14068580743E+02  0.11162819868E+03  0.47000000000E+01 0. -1.
         -5    1    3    3    0  502  0.53114984478E+01  0.22077968772E+01 -0.65558456058E+02  0.65977932246E+02  0.47000000000E+01 0. -1.
          5    1    4    4  503    0  0.20658202253E+02 -0.54657066861E+02 -0.69144999944E+02  0.90649199089E+02  0.47000000000E+01 0.  1.
         -5    1    4    4    0  503 -0.79136179951E+02 -0.44577351413E+02  0.48656534346E+01  0.91079305112E+02  0.47000000000E+01 0.  1.
<mgrwt>
<rscale>  0 0.16998013E+03</rscale>
<asrwt>0</asrwt>
<pdfrwt beam="1">  1        5 0.18735801E-01 0.16998063E+03</pdfrwt>
<pdfrwt beam="2">  1       -5 0.36546450E-01 0.16998063E+03</pdfrwt>
<totfact> 0.14657200E+02</totfact>
</mgrwt>
</event>
<event>
 8    1  0.3763376E-007  0.1281367E+03  0.7546771E-02  0.1230249E+00
          5   -1    0    0  501    0  0.00000000000E+00  0.00000000000E+00  0.11789050595E+03  0.11798415739E+03  0.47000000000E+01 0.  1.
         -5   -1    0    0    0  501 -0.00000000000E+00 -0.00000000000E+00 -0.13952598218E+03  0.13960512062E+03  0.47000000000E+01 0.  1.
         25    2    1    2    0    0  0.10728574355E+02 -0.26034868747E+02 -0.18090592584E+02  0.12940738631E+03  0.12500434150E+03 0.  0.
         25    2    1    2    0    0 -0.10728574355E+02  0.26034868747E+02 -0.35448836387E+01  0.12818189169E+03  0.12500045783E+03 0.  0.
          5    1    4    4  502    0 -0.10920549855E+02  0.52859114807E+02  0.46374916788E+02  0.71316669401E+02  0.47000000000E+01 0.  1.
         -5    1    4    4    0  502  0.19197550030E+00 -0.26824246060E+02 -0.49919800427E+02  0.56865222289E+02  0.47000000000E+01 0.  1.
          5    1    3    3  503    0 -0.11588457675E+02  0.43138130700E+02  0.17671712276E+02  0.48265620128E+02  0.47000000000E+01 0.  1.
         -5    1    3    3    0  503  0.22317032030E+02 -0.69172999446E+02 -0.35762304860E+02  0.81141766187E+02  0.47000000000E+01 0.  1.
<mgrwt>
<rscale>  0 0.12813571E+03</rscale>
<asrwt>0</asrwt>
<pdfrwt beam="1">  1        5 0.18150292E-01 0.12813665E+03</pdfrwt>
<pdfrwt beam="2">  1       -5 0.21478827E-01 0.12813665E+03</pdfrwt>
<totfact> 0.39857411E+02</totfact>
</mgrwt>
</event>
<event>
 8    1  0.3763376E-007  0.1256189E+03  0.7546771E-02  0.1234108E+00
          5   -1    0    0  501    0  0.00000000000E+00  0.00000000000E+00  0.16687240082E+04  0.16687306270E+04  0.47000000000E+01 0. -1.
         -5   -1    0    0    0  501 -0.00000000000E+00 -0.00000000000E+00 -0.88867153301E+01  0.10053044780E+02  0.47000000000E+01 0. -1.
         25    2    1    2    0    0 -0.10822034245E+02  0.62935579552E+01  0.79075825029E+03  0.80067292695E+03  0.12498720037E+03 0.  0.
         25    2    1    2    0    0  0.10822034245E+02 -0.62935579552E+01  0.86907904258E+03  0.87811074484E+03  0.12499349048E+03 0.  0.
          5    1    4    4  502    0 -0.35310434288E+02 -0.14043429220E+02  0.73556470055E+03  0.73656063115E+03  0.47000000000E+01 0.  1.
         -5    1    4    4    0  502  0.46132468533E+02  0.77498712653E+01  0.13351434203E+03  0.14155011369E+03  0.47000000000E+01 0.  1.
          5    1    3    3  503    0 -0.54581332752E+02 -0.34846267499E+02  0.37657072628E+03  0.38212692412E+03  0.47000000000E+01 0.  1.
         -5    1    3    3    0  503  0.43759298507E+02  0.41139825454E+02  0.41418752401E+03  0.41854600283E+03  0.47000000000E+01 0.  1.
<mgrwt>
<rscale>  0 0.12561730E+03</rscale>
<asrwt>0</asrwt>
<pdfrwt beam="1">  1        5 0.25681680E+00 0.12561886E+03</pdfrwt>
<pdfrwt beam="2">  1       -5 0.14574149E-02 0.12561886E+03</pdfrwt>
<totfact> 0.69763921E+01</totfact>
</mgrwt>
</event>
<event>
 8    1  0.3763376E-007  0.1329035E+03  0.7546771E-02  0.1223211E+00
         -5   -1    0    0    0  501 -0.00000000000E+00  0.00000000000E+00  0.52976300748E+02  0.53184381551E+02  0.47000000000E+01 0. -1.
          5   -1    0    0  501    0  0.00000000000E+00 -0.00000000000E+00 -0.38484041322E+03  0.38486911236E+03  0.47000000000E+01 0. -1.
         25    2    1    2    0    0 -0.36567649016E+02 -0.26476988487E+02 -0.85205798978E+02  0.15786842993E+03  0.12499675642E+03 0.  0.
         25    2    1    2    0    0  0.36567649016E+02  0.26476988487E+02 -0.24665831349E+03  0.28018506398E+03  0.12500049035E+03 0.  0.
          5    1    3    3  502    0 -0.51171417402E+02 -0.57911715778E+02 -0.94020923950E+02  0.12179616137E+03  0.47000000000E+01 0. -1.
         -5    1    3    3    0  502  0.14603768385E+02  0.31434727291E+02  0.88151249718E+01  0.36072268561E+02  0.47000000000E+01 0. -1.
          5    1    4    4  503    0  0.66868651912E+02 -0.26077354530E+02 -0.13978808999E+03  0.15720764972E+03  0.47000000000E+01 0.  1.
         -5    1    4    4    0  503 -0.30301002896E+02  0.52554343017E+02 -0.10687022350E+03  0.12297741426E+03  0.47000000000E+01 0.  1.
<mgrwt>
<rscale>  0 0.13290265E+03</rscale>
<asrwt>0</asrwt>
<pdfrwt beam="2">  1        5 0.59224430E-01 0.13290352E+03</pdfrwt>
<pdfrwt beam="1">  1       -5 0.81684142E-02 0.13290352E+03</pdfrwt>
<totfact> 0.21579933E+02</totfact>
</mgrwt>
</event>
<event>
 8    1  0.3763376E-007  0.1499980E+03  0.7546771E-02  0.1200476E+00
          5   -1    0    0  501    0  0.00000000000E+00  0.00000000000E+00  0.74294114306E+03  0.74295600950E+03  0.47000000000E+01 0. -1.
         -5   -1    0    0    0  501 -0.00000000000E+00 -0.00000000000E+00 -0.32246197496E+02  0.32586918433E+02  0.47000000000E+01 0. -1.
         25    2    1    2    0    0 -0.67247243716E+01  0.82634017332E+02  0.25555655433E+03  0.29632506369E+03  0.12500315263E+03 0.  0.
         25    2    1    2    0    0  0.67247243716E+01 -0.82634017332E+02  0.45513839123E+03  0.47921786425E+03  0.12500081401E+03 0.  0.
          5    1    3    3  502    0 -0.51705878569E+02  0.90151709106E+02  0.17188805376E+03  0.20091894275E+03  0.47000000000E+01 0.  1.
         -5    1    3    3    0  502  0.44981154198E+02 -0.75176917732E+01  0.83668500577E+02  0.95406120932E+02  0.47000000000E+01 0.  1.
          5    1    4    4  503    0 -0.26793559202E+02  0.63679853210E+00  0.28937924355E+03  0.29065570169E+03  0.47000000000E+01 0. -1.
         -5    1    4    4    0  503  0.33518283573E+02 -0.83270815864E+02  0.16575914768E+03  0.18856216256E+03  0.47000000000E+01 0. -1.
<mgrwt>
<rscale>  0 0.14999748E+03</rscale>
<asrwt>0</asrwt>
<pdfrwt beam="1">  1        5 0.11432597E+00 0.14999797E+03</pdfrwt>
<pdfrwt beam="2">  1       -5 0.49883071E-02 0.14999797E+03</pdfrwt>
<totfact> 0.11106010E+02</totfact>
</mgrwt>
</event>
<event>
 8    1  0.3763376E-007  0.2621298E+03  0.7546771E-02  0.1105870E+00
          5   -1    0    0  501    0  0.00000000000E+00  0.00000000000E+00  0.45556786345E+03  0.45559210727E+03  0.47000000000E+01 0. -1.
         -5   -1    0    0    0  501 -0.00000000000E+00 -0.00000000000E+00 -0.15229440164E+03  0.15236690839E+03  0.47000000000E+01 0. -1.
         25    2    1    2    0    0 -0.16681121126E+03 -0.15894375469E+03  0.12115770449E+03  0.28877541454E+03  0.12499181303E+03 0.  0.
         25    2    1    2    0    0  0.16681121126E+03  0.15894375469E+03  0.18211575731E+03  0.31918360112E+03  0.12499169894E+03 0.  0.
          5    1    3    3  502    0 -0.10994493247E+01 -0.72609848482E+02  0.52168953143E+02  0.89538196081E+02  0.47000000000E+01 0.  1.
         -5    1    3    3    0  502 -0.16571176194E+03 -0.86333906211E+02  0.68988751349E+02  0.19923721846E+03  0.47000000000E+01 0.  1.
          5    1    4    4  503    0  0.38902089636E+02  0.13441100263E+02  0.10088487809E+03  0.10905908665E+03  0.47000000000E+01 0.  1.
         -5    1    4    4    0  503  0.12790912163E+03  0.14550265443E+03  0.81230879225E+02  0.21012451447E+03  0.47000000000E+01 0.  1.
<mgrwt>
<rscale>  0 0.26212982E+03</rscale>
<asrwt>0</asrwt>
<pdfrwt beam="1">  1        5 0.70094805E-01 0.26212984E+03</pdfrwt>
<pdfrwt beam="2">  1       -5 0.23437351E-01 0.26212984E+03</pdfrwt>
<totfact> 0.26580955E+01</totfact>
</mgrwt>
</event>
<event>
 8    1  0.3763376E-007  0.1775430E+03  0.7546771E-02  0.1170204E+00
          5   -1    0    0  501    0  0.00000000000E+00  0.00000000000E+00  0.99997481314E+03  0.99998585836E+03  0.47000000000E+01 0.  1.
         -5   -1    0    0    0  501 -0.00000000000E+00 -0.00000000000E+00 -0.32156948224E+02  0.32498604879E+02  0.47000000000E+01 0.  1.
         25    2    1    2    0    0  0.55526719519E+02  0.11318144356E+03  0.40180796034E+03  0.43928483661E+03  0.12501309905E+03 0.  0.
         25    2    1    2    0    0 -0.55526719519E+02 -0.11318144356E+03  0.56600990458E+03  0.59319962663E+03  0.12500131682E+03 0.  0.
          5    1    3    3  502    0  0.52746944390E+02  0.93451028976E+02  0.40460739909E+03  0.41862223109E+03  0.47000000000E+01 0.  1.
         -5    1    3    3    0  502  0.27797751289E+01  0.19730414585E+02 -0.27994387566E+01  0.20662605519E+02  0.47000000000E+01 0.  1.
          5    1    4    4  503    0 -0.10441343521E+02  0.27109199681E+02  0.11490748216E+03  0.11861597624E+03  0.47000000000E+01 0. -1.
         -5    1    4    4    0  503 -0.45085375998E+02 -0.14029064324E+03  0.45110242242E+03  0.47458365040E+03  0.47000000000E+01 0. -1.
<mgrwt>
<rscale>  0 0.17754096E+03</rscale>
<asrwt>0</asrwt>
<pdfrwt beam="1">  1        5 0.15386938E+00 0.17754304E+03</pdfrwt>
<pdfrwt beam="2">  1       -5 0.49743546E-02 0.17754304E+03</pdfrwt>
<totfact> 0.53508905E+01</totfact>
</mgrwt>
</event>
<event>
 8    1  0.3763376E-007  0.1298809E+03  0.7546771E-02  0.1227636E+00
          5   -1    0    0  501    0  0.00000000000E+00  0.00000000000E+00  0.10167261416E+03  0.10178118918E+03  0.47000000000E+01 0.  1.
         -5   -1    0    0    0  501 -0.00000000000E+00 -0.00000000000E+00 -0.16626302739E+03  0.16632944500E+03  0.47000000000E+01 0.  1.
         25    2    1    2    0    0 -0.21970895151E+01 -0.35212847042E+02 -0.24309306624E+02  0.13212672964E+03  0.12498703332E+03 0.  0.
         25    2    1    2    0    0  0.21970895151E+01  0.35212847042E+02 -0.40281106603E+02  0.13598390454E+03  0.12499713175E+03 0.  0.
          5    1    4    4  502    0 -0.60430062329E+02  0.10280045624E+02 -0.26874013340E+02  0.67095263351E+02  0.47000000000E+01 0.  1.
         -5    1    4    4    0  502  0.62627151844E+02  0.24932801418E+02 -0.13407093263E+02  0.68888641186E+02  0.47000000000E+01 0.  1.
          5    1    3    3  503    0  0.58152657795E+02 -0.33909260456E+02 -0.17175221797E+01  0.67502662434E+02  0.47000000000E+01 0.  1.
         -5    1    3    3    0  503 -0.60349747310E+02 -0.13035865867E+01 -0.22591784444E+02  0.64624067209E+02  0.47000000000E+01 0.  1.
<mgrwt>
<rscale>  0 0.12987850E+03</rscale>
<asrwt>0</asrwt>
<pdfrwt beam="1">  1        5 0.15655402E-01 0.12988093E+03</pdfrwt>
<pdfrwt beam="2">  1       -5 0.25592388E-01 0.12988093E+03</pdfrwt>
<totfact> 0.37640970E+02</totfact>
</mgrwt>
</event>
<event>
 8    1  0.3763376E-007  0.1324389E+03  0.7546771E-02  0.1223882E+00
          5   -1    0    0  501    0  0.00000000000E+00  0.00000000000E+00  0.24173434685E+02  0.24626102908E+02  0.47000000000E+01 0.  1.
         -5   -1    0    0    0  501 -0.00000000000E+00 -0.00000000000E+00 -0.74391911730E+03  0.74393396420E+03  0.47000000000E+01 0.  1.
         25    2    1    2    0    0  0.71321978483E+01 -0.43174289136E+02 -0.43103275397E+03  0.45092049997E+03  0.12500069924E+03 0.  0.
         25    2    1    2    0    0 -0.71321978483E+01  0.43174289136E+02 -0.28871292865E+03  0.31763956713E+03  0.12499940781E+03 0.  0.
          5    1    4    4  502    0 -0.41907676811E+02  0.35675360003E+02 -0.44853564013E+02  0.71154176909E+02  0.47000000000E+01 0.  1.
         -5    1    4    4    0  502  0.34775478962E+02  0.74989291333E+01 -0.24385936463E+03  0.24648539023E+03  0.47000000000E+01 0.  1.
          5    1    3    3  503    0  0.53515101654E+02  0.10305308653E+02 -0.26116467305E+03  0.26683167342E+03  0.47000000000E+01 0. -1.
         -5    1    3    3    0  503 -0.46382903805E+02 -0.53479597789E+02 -0.16986808092E+03  0.18408882655E+03  0.47000000000E+01 0. -1.
<mgrwt>
<rscale>  0 0.13243860E+03</rscale>
<asrwt>0</asrwt>
<pdfrwt beam="1">  1        5 0.37549532E-02 0.13243890E+03</pdfrwt>
<pdfrwt beam="2">  1       -5 0.11448504E+00 0.13243890E+03</pdfrwt>
<totfact> 0.16984657E+02</totfact>
</mgrwt>
</event>
<event>
 8    1  0.3763376E-007  0.1366106E+03  0.7546771E-02  0.1217965E+00
          5   -1    0    0  501    0  0.00000000000E+00  0.00000000000E+00  0.76670813903E+02  0.76814736246E+02  0.47000000000E+01 0. -1.
         -5   -1    0    0    0  501 -0.00000000000E+00 -0.00000000000E+00 -0.24955915004E+03  0.24960340416E+03  0.47000000000E+01 0. -1.
         25    2    1    2    0    0  0.26893639661E+02 -0.48105603057E+02 -0.11287449798E+03  0.17720919854E+03  0.12500012340E+03 0.  0.
         25    2    1    2    0    0 -0.26893639661E+02  0.48105603057E+02 -0.60013838155E+02  0.14920894187E+03  0.12499692262E+03 0.  0.
          5    1    4    4  502    0  0.48236904718E+02  0.27915927104E+02 -0.10597872961E+02  0.56925415011E+02  0.47000000000E+01 0.  1.
         -5    1    4    4    0  502 -0.75130544379E+02  0.20189675953E+02 -0.49415965194E+02  0.92283526860E+02  0.47000000000E+01 0.  1.
          5    1    3    3  503    0 -0.16750129901E+02 -0.52753111862E+02 -0.12024623724E+03  0.13245642768E+03  0.47000000000E+01 0. -1.
         -5    1    3    3    0  503  0.43643769562E+02  0.46475088049E+01  0.73717392585E+01  0.44752770857E+02  0.47000000000E+01 0. -1.
<mgrwt>
<rscale>  0 0.13660984E+03</rscale>
<asrwt>0</asrwt>
<pdfrwt beam="1">  1        5 0.11809985E-01 0.13661057E+03</pdfrwt>
<pdfrwt beam="2">  1       -5 0.38408190E-01 0.13661057E+03</pdfrwt>
<totfact> 0.28498232E+02</totfact>
</mgrwt>
</event>
<event>
 8    1  0.3763376E-007  0.1448043E+03  0.7546771E-02  0.1207013E+00
         -5   -1    0    0    0  501 -0.00000000000E+00  0.00000000000E+00  0.88984120318E+02  0.89108157139E+02  0.47000000000E+01 0.  1.
          5   -1    0    0  501    0  0.00000000000E+00 -0.00000000000E+00 -0.25975472266E+03  0.25979724007E+03  0.47000000000E+01 0.  1.
         25    2    1    2    0    0 -0.49093849802E+02 -0.54162706605E+02 -0.31879308120E+02  0.14827194332E+03  0.12499789604E+03 0.  0.
         25    2    1    2    0    0  0.49093849802E+02  0.54162706605E+02 -0.13889129422E+03  0.20063345389E+03  0.12497674316E+03 0.  0.
          5    1    3    3  502    0 -0.24765288721E+02  0.19034408999E+02  0.34228746406E+02  0.46576016703E+02  0.47000000000E+01 0.  1.
         -5    1    3    3    0  502 -0.24328561081E+02 -0.73197115604E+02 -0.66108054526E+02  0.10169592662E+03  0.47000000000E+01 0.  1.
          5    1    4    4  503    0  0.64391496976E+02  0.55384454679E+02 -0.15568218512E+03  0.17740556775E+03  0.47000000000E+01 0. -1.
         -5    1    4    4    0  503 -0.15297647173E+02 -0.12217480738E+01  0.16790890898E+02  0.23227886140E+02  0.47000000000E+01 0. -1.
<mgrwt>
<rscale>  0 0.14479971E+03</rscale>
<asrwt>0</asrwt>
<pdfrwt beam="2">  1        5 0.39975077E-01 0.14480428E+03</pdfrwt>
<pdfrwt beam="1">  1       -5 0.13702677E-01 0.14480428E+03</pdfrwt>
<totfact> 0.20551342E+02</totfact>
</mgrwt>
</event>
<event>
 8    1  0.3763376E-007  0.1796191E+03  0.7546771E-02  0.1168174E+00
          5   -1    0    0  501    0  0.00000000000E+00  0.00000000000E+00  0.58969245103E+02  0.59156249611E+02  0.47000000000E+01 0. -1.
         -5   -1    0    0    0  501 -0.00000000000E+00 -0.00000000000E+00 -0.57094671673E+03  0.57096606147E+03  0.47000000000E+01 0. -1.
         25    2    1    2    0    0 -0.62258414258E+02  0.11296407382E+03 -0.32178488021E+03  0.36851906561E+03  0.12499520178E+03 0.  0.
         25    2    1    2    0    0  0.62258414258E+02 -0.11296407382E+03 -0.19019259142E+03  0.26160324547E+03  0.12500417628E+03 0.  0.
          5    1    4    4  502    0  0.94647442944E+02 -0.90824325976E+02 -0.17613171512E+03  0.21966262249E+03  0.47000000000E+01 0.  1.
         -5    1    4    4    0  502 -0.32389028686E+02 -0.22139747845E+02 -0.14060876300E+02  0.41940622983E+02  0.47000000000E+01 0.  1.
          5    1    3    3  503    0 -0.50571104195E+02 -0.41124199005E+01 -0.45998364551E+02  0.68646107816E+02  0.47000000000E+01 0.  1.
         -5    1    3    3    0  503 -0.11687310063E+02  0.11707649372E+03 -0.27578651565E+03  0.29987295779E+03  0.47000000000E+01 0.  1.
<mgrwt>
<rscale>  0 0.17961758E+03</rscale>
<asrwt>0</asrwt>
<pdfrwt beam="1">  1        5 0.90880650E-02 0.17961914E+03</pdfrwt>
<pdfrwt beam="2">  1       -5 0.87853826E-01 0.17961914E+03</pdfrwt>
<totfact> 0.80442594E+01</totfact>
</mgrwt>
</event>
<event>
 8    1  0.3763376E-007  0.1302580E+03  0.7546771E-02  0.1227075E+00
         -5   -1    0    0    0  501 -0.00000000000E+00  0.00000000000E+00  0.20834523953E+03  0.20839824576E+03  0.47000000000E+01 0. -1.
          5   -1    0    0  501    0  0.00000000000E+00 -0.00000000000E+00 -0.10700479901E+03  0.10710796894E+03  0.47000000000E+01 0. -1.
         25    2    1    2    0    0 -0.19073557427E+02 -0.31260689117E+02  0.12792059831E+03  0.18256732397E+03  0.12500446806E+03 0.  0.
         25    2    1    2    0    0  0.19073557427E+02  0.31260689117E+02 -0.26580157785E+02  0.13293889072E+03  0.12500085040E+03 0.  0.
          5    1    4    4  502    0  0.30360020335E+02 -0.31765821559E+02 -0.48013060176E+02  0.65254442006E+02  0.47000000000E+01 0. -1.
         -5    1    4    4    0  502 -0.11286462909E+02  0.63026510676E+02  0.21432902391E+02  0.67684448715E+02  0.47000000000E+01 0. -1.
          5    1    3    3  503    0 -0.21297401107E+02 -0.23234615458E+02  0.15270880547E+03  0.15599838434E+03  0.47000000000E+01 0.  1.
         -5    1    3    3    0  503  0.22238436798E+01 -0.80260736585E+01 -0.24788207159E+02  0.26568939633E+02  0.47000000000E+01 0.  1.
<mgrwt>
<rscale>  0 0.13025714E+03</rscale>
<asrwt>0</asrwt>
<pdfrwt beam="2">  1        5 0.16474291E-01 0.13025801E+03</pdfrwt>
<pdfrwt beam="1">  1       -5 0.32065127E-01 0.13025801E+03</pdfrwt>
<totfact> 0.22131707E+02</totfact>
</mgrwt>
</event>
<event>
 8    1  0.3763376E-007  0.1919232E+03  0.7546771E-02  0.1156739E+00
          5   -1    0    0  501    0  0.00000000000E+00  0.00000000000E+00  0.75658277032E+02  0.75804121810E+02  0.47000000000E+01 0.  1.
         -5   -1    0    0    0  501 -0.00000000000E+00 -0.00000000000E+00 -0.56627474391E+03  0.56629424824E+03  0.47000000000E+01 0.  1.
         25    2    1    2    0    0 -0.84150893634E+02  0.11885919854E+03 -0.36600204072E+03  0.41326991908E+03  0.12500260087E+03 0.  0.
         25    2    1    2    0    0  0.84150893634E+02 -0.11885919854E+03 -0.12461442615E+03  0.22882845097E+03  0.12499929116E+03 0.  0.
          5    1    4    4  502    0  0.35316997422E+02  0.10218887706E+02 -0.72144595472E+02  0.81108868989E+02  0.47000000000E+01 0.  1.
         -5    1    4    4    0  502  0.48833896212E+02 -0.12907808625E+03 -0.52469830680E+02  0.14771958198E+03  0.47000000000E+01 0.  1.
          5    1    3    3  503    0 -0.27107610357E+02 -0.14108321381E+02 -0.16659846718E+02  0.35121329190E+02  0.47000000000E+01 0.  1.
         -5    1    3    3    0  503 -0.57043283277E+02  0.13296751992E+03 -0.34934219400E+03  0.37814858989E+03  0.47000000000E+01 0.  1.
<mgrwt>
<rscale>  0 0.19192271E+03</rscale>
<asrwt>0</asrwt>
<pdfrwt beam="1">  1        5 0.11652454E-01 0.19192325E+03</pdfrwt>
<pdfrwt beam="2">  1       -5 0.87131908E-01 0.19192325E+03</pdfrwt>
<totfact> 0.53972358E+01</totfact>
</mgrwt>
</event>
<event>
 8    1  0.3763376E-007  0.1288045E+03  0.7546771E-02  0.1229241E+00
          5   -1    0    0  501    0  0.00000000000E+00  0.00000000000E+00  0.16314805424E+02  0.16978306041E+02  0.47000000000E+01 0.  1.
         -5   -1    0    0    0  501 -0.00000000000E+00 -0.00000000000E+00 -0.10204730538E+04  0.10204838772E+04  0.47000000000E+01 0.  1.
         25    2    1    2    0    0  0.27377781731E+02  0.14692824358E+02 -0.58245115626E+03  0.59652320652E+03  0.12500065785E+03 0.  0.
         25    2    1    2    0    0 -0.27377781731E+02 -0.14692824358E+02 -0.42170709215E+03  0.44093897671E+03  0.12499955038E+03 0.  0.
          5    1    3    3  502    0  0.84725648763E+00  0.45022285595E+02 -0.76100715143E+02  0.88550171592E+02  0.47000000000E+01 0.  1.
         -5    1    3    3    0  502  0.26530525244E+02 -0.30329461237E+02 -0.50635044112E+03  0.50797303492E+03  0.47000000000E+01 0.  1.
          5    1    4    4  503    0 -0.67597860167E+02 -0.14499484180E+02 -0.36341101385E+03  0.36995859326E+03  0.47000000000E+01 0.  1.
         -5    1    4    4    0  503  0.40220078435E+02 -0.19334017819E+00 -0.58296078297E+02  0.70980383450E+02  0.47000000000E+01 0.  1.
<mgrwt>
<rscale>  0 0.12880418E+03</rscale>
<asrwt>0</asrwt>
<pdfrwt beam="1">  1        5 0.25618419E-02 0.12880445E+03</pdfrwt>
<pdfrwt beam="2">  1       -5 0.15704768E+00 0.12880445E+03</pdfrwt>
<totfact> 0.13593342E+02</totfact>
</mgrwt>
</event>
<event>
 8    1  0.3763376E-007  0.1434940E+03  0.7546771E-02  0.1208709E+00
          5   -1    0    0  501    0  0.00000000000E+00  0.00000000000E+00  0.97738949575E+01  0.10845230410E+02  0.47000000000E+01 0.  1.
         -5   -1    0    0    0  501 -0.00000000000E+00 -0.00000000000E+00 -0.20256873126E+04  0.20256927651E+04  0.47000000000E+01 0.  1.
         25    2    1    2    0    0  0.19049264327E+02  0.67810892734E+02 -0.11314477938E+04  0.11405106857E+04  0.12501728805E+03 0.  0.
         25    2    1    2    0    0 -0.19049264327E+02 -0.67810892734E+02 -0.88446562383E+03  0.89602730982E+03  0.12499723424E+03 0.  0.
          5    1    3    3  502    0 -0.45527715318E+02 -0.22523714751E+01 -0.27857624363E+03  0.28232013664E+03  0.47000000000E+01 0. -1.
         -5    1    3    3    0  502  0.64576979645E+02  0.70063264209E+02 -0.85287155019E+03  0.85819054902E+03  0.47000000000E+01 0. -1.
          5    1    4    4  503    0  0.66140995452E+01  0.34787671481E+02 -0.29213156373E+03  0.29430743947E+03  0.47000000000E+01 0. -1.
         -5    1    4    4    0  503 -0.25663363873E+02 -0.10259856422E+03 -0.59233406010E+03  0.60171987035E+03  0.47000000000E+01 0. -1.
<mgrwt>
<rscale>  0 0.14348958E+03</rscale>
<asrwt>0</asrwt>
<pdfrwt beam="1">  1        5 0.15865076E-02 0.14349395E+03</pdfrwt>
<pdfrwt beam="2">  1       -5 0.31172672E+00 0.14349395E+03</pdfrwt>
<totfact> 0.28515043E+01</totfact>
</mgrwt>
</event>
<event>
 8    1  0.3763376E-007  0.1948401E+03  0.7546771E-02  0.1154170E+00
         -5   -1    0    0    0  501 -0.00000000000E+00  0.00000000000E+00  0.32291011898E+03  0.32294432173E+03  0.47000000000E+01 0. -1.
          5   -1    0    0  501    0  0.00000000000E+00 -0.00000000000E+00 -0.16934821040E+03  0.16941341849E+03  0.47000000000E+01 0. -1.
         25    2    1    2    0    0 -0.13456601658E+03  0.64985613560E+02  0.21299608324E+03  0.28866936157E+03  0.12502610148E+03 0.  0.
         25    2    1    2    0    0  0.13456601658E+03 -0.64985613560E+02 -0.59434174657E+02  0.20368837864E+03  0.12500156675E+03 0.  0.
          5    1    3    3  502    0 -0.14000461328E+03  0.15668840559E+02  0.18113071105E+03  0.22951520384E+03  0.47000000000E+01 0. -1.
         -5    1    3    3    0  502  0.54385967052E+01  0.49316773001E+02  0.31865372182E+02  0.59154157738E+02  0.47000000000E+01 0. -1.
          5    1    4    4  503    0  0.11149033739E+03 -0.42235291005E+02 -0.97062004660E+02  0.15380844543E+03  0.47000000000E+01 0.  1.
         -5    1    4    4    0  503  0.23075679188E+02 -0.22750322555E+02  0.37627830004E+02  0.49879933211E+02  0.47000000000E+01 0.  1.
<mgrwt>
<rscale>  0 0.19483618E+03</rscale>
<asrwt>0</asrwt>
<pdfrwt beam="2">  1        5 0.26061218E-01 0.19484011E+03</pdfrwt>
<pdfrwt beam="1">  1       -5 0.49686127E-01 0.19484011E+03</pdfrwt>
<totfact> 0.43046115E+01</totfact>
</mgrwt>
</event>
<event>
 8    1  0.3763376E-007  0.1462746E+03  0.7546771E-02  0.1205130E+00
         -5   -1    0    0    0  501 -0.00000000000E+00  0.00000000000E+00  0.11722361699E+04  0.11722455920E+04  0.47000000000E+01 0.  1.
          5   -1    0    0  501    0  0.00000000000E+00 -0.00000000000E+00 -0.25301443635E+02  0.25734277725E+02  0.47000000000E+01 0.  1.
         25    2    1    2    0    0 -0.69862956792E+02  0.29832294759E+02  0.89326657877E+03  0.90516376831E+03  0.12500187272E+03 0.  0.
         25    2    1    2    0    0  0.69862956792E+02 -0.29832294759E+02  0.25366814749E+03  0.29281610142E+03  0.12499176638E+03 0.  0.
          5    1    3    3  502    0 -0.68895377182E+02 -0.20118646528E+02  0.25564702398E+03  0.26557263377E+03  0.47000000000E+01 0.  1.
         -5    1    3    3    0  502 -0.96757960950E+00  0.49950941287E+02  0.63761955478E+03  0.63959113454E+03  0.47000000000E+01 0.  1.
          5    1    4    4  503    0 -0.96491125371E+00  0.52955915863E+01  0.19278948021E+03  0.19292187026E+03  0.47000000000E+01 0. -1.
         -5    1    4    4    0  503  0.70827868046E+02 -0.35127886346E+02  0.60878667273E+02  0.99894231164E+02  0.47000000000E+01 0. -1.
<mgrwt>
<rscale>  0 0.14627247E+03</rscale>
<asrwt>0</asrwt>
<pdfrwt beam="2">  1        5 0.39265490E-02 0.14627463E+03</pdfrwt>
<pdfrwt beam="1">  1       -5 0.18037807E+00 0.14627463E+03</pdfrwt>
<totfact> 0.47609605E+01</totfact>
</mgrwt>
</event>
<event>
 8    1  0.3763376E-007  0.1490341E+03  0.7546771E-02  0.1201674E+00
         -5   -1    0    0    0  501 -0.00000000000E+00  0.00000000000E+00  0.25540110831E+03  0.25544435035E+03  0.47000000000E+01 0. -1.
          5   -1    0    0  501    0  0.00000000000E+00 -0.00000000000E+00 -0.92093680589E+02  0.92213534823E+02  0.47000000000E+01 0. -1.
         25    2    1    2    0    0  0.78258850706E+02 -0.21291531589E+02  0.12316675178E+03  0.19334224923E+03  0.12503359373E+03 0.  0.
         25    2    1    2    0    0 -0.78258850706E+02  0.21291531589E+02  0.40140675935E+02  0.15431563594E+03  0.12499705836E+03 0.  0.
          5    1    4    4  502    0 -0.10433649278E+03 -0.11542422083E+02  0.39079373472E+02  0.11210985088E+03  0.47000000000E+01 0. -1.
         -5    1    4    4    0  502  0.26077642072E+02  0.32833953672E+02  0.10613024637E+01  0.42205785062E+02  0.47000000000E+01 0. -1.
          5    1    3    3  503    0 -0.95392286671E+01 -0.46060413733E+02  0.10726650988E+02  0.48473803629E+02  0.47000000000E+01 0.  1.
         -5    1    3    3    0  503  0.87798079373E+02  0.24768882144E+02  0.11244010079E+03  0.14486844560E+03  0.47000000000E+01 0.  1.
<mgrwt>
<rscale>  0 0.14902648E+03</rscale>
<asrwt>0</asrwt>
<pdfrwt beam="2">  1        5 0.14180805E-01 0.14903415E+03</pdfrwt>
<pdfrwt beam="1">  1       -5 0.39305024E-01 0.14903415E+03</pdfrwt>
<totfact> 0.20192188E+02</totfact>
</mgrwt>
</event>
<event>
 8    1  0.3763376E-007  0.1485473E+03  0.7546771E-02  0.1202271E+00
          5   -1    0    0  501    0  0.00000000000E+00  0.00000000000E+00  0.40215007015E+02  0.40488724223E+02  0.47000000000E+01 0. -1.
         -5   -1    0    0    0  501 -0.00000000000E+00 -0.00000000000E+00 -0.55470573763E+03  0.55472564873E+03  0.47000000000E+01 0. -1.
         25    2    1    2    0    0 -0.58674875630E+02 -0.54751322561E+02 -0.29333862851E+03  0.32880672942E+03  0.12500346390E+03 0.  0.
         25    2    1    2    0    0  0.58674875630E+02  0.54751322561E+02 -0.22115210211E+03  0.26640764353E+03  0.12499732762E+03 0.  0.
          5    1    3    3  502    0 -0.15845577148E+02 -0.40442416014E+01  0.89883970769E+01  0.19243686946E+02  0.47000000000E+01 0.  1.
         -5    1    3    3    0  502 -0.42829298483E+02 -0.50707080960E+02 -0.30232702559E+03  0.30956304248E+03  0.47000000000E+01 0.  1.
          5    1    4    4  503    0  0.67668853393E+01 -0.39558859143E+02 -0.69062554136E+02  0.80015126430E+02  0.47000000000E+01 0.  1.
         -5    1    4    4    0  503  0.51907990291E+02  0.94310181704E+02 -0.15208954797E+03  0.18639251710E+03  0.47000000000E+01 0.  1.
<mgrwt>
<rscale>  0 0.14854606E+03</rscale>
<asrwt>0</asrwt>
<pdfrwt beam="1">  1        5 0.62095114E-02 0.14854735E+03</pdfrwt>
<pdfrwt beam="2">  1       -5 0.85361925E-01 0.14854735E+03</pdfrwt>
<totfact> 0.15610679E+02</totfact>
</mgrwt>
</event>
<event>
 8    1  0.3763376E-007  0.1615204E+03  0.7546771E-02  0.1186997E+00
         -5   -1    0    0    0  501 -0.00000000000E+00  0.00000000000E+00  0.19040190249E+03  0.19045990253E+03  0.47000000000E+01 0. -1.
          5   -1    0    0  501    0  0.00000000000E+00 -0.00000000000E+00 -0.14881463375E+03  0.14888883510E+03  0.47000000000E+01 0. -1.
         25    2    1    2    0    0 -0.71677808408E+02 -0.72969128772E+02  0.68814240839E+02  0.17554963295E+03  0.12498028611E+03 0.  0.
         25    2    1    2    0    0  0.71677808408E+02  0.72969128772E+02 -0.27226972104E+02  0.16379910467E+03  0.12500654667E+03 0.  0.
          5    1    4    4  502    0  0.10678847494E+02  0.85346148202E+01  0.46278019178E+02  0.48483218674E+02  0.47000000000E+01 0.  1.
         -5    1    4    4    0  502  0.60998960914E+02  0.64434513952E+02 -0.73504991282E+02  0.11531588600E+03  0.47000000000E+01 0.  1.
          5    1    3    3  503    0  0.78983553026E+01 -0.24060476076E+02 -0.29970197297E+02  0.39516999526E+02  0.47000000000E+01 0. -1.
         -5    1    3    3    0  503 -0.79576163710E+02 -0.48908652696E+02  0.98784438136E+02  0.13603263343E+03  0.47000000000E+01 0. -1.
<mgrwt>
<rscale>  0 0.16151532E+03</rscale>
<asrwt>0</asrwt>
<pdfrwt beam="2">  1        5 0.22904728E-01 0.16152040E+03</pdfrwt>
<pdfrwt beam="1">  1       -5 0.29302770E-01 0.16152040E+03</pdfrwt>
<totfact> 0.15363166E+02</totfact>
</mgrwt>
</event>
<event>
 8    1  0.3763376E-007  0.1259520E+03  0.7546771E-02  0.1233618E+00
         -5   -1    0    0    0  501 -0.00000000000E+00  0.00000000000E+00  0.21044962786E+02  0.21563405544E+02  0.47000000000E+01 0. -1.
          5   -1    0    0  501    0  0.00000000000E+00 -0.00000000000E+00 -0.10413157570E+04  0.10413263637E+04  0.47000000000E+01 0. -1.
         25    2    1    2    0    0  0.10745226287E+02 -0.11086713998E+02 -0.22618469784E+03  0.25888882897E+03  0.12500213243E+03 0.  0.
         25    2    1    2    0    0 -0.10745226287E+02  0.11086713998E+02 -0.79408609635E+03  0.80400094027E+03  0.12492561156E+03 0.  0.
          5    1    4    4  502    0 -0.22155331531E+02  0.62326325488E+02 -0.56773985989E+03  0.57159956969E+03  0.47000000000E+01 0.  1.
         -5    1    4    4    0  502  0.11410105244E+02 -0.51239611490E+02 -0.22634623646E+03  0.23240137058E+03  0.47000000000E+01 0.  1.
          5    1    3    3  503    0  0.99699298766E+01 -0.62835609163E+02 -0.72074579058E+02  0.96252523225E+02  0.47000000000E+01 0.  1.
         -5    1    3    3    0  503  0.77529641065E+00  0.51748895165E+02 -0.15411011878E+03  0.16263630574E+03  0.47000000000E+01 0.  1.
<mgrwt>
<rscale>  0 0.12593302E+03</rscale>
<asrwt>0</asrwt>
<pdfrwt beam="2">  1        5 0.16024308E+00 0.12595201E+03</pdfrwt>
<pdfrwt beam="1">  1       -5 0.32783835E-02 0.12595201E+03</pdfrwt>
<totfact> 0.85764728E+01</totfact>
</mgrwt>
</event>
<event>
 8    1  0.3763376E-007  0.1337641E+03  0.7546771E-02  0.1221975E+00
         -5   -1    0    0    0  501 -0.00000000000E+00  0.00000000000E+00  0.14302902841E+04  0.14302980063E+04  0.47000000000E+01 0.  1.
          5   -1    0    0  501    0  0.00000000000E+00 -0.00000000000E+00 -0.14328437927E+02  0.15079593278E+02  0.47000000000E+01 0.  1.
         25    2    1    2    0    0 -0.10942587729E+02  0.46345094225E+02  0.98757120354E+03  0.99658904176E+03  0.12500091242E+03 0.  0.
         25    2    1    2    0    0  0.10942587729E+02 -0.46345094225E+02  0.42839064262E+03  0.44878855779E+03  0.12500007575E+03 0.  0.
          5    1    3    3  502    0  0.25809071133E+02  0.48859566114E+02  0.18437187497E+03  0.19253166917E+03  0.47000000000E+01 0.  1.
         -5    1    3    3    0  502 -0.36751658862E+02 -0.25144718883E+01  0.80319932857E+03  0.80405737259E+03  0.47000000000E+01 0.  1.
          5    1    4    4  503    0 -0.37991272626E+02  0.26013447708E+02  0.14950523619E+03  0.15650540536E+03  0.47000000000E+01 0.  1.
         -5    1    4    4    0  503  0.48933860355E+02 -0.72358541933E+02  0.27888540642E+03  0.29228315243E+03  0.47000000000E+01 0.  1.
<mgrwt>
<rscale>  0 0.13376391E+03</rscale>
<asrwt>0</asrwt>
<pdfrwt beam="2">  1        5 0.22627497E-02 0.13376411E+03</pdfrwt>
<pdfrwt beam="1">  1       -5 0.22010309E+00 0.13376411E+03</pdfrwt>
<totfact> 0.60859885E+01</totfact>
</mgrwt>
</event>
<event>
 8    1  0.3763376E-007  0.1459102E+03  0.7546771E-02  0.1205603E+00
         -5   -1    0    0    0  501 -0.00000000000E+00  0.00000000000E+00  0.16088707481E+03  0.16095571080E+03  0.47000000000E+01 0.  1.
          5   -1    0    0  501    0  0.00000000000E+00 -0.00000000000E+00 -0.13356301850E+03  0.13364568796E+03  0.47000000000E+01 0.  1.
         25    2    1    2    0    0 -0.43313844770E+02 -0.61551445068E+02 -0.14611633941E+01  0.14591754245E+03  0.12500049863E+03 0.  0.
         25    2    1    2    0    0  0.43313844770E+02  0.61551445068E+02  0.28785219706E+02  0.14868385632E+03  0.12495451459E+03 0.  0.
          5    1    3    3  502    0 -0.87518705637E+02 -0.44213656067E+02  0.39003478123E+00  0.98166253602E+02  0.47000000000E+01 0. -1.
         -5    1    3    3    0  502  0.44204860867E+02 -0.17337789002E+02 -0.18511981753E+01  0.47751288846E+02  0.47000000000E+01 0. -1.
          5    1    4    4  503    0  0.65617707686E+02  0.41605881820E+02  0.65045136352E+02  0.10143812265E+03  0.47000000000E+01 0.  1.
         -5    1    4    4    0  503 -0.22303862916E+02  0.19945563249E+02 -0.36259916646E+02  0.47245733664E+02  0.47000000000E+01 0.  1.
<mgrwt>
<rscale>  0 0.14590038E+03</rscale>
<asrwt>0</asrwt>
<pdfrwt beam="2">  1        5 0.20559796E-01 0.14591023E+03</pdfrwt>
<pdfrwt beam="1">  1       -5 0.24763496E-01 0.14591023E+03</pdfrwt>
<totfact> 0.25252425E+02</totfact>
</mgrwt>
</event>
<event>
 8    1  0.3763376E-007  0.1427279E+03  0.7546771E-02  0.1209712E+00
         -5   -1    0    0    0  501 -0.00000000000E+00  0.00000000000E+00  0.46221255587E+02  0.46459600387E+02  0.47000000000E+01 0.  1.
          5   -1    0    0  501    0  0.00000000000E+00 -0.00000000000E+00 -0.44049329674E+03  0.44051837019E+03  0.47000000000E+01 0.  1.
         25    2    1    2    0    0  0.17483819629E+02 -0.66617463871E+02 -0.18440578058E+03  0.23318820102E+03  0.12501069851E+03 0.  0.
         25    2    1    2    0    0 -0.17483819629E+02  0.66617463871E+02 -0.20986626058E+03  0.25378976956E+03  0.12498731680E+03 0.  0.
          5    1    4    4  502    0 -0.35432727452E+02 -0.23013913547E+02 -0.11196982775E+03  0.11976832102E+03  0.47000000000E+01 0. -1.
         -5    1    4    4    0  502  0.17948907823E+02  0.89631377418E+02 -0.97896432821E+02  0.13402144854E+03  0.47000000000E+01 0. -1.
          5    1    3    3  503    0  0.15572049624E+01 -0.10907289656E+02 -0.17365801710E+03  0.17407064875E+03  0.47000000000E+01 0.  1.
         -5    1    3    3    0  503  0.15926614667E+02 -0.55710174215E+02 -0.10747763477E+02  0.59117552263E+02  0.47000000000E+01 0.  1.
<mgrwt>
<rscale>  0 0.14272275E+03</rscale>
<asrwt>0</asrwt>
<pdfrwt beam="2">  1        5 0.67788459E-01 0.14272787E+03</pdfrwt>
<pdfrwt beam="1">  1       -5 0.71312257E-02 0.14272787E+03</pdfrwt>
<totfact> 0.20677815E+02</totfact>
</mgrwt>
</event>
<event>
 8    1  0.3763376E-007  0.1791165E+03  0.7546771E-02  0.1168671E+00
          5   -1    0    0  501    0  0.00000000000E+00  0.00000000000E+00  0.13903654351E+03  0.13911596037E+03  0.47000000000E+01 0. -1.
         -5   -1    0    0    0  501 -0.00000000000E+00 -0.00000000000E+00 -0.23296771330E+03  0.23301511848E+03  0.47000000000E+01 0. -1.
         25    2    1    2    0    0  0.81361432111E+02  0.99195446907E+02 -0.65992226101E+02  0.19084871324E+03  0.12493533574E+03 0.  0.
         25    2    1    2    0    0 -0.81361432111E+02 -0.99195446907E+02 -0.27938943695E+02  0.18128236562E+03  0.12499316856E+03 0.  0.
          5    1    3    3  502    0  0.44679259937E+02 -0.86246694147E+01  0.18103392243E+02  0.49198008108E+02  0.47000000000E+01 0.  1.
         -5    1    3    3    0  502  0.36682172174E+02  0.10782011632E+03 -0.84095618345E+02  0.14165070513E+03  0.47000000000E+01 0.  1.
          5    1    4    4  503    0 -0.10615897679E+03 -0.41253308165E+02 -0.30601384101E+02  0.11802583826E+03  0.47000000000E+01 0. -1.
         -5    1    4    4    0  503  0.24797544684E+02 -0.57942138742E+02  0.26624404054E+01  0.63256527357E+02  0.47000000000E+01 0. -1.
<mgrwt>
<rscale>  0 0.17910639E+03</rscale>
<asrwt>0</asrwt>
<pdfrwt beam="1">  1        5 0.21399993E-01 0.17911647E+03</pdfrwt>
<pdfrwt beam="2">  1       -5 0.35850942E-01 0.17911647E+03</pdfrwt>
<totfact> 0.12062816E+02</totfact>
</mgrwt>
</event>
<event>
 8    1  0.3763376E-007  0.1290276E+03  0.7546771E-02  0.1228917E+00
          5   -1    0    0  501    0  0.00000000000E+00  0.00000000000E+00  0.39531971547E+03  0.39534765389E+03  0.47000000000E+01 0.  1.
         -5   -1    0    0    0  501 -0.00000000000E+00 -0.00000000000E+00 -0.42711201742E+02  0.42969020867E+02  0.47000000000E+01 0.  1.
         25    2    1    2    0    0 -0.65197750173E+01  0.31292810101E+02  0.14697610395E+03  0.19555587875E+03  0.12497351381E+03 0.  0.
         25    2    1    2    0    0  0.65197750173E+01 -0.31292810101E+02  0.20563240978E+03  0.24276079601E+03  0.12500547466E+03 0.  0.
          5    1    3    3  502    0  0.83978747954E+01 -0.36211202932E+02  0.52983813224E+01  0.37840961450E+02  0.47000000000E+01 0. -1.
         -5    1    3    3    0  502 -0.14917649813E+02  0.67504013033E+02  0.14167772262E+03  0.15771491730E+03  0.47000000000E+01 0. -1.
          5    1    4    4  503    0  0.46321164376E+02 -0.62644971648E+02  0.12891272564E+03  0.15070044318E+03  0.47000000000E+01 0. -1.
         -5    1    4    4    0  503 -0.39801389359E+02  0.31352161546E+02  0.76719684136E+02  0.92060352826E+02  0.47000000000E+01 0. -1.
<mgrwt>
<rscale>  0 0.12901984E+03</rscale>
<asrwt>0</asrwt>
<pdfrwt beam="1">  1        5 0.60840398E-01 0.12902758E+03</pdfrwt>
<pdfrwt beam="2">  1       -5 0.65929356E-02 0.12902758E+03</pdfrwt>
<totfact> 0.28995621E+02</totfact>
</mgrwt>
</event>
<event>
 8    1  0.3763376E-007  0.1352568E+03  0.7546771E-02  0.1219859E+00
          5   -1    0    0  501    0  0.00000000000E+00  0.00000000000E+00  0.25551034398E+03  0.25555356753E+03  0.47000000000E+01 0. -1.
         -5   -1    0    0    0  501 -0.00000000000E+00 -0.00000000000E+00 -0.75060002342E+02  0.75207007330E+02  0.47000000000E+01 0. -1.
         25    2    1    2    0    0 -0.53109314905E+01  0.51394018696E+02  0.54107526492E+02  0.14567782675E+03  0.12499941453E+03 0.  0.
         25    2    1    2    0    0  0.53109314905E+01 -0.51394018696E+02  0.12634281514E+03  0.18508274811E+03  0.12499426210E+03 0.  0.
          5    1    3    3  502    0  0.60119783145E+01  0.67013181501E+02 -0.18878949613E+02  0.70038668724E+02  0.47000000000E+01 0. -1.
         -5    1    3    3    0  502 -0.11322909805E+02 -0.15619162805E+02  0.72986476105E+02  0.75639158029E+02  0.47000000000E+01 0. -1.
          5    1    4    4  503    0  0.59231900525E+01  0.33432267501E+02  0.82803086193E+02  0.89617195748E+02  0.47000000000E+01 0. -1.
         -5    1    4    4    0  503 -0.61225856201E+00 -0.84826286197E+02  0.43539728949E+02  0.95465552360E+02  0.47000000000E+01 0. -1.
<mgrwt>
<rscale>  0 0.13525562E+03</rscale>
<asrwt>0</asrwt>
<pdfrwt beam="1">  1        5 0.39323917E-01 0.13525681E+03</pdfrwt>
<pdfrwt beam="2">  1       -5 0.11562326E-01 0.13525681E+03</pdfrwt>
<totfact> 0.28105029E+02</totfact>
</mgrwt>
</event>
<event>
 8    1  0.3763376E-007  0.1683212E+03  0.7546771E-02  0.1179611E+00
          5   -1    0    0  501    0  0.00000000000E+00  0.00000000000E+00  0.64334756071E+02  0.64506207753E+02  0.47000000000E+01 0. -1.
         -5   -1    0    0    0  501 -0.00000000000E+00 -0.00000000000E+00 -0.44061257038E+03  0.44063763704E+03  0.47000000000E+01 0. -1.
         25    2    1    2    0    0 -0.78124425081E+02 -0.81261569249E+02 -0.20020176639E+03  0.26155832424E+03  0.12500056512E+03 0.  0.
         25    2    1    2    0    0  0.78124425081E+02  0.81261569249E+02 -0.17607604792E+03  0.24358552056E+03  0.12499705094E+03 0.  0.
          5    1    3    3  502    0 -0.10947478158E+03 -0.70105439178E+02 -0.18086354555E+03  0.22278512633E+03  0.47000000000E+01 0.  1.
         -5    1    3    3    0  502  0.31350356499E+02 -0.11156130071E+02 -0.19338220840E+02  0.38773197908E+02  0.47000000000E+01 0.  1.
          5    1    4    4  503    0  0.80600024545E+02  0.10944309750E+03 -0.12355270554E+03  0.18374307223E+03  0.47000000000E+01 0.  1.
         -5    1    4    4    0  503 -0.24755994639E+01 -0.28181528249E+02 -0.52523342372E+02  0.59842448321E+02  0.47000000000E+01 0.  1.
<mgrwt>
<rscale>  0 0.16832050E+03</rscale>
<asrwt>0</asrwt>
<pdfrwt beam="1">  1        5 0.99127718E-02 0.16832115E+03</pdfrwt>
<pdfrwt beam="2">  1       -5 0.67801664E-01 0.16832115E+03</pdfrwt>
<totfact> 0.12338211E+02</totfact>
</mgrwt>
</event>
<event>
 8    1  0.3763376E-007  0.1691693E+03  0.7546771E-02  0.1178720E+00
          5   -1    0    0  501    0  0.00000000000E+00  0.00000000000E+00  0.63678447768E+02  0.63851661765E+02  0.47000000000E+01 0.  1.
         -5   -1    0    0    0  501 -0.00000000000E+00 -0.00000000000E+00 -0.45584884916E+03  0.45587307804E+03  0.47000000000E+01 0.  1.
         25    2    1    2    0    0 -0.11376217836E+03  0.68104111975E+01 -0.22888449756E+03  0.28461615155E+03  0.12502010069E+03 0.  0.
         25    2    1    2    0    0  0.11376217836E+03 -0.68104111975E+01 -0.16328590383E+03  0.23510858825E+03  0.12500218779E+03 0.  0.
          5    1    4    4  502    0 -0.22945385519E+02  0.16904770370E+02 -0.17390840856E+02  0.33716365812E+02  0.47000000000E+01 0. -1.
         -5    1    4    4    0  502  0.13670756388E+03 -0.23715181567E+02 -0.14589506298E+03  0.20139222244E+03  0.47000000000E+01 0. -1.
          5    1    3    3  503    0 -0.13941759756E+03 -0.69652588491E+01 -0.18846015789E+03  0.23457430049E+03  0.47000000000E+01 0.  1.
         -5    1    3    3    0  503  0.25655419202E+02  0.13775670047E+02 -0.40424339674E+02  0.50041851062E+02  0.47000000000E+01 0.  1.
<mgrwt>
<rscale>  0 0.16916596E+03</rscale>
<asrwt>0</asrwt>
<pdfrwt beam="1">  1        5 0.98118725E-02 0.16916927E+03</pdfrwt>
<pdfrwt beam="2">  1       -5 0.70145778E-01 0.16916927E+03</pdfrwt>
<totfact> 0.11651375E+02</totfact>
</mgrwt>
</event>
<event>
 8    1  0.3763376E-007  0.1328010E+03  0.7546771E-02  0.1223359E+00
         -5   -1    0    0    0  501 -0.00000000000E+00  0.00000000000E+00  0.42331090513E+02  0.42591210643E+02  0.47000000000E+01 0. -1.
          5   -1    0    0  501    0  0.00000000000E+00 -0.00000000000E+00 -0.47129195901E+03  0.47131539401E+03  0.47000000000E+01 0. -1.
         25    2    1    2    0    0  0.42170452237E+02 -0.15224448596E+02 -0.12575043824E+03  0.18288897405E+03  0.12500029294E+03 0.  0.
         25    2    1    2    0    0 -0.42170452237E+02  0.15224448596E+02 -0.30321043025E+03  0.33101763060E+03  0.12500390344E+03 0.  0.
          5    1    3    3  502    0  0.26061811994E+02  0.33177722092E+02  0.47288810998E+01  0.42713365638E+02  0.47000000000E+01 0.  1.
         -5    1    3    3    0  502  0.16108640243E+02 -0.48402170688E+02 -0.13047931934E+03  0.14017560841E+03  0.47000000000E+01 0.  1.
          5    1    4    4  503    0 -0.56486170038E+02 -0.42066634126E+02 -0.12955519502E+03  0.14753619105E+03  0.47000000000E+01 0. -1.
         -5    1    4    4    0  503  0.14315717801E+02  0.57291082722E+02 -0.17365523523E+03  0.18348143955E+03  0.47000000000E+01 0. -1.
<mgrwt>
<rscale>  0 0.13280015E+03</rscale>
<asrwt>0</asrwt>
<pdfrwt beam="2">  1        5 0.72528264E-01 0.13280100E+03</pdfrwt>
<pdfrwt beam="1">  1       -5 0.65342877E-02 0.13280100E+03</pdfrwt>
<totfact> 0.20105001E+02</totfact>
</mgrwt>
</event>
<event>
 8    1  0.3763376E-007  0.1530731E+03  0.7546771E-02  0.1196758E+00
         -5   -1    0    0    0  501 -0.00000000000E+00  0.00000000000E+00  0.36608635222E+02  0.36909106909E+02  0.47000000000E+01 0.  1.
          5   -1    0    0  501    0  0.00000000000E+00 -0.00000000000E+00 -0.70150925156E+03  0.70152499601E+03  0.47000000000E+01 0.  1.
         25    2    1    2    0    0 -0.25500984430E+02 -0.84589568261E+02 -0.22045741422E+03  0.26836908264E+03  0.12495918441E+03 0.  0.
         25    2    1    2    0    0  0.25500984430E+02  0.84589568261E+02 -0.44444320213E+03  0.47006502028E+03  0.12500267242E+03 0.  0.
          5    1    4    4  502    0  0.11787854403E+02  0.20197135654E+02 -0.36922030018E+03  0.36998999698E+03  0.47000000000E+01 0.  1.
         -5    1    4    4    0  502  0.13713130027E+02  0.64392432607E+02 -0.75222901952E+02  0.10007502331E+03  0.47000000000E+01 0.  1.
          5    1    3    3  503    0  0.39636467265E+02 -0.66385044516E+02 -0.74678919960E+02  0.10759672281E+03  0.47000000000E+01 0. -1.
         -5    1    3    3    0  503 -0.65137451695E+02 -0.18204523745E+02 -0.14577849425E+03  0.16077235983E+03  0.47000000000E+01 0. -1.
<mgrwt>
<rscale>  0 0.15306419E+03</rscale>
<asrwt>0</asrwt>
<pdfrwt beam="2">  1        5 0.10794881E+00 0.15307307E+03</pdfrwt>
<pdfrwt beam="1">  1       -5 0.56564226E-02 0.15307307E+03</pdfrwt>
<totfact> 0.10456398E+02</totfact>
</mgrwt>
</event>
<event>
 8    1  0.3763376E-007  0.1768331E+03  0.7546771E-02  0.1170904E+00
          5   -1    0    0  501    0  0.00000000000E+00  0.00000000000E+00  0.77152743684E+02  0.77295768694E+02  0.47000000000E+01 0. -1.
         -5   -1    0    0    0  501 -0.00000000000E+00 -0.00000000000E+00 -0.40835385775E+03  0.40838090447E+03  0.47000000000E+01 0. -1.
         25    2    1    2    0    0  0.12169701076E+03  0.28885969508E+02 -0.18836387013E+03  0.25836195003E+03  0.12500155194E+03 0.  0.
         25    2    1    2    0    0 -0.12169701076E+03 -0.28885969508E+02 -0.14283724393E+03  0.22731472314E+03  0.12499977376E+03 0.  0.
          5    1    3    3  502    0  0.37568227513E+02  0.69057598856E+02 -0.57036886057E+02  0.97240012594E+02  0.47000000000E+01 0. -1.
         -5    1    3    3    0  502  0.84128783247E+02 -0.40171629348E+02 -0.13132698408E+03  0.16112193743E+03  0.47000000000E+01 0. -1.
          5    1    4    4  503    0  0.95181607382E+01  0.41383580509E+01  0.15339628366E+02  0.19107998053E+02  0.47000000000E+01 0.  1.
         -5    1    4    4    0  503 -0.13121517150E+03 -0.33024327559E+02 -0.15817687229E+03  0.20820672508E+03  0.47000000000E+01 0.  1.
<mgrwt>
<rscale>  0 0.17683280E+03</rscale>
<asrwt>0</asrwt>
<pdfrwt beam="1">  1        5 0.11882736E-01 0.17683311E+03</pdfrwt>
<pdfrwt beam="2">  1       -5 0.62836752E-01 0.17683311E+03</pdfrwt>
<totfact> 0.10774963E+02</totfact>
</mgrwt>
</event>
<event>
 8    1  0.3763376E-007  0.1500481E+03  0.7546771E-02  0.1200417E+00
          5   -1    0    0  501    0  0.00000000000E+00  0.00000000000E+00  0.53435719067E+02  0.53642017787E+02  0.47000000000E+01 0.  1.
         -5   -1    0    0    0  501 -0.00000000000E+00 -0.00000000000E+00 -0.42586434491E+03  0.42589027961E+03  0.47000000000E+01 0.  1.
         25    2    1    2    0    0  0.18494286087E+02 -0.80909925402E+02 -0.21365993615E+03  0.26107882925E+03  0.12499252824E+03 0.  0.
         25    2    1    2    0    0 -0.18494286087E+02  0.80909925402E+02 -0.15876868969E+03  0.21845346815E+03  0.12500386504E+03 0.  0.
          5    1    4    4  502    0  0.35737161036E+02  0.61142043457E+02 -0.14103288993E+03  0.15788559212E+03  0.47000000000E+01 0.  1.
         -5    1    4    4    0  502 -0.54231447123E+02  0.19767881945E+02 -0.17735799756E+02  0.60567876029E+02  0.47000000000E+01 0.  1.
          5    1    3    3  503    0 -0.32807148838E+02 -0.82529324814E+02 -0.17616630014E+03  0.19734247838E+03  0.47000000000E+01 0.  1.
         -5    1    3    3    0  503  0.51301434925E+02  0.16193994118E+01 -0.37493636017E+02  0.63736350865E+02  0.47000000000E+01 0.  1.
<mgrwt>
<rscale>  0 0.15004570E+03</rscale>
<asrwt>0</asrwt>
<pdfrwt beam="1">  1        5 0.82387443E-02 0.15004806E+03</pdfrwt>
<pdfrwt beam="2">  1       -5 0.65535453E-01 0.15004806E+03</pdfrwt>
<totfact> 0.17707207E+02</totfact>
</mgrwt>
</event>
<event>
 8    1  0.3763376E-007  0.1405469E+03  0.7546771E-02  0.1212596E+00
          5   -1    0    0  501    0  0.00000000000E+00  0.00000000000E+00  0.18680767766E+02  0.19262945890E+02  0.47000000000E+01 0.  1.
         -5   -1    0    0    0  501 -0.00000000000E+00 -0.00000000000E+00 -0.11213910878E+04  0.11214009372E+04  0.47000000000E+01 0.  1.
         25    2    1    2    0    0  0.62070541401E+02  0.16578779627E+02 -0.70441794941E+03  0.71830222134E+03  0.12500330266E+03 0.  0.
         25    2    1    2    0    0 -0.62070541401E+02 -0.16578779627E+02 -0.39829237064E+03  0.42236166171E+03  0.12499981089E+03 0.  0.
          5    1    4    4  502    0 -0.81279478866E+02  0.23542293574E+02 -0.33011673072E+03  0.34082215182E+03  0.47000000000E+01 0. -1.
         -5    1    4    4    0  502  0.19208937465E+02 -0.40121073202E+02 -0.68175639925E+02  0.81539509887E+02  0.47000000000E+01 0. -1.
          5    1    3    3  503    0  0.14125686348E+02 -0.53459868131E+02 -0.26930999774E+03  0.27496810251E+03  0.47000000000E+01 0.  1.
         -5    1    3    3    0  503  0.47944855052E+02  0.70038647758E+02 -0.43510795168E+03  0.44333411883E+03  0.47000000000E+01 0.  1.
<mgrwt>
<rscale>  0 0.14054613E+03</rscale>
<asrwt>0</asrwt>
<pdfrwt beam="1">  1        5 0.29195057E-02 0.14054691E+03</pdfrwt>
<pdfrwt beam="2">  1       -5 0.17256719E+00 0.14054691E+03</pdfrwt>
<totfact> 0.86729432E+01</totfact>
</mgrwt>
</event>
<event>
 8    1  0.3763376E-007  0.1341666E+03  0.7546771E-02  0.1221403E+00
         -5   -1    0    0    0  501 -0.00000000000E+00  0.00000000000E+00  0.57655109109E+02  0.57846362085E+02  0.47000000000E+01 0.  1.
          5   -1    0    0  501    0  0.00000000000E+00 -0.00000000000E+00 -0.31293536667E+03  0.31297065951E+03  0.47000000000E+01 0.  1.
         25    2    1    2    0    0  0.46956532012E+02 -0.13060819769E+02 -0.11498872602E+03  0.17670055640E+03  0.12500071443E+03 0.  0.
         25    2    1    2    0    0 -0.46956532012E+02  0.13060819769E+02 -0.14029153154E+03  0.19411646519E+03  0.12499594924E+03 0.  0.
          5    1    4    4  502    0 -0.26045710019E+02 -0.44542125447E+02 -0.11776260015E+03  0.12865651925E+03  0.47000000000E+01 0.  1.
         -5    1    4    4    0  502 -0.20910821993E+02  0.57602945216E+02 -0.22528931389E+02  0.65459945948E+02  0.47000000000E+01 0.  1.
          5    1    3    3  503    0  0.11390083192E+02 -0.38146648353E+02  0.12431143231E+02  0.41970514623E+02  0.47000000000E+01 0.  1.
         -5    1    3    3    0  503  0.35566448820E+02  0.25085828584E+02 -0.12741986925E+03  0.13473004178E+03  0.47000000000E+01 0.  1.
<mgrwt>
<rscale>  0 0.13416550E+03</rscale>
<asrwt>0</asrwt>
<pdfrwt beam="2">  1        5 0.48161328E-01 0.13416661E+03</pdfrwt>
<pdfrwt beam="1">  1       -5 0.88874436E-02 0.13416661E+03</pdfrwt>
<totfact> 0.29158734E+02</totfact>
</mgrwt>
</event>
<event>
 8    1  0.3763376E-007  0.1602714E+03  0.7546771E-02  0.1188393E+00
         -5   -1    0    0    0  501 -0.00000000000E+00  0.00000000000E+00  0.23517114022E+02  0.23982173628E+02  0.47000000000E+01 0. -1.
          5   -1    0    0  501    0  0.00000000000E+00 -0.00000000000E+00 -0.11591737981E+04  0.11591833264E+04  0.47000000000E+01 0. -1.
         25    2    1    2    0    0  0.83699306373E+02 -0.55271015334E+02 -0.41426932263E+03  0.44418875209E+03  0.12499646709E+03 0.  0.
         25    2    1    2    0    0 -0.83699306373E+02  0.55271015334E+02 -0.72138736142E+03  0.73897674791E+03  0.12500579872E+03 0.  0.
          5    1    3    3  502    0  0.66065786429E+02 -0.77657211118E+02 -0.39833379849E+03  0.41120218335E+03  0.47000000000E+01 0. -1.
         -5    1    3    3    0  502  0.17633519944E+02  0.22386195784E+02 -0.15935524143E+02  0.32986568736E+02  0.47000000000E+01 0. -1.
          5    1    4    4  503    0 -0.70757309969E+02  0.89519401498E+02 -0.63253553011E+03  0.64276248102E+03  0.47000000000E+01 0.  1.
         -5    1    4    4    0  503 -0.12941996405E+02 -0.34248386164E+02 -0.88851831309E+02  0.96214266888E+02  0.47000000000E+01 0.  1.
<mgrwt>
<rscale>  0 0.16026954E+03</rscale>
<asrwt>0</asrwt>
<pdfrwt beam="2">  1        5 0.17837089E+00 0.16027136E+03</pdfrwt>
<pdfrwt beam="1">  1       -5 0.36545252E-02 0.16027136E+03</pdfrwt>
<totfact> 0.56792402E+01</totfact>
</mgrwt>
</event>
<event>
 8    1  0.3763376E-007  0.1322479E+03  0.7546771E-02  0.1224158E+00
          5   -1    0    0  501    0  0.00000000000E+00  0.00000000000E+00  0.33249275599E+02  0.33579820248E+02  0.47000000000E+01 0.  1.
         -5   -1    0    0    0  501 -0.00000000000E+00 -0.00000000000E+00 -0.52464792986E+03  0.52466898165E+03  0.47000000000E+01 0.  1.
         25    2    1    2    0    0 -0.16202852116E+02  0.39987442749E+02 -0.23036158676E+03  0.26562299886E+03  0.12501035507E+03 0.  0.
         25    2    1    2    0    0  0.16202852116E+02 -0.39987442749E+02 -0.26103706751E+03  0.29262580304E+03  0.12501192743E+03 0.  0.
          5    1    4    4  502    0  0.26489249101E+01  0.37928071195E+02 -0.30851907875E+02  0.49188266967E+02  0.47000000000E+01 0.  1.
         -5    1    4    4    0  502  0.13553927205E+02 -0.77915513944E+02 -0.23018515963E+03  0.24343753608E+03  0.47000000000E+01 0.  1.
          5    1    3    3  503    0  0.29009112191E+02  0.19631223914E+02 -0.60583615436E+01  0.35856760688E+02  0.47000000000E+01 0.  1.
         -5    1    3    3    0  503 -0.45211964306E+02  0.20356218834E+02 -0.22430322521E+03  0.22976623817E+03  0.47000000000E+01 0.  1.
<mgrwt>
<rscale>  0 0.13224754E+03</rscale>
<asrwt>0</asrwt>
<pdfrwt beam="1">  1        5 0.51423194E-02 0.13224791E+03</pdfrwt>
<pdfrwt beam="2">  1       -5 0.80742106E-01 0.13224791E+03</pdfrwt>
<totfact> 0.23456225E+02</totfact>
</mgrwt>
</event>
<event>
 8    1  0.3763376E-007  0.1310000E+03  0.7546771E-02  0.1226003E+00
          5   -1    0    0  501    0  0.00000000000E+00  0.00000000000E+00  0.54226903435E+02  0.54430203528E+02  0.47000000000E+01 0. -1.
         -5   -1    0    0    0  501 -0.00000000000E+00 -0.00000000000E+00 -0.38491022632E+03  0.38493892025E+03  0.47000000000E+01 0. -1.
         25    2    1    2    0    0 -0.80071304495E+01  0.38361047276E+02 -0.25856933327E+03  0.28983177825E+03  0.12493468490E+03 0.  0.
         25    2    1    2    0    0  0.80071304495E+01 -0.38361047276E+02 -0.72113989615E+02  0.14953734553E+03  0.12500122449E+03 0.  0.
          5    1    3    3  502    0 -0.57405737334E+02  0.33122877396E+02 -0.20975908174E+03  0.22003069344E+03  0.47000000000E+01 0.  1.
         -5    1    3    3    0  502  0.49398606884E+02  0.52381698799E+01 -0.48810251532E+02  0.69801084808E+02  0.47000000000E+01 0.  1.
          5    1    4    4  503    0  0.60236357984E+02  0.96473252735E-01 -0.13322438266E+02  0.61870877573E+02  0.47000000000E+01 0. -1.
         -5    1    4    4    0  503 -0.52229227534E+02 -0.38457520529E+02 -0.58791551349E+02  0.87666467957E+02  0.47000000000E+01 0. -1.
<mgrwt>
<rscale>  0 0.13098409E+03</rscale>
<asrwt>0</asrwt>
<pdfrwt beam="1">  1        5 0.83604464E-02 0.13099996E+03</pdfrwt>
<pdfrwt beam="2">  1       -5 0.59234802E-01 0.13099996E+03</pdfrwt>
<totfact> 0.20622799E+02</totfact>
</mgrwt>
</event>
<event>
 8    1  0.3763376E-007  0.1467062E+03  0.7546771E-02  0.1204580E+00
         -5   -1    0    0    0  501 -0.00000000000E+00  0.00000000000E+00  0.64564542761E+02  0.64735385856E+02  0.47000000000E+01 0.  1.
          5   -1    0    0  501    0  0.00000000000E+00 -0.00000000000E+00 -0.33679617229E+03  0.33682896501E+03  0.47000000000E+01 0.  1.
         25    2    1    2    0    0 -0.31559774484E+02 -0.70011382187E+02 -0.11403985274E+03  0.18581655897E+03  0.12500037028E+03 0.  0.
         25    2    1    2    0    0  0.31559774484E+02  0.70011382187E+02 -0.15819177679E+03  0.21574779190E+03  0.12499943386E+03 0.  0.
          5    1    4    4  502    0  0.71884895509E+02  0.62405071435E+02 -0.69653576687E+02  0.11804889618E+03  0.47000000000E+01 0.  1.
         -5    1    4    4    0  502 -0.40325121025E+02  0.76063107527E+01 -0.88538200103E+02  0.97698895727E+02  0.47000000000E+01 0.  1.
          5    1    3    3  503    0  0.44114360917E+02 -0.22886223603E+01 -0.42735184637E+02  0.61641711831E+02  0.47000000000E+01 0. -1.
         -5    1    3    3    0  503 -0.75674135402E+02 -0.67722759827E+02 -0.71304668107E+02  0.12417484714E+03  0.47000000000E+01 0. -1.
<mgrwt>
<rscale>  0 0.14670599E+03</rscale>
<asrwt>0</asrwt>
<pdfrwt beam="2">  1        5 0.51830459E-01 0.14670619E+03</pdfrwt>
<pdfrwt beam="1">  1       -5 0.99486711E-02 0.14670619E+03</pdfrwt>
<totfact> 0.21141613E+02</totfact>
</mgrwt>
</event>
<event>
 8    1  0.3763376E-007  0.2191333E+03  0.7546771E-02  0.1134531E+00
          5   -1    0    0  501    0  0.00000000000E+00  0.00000000000E+00  0.58940744565E+03  0.58942618452E+03  0.47000000000E+01 0.  1.
         -5   -1    0    0    0  501 -0.00000000000E+00 -0.00000000000E+00 -0.81486744404E+02  0.81622175379E+02  0.47000000000E+01 0.  1.
         25    2    1    2    0    0  0.83956992681E+02  0.15920267542E+03  0.24198481185E+03  0.32645988383E+03  0.12500055241E+03 0.  0.
         25    2    1    2    0    0 -0.83956992681E+02 -0.15920267542E+03  0.26593588940E+03  0.34458847606E+03  0.12500020833E+03 0.  0.
          5    1    3    3  502    0  0.82246323660E+02  0.48016994984E+02  0.16685009631E+03  0.19217474913E+03  0.47000000000E+01 0.  1.
         -5    1    3    3    0  502  0.17106690215E+01  0.11118568044E+03  0.75134715540E+02  0.13428513471E+03  0.47000000000E+01 0.  1.
          5    1    4    4  503    0 -0.10511858613E+03 -0.16504126124E+03  0.22783446746E+03  0.30036506059E+03  0.47000000000E+01 0.  1.
         -5    1    4    4    0  503  0.21161593453E+02  0.58385858174E+01  0.38101421939E+02  0.44223415468E+02  0.47000000000E+01 0.  1.
<mgrwt>
<rscale>  0 0.21913326E+03</rscale>
<asrwt>0</asrwt>
<pdfrwt beam="1">  1        5 0.90689929E-01 0.21913331E+03</pdfrwt>
<pdfrwt beam="2">  1       -5 0.12548281E-01 0.21913331E+03</pdfrwt>
<totfact> 0.44453717E+01</totfact>
</mgrwt>
</event>
<event>
 8    1  0.3763376E-007  0.1451202E+03  0.7546771E-02  0.1206605E+00
          5   -1    0    0  501    0  0.00000000000E+00  0.00000000000E+00  0.49996967694E+02  0.50217395179E+02  0.47000000000E+01 0.  1.
         -5   -1    0    0    0  501 -0.00000000000E+00 -0.00000000000E+00 -0.42957072688E+03  0.42959643782E+03  0.47000000000E+01 0.  1.
         25    2    1    2    0    0 -0.23715314818E+02 -0.69803979222E+02 -0.22553605612E+03  0.26818327631E+03  0.12498298048E+03 0.  0.
         25    2    1    2    0    0  0.23715314818E+02  0.69803979222E+02 -0.15403770306E+03  0.21163055669E+03  0.12499946755E+03 0.  0.
          5    1    3    3  502    0 -0.22168634710E+02  0.34142057504E+02 -0.60176662736E+02  0.72804183901E+02  0.47000000000E+01 0.  1.
         -5    1    3    3    0  502 -0.15466801085E+01 -0.10394603673E+03 -0.16535939338E+03  0.19537909241E+03  0.47000000000E+01 0.  1.
          5    1    4    4  503    0  0.23772851620E+02  0.13288074947E+01  0.15451865265E+02  0.28770894037E+02  0.47000000000E+01 0. -1.
         -5    1    4    4    0  503 -0.57536802258E-01  0.68475171728E+02 -0.16948956833E+03  0.18285966265E+03  0.47000000000E+01 0. -1.
<mgrwt>
<rscale>  0 0.14511667E+03</rscale>
<asrwt>0</asrwt>
<pdfrwt beam="1">  1        5 0.77107752E-02 0.14512022E+03</pdfrwt>
<pdfrwt beam="2">  1       -5 0.66106735E-01 0.14512022E+03</pdfrwt>
<totfact> 0.19247128E+02</totfact>
</mgrwt>
</event>
<event>
 8    1  0.3763376E-007  0.1254570E+03  0.7546771E-02  0.1234357E+00
         -5   -1    0    0    0  501 -0.00000000000E+00  0.00000000000E+00  0.16913905937E+02  0.17554777528E+02  0.47000000000E+01 0. -1.
          5   -1    0    0  501    0  0.00000000000E+00 -0.00000000000E+00 -0.92189464673E+03  0.92190662741E+03  0.47000000000E+01 0. -1.
         25    2    1    2    0    0  0.96097591995E-01  0.10665887985E+02 -0.40536496856E+03  0.42433503081E+03  0.12500276090E+03 0.  0.
         25    2    1    2    0    0 -0.96097591995E-01 -0.10665887985E+02 -0.49961577223E+03  0.51512637413E+03  0.12500196424E+03 0.  0.
          5    1    3    3  502    0  0.36114338719E+02  0.37711295518E+02 -0.34452368240E+03  0.34848966270E+03  0.47000000000E+01 0. -1.
         -5    1    3    3    0  502 -0.36018241127E+02 -0.27045407532E+02 -0.60841286158E+02  0.75845368111E+02  0.47000000000E+01 0. -1.
          5    1    4    4  503    0  0.27637288651E+02  0.55605798702E+00 -0.47573036777E+03  0.47655597965E+03  0.47000000000E+01 0.  1.
         -5    1    4    4    0  503 -0.27733386243E+02 -0.11221945972E+02 -0.23885404455E+02  0.38570394474E+02  0.47000000000E+01 0.  1.
<mgrwt>
<rscale>  0 0.12545681E+03</rscale>
<asrwt>0</asrwt>
<pdfrwt beam="2">  1        5 0.14188013E+00 0.12545701E+03</pdfrwt>
<pdfrwt beam="1">  1       -5 0.26523595E-02 0.12545701E+03</pdfrwt>
<totfact> 0.16796560E+02</totfact>
</mgrwt>
</event>
<event>
 8    1  0.3763376E-007  0.1576009E+03  0.7546771E-02  0.1191434E+00
         -5   -1    0    0    0  501 -0.00000000000E+00  0.00000000000E+00  0.26012724240E+03  0.26016969892E+03  0.47000000000E+01 0.  1.
          5   -1    0    0  501    0  0.00000000000E+00 -0.00000000000E+00 -0.11100833172E+03  0.11110778421E+03  0.47000000000E+01 0. -1.
         25    2    1    2    0    0  0.21323997757E+02 -0.93589196494E+02  0.14418149164E+03  0.21359929369E+03  0.12499082026E+03 0.  0.
         25    2    1    2    0    0 -0.21323997757E+02  0.93589196494E+02  0.49374190298E+01  0.15767818945E+03  0.12499753093E+03 0.  0.
          5    1    3    3  502    0 -0.17882310088E+02 -0.39356692685E+02  0.13976058844E+03  0.14636884352E+03  0.47000000000E+01 0. -1.
         -5    1    3    3    0  502  0.39206307844E+02 -0.54232503809E+02  0.44209032045E+01  0.67230450165E+02  0.47000000000E+01 0. -1.
          5    1    4    4  503    0  0.39164715111E+01 -0.30380843208E+02  0.28539453770E+00  0.30992028543E+02  0.47000000000E+01 0. -1.
         -5    1    4    4    0  503 -0.25240469268E+02  0.12397003970E+03  0.46520244921E+01  0.12668616090E+03  0.47000000000E+01 0. -1.
<mgrwt>
<rscale>  0 0.15759954E+03</rscale>
<asrwt>0</asrwt>
<pdfrwt beam="2">  1        5 0.17089121E-01 0.15760087E+03</pdfrwt>
<pdfrwt beam="1">  1       -5 0.40030491E-01 0.15760087E+03</pdfrwt>
<totfact> 0.14103070E+02</totfact>
</mgrwt>
</event>
<event>
 8    1  0.3763376E-007  0.1653032E+03  0.7546771E-02  0.1182838E+00
         -5   -1    0    0    0  501 -0.00000000000E+00  0.00000000000E+00  0.33211049611E+03  0.33214375145E+03  0.47000000000E+01 0.  1.
          5   -1    0    0  501    0  0.00000000000E+00 -0.00000000000E+00 -0.10545898271E+03  0.10556366342E+03  0.47000000000E+01 0.  1.
         25    2    1    2    0    0 -0.85855949904E+02 -0.65790796346E+02  0.21609510401E+03  0.27206751956E+03  0.12499587275E+03 0.  0.
         25    2    1    2    0    0  0.85855949904E+02  0.65790796346E+02  0.10556409385E+02  0.16563989531E+03  0.12500185647E+03 0.  0.
          5    1    4    4  502    0  0.11276683379E+03  0.33286529418E+02 -0.10700695679E+02  0.11815645024E+03  0.47000000000E+01 0. -1.
         -5    1    4    4    0  502 -0.26910883888E+02  0.32504266928E+02  0.21257105064E+02  0.47483445072E+02  0.47000000000E+01 0. -1.
          5    1    3    3  503    0 -0.90781928987E+02 -0.23900901815E+02  0.62888315138E+02  0.11309129904E+03  0.47000000000E+01 0.  1.
         -5    1    3    3    0  503  0.49259790832E+01 -0.41889894531E+02  0.15320678887E+03  0.15897622052E+03  0.47000000000E+01 0.  1.
<mgrwt>
<rscale>  0 0.16530204E+03</rscale>
<asrwt>0</asrwt>
<pdfrwt beam="2">  1        5 0.16235069E-01 0.16530317E+03</pdfrwt>
<pdfrwt beam="1">  1       -5 0.51104533E-01 0.16530317E+03</pdfrwt>
<totfact> 0.94315811E+01</totfact>
</mgrwt>
</event>
<event>
 8    1  0.3763376E-007  0.1445577E+03  0.7546771E-02  0.1207326E+00
         -5   -1    0    0    0  501 -0.00000000000E+00  0.00000000000E+00  0.91379189981E+02  0.91499980118E+02  0.47000000000E+01 0. -1.
          5   -1    0    0  501    0  0.00000000000E+00 -0.00000000000E+00 -0.23009433031E+03  0.23014232735E+03  0.47000000000E+01 0. -1.
         25    2    1    2    0    0  0.64337258433E+02  0.33660322246E+02 -0.83225579890E+02  0.16680039127E+03  0.12499429292E+03 0.  0.
         25    2    1    2    0    0 -0.64337258433E+02 -0.33660322246E+02 -0.55489560435E+02  0.15484191620E+03  0.12499851031E+03 0.  0.
          5    1    3    3  502    0  0.10022003500E+03  0.89736737085E+01 -0.56860822238E+02  0.11567119495E+03  0.47000000000E+01 0.  1.
         -5    1    3    3    0  502 -0.35882776568E+02  0.24686648537E+02 -0.26364757652E+02  0.51129196319E+02  0.47000000000E+01 0.  1.
          5    1    4    4  503    0 -0.73707069712E+02 -0.14585564070E+02 -0.87943409950E+02  0.11576529773E+03  0.47000000000E+01 0. -1.
         -5    1    4    4    0  503  0.93698112789E+01 -0.19074758176E+02  0.32453849515E+02  0.39076618472E+02  0.47000000000E+01 0. -1.
<mgrwt>
<rscale>  0 0.14455679E+03</rscale>
<asrwt>0</asrwt>
<pdfrwt beam="2">  1        5 0.35412111E-01 0.14455770E+03</pdfrwt>
<pdfrwt beam="1">  1       -5 0.14071321E-01 0.14455770E+03</pdfrwt>
<totfact> 0.25038427E+02</totfact>
</mgrwt>
</event>
<event>
 8    1  0.3763376E-007  0.1289290E+03  0.7546771E-02  0.1229056E+00
         -5   -1    0    0    0  501 -0.00000000000E+00  0.00000000000E+00  0.24787054609E+02  0.25228715310E+02  0.47000000000E+01 0. -1.
          5   -1    0    0  501    0  0.00000000000E+00 -0.00000000000E+00 -0.67042726638E+03  0.67044374075E+03  0.47000000000E+01 0. -1.
         25    2    1    2    0    0 -0.22723873030E+01  0.31493160702E+02 -0.28934271019E+03  0.31676536300E+03  0.12499643331E+03 0.  0.
         25    2    1    2    0    0  0.22723873030E+01 -0.31493160702E+02 -0.35629750158E+03  0.37890709306E+03  0.12500277046E+03 0.  0.
          5    1    4    4  502    0  0.11464385495E+02  0.32863871004E+02 -0.30082241103E+02  0.46243890212E+02  0.47000000000E+01 0. -1.
         -5    1    4    4    0  502 -0.91919981924E+01 -0.64357031706E+02 -0.32621526048E+03  0.33266320285E+03  0.47000000000E+01 0. -1.
          5    1    3    3  503    0 -0.46542945601E+02  0.78168233333E+01 -0.24521459301E+03  0.24975915426E+03  0.47000000000E+01 0.  1.
         -5    1    3    3    0  503  0.44270558298E+02  0.23676337369E+02 -0.44128117181E+02  0.67006208736E+02  0.47000000000E+01 0.  1.
<mgrwt>
<rscale>  0 0.12892742E+03</rscale>
<asrwt>0</asrwt>
<pdfrwt beam="2">  1        5 0.10317788E+00 0.12892896E+03</pdfrwt>
<pdfrwt beam="1">  1       -5 0.38486347E-02 0.12892896E+03</pdfrwt>
<totfact> 0.20915190E+02</totfact>
</mgrwt>
</event>
<event>
 8    1  0.3763376E-007  0.1322846E+03  0.7546771E-02  0.1224112E+00
          5   -1    0    0  501    0  0.00000000000E+00  0.00000000000E+00  0.11875660955E+02  0.12771895831E+02  0.47000000000E+01 0.  1.
         -5   -1    0    0    0  501 -0.00000000000E+00 -0.00000000000E+00 -0.16071709951E+04  0.16071778674E+04  0.47000000000E+01 0.  1.
         25    2    1    2    0    0  0.65425586606E+01 -0.42757423639E+02 -0.10748911731E+04  0.10830005801E+04  0.12501287984E+03 0.  0.
         25    2    1    2    0    0 -0.65425586606E+01  0.42757423639E+02 -0.52040416100E+03  0.53694918310E+03  0.12499172811E+03 0.  0.
          5    1    3    3  502    0 -0.18723844448E+02 -0.80675049076E+02 -0.80352743070E+03  0.80779791272E+03  0.47000000000E+01 0.  1.
         -5    1    3    3    0  502  0.25266403109E+02  0.37917625438E+02 -0.27136374241E+03  0.27520266739E+03  0.47000000000E+01 0.  1.
          5    1    4    4  503    0 -0.57051144376E+02  0.33713604764E+02 -0.16569602543E+03  0.17851807490E+03  0.47000000000E+01 0. -1.
         -5    1    4    4    0  503  0.50508585715E+02  0.90438188742E+01 -0.35470813557E+03  0.35843110820E+03  0.47000000000E+01 0. -1.
<mgrwt>
<rscale>  0 0.13227963E+03</rscale>
<asrwt>0</asrwt>
<pdfrwt beam="1">  1        5 0.18964958E-02 0.13228463E+03</pdfrwt>
<pdfrwt beam="2">  1       -5 0.24732638E+00 0.13228463E+03</pdfrwt>
<totfact> 0.53737081E+01</totfact>
</mgrwt>
</event>
<event>
 8    1  0.3763376E-007  0.2355792E+03  0.7546771E-02  0.1122774E+00
          5   -1    0    0  501    0  0.00000000000E+00  0.00000000000E+00  0.58081554977E+02  0.58271408328E+02  0.47000000000E+01 0. -1.
         -5   -1    0    0    0  501 -0.00000000000E+00 -0.00000000000E+00 -0.95725601760E+03  0.95726755572E+03  0.47000000000E+01 0. -1.
         25    2    1    2    0    0  0.19016862098E+03 -0.60900183900E+02 -0.48036021285E+03  0.53501726423E+03  0.12499840851E+03 0.  0.
         25    2    1    2    0    0 -0.19016862098E+03  0.60900183900E+02 -0.41881424978E+03  0.48052169982E+03  0.12499116520E+03 0.  0.
          5    1    3    3  502    0  0.14751826226E+03 -0.97884624127E+02 -0.39062614094E+03  0.42889848371E+03  0.47000000000E+01 0. -1.
         -5    1    3    3    0  502  0.42650358719E+02  0.36984440227E+02 -0.89734071908E+02  0.10611878052E+03  0.47000000000E+01 0. -1.
          5    1    4    4  503    0 -0.42860221228E+02 -0.37407693236E+02 -0.81328209392E+02  0.99361469996E+02  0.47000000000E+01 0.  1.
         -5    1    4    4    0  503 -0.14730839976E+03  0.98307877136E+02 -0.33748604039E+03  0.38116022983E+03  0.47000000000E+01 0.  1.
<mgrwt>
<rscale>  0 0.23557820E+03</rscale>
<asrwt>0</asrwt>
<pdfrwt beam="1">  1        5 0.89511162E-02 0.23557916E+03</pdfrwt>
<pdfrwt beam="2">  1       -5 0.14728564E+00 0.23557916E+03</pdfrwt>
<totfact> 0.23751711E+01</totfact>
</mgrwt>
</event>
<event>
 8    1  0.3763376E-007  0.1250622E+03  0.7546771E-02  0.1234973E+00
          5   -1    0    0  501    0  0.00000000000E+00  0.00000000000E+00  0.43582664753E+03  0.43585198944E+03  0.47000000000E+01 0. -1.
         -5   -1    0    0    0  501 -0.00000000000E+00 -0.00000000000E+00 -0.45205209187E+02  0.45448882688E+02  0.47000000000E+01 0. -1.
         25    2    1    2    0    0 -0.38680710386E+01 -0.50241735280E+00  0.85360581762E+02  0.15141489699E+03  0.12499931086E+03 0.  0.
         25    2    1    2    0    0  0.38680710386E+01  0.50241735280E+00  0.30526085658E+03  0.32988597514E+03  0.12500140653E+03 0.  0.
          5    1    3    3  502    0 -0.59406522562E+02  0.23423252288E+02  0.49683054211E+02  0.81044923014E+02  0.47000000000E+01 0.  1.
         -5    1    3    3    0  502  0.55538451523E+02 -0.23925669641E+02  0.35677527551E+02  0.70369973977E+02  0.47000000000E+01 0.  1.
          5    1    4    4  503    0  0.19984258714E+02  0.52911521603E+02  0.22845761904E+03  0.23540172772E+03  0.47000000000E+01 0.  1.
         -5    1    4    4    0  503 -0.16116187675E+02 -0.52409104250E+02  0.76803237544E+02  0.94484247421E+02  0.47000000000E+01 0.  1.
<mgrwt>
<rscale>  0 0.12506172E+03</rscale>
<asrwt>0</asrwt>
<pdfrwt beam="1">  1        5 0.67070946E-01 0.12506225E+03</pdfrwt>
<pdfrwt beam="2">  1       -5 0.69753412E-02 0.12506225E+03</pdfrwt>
<totfact> 0.21010044E+02</totfact>
</mgrwt>
</event>
<event>
 8    1  0.3763376E-007  0.1455618E+03  0.7546771E-02  0.1206041E+00
          5   -1    0    0  501    0  0.00000000000E+00  0.00000000000E+00  0.19428014186E+03  0.19433698444E+03  0.47000000000E+01 0.  1.
         -5   -1    0    0    0  501 -0.00000000000E+00 -0.00000000000E+00 -0.13734665781E+03  0.13742705124E+03  0.47000000000E+01 0.  1.
         25    2    1    2    0    0 -0.21312139047E+02 -0.71471254679E+02 -0.46956756600E+02  0.15293050114E+03  0.12498181336E+03 0.  0.
         25    2    1    2    0    0  0.21312139047E+02  0.71471254679E+02  0.10389024065E+03  0.17883353455E+03  0.12500361379E+03 0.  0.
          5    1    3    3  502    0 -0.10410004968E+02 -0.97542622008E+01  0.41662583736E+02  0.44287410379E+02  0.47000000000E+01 0. -1.
         -5    1    3    3    0  502 -0.10902134079E+02 -0.61716992478E+02 -0.88619340336E+02  0.10864309076E+03  0.47000000000E+01 0. -1.
          5    1    4    4  503    0 -0.34227645514E+02 -0.13603607017E+02  0.58911064456E+01  0.37595012654E+02  0.47000000000E+01 0. -1.
         -5    1    4    4    0  503  0.55539784561E+02  0.85074861696E+02  0.97999134205E+02  0.14123852189E+03  0.47000000000E+01 0. -1.
<mgrwt>
<rscale>  0 0.14555717E+03</rscale>
<asrwt>0</asrwt>
<pdfrwt beam="1">  1        5 0.29899809E-01 0.14556185E+03</pdfrwt>
<pdfrwt beam="2">  1       -5 0.21140812E-01 0.14556185E+03</pdfrwt>
<totfact> 0.16615075E+02</totfact>
</mgrwt>
</event>
<event>
 8    1  0.3763376E-007  0.1339506E+03  0.7546771E-02  0.1221713E+00
          5   -1    0    0  501    0  0.00000000000E+00  0.00000000000E+00  0.23060573014E+03  0.23065362077E+03  0.47000000000E+01 0.  1.
         -5   -1    0    0    0  501 -0.00000000000E+00 -0.00000000000E+00 -0.78681885151E+02  0.78822135539E+02  0.47000000000E+01 0.  1.
         25    2    1    2    0    0 -0.59696948553E+01  0.47745016134E+02  0.58468224139E+02  0.14615501980E+03  0.12501013061E+03 0.  0.
         25    2    1    2    0    0  0.59696948553E+01 -0.47745016134E+02  0.93455620849E+02  0.16332073651E+03  0.12499794432E+03 0.  0.
          5    1    3    3  502    0  0.35062684594E+02  0.33276071565E+02 -0.22953405873E+02  0.53718131305E+02  0.47000000000E+01 0.  1.
         -5    1    3    3    0  502 -0.41032379450E+02  0.14468944569E+02  0.81421630012E+02  0.92436888492E+02  0.47000000000E+01 0.  1.
          5    1    4    4  503    0  0.21626658205E+02  0.30411698875E+02 -0.34341898784E+01  0.37768603809E+02  0.47000000000E+01 0.  1.
         -5    1    4    4    0  503 -0.15656963349E+02 -0.78156715009E+02  0.96889810728E+02  0.12555213270E+03  0.47000000000E+01 0.  1.
<mgrwt>
<rscale>  0 0.13394773E+03</rscale>
<asrwt>0</asrwt>
<pdfrwt beam="1">  1        5 0.35492277E-01 0.13395058E+03</pdfrwt>
<pdfrwt beam="2">  1       -5 0.12119378E-01 0.13395058E+03</pdfrwt>
<totfact> 0.31713709E+02</totfact>
</mgrwt>
</event>
<event>
 8    1  0.3763376E-007  0.1316796E+03  0.7546771E-02  0.1224993E+00
         -5   -1    0    0    0  501 -0.00000000000E+00  0.00000000000E+00  0.78319089968E+02  0.78459988869E+02  0.47000000000E+01 0. -1.
          5   -1    0    0  501    0  0.00000000000E+00 -0.00000000000E+00 -0.24014396733E+03  0.24018995617E+03  0.47000000000E+01 0. -1.
         25    2    1    2    0    0 -0.31453566394E+02  0.26808749002E+02 -0.35932539799E+02  0.13647310957E+03  0.12500290540E+03 0.  0.
         25    2    1    2    0    0  0.31453566394E+02 -0.26808749002E+02 -0.12589233756E+03  0.18217683547E+03  0.12502592876E+03 0.  0.
          5    1    4    4  502    0  0.78644351746E+02 -0.61364044771E+01 -0.65371240772E+02  0.10255768446E+03  0.47000000000E+01 0.  1.
         -5    1    4    4    0  502 -0.47190785352E+02 -0.20672344525E+02 -0.60521096790E+02  0.79619151006E+02  0.47000000000E+01 0.  1.
          5    1    3    3  503    0  0.65886361823E+01 -0.46174993753E+02 -0.25535910571E+02  0.53382702288E+02  0.47000000000E+01 0.  1.
         -5    1    3    3    0  503 -0.38042202576E+02  0.72983742756E+02 -0.10396629228E+02  0.83090407285E+02  0.47000000000E+01 0.  1.
<mgrwt>
<rscale>  0 0.13167414E+03</rscale>
<asrwt>0</asrwt>
<pdfrwt beam="2">  1        5 0.36959601E-01 0.13167961E+03</pdfrwt>
<pdfrwt beam="1">  1       -5 0.12063467E-01 0.13167961E+03</pdfrwt>
<totfact> 0.29293582E+02</totfact>
</mgrwt>
</event>
<event>
 8    1  0.3763376E-007  0.1325660E+03  0.7546771E-02  0.1223703E+00
         -5   -1    0    0    0  501 -0.00000000000E+00  0.00000000000E+00  0.29305541536E+03  0.29309310206E+03  0.47000000000E+01 0.  1.
          5   -1    0    0  501    0  0.00000000000E+00 -0.00000000000E+00 -0.60282725789E+02  0.60465668181E+02  0.47000000000E+01 0.  1.
         25    2    1    2    0    0 -0.97891246553E+01 -0.43045210699E+02  0.13172620788E+03  0.18687306407E+03  0.12498412342E+03 0.  0.
         25    2    1    2    0    0  0.97891246553E+01  0.43045210699E+02  0.10104648169E+03  0.16668570617E+03  0.12500006421E+03 0.  0.
          5    1    3    3  502    0 -0.96709346836E+01 -0.28142713156E+02  0.15551754821E+03  0.15840876580E+03  0.47000000000E+01 0.  1.
         -5    1    3    3    0  502 -0.11818997167E+00 -0.14902497543E+02 -0.23791340322E+02  0.28464298274E+02  0.47000000000E+01 0.  1.
          5    1    4    4  503    0 -0.31464432820E+02 -0.12993277584E+02  0.89657537990E+02  0.96017706250E+02  0.47000000000E+01 0. -1.
         -5    1    4    4    0  503  0.41253557476E+02  0.56038488283E+02  0.11388943698E+02  0.70667999915E+02  0.47000000000E+01 0. -1.
<mgrwt>
<rscale>  0 0.13256220E+03</rscale>
<asrwt>0</asrwt>
<pdfrwt beam="2">  1        5 0.92912370E-02 0.13256596E+03</pdfrwt>
<pdfrwt beam="1">  1       -5 0.45102420E-01 0.13256596E+03</pdfrwt>
<totfact> 0.30849573E+02</totfact>
</mgrwt>
</event>
<event>
 8    1  0.3763376E-007  0.1555587E+03  0.7546771E-02  0.1193805E+00
          5   -1    0    0  501    0  0.00000000000E+00  0.00000000000E+00  0.55580783568E+03  0.55582770730E+03  0.47000000000E+01 0.  1.
         -5   -1    0    0    0  501 -0.00000000000E+00 -0.00000000000E+00 -0.45419585137E+02  0.45662114647E+02  0.47000000000E+01 0.  1.
         25    2    1    2    0    0  0.24578236477E+02  0.89270273676E+02  0.19179157145E+03  0.24694637018E+03  0.12500092557E+03 0.  0.
         25    2    1    2    0    0 -0.24578236477E+02 -0.89270273676E+02  0.31859667909E+03  0.35454345177E+03  0.12499577510E+03 0.  0.
          5    1    4    4  502    0 -0.76200788611E+01  0.19120043178E+02  0.16149443339E+03  0.16286860861E+03  0.47000000000E+01 0. -1.
         -5    1    4    4    0  502 -0.16958157615E+02 -0.10839031685E+03  0.15710224570E+03  0.19167484316E+03  0.47000000000E+01 0. -1.
          5    1    3    3  503    0 -0.20249799312E+02 -0.30106587722E+01 -0.78610904306E+01  0.22427777000E+02  0.47000000000E+01 0.  1.
         -5    1    3    3    0  503  0.44828035788E+02  0.92280932448E+02  0.19965266188E+03  0.22451859318E+03  0.47000000000E+01 0.  1.
<mgrwt>
<rscale>  0 0.15555765E+03</rscale>
<asrwt>0</asrwt>
<pdfrwt beam="1">  1        5 0.85529079E-01 0.15555868E+03</pdfrwt>
<pdfrwt beam="2">  1       -5 0.70078135E-02 0.15555868E+03</pdfrwt>
<totfact> 0.12847352E+02</totfact>
</mgrwt>
</event>
<event>
 8    1  0.3763376E-007  0.1339891E+03  0.7546771E-02  0.1221655E+00
         -5   -1    0    0    0  501 -0.00000000000E+00  0.00000000000E+00  0.71685010925E+03  0.71686551677E+03  0.47000000000E+01 0. -1.
          5   -1    0    0  501    0  0.00000000000E+00 -0.00000000000E+00 -0.35330936635E+02  0.35642181239E+02  0.47000000000E+01 0. -1.
         25    2    1    2    0    0 -0.33242614098E+02 -0.34961340181E+02  0.54497875154E+03  0.56120844332E+03  0.12500284210E+03 0.  0.
         25    2    1    2    0    0  0.33242614098E+02  0.34961340181E+02  0.13654042108E+03  0.19129925469E+03  0.12499900622E+03 0.  0.
          5    1    4    4  502    0 -0.11040503341E+02  0.73547771179E+02  0.67651324731E+02  0.10064769792E+03  0.47000000000E+01 0. -1.
         -5    1    4    4    0  502  0.44283117439E+02 -0.38586430999E+02  0.68889096351E+02  0.90651556762E+02  0.47000000000E+01 0. -1.
          5    1    3    3  503    0 -0.61203822165E+02  0.19336343985E+02  0.37603811193E+03  0.38150564042E+03  0.47000000000E+01 0. -1.
         -5    1    3    3    0  503  0.27961208067E+02 -0.54297684165E+02  0.16894063960E+03  0.17970280290E+03  0.47000000000E+01 0. -1.
<mgrwt>
<rscale>  0 0.13398820E+03</rscale>
<asrwt>0</asrwt>
<pdfrwt beam="2">  1        5 0.54606563E-02 0.13398909E+03</pdfrwt>
<pdfrwt beam="1">  1       -5 0.11030975E+00 0.13398909E+03</pdfrwt>
<totfact> 0.10080804E+02</totfact>
</mgrwt>
</event>
<event>
 8    1  0.3763376E-007  0.1341961E+03  0.7546771E-02  0.1221360E+00
          5   -1    0    0  501    0  0.00000000000E+00  0.00000000000E+00  0.50720992070E+03  0.50723169623E+03  0.47000000000E+01 0.  1.
         -5   -1    0    0    0  501 -0.00000000000E+00 -0.00000000000E+00 -0.46796941603E+02  0.47032369102E+02  0.47000000000E+01 0.  1.
         25    2    1    2    0    0  0.40105760946E+02  0.27841972851E+02  0.93432488081E+02  0.16351827085E+03  0.12499979024E+03 0.  0.
         25    2    1    2    0    0 -0.40105760946E+02 -0.27841972851E+02  0.36698049102E+03  0.39074579447E+03  0.12499579033E+03 0.  0.
          5    1    3    3  502    0 -0.13575419747E+02 -0.10552570936E+02 -0.23300851682E+02  0.29337151596E+02  0.47000000000E+01 0.  1.
         -5    1    3    3    0  502  0.53681180692E+02  0.38394543787E+02  0.11673333976E+03  0.13418111926E+03  0.47000000000E+01 0.  1.
          5    1    4    4  503    0 -0.60030158841E+02 -0.23454456355E+01  0.34749747155E+03  0.35268357463E+03  0.47000000000E+01 0.  1.
         -5    1    4    4    0  503  0.19924397896E+02 -0.25496527215E+02  0.19483019470E+02  0.38062219841E+02  0.47000000000E+01 0.  1.
<mgrwt>
<rscale>  0 0.13419518E+03</rscale>
<asrwt>0</asrwt>
<pdfrwt beam="1">  1        5 0.78052077E-01 0.13419611E+03</pdfrwt>
<pdfrwt beam="2">  1       -5 0.72193147E-02 0.13419611E+03</pdfrwt>
<totfact> 0.14408606E+02</totfact>
</mgrwt>
</event>
<event>
 8    1  0.3763376E-007  0.1651196E+03  0.7546771E-02  0.1183038E+00
          5   -1    0    0  501    0  0.00000000000E+00  0.00000000000E+00  0.23217645164E+03  0.23222401835E+03  0.47000000000E+01 0. -1.
         -5   -1    0    0    0  501 -0.00000000000E+00 -0.00000000000E+00 -0.11737147354E+03  0.11746553878E+03  0.47000000000E+01 0. -1.
         25    2    1    2    0    0 -0.16792156745E+02 -0.10656108279E+03  0.61193659615E+02  0.17609411951E+03  0.12500893591E+03 0.  0.
         25    2    1    2    0    0  0.16792156745E+02  0.10656108279E+03  0.53611318493E+02  0.17359543761E+03  0.12499584631E+03 0.  0.
          5    1    4    4  502    0  0.35636133390E+01  0.41205377681E+02  0.88785987153E+02  0.98059288212E+02  0.47000000000E+01 0.  1.
         -5    1    4    4    0  502  0.13228543406E+02  0.65355705107E+02 -0.35174668660E+02  0.75536149399E+02  0.47000000000E+01 0.  1.
          5    1    3    3  503    0  0.39988704810E+02 -0.16612830096E+02  0.53999627810E+02  0.69376742788E+02  0.47000000000E+01 0.  1.
         -5    1    3    3    0  503 -0.56780861555E+02 -0.89948252692E+02  0.71940318049E+01  0.10671737672E+03  0.47000000000E+01 0.  1.
<mgrwt>
<rscale>  0 0.16511710E+03</rscale>
<asrwt>0</asrwt>
<pdfrwt beam="1">  1        5 0.35730349E-01 0.16511958E+03</pdfrwt>
<pdfrwt beam="2">  1       -5 0.18068045E-01 0.16511958E+03</pdfrwt>
<totfact> 0.16267016E+02</totfact>
</mgrwt>
</event>
<event>
 8    1  0.3763376E-007  0.1329240E+03  0.7546771E-02  0.1223182E+00
          5   -1    0    0  501    0  0.00000000000E+00  0.00000000000E+00  0.66705690236E+02  0.66871063323E+02  0.47000000000E+01 0.  1.
         -5   -1    0    0    0  501 -0.00000000000E+00 -0.00000000000E+00 -0.27049044603E+03  0.27053127618E+03  0.47000000000E+01 0.  1.
         25    2    1    2    0    0  0.38348586701E+02  0.23927359853E+02 -0.12729141338E+03  0.18404316877E+03  0.12500260557E+03 0.  0.
         25    2    1    2    0    0 -0.38348586701E+02 -0.23927359853E+02 -0.76493342406E+02  0.15335917073E+03  0.12499868465E+03 0.  0.
          5    1    4    4  502    0  0.24484078310E+02 -0.15107131058E+02 -0.84357613155E+02  0.89252408352E+02  0.47000000000E+01 0.  1.
         -5    1    4    4    0  502 -0.62832665010E+02 -0.88202287958E+01  0.78642707492E+01  0.64106762379E+02  0.47000000000E+01 0.  1.
          5    1    3    3  503    0 -0.14922450464E+02  0.25705186346E+02 -0.12701909340E+03  0.13053496168E+03  0.47000000000E+01 0.  1.
         -5    1    3    3    0  503  0.53271037165E+02 -0.17778264927E+01 -0.27231998214E+00  0.53508207088E+02  0.47000000000E+01 0.  1.
<mgrwt>
<rscale>  0 0.13292306E+03</rscale>
<asrwt>0</asrwt>
<pdfrwt beam="1">  1        5 0.10278276E-01 0.13292398E+03</pdfrwt>
<pdfrwt beam="2">  1       -5 0.41629776E-01 0.13292398E+03</pdfrwt>
<totfact> 0.30572666E+02</totfact>
</mgrwt>
</event>
<event>
 8    1  0.3763376E-007  0.1696630E+03  0.7546771E-02  0.1178201E+00
         -5   -1    0    0    0  501 -0.00000000000E+00  0.00000000000E+00  0.41071259431E+03  0.41073948572E+03  0.47000000000E+01 0.  1.
          5   -1    0    0  501    0  0.00000000000E+00 -0.00000000000E+00 -0.71147866452E+02  0.71302937532E+02  0.47000000000E+01 0.  1.
         25    2    1    2    0    0  0.11445997930E+03  0.76939906264E+01  0.20066210857E+03  0.26277207232E+03  0.12499438318E+03 0.  0.
         25    2    1    2    0    0 -0.11445997930E+03 -0.76939906264E+01  0.13890261929E+03  0.21927035092E+03  0.12500105918E+03 0.  0.
          5    1    3    3  502    0  0.12429534345E+03  0.43104572758E+02  0.14432562464E+03  0.19534408751E+03  0.47000000000E+01 0. -1.
         -5    1    3    3    0  502 -0.98353641536E+01 -0.35410582132E+02  0.56336483931E+02  0.67427984818E+02  0.47000000000E+01 0. -1.
          5    1    4    4  503    0 -0.14011286358E+03 -0.15361947918E+02  0.10505747743E+03  0.17586007946E+03  0.47000000000E+01 0. -1.
         -5    1    4    4    0  503  0.25652884280E+02  0.76679572913E+01  0.33845141867E+02  0.43410271468E+02  0.47000000000E+01 0. -1.
<mgrwt>
<rscale>  0 0.16966182E+03</rscale>
<asrwt>0</asrwt>
<pdfrwt beam="2">  1        5 0.10959822E-01 0.16966305E+03</pdfrwt>
<pdfrwt beam="1">  1       -5 0.63200552E-01 0.16966305E+03</pdfrwt>
<totfact> 0.12127921E+02</totfact>
</mgrwt>
</event>
<event>
 8    1  0.3763376E-007  0.1263099E+03  0.7546771E-02  0.1233038E+00
         -5   -1    0    0    0  501 -0.00000000000E+00  0.00000000000E+00  0.35175505533E+03  0.35178645362E+03  0.47000000000E+01 0.  1.
          5   -1    0    0  501    0  0.00000000000E+00 -0.00000000000E+00 -0.47410929107E+02  0.47643322710E+02  0.47000000000E+01 0.  1.
         25    2    1    2    0    0 -0.78374975582E+01 -0.16340091301E+02  0.19518437911E+03  0.23248654664E+03  0.12499851026E+03 0.  0.
         25    2    1    2    0    0  0.78374975582E+01  0.16340091301E+02  0.10915974711E+03  0.16694322969E+03  0.12500306636E+03 0.  0.
          5    1    3    3  502    0  0.39247495449E+02 -0.22653509380E+02  0.17469311724E+03  0.18053620855E+03  0.47000000000E+01 0. -1.
         -5    1    3    3    0  502 -0.47084993007E+02  0.63134180793E+01  0.20491261869E+02  0.51950338087E+02  0.47000000000E+01 0. -1.
          5    1    4    4  503    0  0.56252565233E+01  0.37365683988E+02  0.13085820720E+03  0.13628572281E+03  0.47000000000E+01 0.  1.
         -5    1    4    4    0  503  0.22122410349E+01 -0.21025592687E+02 -0.21698460085E+02  0.30657506883E+02  0.47000000000E+01 0.  1.
<mgrwt>
<rscale>  0 0.12630878E+03</rscale>
<asrwt>0</asrwt>
<pdfrwt beam="2">  1        5 0.73142808E-02 0.12630990E+03</pdfrwt>
<pdfrwt beam="1">  1       -5 0.54136454E-01 0.12630990E+03</pdfrwt>
<totfact> 0.31076884E+02</totfact>
</mgrwt>
</event>
<event>
 8    1  0.3763376E-007  0.1269503E+03  0.7546771E-02  0.1232053E+00
          5   -1    0    0  501    0  0.00000000000E+00  0.00000000000E+00  0.57280114004E+02  0.57472614872E+02  0.47000000000E+01 0. -1.
         -5   -1    0    0    0  501 -0.00000000000E+00 -0.00000000000E+00 -0.33778384979E+03  0.33781654663E+03  0.47000000000E+01 0. -1.
         25    2    1    2    0    0 -0.19841718121E+01 -0.22056575946E+02 -0.22149204129E+03  0.25529360842E+03  0.12500269065E+03 0.  0.
         25    2    1    2    0    0  0.19841718121E+01  0.22056575946E+02 -0.59011694499E+02  0.13999555308E+03  0.12500378120E+03 0.  0.
          5    1    4    4  502    0 -0.33005545317E+02  0.48508657057E+01  0.28466461025E+02  0.44105853615E+02  0.47000000000E+01 0. -1.
         -5    1    4    4    0  502  0.34989717129E+02  0.17205710240E+02 -0.87478155524E+02  0.95889699466E+02  0.47000000000E+01 0. -1.
          5    1    3    3  503    0 -0.54786460509E+02 -0.23830824055E+02 -0.57949341726E+02  0.83364744567E+02  0.47000000000E+01 0. -1.
         -5    1    3    3    0  503  0.52802288697E+02  0.17742481089E+01 -0.16354269956E+03  0.17192886386E+03  0.47000000000E+01 0. -1.
<mgrwt>
<rscale>  0 0.12695002E+03</rscale>
<asrwt>0</asrwt>
<pdfrwt beam="1">  1        5 0.88296483E-02 0.12695028E+03</pdfrwt>
<pdfrwt beam="2">  1       -5 0.51984068E-01 0.12695028E+03</pdfrwt>
<totfact> 0.24594891E+02</totfact>
</mgrwt>
</event>
<event>
 8    1  0.3763376E-007  0.1450776E+03  0.7546771E-02  0.1206657E+00
          5   -1    0    0  501    0  0.00000000000E+00  0.00000000000E+00  0.95436865399E+02  0.95552526274E+02  0.47000000000E+01 0. -1.
         -5   -1    0    0    0  501 -0.00000000000E+00 -0.00000000000E+00 -0.24775520112E+03  0.24779977740E+03  0.47000000000E+01 0. -1.
         25    2    1    2    0    0  0.61051081751E+02  0.41178780447E+02 -0.13333813946E+03  0.19704460599E+03  0.12499836308E+03 0.  0.
         25    2    1    2    0    0 -0.61051081751E+02 -0.41178780447E+02 -0.18980196259E+02  0.14630769769E+03  0.12499107172E+03 0.  0.
          5    1    3    3  502    0  0.27170740436E+02 -0.11167079728E+01 -0.13958924067E+03  0.14229104780E+03  0.47000000000E+01 0. -1.
         -5    1    3    3    0  502  0.33880341315E+02  0.42295488420E+02  0.62511012099E+01  0.54753558192E+02  0.47000000000E+01 0. -1.
          5    1    4    4  503    0 -0.45413479119E+02 -0.76896945835E+02 -0.44075608193E+02  0.99700920768E+02  0.47000000000E+01 0.  1.
         -5    1    4    4    0  503 -0.15637602633E+02  0.35718165387E+02  0.25095411934E+02  0.46606776920E+02  0.47000000000E+01 0.  1.
<mgrwt>
<rscale>  0 0.14507605E+03</rscale>
<asrwt>0</asrwt>
<pdfrwt beam="1">  1        5 0.14694921E-01 0.14507763E+03</pdfrwt>
<pdfrwt beam="2">  1       -5 0.38128510E-01 0.14507763E+03</pdfrwt>
<totfact> 0.19965350E+02</totfact>
</mgrwt>
</event>
<event>
 8    1  0.3763376E-007  0.1498956E+03  0.7546771E-02  0.1200603E+00
         -5   -1    0    0    0  501 -0.00000000000E+00  0.00000000000E+00  0.62658840966E+02  0.62834865729E+02  0.47000000000E+01 0. -1.
          5   -1    0    0  501    0  0.00000000000E+00 -0.00000000000E+00 -0.55182621707E+03  0.55184623207E+03  0.47000000000E+01 0. -1.
         25    2    1    2    0    0 -0.36952089459E+01 -0.82633564775E+02 -0.62408670128E+02  0.16236297624E+03  0.12499973340E+03 0.  0.
         25    2    1    2    0    0  0.36952089459E+01  0.82633564775E+02 -0.42675870598E+03  0.45231812156E+03  0.12500691727E+03 0.  0.
          5    1    3    3  502    0  0.47102426814E+01  0.24645575714E+02 -0.47095632508E+02  0.53569388551E+02  0.47000000000E+01 0. -1.
         -5    1    3    3    0  502 -0.84054516273E+01 -0.10727914049E+03 -0.15313037619E+02  0.10879358769E+03  0.47000000000E+01 0. -1.
          5    1    4    4  503    0  0.52263169855E+02 -0.80009113626E+00 -0.12906859420E+03  0.13933007959E+03  0.47000000000E+01 0. -1.
         -5    1    4    4    0  503 -0.48567960909E+02  0.83433655911E+02 -0.29769011177E+03  0.31298804197E+03  0.47000000000E+01 0. -1.
<mgrwt>
<rscale>  0 0.14989410E+03</rscale>
<asrwt>0</asrwt>
<pdfrwt beam="2">  1        5 0.84911418E-01 0.14989560E+03</pdfrwt>
<pdfrwt beam="1">  1       -5 0.96549020E-02 0.14989560E+03</pdfrwt>
<totfact> 0.74400940E+01</totfact>
</mgrwt>
</event>
<event>
 8    1  0.3763376E-007  0.1516093E+03  0.7546771E-02  0.1198511E+00
         -5   -1    0    0    0  501 -0.00000000000E+00  0.00000000000E+00  0.67316552567E+02  0.67480428640E+02  0.47000000000E+01 0.  1.
          5   -1    0    0  501    0  0.00000000000E+00 -0.00000000000E+00 -0.36720929442E+03  0.36723937140E+03  0.47000000000E+01 0.  1.
         25    2    1    2    0    0 -0.74540349550E+02 -0.42471678533E+02 -0.91718517866E+02  0.17718942243E+03  0.12499479074E+03 0.  0.
         25    2    1    2    0    0  0.74540349550E+02  0.42471678533E+02 -0.20817422399E+03  0.25753037761E+03  0.12500112269E+03 0.  0.
          5    1    4    4  502    0  0.26016755840E+02  0.44378885394E+02 -0.89591449233E+01  0.52428173066E+02  0.47000000000E+01 0.  1.
         -5    1    4    4    0  502  0.48523593710E+02 -0.19072068607E+01 -0.19921507906E+03  0.20510220455E+03  0.47000000000E+01 0.  1.
          5    1    3    3  503    0 -0.85974015879E+02 -0.65967222400E+02 -0.34023359118E+02  0.11367886700E+03  0.47000000000E+01 0.  1.
         -5    1    3    3    0  503  0.11433666329E+02  0.23495543867E+02 -0.57695158748E+02  0.63510555424E+02  0.47000000000E+01 0.  1.
<mgrwt>
<rscale>  0 0.15160802E+03</rscale>
<asrwt>0</asrwt>
<pdfrwt beam="2">  1        5 0.56508656E-01 0.15160933E+03</pdfrwt>
<pdfrwt beam="1">  1       -5 0.10371312E-01 0.15160933E+03</pdfrwt>
<totfact> 0.16498542E+02</totfact>
</mgrwt>
</event>
<event>
 8    1  0.3763376E-007  0.1296721E+03  0.7546771E-02  0.1227951E+00
         -5   -1    0    0    0  501 -0.00000000000E+00  0.00000000000E+00  0.97211685181E+02  0.97325236890E+02  0.47000000000E+01 0.  1.
          5   -1    0    0  501    0  0.00000000000E+00 -0.00000000000E+00 -0.17856776175E+03  0.17862960431E+03  0.47000000000E+01 0.  1.
         25    2    1    2    0    0 -0.22094135948E+01 -0.34402164319E+02 -0.15672878693E+02  0.13061586349E+03  0.12500589686E+03 0.  0.
         25    2    1    2    0    0  0.22094135948E+01  0.34402164319E+02 -0.65683197876E+02  0.14533897771E+03  0.12498298101E+03 0.  0.
          5    1    3    3  502    0  0.54497523175E+02 -0.45329516593E+02 -0.19303326176E+01  0.71067301136E+02  0.47000000000E+01 0.  1.
         -5    1    3    3    0  502 -0.56706936770E+02  0.10927352274E+02 -0.13742546076E+02  0.59548562352E+02  0.47000000000E+01 0.  1.
          5    1    4    4  503    0  0.47171568606E+02  0.21477894396E+02 -0.80660324424E+02  0.95992889156E+02  0.47000000000E+01 0.  1.
         -5    1    4    4    0  503 -0.44962155011E+02  0.12924269923E+02  0.14977126547E+02  0.49346088557E+02  0.47000000000E+01 0.  1.
<mgrwt>
<rscale>  0 0.12966662E+03</rscale>
<asrwt>0</asrwt>
<pdfrwt beam="2">  1        5 0.27485455E-01 0.12967214E+03</pdfrwt>
<pdfrwt beam="1">  1       -5 0.14969136E-01 0.12967214E+03</pdfrwt>
<totfact> 0.35556446E+02</totfact>
</mgrwt>
</event>
<event>
 8    1  0.3763376E-007  0.1251409E+03  0.7546771E-02  0.1234855E+00
         -5   -1    0    0    0  501 -0.00000000000E+00  0.00000000000E+00  0.79157693544E+02  0.79297102389E+02  0.47000000000E+01 0. -1.
          5   -1    0    0  501    0  0.00000000000E+00 -0.00000000000E+00 -0.19801859827E+03  0.19807436800E+03  0.47000000000E+01 0. -1.
         25    2    1    2    0    0  0.22993745657E+00  0.55047235388E+01 -0.66723904330E+02  0.14181792638E+03  0.12501955839E+03 0.  0.
         25    2    1    2    0    0 -0.22993745657E+00 -0.55047235388E+01 -0.52137000392E+02  0.13555354401E+03  0.12500456644E+03 0.  0.
          5    1    3    3  502    0  0.43279199933E+02 -0.38691695762E+02 -0.52310040953E+02  0.78285163679E+02  0.47000000000E+01 0. -1.
         -5    1    3    3    0  502 -0.43049262476E+02  0.44196419301E+02 -0.14413863377E+02  0.63532762699E+02  0.47000000000E+01 0. -1.
          5    1    4    4  503    0  0.57318733244E+02  0.15570634620E+02 -0.85282921034E+01  0.60188899387E+02  0.47000000000E+01 0.  1.
         -5    1    4    4    0  503 -0.57548670701E+02 -0.21075358159E+02 -0.43608708289E+02  0.75364644626E+02  0.47000000000E+01 0.  1.
<mgrwt>
<rscale>  0 0.12513716E+03</rscale>
<asrwt>0</asrwt>
<pdfrwt beam="2">  1        5 0.30479413E-01 0.12514090E+03</pdfrwt>
<pdfrwt beam="1">  1       -5 0.12193121E-01 0.12514090E+03</pdfrwt>
<totfact> 0.41405370E+02</totfact>
</mgrwt>
</event>
<event>
 8    1  0.3763376E-007  0.1535103E+03  0.7546771E-02  0.1196229E+00
         -5   -1    0    0    0  501 -0.00000000000E+00  0.00000000000E+00  0.19210272723E+03  0.19216021391E+03  0.47000000000E+01 0. -1.
          5   -1    0    0  501    0  0.00000000000E+00 -0.00000000000E+00 -0.14526332053E+03  0.14533933497E+03  0.47000000000E+01 0. -1.
         25    2    1    2    0    0  0.72450354309E+02  0.51889142678E+02  0.90131440947E+02  0.17801427398E+03  0.12499547243E+03 0.  0.
         25    2    1    2    0    0 -0.72450354309E+02 -0.51889142678E+02 -0.43292034244E+02  0.15948527489E+03  0.12497926113E+03 0.  0.
          5    1    3    3  502    0  0.93018334728E+02  0.66778394898E+02  0.39573087793E+02  0.12124307773E+03  0.47000000000E+01 0.  1.
         -5    1    3    3    0  502 -0.20567980419E+02 -0.14889252220E+02  0.50558353154E+02  0.56771196252E+02  0.47000000000E+01 0.  1.
          5    1    4    4  503    0  0.32331987058E+02 -0.32710397729E+02 -0.19842662877E+02  0.50310523519E+02  0.47000000000E+01 0.  1.
         -5    1    4    4    0  503 -0.10478234137E+03 -0.19178744949E+02 -0.23449371367E+02  0.10917475137E+03  0.47000000000E+01 0.  1.
<mgrwt>
<rscale>  0 0.15350698E+03</rscale>
<asrwt>0</asrwt>
<pdfrwt beam="2">  1        5 0.22358473E-01 0.15351028E+03</pdfrwt>
<pdfrwt beam="1">  1       -5 0.29564535E-01 0.15351028E+03</pdfrwt>
<totfact> 0.15550586E+02</totfact>
</mgrwt>
</event>
<event>
 8    1  0.3763376E-007  0.1277886E+03  0.7546771E-02  0.1230776E+00
         -5   -1    0    0    0  501 -0.00000000000E+00  0.00000000000E+00  0.59630876782E+03  0.59632728981E+03  0.47000000000E+01 0. -1.
          5   -1    0    0  501    0  0.00000000000E+00 -0.00000000000E+00 -0.27419925654E+02  0.27819818887E+02  0.47000000000E+01 0. -1.
         25    2    1    2    0    0  0.23977975956E+02 -0.11428540452E+02  0.31440736249E+03  0.33938460867E+03  0.12499747255E+03 0.  0.
         25    2    1    2    0    0 -0.23977975956E+02  0.11428540452E+02  0.25448147967E+03  0.28476250003E+03  0.12499321206E+03 0.  0.
          5    1    3    3  502    0  0.60155191677E+02  0.30377189375E+02  0.12586909510E+03  0.14285146069E+03  0.47000000000E+01 0. -1.
         -5    1    3    3    0  502 -0.36177215721E+02 -0.41805729827E+02  0.18853826739E+03  0.19653314797E+03  0.47000000000E+01 0. -1.
          5    1    4    4  503    0  0.31605303427E+01 -0.54328883278E+02  0.86832560148E+02  0.10258459929E+03  0.47000000000E+01 0. -1.
         -5    1    4    4    0  503 -0.27138506298E+02  0.65757423729E+02  0.16764891952E+03  0.18217790074E+03  0.47000000000E+01 0. -1.
<mgrwt>
<rscale>  0 0.12778755E+03</rscale>
<asrwt>0</asrwt>
<pdfrwt beam="2">  1        5 0.42506363E-02 0.12778859E+03</pdfrwt>
<pdfrwt beam="1">  1       -5 0.91771987E-01 0.12778859E+03</pdfrwt>
<totfact> 0.23506775E+02</totfact>
</mgrwt>
</event>
<event>
 8    1  0.3763376E-007  0.1362886E+03  0.7546771E-02  0.1218415E+00
         -5   -1    0    0    0  501 -0.00000000000E+00  0.00000000000E+00  0.55898869718E+02  0.56096110701E+02  0.47000000000E+01 0.  1.
          5   -1    0    0  501    0  0.00000000000E+00 -0.00000000000E+00 -0.34454861071E+03  0.34458066565E+03  0.47000000000E+01 0.  1.
         25    2    1    2    0    0  0.25840137408E+02 -0.47750477840E+02 -0.10529890774E+03  0.17222082017E+03  0.12499732034E+03 0.  0.
         25    2    1    2    0    0 -0.25840137408E+02  0.47750477840E+02 -0.18335083326E+03  0.22845595619E+03  0.12500709990E+03 0.  0.
          5    1    4    4  502    0 -0.56582381518E+02  0.66215238144E+02 -0.16773956695E+03  0.18906262450E+03  0.47000000000E+01 0.  1.
         -5    1    4    4    0  502  0.30742244110E+02 -0.18464760304E+02 -0.15611266305E+02  0.39393331690E+02  0.47000000000E+01 0.  1.
          5    1    3    3  503    0 -0.26126290855E+01 -0.64833876240E+02 -0.36171754839E+01  0.65156974281E+02  0.47000000000E+01 0. -1.
         -5    1    3    3    0  503  0.28452766494E+02  0.17083398399E+02 -0.10168173225E+03  0.10706384589E+03  0.47000000000E+01 0. -1.
<mgrwt>
<rscale>  0 0.13628641E+03</rscale>
<asrwt>0</asrwt>
<pdfrwt beam="2">  1        5 0.53025115E-01 0.13628865E+03</pdfrwt>
<pdfrwt beam="1">  1       -5 0.86174645E-02 0.13628865E+03</pdfrwt>
<totfact> 0.25206951E+02</totfact>
</mgrwt>
</event>
<event>
 8    1  0.3763376E-007  0.1751218E+03  0.7546771E-02  0.1172610E+00
         -5   -1    0    0    0  501 -0.00000000000E+00  0.00000000000E+00  0.16085232855E+03  0.16092097936E+03  0.47000000000E+01 0.  1.
          5   -1    0    0  501    0  0.00000000000E+00 -0.00000000000E+00 -0.22671524332E+03  0.22676395559E+03  0.47000000000E+01 0.  1.
         25    2    1    2    0    0  0.12093182366E+03  0.20436592462E+02  0.44505621520E+02  0.18068531703E+03  0.12499709259E+03 0.  0.
         25    2    1    2    0    0 -0.12093182366E+03 -0.20436592462E+02 -0.11036853630E+03  0.20699961793E+03  0.12500187092E+03 0.  0.
          5    1    3    3  502    0  0.12684541100E+02  0.18239147128E+02 -0.38145527116E+02  0.44392964643E+02  0.47000000000E+01 0.  1.
         -5    1    3    3    0  502  0.10824728256E+03  0.21974453342E+01  0.82651148636E+02  0.13629235238E+03  0.47000000000E+01 0.  1.
          5    1    4    4  503    0 -0.96382725756E+01  0.35002879049E+02 -0.64924434872E+02  0.74534355055E+02  0.47000000000E+01 0.  1.
         -5    1    4    4    0  503 -0.11129355108E+03 -0.55439471511E+02 -0.45444101426E+02  0.13246526287E+03  0.47000000000E+01 0.  1.
<mgrwt>
<rscale>  0 0.17512090E+03</rscale>
<asrwt>0</asrwt>
<pdfrwt beam="2">  1        5 0.34888296E-01 0.17512175E+03</pdfrwt>
<pdfrwt beam="1">  1       -5 0.24755540E-01 0.17512175E+03</pdfrwt>
<totfact> 0.95911966E+01</totfact>
</mgrwt>
</event>
<event>
 8    1  0.3763376E-007  0.1352944E+03  0.7546771E-02  0.1219823E+00
          5   -1    0    0  501    0  0.00000000000E+00  0.00000000000E+00  0.38001831991E+03  0.38004738319E+03  0.47000000000E+01 0. -1.
         -5   -1    0    0    0  501 -0.00000000000E+00 -0.00000000000E+00 -0.55530769336E+02  0.55729313140E+02  0.47000000000E+01 0. -1.
         25    2    1    2    0    0  0.47284429971E+02  0.21056161020E+02  0.82224725350E+02  0.15832079668E+03  0.12500155986E+03 0.  0.
         25    2    1    2    0    0 -0.47284429971E+02 -0.21056161020E+02  0.24226282523E+03  0.27745589965E+03  0.12494527014E+03 0.  0.
          5    1    4    4  502    0 -0.40737219795E+02 -0.36004846998E+02  0.25860363897E+02  0.60388065914E+02  0.47000000000E+01 0.  1.
         -5    1    4    4    0  502 -0.65472101765E+01  0.14948685978E+02  0.21640246133E+03  0.21706783374E+03  0.47000000000E+01 0.  1.
          5    1    3    3  503    0  0.83863940469E+02  0.40883793908E+02  0.56137461056E+02  0.10898692421E+03  0.47000000000E+01 0. -1.
         -5    1    3    3    0  503 -0.36579510498E+02 -0.19827632888E+02  0.26087264294E+02  0.49333872467E+02  0.47000000000E+01 0. -1.
<mgrwt>
<rscale>  0 0.13528138E+03</rscale>
<asrwt>0</asrwt>
<pdfrwt beam="1">  1        5 0.58481865E-01 0.13529438E+03</pdfrwt>
<pdfrwt beam="2">  1       -5 0.85607035E-02 0.13529438E+03</pdfrwt>
<totfact> 0.20585880E+02</totfact>
</mgrwt>
</event>
<event>
 8    1  0.3763376E-007  0.1263963E+03  0.7546771E-02  0.1232904E+00
         -5   -1    0    0    0  501 -0.00000000000E+00  0.00000000000E+00  0.12843602287E+03  0.12852199022E+03  0.47000000000E+01 0.  1.
          5   -1    0    0  501    0  0.00000000000E+00 -0.00000000000E+00 -0.16009916909E+03  0.16016814272E+03  0.47000000000E+01 0.  1.
         25    2    1    2    0    0 -0.17881772487E+02  0.56362252218E+01  0.52470828491E+02  0.13685474045E+03  0.12499802926E+03 0.  0.
         25    2    1    2    0    0  0.17881772487E+02 -0.56362252218E+01 -0.84133974711E+02  0.15183539248E+03  0.12499574348E+03 0.  0.
          5    1    4    4  502    0  0.16659708352E+02 -0.63723962266E+02 -0.58261169179E+02  0.88061019091E+02  0.47000000000E+01 0. -1.
         -5    1    4    4    0  502  0.12220641349E+01  0.58087737044E+02 -0.25872805532E+02  0.63774373393E+02  0.47000000000E+01 0. -1.
          5    1    3    3  503    0  0.41075215965E+02 -0.23399518925E+02  0.52721513050E+02  0.70967307901E+02  0.47000000000E+01 0.  1.
         -5    1    3    3    0  503 -0.58956988452E+02  0.29035744147E+02 -0.25068455883E+00  0.65887432551E+02  0.47000000000E+01 0.  1.
<mgrwt>
<rscale>  0 0.12639576E+03</rscale>
<asrwt>0</asrwt>
<pdfrwt beam="2">  1        5 0.24642560E-01 0.12639633E+03</pdfrwt>
<pdfrwt beam="1">  1       -5 0.19771307E-01 0.12639633E+03</pdfrwt>
<totfact> 0.26090265E+02</totfact>
</mgrwt>
</event>
<event>
 8    1  0.3763376E-007  0.1331340E+03  0.7546771E-02  0.1222885E+00
         -5   -1    0    0    0  501 -0.00000000000E+00  0.00000000000E+00  0.11090569203E+04  0.11090668791E+04  0.47000000000E+01 0.  1.
          5   -1    0    0  501    0  0.00000000000E+00 -0.00000000000E+00 -0.23297805167E+02  0.23767156448E+02  0.47000000000E+01 0.  1.
         25    2    1    2    0    0  0.44582143348E+02  0.10365081637E+02  0.86389459542E+03  0.87408992300E+03  0.12499727632E+03 0.  0.
         25    2    1    2    0    0 -0.44582143348E+02 -0.10365081637E+02  0.22186451970E+03  0.25874411259E+03  0.12501859172E+03 0.  0.
          5    1    3    3  502    0  0.65598103179E+02  0.46728055216E+02  0.38661136643E+03  0.39493931298E+03  0.47000000000E+01 0.  1.
         -5    1    3    3    0  502 -0.21015959831E+02 -0.36362973579E+02  0.47728322898E+03  0.47915061002E+03  0.47000000000E+01 0.  1.
          5    1    4    4  503    0  0.25593375209E+02  0.21315077703E+02  0.12950441177E+02  0.36043824974E+02  0.47000000000E+01 0.  1.
         -5    1    4    4    0  503 -0.70175518557E+02 -0.31680159340E+02  0.20891407852E+03  0.22270028761E+03  0.47000000000E+01 0.  1.
<mgrwt>
<rscale>  0 0.13312895E+03</rscale>
<asrwt>0</asrwt>
<pdfrwt beam="2">  1        5 0.36211482E-02 0.13313396E+03</pdfrwt>
<pdfrwt beam="1">  1       -5 0.17066099E+00 0.13313396E+03</pdfrwt>
<totfact> 0.62141615E+01</totfact>
</mgrwt>
</event>
<event>
 8    1  0.3763376E-007  0.1296556E+03  0.7546771E-02  0.1227970E+00
          5   -1    0    0  501    0  0.00000000000E+00  0.00000000000E+00  0.15126524693E+03  0.15133824675E+03  0.47000000000E+01 0. -1.
         -5   -1    0    0    0  501 -0.00000000000E+00 -0.00000000000E+00 -0.11735647776E+03  0.11745055501E+03  0.47000000000E+01 0. -1.
         25    2    1    2    0    0 -0.24552371709E+01 -0.34332948464E+02 -0.14352314529E+02  0.13044244914E+03  0.12499785625E+03 0.  0.
         25    2    1    2    0    0  0.24552371709E+01  0.34332948464E+02  0.48261083701E+02  0.13834635262E+03  0.12500320614E+03 0.  0.
          5    1    4    4  502    0  0.38439421697E+02 -0.13317188265E+02 -0.21620732466E+02  0.46308559858E+02  0.47000000000E+01 0. -1.
         -5    1    4    4    0  502 -0.35984184526E+02  0.47650136730E+02  0.69881816167E+02  0.92037792766E+02  0.47000000000E+01 0. -1.
          5    1    3    3  503    0  0.33173797678E+02 -0.65713794426E+02 -0.30859040777E+02  0.79957326293E+02  0.47000000000E+01 0.  1.
         -5    1    3    3    0  503 -0.35629034849E+02  0.31380845962E+02  0.16506726248E+02  0.50485122848E+02  0.47000000000E+01 0.  1.
<mgrwt>
<rscale>  0 0.12965434E+03</rscale>
<asrwt>0</asrwt>
<pdfrwt beam="1">  1        5 0.23284429E-01 0.12965562E+03</pdfrwt>
<pdfrwt beam="2">  1       -5 0.18067695E-01 0.12965562E+03</pdfrwt>
<totfact> 0.34662316E+02</totfact>
</mgrwt>
</event>
<event>
 8    1  0.3763376E-007  0.1307150E+03  0.7546771E-02  0.1226400E+00
          5   -1    0    0  501    0  0.00000000000E+00  0.00000000000E+00  0.19677104996E+03  0.19682717318E+03  0.47000000000E+01 0.  1.
         -5   -1    0    0    0  501 -0.00000000000E+00 -0.00000000000E+00 -0.88682561655E+02  0.88807019665E+02  0.47000000000E+01 0.  1.
         25    2    1    2    0    0  0.29968009718E+02 -0.23738887374E+02  0.32712476830E+02  0.13474369008E+03  0.12499655793E+03 0.  0.
         25    2    1    2    0    0 -0.29968009718E+02  0.23738887374E+02  0.75376011473E+02  0.15089050277E+03  0.12499913736E+03 0.  0.
          5    1    3    3  502    0  0.55820060694E+02  0.34755419919E+02  0.23362118855E+02  0.69940667619E+02  0.47000000000E+01 0.  1.
         -5    1    3    3    0  502 -0.25852050976E+02 -0.58494307292E+02  0.93503579749E+01  0.64803022457E+02  0.47000000000E+01 0.  1.
          5    1    4    4  503    0  0.27031618495E+02 -0.29836789680E+02 -0.22351674690E+01  0.40595915933E+02  0.47000000000E+01 0.  1.
         -5    1    4    4    0  503 -0.56999628213E+02  0.53575677054E+02  0.77611178942E+02  0.11029458683E+03  0.47000000000E+01 0.  1.
<mgrwt>
<rscale>  0 0.13071434E+03</rscale>
<asrwt>0</asrwt>
<pdfrwt beam="1">  1        5 0.30286360E-01 0.13071496E+03</pdfrwt>
<pdfrwt beam="2">  1       -5 0.13657362E-01 0.13071496E+03</pdfrwt>
<totfact> 0.34810008E+02</totfact>
</mgrwt>
</event>
<event>
 8    1  0.3763376E-007  0.1550366E+03  0.7546771E-02  0.1194418E+00
         -5   -1    0    0    0  501 -0.00000000000E+00  0.00000000000E+00  0.29085530958E+03  0.29089328131E+03  0.47000000000E+01 0. -1.
          5   -1    0    0  501    0  0.00000000000E+00 -0.00000000000E+00 -0.94243100259E+02  0.94360224387E+02  0.47000000000E+01 0. -1.
         25    2    1    2    0    0 -0.91632045316E+02 -0.36064230604E+01  0.16616259452E+03  0.22725832429E+03  0.12500760027E+03 0.  0.
         25    2    1    2    0    0  0.91632045316E+02  0.36064230604E+01  0.30449614809E+02  0.15799518141E+03  0.12500344112E+03 0.  0.
          5    1    3    3  502    0 -0.10725448764E+03 -0.87840316549E+01  0.67491335021E+02  0.12711355016E+03  0.47000000000E+01 0.  1.
         -5    1    3    3    0  502  0.15622442324E+02  0.51776085944E+01  0.98671259496E+02  0.10014477413E+03  0.47000000000E+01 0.  1.
          5    1    4    4  503    0  0.40032290286E+01 -0.48061148117E+02 -0.80598278648E+01  0.49121793800E+02  0.47000000000E+01 0. -1.
         -5    1    4    4    0  503  0.87628816288E+02  0.51667571177E+02  0.38509442674E+02  0.10887338761E+03  0.47000000000E+01 0. -1.
<mgrwt>
<rscale>  0 0.15503573E+03</rscale>
<asrwt>0</asrwt>
<pdfrwt beam="2">  1        5 0.14510869E-01 0.15503657E+03</pdfrwt>
<pdfrwt beam="1">  1       -5 0.44758901E-01 0.15503657E+03</pdfrwt>
<totfact> 0.15005084E+02</totfact>
</mgrwt>
</event>
<event>
 8    1  0.3763376E-007  0.1258708E+03  0.7546771E-02  0.1233716E+00
          5   -1    0    0  501    0  0.00000000000E+00  0.00000000000E+00  0.38970505022E+02  0.39252901315E+02  0.47000000000E+01 0.  1.
         -5   -1    0    0    0  501 -0.00000000000E+00 -0.00000000000E+00 -0.64474644883E+03  0.64476357937E+03  0.47000000000E+01 0.  1.
         25    2    1    2    0    0 -0.76099916041E+01  0.12647357254E+02 -0.51148722065E+03  0.52674659566E+03  0.12499972615E+03 0.  0.
         25    2    1    2    0    0  0.76099916041E+01 -0.12647357254E+02 -0.94288723159E+02  0.15726988502E+03  0.12500234318E+03 0.  0.
          5    1    4    4  502    0 -0.56591201806E+02 -0.20853473366E+02 -0.52379659595E+02  0.80019686407E+02  0.47000000000E+01 0.  1.
         -5    1    4    4    0  502  0.64201193410E+02  0.82061161115E+01 -0.41909063563E+02  0.77250198613E+02  0.47000000000E+01 0.  1.
          5    1    3    3  503    0  0.96029863681E+01 -0.37920271535E+02 -0.58096670914E+02  0.70195993560E+02  0.47000000000E+01 0.  1.
         -5    1    3    3    0  503 -0.17212977972E+02  0.50567628789E+02 -0.45339054974E+03  0.45655060211E+03  0.47000000000E+01 0.  1.
<mgrwt>
<rscale>  0 0.12587013E+03</rscale>
<asrwt>0</asrwt>
<pdfrwt beam="1">  1        5 0.60185033E-02 0.12587078E+03</pdfrwt>
<pdfrwt beam="2">  1       -5 0.99214794E-01 0.12587078E+03</pdfrwt>
<totfact> 0.10887515E+02</totfact>
</mgrwt>
</event>
<event>
 8    1  0.3763376E-007  0.1484106E+03  0.7546771E-02  0.1202444E+00
          5   -1    0    0  501    0  0.00000000000E+00  0.00000000000E+00  0.83135093421E+02  0.83267843481E+02  0.47000000000E+01 0.  1.
         -5   -1    0    0    0  501 -0.00000000000E+00 -0.00000000000E+00 -0.26588434538E+03  0.26592588275E+03  0.47000000000E+01 0.  1.
         25    2    1    2    0    0  0.29274362908E+02 -0.74448393379E+02 -0.79006879435E+02  0.16813028231E+03  0.12500461285E+03 0.  0.
         25    2    1    2    0    0 -0.29274362908E+02  0.74448393379E+02 -0.10374237252E+03  0.18106344392E+03  0.12498775647E+03 0.  0.
          5    1    3    3  502    0  0.59631845187E+02  0.46338018908E+01 -0.51133030652E+02  0.78829600430E+02  0.47000000000E+01 0.  1.
         -5    1    3    3    0  502 -0.30357482278E+02 -0.79082195269E+02 -0.27873848783E+02  0.89300681884E+02  0.47000000000E+01 0.  1.
          5    1    4    4  503    0  0.25360976452E+02  0.23007879364E+02 -0.99975057296E+02  0.10578111231E+03  0.47000000000E+01 0. -1.
         -5    1    4    4    0  503 -0.54635339361E+02  0.51440514015E+02 -0.37673152278E+01  0.75282331613E+02  0.47000000000E+01 0. -1.
<mgrwt>
<rscale>  0 0.14840705E+03</rscale>
<asrwt>0</asrwt>
<pdfrwt beam="1">  1        5 0.12803421E-01 0.14841060E+03</pdfrwt>
<pdfrwt beam="2">  1       -5 0.40918690E-01 0.14841060E+03</pdfrwt>
<totfact> 0.22304759E+02</totfact>
</mgrwt>
</event>
<event>
 8    1  0.3763376E-007  0.1794964E+03  0.7546771E-02  0.1168292E+00
         -5   -1    0    0    0  501 -0.00000000000E+00  0.00000000000E+00  0.26283167820E+02  0.26700091960E+02  0.47000000000E+01 0.  1.
          5   -1    0    0  501    0  0.00000000000E+00 -0.00000000000E+00 -0.13905242558E+04  0.13905321988E+04  0.47000000000E+01 0.  1.
         25    2    1    2    0    0 -0.10807012518E+02 -0.12836081922E+03 -0.43093554487E+03  0.46682280001E+03  0.12499916535E+03 0.  0.
         25    2    1    2    0    0  0.10807012518E+02  0.12836081922E+03 -0.93330554311E+03  0.95040949078E+03  0.12500268773E+03 0.  0.
          5    1    4    4  502    0  0.50283775840E+02  0.12931684057E+03 -0.76254930405E+03  0.77508375965E+03  0.47000000000E+01 0.  1.
         -5    1    4    4    0  502 -0.39476763322E+02 -0.95602134377E+00 -0.17075623906E+03  0.17532573113E+03  0.47000000000E+01 0.  1.
          5    1    3    3  503    0  0.10076890808E+02 -0.32598764241E+02 -0.11883160087E+02  0.36435184260E+02  0.47000000000E+01 0.  1.
         -5    1    3    3    0  503 -0.20883903326E+02 -0.95762054980E+02 -0.41905238479E+03  0.43038761575E+03  0.47000000000E+01 0.  1.
<mgrwt>
<rscale>  0 0.17949580E+03</rscale>
<asrwt>0</asrwt>
<pdfrwt beam="2">  1        5 0.21395943E+00 0.17949642E+03</pdfrwt>
<pdfrwt beam="1">  1       -5 0.40762474E-02 0.17949642E+03</pdfrwt>
<totfact> 0.27798924E+01</totfact>
</mgrwt>
</event>
<event>
 8    1  0.3763376E-007  0.1956715E+03  0.7546771E-02  0.1153452E+00
         -5   -1    0    0    0  501 -0.00000000000E+00  0.00000000000E+00  0.11211965798E+03  0.11221812557E+03  0.47000000000E+01 0. -1.
          5   -1    0    0  501    0  0.00000000000E+00 -0.00000000000E+00 -0.34771472880E+03  0.34774649190E+03  0.47000000000E+01 0. -1.
         25    2    1    2    0    0  0.87122653727E+02  0.12277032409E+03 -0.86200988842E+02  0.21378190934E+03  0.12493672403E+03 0.  0.
         25    2    1    2    0    0 -0.87122653727E+02 -0.12277032409E+03 -0.14939408198E+03  0.24618270813E+03  0.12499769909E+03 0.  0.
          5    1    3    3  502    0  0.50320445031E+02  0.11455957001E+02  0.19976203285E+02  0.55538498689E+02  0.47000000000E+01 0. -1.
         -5    1    3    3    0  502  0.36802208697E+02  0.11131436709E+03 -0.10617719213E+03  0.15824341065E+03  0.47000000000E+01 0. -1.
          5    1    4    4  503    0 -0.10483063460E+03 -0.42411690539E+02 -0.89644950563E+02  0.14438324212E+03  0.47000000000E+01 0.  1.
         -5    1    4    4    0  503  0.17707980868E+02 -0.80358633556E+02 -0.59749131419E+02  0.10179946600E+03  0.47000000000E+01 0.  1.
<mgrwt>
<rscale>  0 0.19566176E+03</rscale>
<asrwt>0</asrwt>
<pdfrwt beam="2">  1        5 0.53504591E-01 0.19567150E+03</pdfrwt>
<pdfrwt beam="1">  1       -5 0.17259196E-01 0.19567150E+03</pdfrwt>
<totfact> 0.80157020E+01</totfact>
</mgrwt>
</event>
<event>
 8    1  0.3763376E-007  0.1258539E+03  0.7546771E-02  0.1233744E+00
         -5   -1    0    0    0  501 -0.00000000000E+00  0.00000000000E+00  0.27586753711E+03  0.27590757153E+03  0.47000000000E+01 0.  1.
          5   -1    0    0  501    0  0.00000000000E+00 -0.00000000000E+00 -0.57373259473E+02  0.57565448861E+02  0.47000000000E+01 0.  1.
         25    2    1    2    0    0  0.37428365203E+01 -0.14060826558E+02  0.10224407918E+03  0.16215131356E+03  0.12500992398E+03 0.  0.
         25    2    1    2    0    0 -0.37428365203E+01  0.14060826558E+02  0.11625019845E+03  0.17132170683E+03  0.12500121169E+03 0.  0.
          5    1    4    4  502    0 -0.46037826448E+02 -0.34114809562E+02  0.76677873354E+02  0.95837821123E+02  0.47000000000E+01 0.  1.
         -5    1    4    4    0  502  0.42294989928E+02  0.48175636119E+02  0.39572325097E+02  0.75483885711E+02  0.47000000000E+01 0.  1.
          5    1    3    3  503    0  0.55807740726E+02  0.17970539033E+02  0.25982584563E+02  0.64301080074E+02  0.47000000000E+01 0. -1.
         -5    1    3    3    0  503 -0.52064904206E+02 -0.32031365591E+02  0.76261494619E+02  0.97850233485E+02  0.47000000000E+01 0. -1.
<mgrwt>
<rscale>  0 0.12585171E+03</rscale>
<asrwt>0</asrwt>
<pdfrwt beam="2">  1        5 0.88445186E-02 0.12585387E+03</pdfrwt>
<pdfrwt beam="1">  1       -5 0.42459023E-01 0.12585387E+03</pdfrwt>
<totfact> 0.37353501E+02</totfact>
</mgrwt>
</event>
<event>
 8    1  0.3763376E-007  0.1269087E+03  0.7546771E-02  0.1232120E+00
         -5   -1    0    0    0  501 -0.00000000000E+00  0.00000000000E+00  0.25656178922E+02  0.26083127053E+02  0.47000000000E+01 0.  1.
          5   -1    0    0  501    0  0.00000000000E+00 -0.00000000000E+00 -0.62274705129E+03  0.62276478697E+03  0.47000000000E+01 0.  1.
         25    2    1    2    0    0  0.10388399182E+02 -0.19304752853E+02 -0.30908136008E+03  0.33411739285E+03  0.12499021056E+03 0.  0.
         25    2    1    2    0    0 -0.10388399182E+02  0.19304752853E+02 -0.28800951229E+03  0.31473052117E+03  0.12500091787E+03 0.  0.
          5    1    3    3  502    0 -0.37184601626E+02  0.17310466354E+02 -0.23524446111E+03  0.23883968123E+03  0.47000000000E+01 0.  1.
         -5    1    3    3    0  502  0.47573000808E+02 -0.36615219207E+02 -0.73836898966E+02  0.95277711625E+02  0.47000000000E+01 0.  1.
          5    1    4    4  503    0 -0.44402185959E+02 -0.24990971944E+02 -0.22346689523E+03  0.22925018225E+03  0.47000000000E+01 0. -1.
         -5    1    4    4    0  503  0.34013786777E+02  0.44295724797E+02 -0.64542617058E+02  0.85480338926E+02  0.47000000000E+01 0. -1.
<mgrwt>
<rscale>  0 0.12690608E+03</rscale>
<asrwt>0</asrwt>
<pdfrwt beam="2">  1        5 0.95841434E-01 0.12690871E+03</pdfrwt>
<pdfrwt beam="1">  1       -5 0.39813114E-02 0.12690871E+03</pdfrwt>
<totfact> 0.23534964E+02</totfact>
</mgrwt>
</event>
<event>
 8    1  0.3763376E-007  0.1422908E+03  0.7546771E-02  0.1210288E+00
          5   -1    0    0  501    0  0.00000000000E+00  0.00000000000E+00  0.22034113972E+02  0.22529806446E+02  0.47000000000E+01 0. -1.
         -5   -1    0    0    0  501 -0.00000000000E+00 -0.00000000000E+00 -0.90800272740E+03  0.90801489138E+03  0.47000000000E+01 0. -1.
         25    2    1    2    0    0  0.63941681340E+02  0.23094974734E+02 -0.44508194274E+03  0.46727359291E+03  0.12499903362E+03 0.  0.
         25    2    1    2    0    0 -0.63941681340E+02 -0.23094974734E+02 -0.44088667069E+03  0.46327110492E+03  0.12496857120E+03 0.  0.
          5    1    3    3  502    0  0.34743220435E+02  0.68332587336E+02 -0.16465646779E+03  0.18168730347E+03  0.47000000000E+01 0.  1.
         -5    1    3    3    0  502  0.29198460905E+02 -0.45237612602E+02 -0.28042547495E+03  0.28558628944E+03  0.47000000000E+01 0.  1.
          5    1    4    4  503    0 -0.33161693678E+02 -0.48450382440E+02 -0.75855143617E+02  0.96037650426E+02  0.47000000000E+01 0. -1.
         -5    1    4    4    0  503 -0.30779987661E+02  0.25355407706E+02 -0.36503152707E+03  0.36723345449E+03  0.47000000000E+01 0. -1.
<mgrwt>
<rscale>  0 0.14228412E+03</rscale>
<asrwt>0</asrwt>
<pdfrwt beam="1">  1        5 0.34289303E-02 0.14229081E+03</pdfrwt>
<pdfrwt beam="2">  1       -5 0.13973176E+00 0.14229081E+03</pdfrwt>
<totfact> 0.12040383E+02</totfact>
</mgrwt>
</event>
<event>
 8    1  0.3763376E-007  0.1372632E+03  0.7546771E-02  0.1217060E+00
         -5   -1    0    0    0  501 -0.00000000000E+00  0.00000000000E+00  0.62836929317E+02  0.63012456594E+02  0.47000000000E+01 0. -1.
          5   -1    0    0  501    0  0.00000000000E+00 -0.00000000000E+00 -0.30753510371E+03  0.30757101621E+03  0.47000000000E+01 0. -1.
         25    2    1    2    0    0 -0.42220120316E+02 -0.37863310845E+02 -0.91905977789E+02  0.16519049177E+03  0.12500008381E+03 0.  0.
         25    2    1    2    0    0  0.42220120316E+02  0.37863310845E+02 -0.15279219660E+03  0.20539298103E+03  0.12499860978E+03 0.  0.
          5    1    3    3  502    0  0.38159126446E+02  0.17393345307E+01 -0.25705462398E+01  0.38572554021E+02  0.47000000000E+01 0.  1.
         -5    1    3    3    0  502 -0.80379246762E+02 -0.39602645376E+02 -0.89335431549E+02  0.12661793775E+03  0.47000000000E+01 0.  1.
          5    1    4    4  503    0 -0.20023897107E+02  0.59385969129E+02 -0.39395005311E+02  0.74173487367E+02  0.47000000000E+01 0.  1.
         -5    1    4    4    0  503  0.62244017423E+02 -0.21522658284E+02 -0.11339719129E+03  0.13121949366E+03  0.47000000000E+01 0.  1.
<mgrwt>
<rscale>  0 0.13726288E+03</rscale>
<asrwt>0</asrwt>
<pdfrwt beam="2">  1        5 0.47329357E-01 0.13726321E+03</pdfrwt>
<pdfrwt beam="1">  1       -5 0.96834847E-02 0.13726321E+03</pdfrwt>
<totfact> 0.26269648E+02</totfact>
</mgrwt>
</event>
<event>
 8    1  0.3763376E-007  0.1321928E+03  0.7546771E-02  0.1224238E+00
         -5   -1    0    0    0  501 -0.00000000000E+00  0.00000000000E+00  0.32137036775E+02  0.32478902886E+02  0.47000000000E+01 0. -1.
          5   -1    0    0  501    0  0.00000000000E+00 -0.00000000000E+00 -0.70842465239E+03  0.70844024315E+03  0.47000000000E+01 0. -1.
         25    2    1    2    0    0  0.31719435839E+02  0.29047055081E+02 -0.15784174440E+03  0.20588545875E+03  0.12499980732E+03 0.  0.
         25    2    1    2    0    0 -0.31719435839E+02 -0.29047055081E+02 -0.51844587121E+03  0.53503368728E+03  0.12500028454E+03 0.  0.
          5    1    4    4  502    0  0.48997889623E+01  0.45939938406E+02 -0.14124441141E+03  0.14868274825E+03  0.47000000000E+01 0.  1.
         -5    1    4    4    0  502 -0.36619224801E+02 -0.74986993487E+02 -0.37720145980E+03  0.38635093904E+03  0.47000000000E+01 0.  1.
          5    1    3    3  503    0 -0.36774821021E+02 -0.17856058738E+02 -0.22117521229E+02  0.46717245640E+02  0.47000000000E+01 0. -1.
         -5    1    3    3    0  503  0.68494256860E+02  0.46903113819E+02 -0.13572422317E+03  0.15916821311E+03  0.47000000000E+01 0. -1.
<mgrwt>
<rscale>  0 0.13219264E+03</rscale>
<asrwt>0</asrwt>
<pdfrwt beam="2">  1        5 0.10901589E+00 0.13219276E+03</pdfrwt>
<pdfrwt beam="1">  1       -5 0.49716567E-02 0.13219276E+03</pdfrwt>
<totfact> 0.12082016E+02</totfact>
</mgrwt>
</event>
<event>
 8    1  0.3763376E-007  0.1468699E+03  0.7546771E-02  0.1204378E+00
         -5   -1    0    0    0  501 -0.00000000000E+00  0.00000000000E+00  0.29589376736E+03  0.29593109260E+03  0.47000000000E+01 0. -1.
          5   -1    0    0  501    0  0.00000000000E+00 -0.00000000000E+00 -0.74009572093E+02  0.74158659382E+02  0.47000000000E+01 0. -1.
         25    2    1    2    0    0 -0.89314522362E+01 -0.76583805288E+02  0.13480924477E+03  0.19934777188E+03  0.12498460548E+03 0.  0.
         25    2    1    2    0    0  0.89314522362E+01  0.76583805288E+02  0.87074950502E+02  0.17074198010E+03  0.12500370671E+03 0.  0.
          5    1    4    4  502    0 -0.43629332158E+02  0.76396816343E+02  0.77019342807E+02  0.11702162765E+03  0.47000000000E+01 0. -1.
         -5    1    4    4    0  502  0.52560784394E+02  0.18698894432E+00  0.10055607696E+02  0.53720352448E+02  0.47000000000E+01 0. -1.
          5    1    3    3  503    0 -0.60409145657E+01 -0.11069750883E+03  0.11360572306E+03  0.15880422356E+03  0.47000000000E+01 0.  1.
         -5    1    3    3    0  503 -0.28905376704E+01  0.34113703539E+02  0.21203521713E+02  0.40543548318E+02  0.47000000000E+01 0.  1.
<mgrwt>
<rscale>  0 0.14686587E+03</rscale>
<asrwt>0</asrwt>
<pdfrwt beam="2">  1        5 0.11400427E-01 0.14686993E+03</pdfrwt>
<pdfrwt beam="1">  1       -5 0.45536457E-01 0.14686993E+03</pdfrwt>
<totfact> 0.21885580E+02</totfact>
</mgrwt>
</event>
<event>
 8    1  0.3763376E-007  0.1555529E+03  0.7546771E-02  0.1193817E+00
         -5   -1    0    0    0  501 -0.00000000000E+00  0.00000000000E+00  0.43481013412E+02  0.43734294637E+02  0.47000000000E+01 0.  1.
          5   -1    0    0  501    0  0.00000000000E+00 -0.00000000000E+00 -0.64327262161E+03  0.64328979140E+03  0.47000000000E+01 0.  1.
         25    2    1    2    0    0 -0.89792434492E+02  0.22554457616E+02 -0.17235501674E+03  0.23217013278E+03  0.12500133562E+03 0.  0.
         25    2    1    2    0    0  0.89792434492E+02 -0.22554457616E+02 -0.42743659146E+03  0.45485395326E+03  0.12497477437E+03 0.  0.
          5    1    3    3  502    0 -0.18747562454E+02 -0.37792809295E+02 -0.11509071187E+03  0.12266918721E+03  0.47000000000E+01 0.  1.
         -5    1    3    3    0  502 -0.71044872038E+02  0.60347266911E+02 -0.57264304871E+02  0.10950094556E+03  0.47000000000E+01 0.  1.
          5    1    4    4  503    0  0.39041576731E+02  0.43071140081E+02 -0.27623401399E+03  0.28232372962E+03  0.47000000000E+01 0.  1.
         -5    1    4    4    0  503  0.50750857761E+02 -0.65625597697E+02 -0.15120257747E+03  0.17253022364E+03  0.47000000000E+01 0.  1.
<mgrwt>
<rscale>  0 0.15554761E+03</rscale>
<asrwt>0</asrwt>
<pdfrwt beam="2">  1        5 0.98985816E-01 0.15555295E+03</pdfrwt>
<pdfrwt beam="1">  1       -5 0.67101911E-02 0.15555295E+03</pdfrwt>
<totfact> 0.97529336E+01</totfact>
</mgrwt>
</event>
<event>
 8    1  0.3763376E-007  0.1721858E+03  0.7546771E-02  0.1175589E+00
         -5   -1    0    0    0  501 -0.00000000000E+00  0.00000000000E+00  0.75481695885E+02  0.75627881193E+02  0.47000000000E+01 0.  1.
          5   -1    0    0  501    0  0.00000000000E+00 -0.00000000000E+00 -0.39399057078E+03  0.39401860345E+03  0.47000000000E+01 0.  1.
         25    2    1    2    0    0  0.28941993912E+02 -0.11482693411E+03 -0.14356400504E+03  0.22418425743E+03  0.12500037571E+03 0.  0.
         25    2    1    2    0    0 -0.28941993912E+02  0.11482693411E+03 -0.17494486985E+03  0.24546222721E+03  0.12499253454E+03 0.  0.
          5    1    3    3  502    0  0.37055662786E+01  0.21935689850E+02  0.19802445040E+01  0.22823607930E+02  0.47000000000E+01 0.  1.
         -5    1    3    3    0  502  0.25236427633E+02 -0.13676262396E+03 -0.14554424955E+03  0.20136064950E+03  0.47000000000E+01 0.  1.
          5    1    4    4  503    0 -0.73606146500E+02  0.83470517377E+02 -0.84852489594E+02  0.14002580856E+03  0.47000000000E+01 0. -1.
         -5    1    4    4    0  503  0.44664152588E+02  0.31356416729E+02 -0.90092380255E+02  0.10543641864E+03  0.47000000000E+01 0. -1.
<mgrwt>
<rscale>  0 0.17218440E+03</rscale>
<asrwt>0</asrwt>
<pdfrwt beam="2">  1        5 0.60627334E-01 0.17218582E+03</pdfrwt>
<pdfrwt beam="1">  1       -5 0.11625970E-01 0.17218582E+03</pdfrwt>
<totfact> 0.12029114E+02</totfact>
</mgrwt>
</event>
<event>
 8    1  0.3763376E-007  0.1281586E+03  0.7546771E-02  0.1230215E+00
         -5   -1    0    0    0  501 -0.00000000000E+00  0.00000000000E+00  0.22986706298E+03  0.22991510747E+03  0.47000000000E+01 0. -1.
          5   -1    0    0  501    0  0.00000000000E+00 -0.00000000000E+00 -0.87841083077E+02  0.87966731644E+02  0.47000000000E+01 0. -1.
         25    2    1    2    0    0  0.28248951352E+02 -0.12315517347E+01  0.13987140856E+03  0.18970512441E+03  0.12499801328E+03 0.  0.
         25    2    1    2    0    0 -0.28248951352E+02  0.12315517347E+01  0.21545713447E+01  0.12817671471E+03  0.12500043217E+03 0.  0.
          5    1    4    4  502    0  0.43943118176E+02 -0.25143073744E+02  0.52225864039E+01  0.51112984662E+02  0.47000000000E+01 0. -1.
         -5    1    4    4    0  502 -0.72192069528E+02  0.26374625479E+02 -0.30680150592E+01  0.77063730044E+02  0.47000000000E+01 0. -1.
          5    1    3    3  503    0  0.26430600227E+02 -0.40773739323E+02  0.14162701470E+03  0.14980445834E+03  0.47000000000E+01 0. -1.
         -5    1    3    3    0  503  0.18183511245E+01  0.39542187588E+02 -0.17556061357E+01  0.39900666071E+02  0.47000000000E+01 0. -1.
<mgrwt>
<rscale>  0 0.12815802E+03</rscale>
<asrwt>0</asrwt>
<pdfrwt beam="2">  1        5 0.13527374E-01 0.12815860E+03</pdfrwt>
<pdfrwt beam="1">  1       -5 0.35377524E-01 0.12815860E+03</pdfrwt>
<totfact> 0.25831883E+02</totfact>
</mgrwt>
</event>
<event>
 8    1  0.3763376E-007  0.1326780E+03  0.7546771E-02  0.1223537E+00
          5   -1    0    0  501    0  0.00000000000E+00  0.00000000000E+00  0.76580374858E+02  0.76724466849E+02  0.47000000000E+01 0. -1.
         -5   -1    0    0    0  501 -0.00000000000E+00 -0.00000000000E+00 -0.39199654604E+03  0.39202472130E+03  0.47000000000E+01 0. -1.
         25    2    1    2    0    0 -0.17805620391E+02 -0.40746024021E+02 -0.30858610243E+03  0.33590005057E+03  0.12500473099E+03 0.  0.
         25    2    1    2    0    0  0.17805620391E+02  0.40746024021E+02 -0.68300687570E+01  0.13284913758E+03  0.12499985970E+03 0.  0.
          5    1    4    4  502    0 -0.33325115213E+02  0.66587460000E+02 -0.10015904873E+02  0.75278559256E+02  0.47000000000E+01 0. -1.
         -5    1    4    4    0  502  0.51130735603E+02 -0.25841435979E+02  0.31858361160E+01  0.57570578324E+02  0.47000000000E+01 0. -1.
          5    1    3    3  503    0  0.26705408870E+02 -0.46372919501E+02 -0.27356894619E+03  0.27879326543E+03  0.47000000000E+01 0.  1.
         -5    1    3    3    0  503 -0.44511029260E+02  0.56268954795E+01 -0.35017156236E+02  0.57106785144E+02  0.47000000000E+01 0.  1.
<mgrwt>
<rscale>  0 0.13267689E+03</rscale>
<asrwt>0</asrwt>
<pdfrwt beam="1">  1        5 0.11794848E-01 0.13267804E+03</pdfrwt>
<pdfrwt beam="2">  1       -5 0.60320411E-01 0.13267804E+03</pdfrwt>
<totfact> 0.10927413E+02</totfact>
</mgrwt>
</event>
<event>
 8    1  0.3763376E-007  0.1291547E+03  0.7546771E-02  0.1228718E+00
          5   -1    0    0  501    0  0.00000000000E+00  0.00000000000E+00  0.14592581100E+03  0.14600148052E+03  0.47000000000E+01 0. -1.
         -5   -1    0    0    0  501 -0.00000000000E+00 -0.00000000000E+00 -0.11543652650E+03  0.11553216717E+03  0.47000000000E+01 0. -1.
         25    2    1    2    0    0 -0.28399726249E+02  0.15741083470E+02  0.14610171029E+01  0.12915696726E+03  0.12500024585E+03 0.  0.
         25    2    1    2    0    0  0.28399726249E+02 -0.15741083470E+02  0.29028267393E+02  0.13237668043E+03  0.12500647605E+03 0.  0.
          5    1    4    4  502    0  0.66324874641E+02  0.26520940969E+02  0.22435440536E+02  0.75018586350E+02  0.47000000000E+01 0.  1.
         -5    1    4    4    0  502 -0.37925148392E+02 -0.42262024439E+02  0.65928268576E+01  0.57358094077E+02  0.47000000000E+01 0.  1.
          5    1    3    3  503    0  0.31206351139E+01 -0.49494940211E+02  0.20858857139E+02  0.54006197711E+02  0.47000000000E+01 0.  1.
         -5    1    3    3    0  503 -0.31520361363E+02  0.65236023681E+02 -0.19397840036E+02  0.75150769552E+02  0.47000000000E+01 0.  1.
<mgrwt>
<rscale>  0 0.12915323E+03</rscale>
<asrwt>0</asrwt>
<pdfrwt beam="1">  1        5 0.22463302E-01 0.12915473E+03</pdfrwt>
<pdfrwt beam="2">  1       -5 0.17772643E-01 0.12915473E+03</pdfrwt>
<totfact> 0.38187887E+02</totfact>
</mgrwt>
</event>
<event>
 8    1  0.3763376E-007  0.1479369E+03  0.7546771E-02  0.1203033E+00
         -5   -1    0    0    0  501 -0.00000000000E+00  0.00000000000E+00  0.96326690721E+02  0.96441284444E+02  0.47000000000E+01 0. -1.
          5   -1    0    0  501    0  0.00000000000E+00 -0.00000000000E+00 -0.22711866430E+03  0.22716729006E+03  0.47000000000E+01 0. -1.
         25    2    1    2    0    0  0.15477639655E+02  0.77597459562E+02 -0.60562642297E+02  0.15985351317E+03  0.12499755586E+03 0.  0.
         25    2    1    2    0    0 -0.15477639655E+02 -0.77597459562E+02 -0.70229331283E+02  0.16375506133E+03  0.12499055196E+03 0.  0.
          5    1    4    4  502    0  0.48684894376E+02 -0.53696255415E+02 -0.60316063544E+02  0.94411992392E+02  0.47000000000E+01 0.  1.
         -5    1    4    4    0  502 -0.64162534031E+02 -0.23901204147E+02 -0.99132677391E+01  0.69343068942E+02  0.47000000000E+01 0.  1.
          5    1    3    3  503    0  0.12603632882E+02 -0.29432177850E+02  0.70730512458E+01  0.33124352201E+02  0.47000000000E+01 0.  1.
         -5    1    3    3    0  503  0.28740067731E+01  0.10702963741E+03 -0.67635693542E+02  0.12672916097E+03  0.47000000000E+01 0.  1.
<mgrwt>
<rscale>  0 0.14793537E+03</rscale>
<asrwt>0</asrwt>
<pdfrwt beam="2">  1        5 0.34953888E-01 0.14793685E+03</pdfrwt>
<pdfrwt beam="1">  1       -5 0.14832046E-01 0.14793685E+03</pdfrwt>
<totfact> 0.23552421E+02</totfact>
</mgrwt>
</event>
<event>
 8    1  0.3763376E-007  0.1434009E+03  0.7546771E-02  0.1208826E+00
          5   -1    0    0  501    0  0.00000000000E+00  0.00000000000E+00  0.88604813252E+02  0.88729380317E+02  0.47000000000E+01 0.  1.
         -5   -1    0    0    0  501 -0.00000000000E+00 -0.00000000000E+00 -0.27255328051E+03  0.27259380168E+03  0.47000000000E+01 0.  1.
         25    2    1    2    0    0  0.70238542830E+02 -0.21241100169E+01 -0.16183820101E+03  0.21622777652E+03  0.12499953317E+03 0.  0.
         25    2    1    2    0    0 -0.70238542830E+02  0.21241100169E+01 -0.22110266250E+02  0.14509540548E+03  0.12500339225E+03 0.  0.
          5    1    4    4  502    0 -0.76311766411E+02 -0.37175654870E+02  0.19631315041E+02  0.87252470097E+02  0.47000000000E+01 0.  1.
         -5    1    4    4    0  502  0.60732235817E+01  0.39299764887E+02 -0.41741581290E+02  0.57842935381E+02  0.47000000000E+01 0.  1.
          5    1    3    3  503    0 -0.34671801506E+02 -0.73408081629E+01 -0.24847337756E+02  0.43537357266E+02  0.47000000000E+01 0.  1.
         -5    1    3    3    0  503  0.10491034434E+03  0.52166981460E+01 -0.13699086325E+03  0.17269041925E+03  0.47000000000E+01 0.  1.
<mgrwt>
<rscale>  0 0.14340004E+03</rscale>
<asrwt>0</asrwt>
<pdfrwt beam="1">  1        5 0.13644209E-01 0.14340088E+03</pdfrwt>
<pdfrwt beam="2">  1       -5 0.41943973E-01 0.14340088E+03</pdfrwt>
<totfact> 0.18701455E+02</totfact>
</mgrwt>
</event>
<event>
 8    1  0.3763376E-007  0.1394742E+03  0.7546771E-02  0.1214042E+00
          5   -1    0    0  501    0  0.00000000000E+00  0.00000000000E+00  0.14008864714E+03  0.14016746790E+03  0.47000000000E+01 0. -1.
         -5   -1    0    0    0  501 -0.00000000000E+00 -0.00000000000E+00 -0.13934402729E+03  0.13942326901E+03  0.47000000000E+01 0. -1.
         25    2    1    2    0    0  0.57885478587E+02 -0.21760255689E+02  0.99132246337E+01  0.13981546053E+03  0.12500341444E+03 0.  0.
         25    2    1    2    0    0 -0.57885478587E+02  0.21760255689E+02 -0.91686047792E+01  0.13977527638E+03  0.12501530792E+03 0.  0.
          5    1    4    4  502    0  0.64236662533E+01 -0.44444744366E+02 -0.13884066940E+02  0.47238290662E+02  0.47000000000E+01 0. -1.
         -5    1    4    4    0  502 -0.64309144840E+02  0.66205000055E+02  0.47154621606E+01  0.92536985718E+02  0.47000000000E+01 0. -1.
          5    1    3    3  503    0  0.21948245920E+02 -0.59404111961E+02 -0.33573591657E+02  0.71832096403E+02  0.47000000000E+01 0.  1.
         -5    1    3    3    0  503  0.35937232667E+02  0.37643856272E+02  0.43486816291E+02  0.67983364126E+02  0.47000000000E+01 0.  1.
<mgrwt>
<rscale>  0 0.13947158E+03</rscale>
<asrwt>0</asrwt>
<pdfrwt beam="1">  1        5 0.21564258E-01 0.13947424E+03</pdfrwt>
<pdfrwt beam="2">  1       -5 0.21449701E-01 0.13947424E+03</pdfrwt>
<totfact> 0.29867961E+02</totfact>
</mgrwt>
</event>
<event>
 8    1  0.3763376E-007  0.1737317E+03  0.7546771E-02  0.1174011E+00
         -5   -1    0    0    0  501 -0.00000000000E+00  0.00000000000E+00  0.15652687193E+03  0.15659741899E+03  0.47000000000E+01 0. -1.
          5   -1    0    0  501    0  0.00000000000E+00 -0.00000000000E+00 -0.24965438196E+03  0.24969861920E+03  0.47000000000E+01 0. -1.
         25    2    1    2    0    0  0.11896079145E+03  0.20110588842E+02  0.50456545092E+02  0.18091042080E+03  0.12500644674E+03 0.  0.
         25    2    1    2    0    0 -0.11896079145E+03 -0.20110588842E+02 -0.14358405512E+03  0.22538561739E+03  0.12500475973E+03 0.  0.
          5    1    3    3  502    0 -0.20570428500E+02  0.15810758128E+02  0.29674629507E+02  0.39696300050E+02  0.47000000000E+01 0. -1.
         -5    1    3    3    0  502  0.13953121995E+03  0.42998307134E+01  0.20781915585E+02  0.14121412075E+03  0.47000000000E+01 0. -1.
          5    1    4    4  503    0  0.80356805082E+01  0.33606733646E+02 -0.38565992463E+02  0.51994331251E+02  0.47000000000E+01 0.  1.
         -5    1    4    4    0  503 -0.12699647196E+03 -0.53717322488E+02 -0.10501806266E+03  0.17339128614E+03  0.47000000000E+01 0.  1.
<mgrwt>
<rscale>  0 0.17373144E+03</rscale>
<asrwt>0</asrwt>
<pdfrwt beam="2">  1        5 0.38417196E-01 0.17373174E+03</pdfrwt>
<pdfrwt beam="1">  1       -5 0.24089887E-01 0.17373174E+03</pdfrwt>
<totfact> 0.82941298E+01</totfact>
</mgrwt>
</event>
<event>
 8    1  0.3763376E-007  0.1460404E+03  0.7546771E-02  0.1205427E+00
          5   -1    0    0  501    0  0.00000000000E+00  0.00000000000E+00  0.23926186298E+03  0.23930802134E+03  0.47000000000E+01 0.  1.
         -5   -1    0    0    0  501 -0.00000000000E+00 -0.00000000000E+00 -0.89364767576E+02  0.89488276796E+02  0.47000000000E+01 0.  1.
         25    2    1    2    0    0  0.58508806550E+02  0.47743771284E+02  0.85156809645E+02  0.16905466464E+03  0.12500019707E+03 0.  0.
         25    2    1    2    0    0 -0.58508806550E+02 -0.47743771284E+02  0.64740285758E+02  0.15974163350E+03  0.12499334675E+03 0.  0.
          5    1    3    3  502    0  0.39652426109E+02  0.85576453950E+02  0.29353307936E+02  0.98890601443E+02  0.47000000000E+01 0.  1.
         -5    1    3    3    0  502  0.18856380442E+02 -0.37832682666E+02  0.55803501709E+02  0.70164063195E+02  0.47000000000E+01 0.  1.
          5    1    4    4  503    0 -0.38155938775E+02  0.40198762367E+02  0.26023041078E+02  0.61409321984E+02  0.47000000000E+01 0. -1.
         -5    1    4    4    0  503 -0.20352867775E+02 -0.87942533651E+02  0.38717244680E+02  0.98332311512E+02  0.47000000000E+01 0. -1.
<mgrwt>
<rscale>  0 0.14603893E+03</rscale>
<asrwt>0</asrwt>
<pdfrwt beam="1">  1        5 0.36822568E-01 0.14604040E+03</pdfrwt>
<pdfrwt beam="2">  1       -5 0.13761477E-01 0.14604040E+03</pdfrwt>
<totfact> 0.24171050E+02</totfact>
</mgrwt>
</event>
<event>
 8    1  0.3763376E-007  0.1376802E+03  0.7546771E-02  0.1216493E+00
         -5   -1    0    0    0  501 -0.00000000000E+00  0.00000000000E+00  0.78568004480E+02  0.78708457792E+02  0.47000000000E+01 0. -1.
          5   -1    0    0  501    0  0.00000000000E+00 -0.00000000000E+00 -0.24099125049E+03  0.24103707767E+03  0.47000000000E+01 0. -1.
         25    2    1    2    0    0 -0.55465243130E+02  0.15887572950E+02 -0.77337106193E+02  0.15791406691E+03  0.12500806519E+03 0.  0.
         25    2    1    2    0    0  0.55465243130E+02 -0.15887572950E+02 -0.85086139812E+02  0.16183146855E+03  0.12498385838E+03 0.  0.
          5    1    3    3  502    0 -0.82547337753E+02  0.40168186537E+02 -0.78994472500E+02  0.12120133195E+03  0.47000000000E+01 0.  1.
         -5    1    3    3    0  502  0.27082094624E+02 -0.24280613587E+02  0.16573663069E+01  0.36712734963E+02  0.47000000000E+01 0.  1.
          5    1    4    4  503    0  0.90112137559E+02 -0.32447201261E+02 -0.75306902502E+02  0.12192718224E+03  0.47000000000E+01 0.  1.
         -5    1    4    4    0  503 -0.34646894430E+02  0.16559628311E+02 -0.97792373105E+01  0.39904286309E+02  0.47000000000E+01 0.  1.
<mgrwt>
<rscale>  0 0.13767466E+03</rscale>
<asrwt>0</asrwt>
<pdfrwt beam="2">  1        5 0.37089906E-01 0.13768015E+03</pdfrwt>
<pdfrwt beam="1">  1       -5 0.12101715E-01 0.13768015E+03</pdfrwt>
<totfact> 0.29372580E+02</totfact>
</mgrwt>
</event>
<event>
 8    1  0.3763376E-007  0.1351400E+03  0.7546771E-02  0.1220025E+00
         -5   -1    0    0    0  501 -0.00000000000E+00  0.00000000000E+00  0.12230684907E+03  0.12239712141E+03  0.47000000000E+01 0.  1.
          5   -1    0    0  501    0  0.00000000000E+00 -0.00000000000E+00 -0.16761073465E+03  0.16767661843E+03  0.47000000000E+01 0.  1.
         25    2    1    2    0    0 -0.45394089694E+02 -0.24040522375E+02  0.25488890528E+02  0.13751409673E+03  0.12498749203E+03 0.  0.
         25    2    1    2    0    0  0.45394089694E+02  0.24040522375E+02 -0.70792776106E+02  0.15255964312E+03  0.12499702982E+03 0.  0.
          5    1    3    3  502    0  0.43579211010E+02 -0.90283022424E+01  0.97120233104E+01  0.45793790741E+02  0.47000000000E+01 0. -1.
         -5    1    3    3    0  502 -0.88973300704E+02 -0.15012220132E+02  0.15776867218E+02  0.91720305989E+02  0.47000000000E+01 0. -1.
          5    1    4    4  503    0  0.15070952433E+02  0.70712837660E+02 -0.15761146100E+02  0.74148113554E+02  0.47000000000E+01 0. -1.
         -5    1    4    4    0  503  0.30323137261E+02 -0.46672315286E+02 -0.55031630005E+02  0.78411529564E+02  0.47000000000E+01 0. -1.
<mgrwt>
<rscale>  0 0.13513782E+03</rscale>
<asrwt>0</asrwt>
<pdfrwt beam="2">  1        5 0.25798279E-01 0.13514003E+03</pdfrwt>
<pdfrwt beam="1">  1       -5 0.18828450E-01 0.13514003E+03</pdfrwt>
<totfact> 0.26798147E+02</totfact>
</mgrwt>
</event>
<event>
 8    1  0.3763376E-007  0.1275483E+03  0.7546771E-02  0.1231141E+00
         -5   -1    0    0    0  501 -0.00000000000E+00  0.00000000000E+00  0.25594548800E+03  0.25598863808E+03  0.47000000000E+01 0.  1.
          5   -1    0    0  501    0  0.00000000000E+00 -0.00000000000E+00 -0.86576725971E+02  0.86704206818E+02  0.47000000000E+01 0.  1.
         25    2    1    2    0    0  0.11363049005E+02  0.22650527408E+02  0.17319126688E+03  0.21508726908E+03  0.12500061249E+03 0.  0.
         25    2    1    2    0    0 -0.11363049005E+02 -0.22650527408E+02 -0.38225048544E+01  0.12760557581E+03  0.12500562452E+03 0.  0.
          5    1    4    4  502    0  0.46442860053E+02 -0.32158239777E+02 -0.28995651802E+02  0.63670475566E+02  0.47000000000E+01 0.  1.
         -5    1    4    4    0  502 -0.57805909058E+02  0.95077123689E+01  0.25173146947E+02  0.63935100248E+02  0.47000000000E+01 0.  1.
          5    1    3    3  503    0  0.35247537734E+02  0.49540156022E+02  0.31127508052E+02  0.68466252508E+02  0.47000000000E+01 0. -1.
         -5    1    3    3    0  503 -0.23884488729E+02 -0.26889628614E+02  0.14206375883E+03  0.14662101657E+03  0.47000000000E+01 0. -1.
<mgrwt>
<rscale>  0 0.12754708E+03</rscale>
<asrwt>0</asrwt>
<pdfrwt beam="2">  1        5 0.13332622E-01 0.12754831E+03</pdfrwt>
<pdfrwt beam="1">  1       -5 0.39389355E-01 0.12754831E+03</pdfrwt>
<totfact> 0.21300991E+02</totfact>
</mgrwt>
</event>
<event>
 8    1  0.3763376E-007  0.1696526E+03  0.7546771E-02  0.1178211E+00
          5   -1    0    0  501    0  0.00000000000E+00  0.00000000000E+00  0.29692557437E+03  0.29696276991E+03  0.47000000000E+01 0. -1.
         -5   -1    0    0    0  501 -0.00000000000E+00 -0.00000000000E+00 -0.18166241415E+03  0.18172320356E+03  0.47000000000E+01 0. -1.
         25    2    1    2    0    0 -0.96999766743E+01 -0.11428459105E+03 -0.10586704638E+03  0.19997461150E+03  0.12500782550E+03 0.  0.
         25    2    1    2    0    0  0.96999766743E+01  0.11428459105E+03  0.22113020661E+03  0.27871136198E+03  0.12500559077E+03 0.  0.
          5    1    3    3  502    0  0.42765085623E+02 -0.40748731278E+02 -0.90573053852E+02  0.10823529800E+03  0.47000000000E+01 0. -1.
         -5    1    3    3    0  502 -0.52465062297E+02 -0.73535859770E+02 -0.15293992529E+02  0.91739313500E+02  0.47000000000E+01 0. -1.
          5    1    4    4  503    0 -0.36773387777E+01 -0.20879850576E+02  0.79538055035E+02  0.82449276403E+02  0.47000000000E+01 0.  1.
         -5    1    4    4    0  503  0.13377315452E+02  0.13516444162E+03  0.14159215157E+03  0.19626208558E+03  0.47000000000E+01 0.  1.
<mgrwt>
<rscale>  0 0.16965222E+03</rscale>
<asrwt>0</asrwt>
<pdfrwt beam="1">  1        5 0.45688394E-01 0.16965263E+03</pdfrwt>
<pdfrwt beam="2">  1       -5 0.27955601E-01 0.16965263E+03</pdfrwt>
<totfact> 0.43170101E+01</totfact>
</mgrwt>
</event>
<event>
 8    1  0.3763376E-007  0.1277352E+03  0.7546771E-02  0.1230866E+00
         -5   -1    0    0    0  501 -0.00000000000E+00  0.00000000000E+00  0.14249837040E+03  0.14257585899E+03  0.47000000000E+01 0.  1.
          5   -1    0    0  501    0  0.00000000000E+00 -0.00000000000E+00 -0.18342226106E+03  0.18348246742E+03  0.47000000000E+01 0.  1.
         25    2    1    2    0    0 -0.12277070853E+02  0.23177508341E+02  0.79562044500E+02  0.15046462218E+03  0.12498624021E+03 0.  0.
         25    2    1    2    0    0  0.12277070853E+02 -0.23177508341E+02 -0.12048593516E+03  0.17559370423E+03  0.12501345940E+03 0.  0.
          5    1    4    4  502    0  0.27101348156E+02 -0.65097345288E+02 -0.10818374852E+03  0.12922059000E+03  0.47000000000E+01 0.  1.
         -5    1    4    4    0  502 -0.14824277303E+02  0.41919836947E+02 -0.12302186643E+02  0.46373114230E+02  0.47000000000E+01 0.  1.
          5    1    3    3  503    0  0.83656385875E+01  0.67439858887E+02  0.15654850959E+02  0.69894798334E+02  0.47000000000E+01 0.  1.
         -5    1    3    3    0  503 -0.20642709441E+02 -0.44262350546E+02  0.63907193541E+02  0.80569823850E+02  0.47000000000E+01 0.  1.
<mgrwt>
<rscale>  0 0.12772857E+03</rscale>
<asrwt>0</asrwt>
<pdfrwt beam="2">  1        5 0.28229401E-01 0.12773523E+03</pdfrwt>
<pdfrwt beam="1">  1       -5 0.21933418E-01 0.12773523E+03</pdfrwt>
<totfact> 0.16598063E+02</totfact>
</mgrwt>
</event>
<event>
 8    1  0.3763376E-007  0.1446108E+03  0.7546771E-02  0.1207263E+00
         -5   -1    0    0    0  501 -0.00000000000E+00  0.00000000000E+00  0.96930193005E+02  0.97044074090E+02  0.47000000000E+01 0.  1.
          5   -1    0    0  501    0  0.00000000000E+00 -0.00000000000E+00 -0.21855518396E+03  0.21860571456E+03  0.47000000000E+01 0.  1.
         25    2    1    2    0    0  0.53925258376E+01  0.72464271907E+02 -0.42010728505E+02  0.15058948993E+03  0.12502856926E+03 0.  0.
         25    2    1    2    0    0 -0.53925258376E+01 -0.72464271907E+02 -0.79614262451E+02  0.16506029871E+03  0.12500528544E+03 0.  0.
          5    1    3    3  502    0 -0.25428071990E+02  0.34039229632E+02  0.37549145894E+02  0.56897138385E+02  0.47000000000E+01 0.  1.
         -5    1    3    3    0  502  0.30820597828E+02  0.38425042275E+02 -0.79559874398E+02  0.93692351548E+02  0.47000000000E+01 0.  1.
          5    1    4    4  503    0  0.44151302314E+02 -0.50083451845E+02  0.19111535345E+01  0.66958436007E+02  0.47000000000E+01 0. -1.
         -5    1    4    4    0  503 -0.49543828151E+02 -0.22380820063E+02 -0.81525415986E+02  0.98101862705E+02  0.47000000000E+01 0. -1.
<mgrwt>
<rscale>  0 0.14460580E+03</rscale>
<asrwt>0</asrwt>
<pdfrwt beam="2">  1        5 0.33636521E-01 0.14461083E+03</pdfrwt>
<pdfrwt beam="1">  1       -5 0.14924984E-01 0.14461083E+03</pdfrwt>
<totfact> 0.24957858E+02</totfact>
</mgrwt>
</event>
<event>
 8    1  0.3763376E-007  0.1363745E+03  0.7546771E-02  0.1218295E+00
          5   -1    0    0  501    0  0.00000000000E+00  0.00000000000E+00  0.31331919706E+03  0.31335444667E+03  0.47000000000E+01 0. -1.
         -5   -1    0    0    0  501 -0.00000000000E+00 -0.00000000000E+00 -0.66210960306E+02  0.66377565974E+02  0.47000000000E+01 0. -1.
         25    2    1    2    0    0  0.21402723849E+02 -0.50119925615E+02  0.61967809177E+02  0.14978640726E+03  0.12500349953E+03 0.  0.
         25    2    1    2    0    0 -0.21402723849E+02  0.50119925615E+02  0.18514042758E+03  0.22994560538E+03  0.12501167937E+03 0.  0.
          5    1    4    4  502    0  0.12362493323E+02 -0.38495282756E+02  0.66802193217E+02  0.78226217180E+02  0.47000000000E+01 0.  1.
         -5    1    4    4    0  502 -0.33765217172E+02  0.88615208371E+02  0.11833823436E+03  0.15171938820E+03  0.47000000000E+01 0.  1.
          5    1    3    3  503    0 -0.19886027288E+02  0.14205258208E+02 -0.24057068355E+02  0.34613234173E+02  0.47000000000E+01 0. -1.
         -5    1    3    3    0  503  0.41288751137E+02 -0.64325183823E+02  0.86024877532E+02  0.11517317309E+03  0.47000000000E+01 0. -1.
<mgrwt>
<rscale>  0 0.13637262E+03</rscale>
<asrwt>0</asrwt>
<pdfrwt beam="1">  1        5 0.48218480E-01 0.13637450E+03</pdfrwt>
<pdfrwt beam="2">  1       -5 0.10201829E-01 0.13637450E+03</pdfrwt>
<totfact> 0.23014466E+02</totfact>
</mgrwt>
</event>
<event>
 8    1  0.3763376E-007  0.1727467E+03  0.7546771E-02  0.1175014E+00
         -5   -1    0    0    0  501 -0.00000000000E+00  0.00000000000E+00  0.97406690771E+03  0.97407824670E+03  0.47000000000E+01 0. -1.
          5   -1    0    0  501    0  0.00000000000E+00 -0.00000000000E+00 -0.38683113785E+02  0.38967592845E+02  0.47000000000E+01 0. -1.
         25    2    1    2    0    0 -0.11253304994E+03 -0.39405687623E+02  0.70045624616E+03  0.72144269939E+03  0.12499648060E+03 0.  0.
         25    2    1    2    0    0  0.11253304994E+03  0.39405687623E+02  0.23492754776E+03  0.29160314016E+03  0.12499977243E+03 0.  0.
          5    1    3    3  502    0 -0.16972312905E+02 -0.63920932908E+02  0.39176331796E+03  0.39733428290E+03  0.47000000000E+01 0. -1.
         -5    1    3    3    0  502 -0.95560737036E+02  0.24515245285E+02  0.30869292821E+03  0.32410841649E+03  0.47000000000E+01 0. -1.
          5    1    4    4  503    0  0.94491267947E+02 -0.15117326473E+02  0.75188854289E+02  0.12178910907E+03  0.47000000000E+01 0. -1.
         -5    1    4    4    0  503  0.18041781994E+02  0.54523014096E+02  0.15973869347E+03  0.16981403109E+03  0.47000000000E+01 0. -1.
<mgrwt>
<rscale>  0 0.17274615E+03</rscale>
<asrwt>0</asrwt>
<pdfrwt beam="2">  1        5 0.59740032E-02 0.17274675E+03</pdfrwt>
<pdfrwt beam="1">  1       -5 0.14987921E+00 0.17274675E+03</pdfrwt>
<totfact> 0.42011409E+01</totfact>
</mgrwt>
</event>
<event>
 8    1  0.3763376E-007  0.1309821E+03  0.7546771E-02  0.1226006E+00
          5   -1    0    0  501    0  0.00000000000E+00  0.00000000000E+00  0.96478919119E+02  0.96593332245E+02  0.47000000000E+01 0.  1.
         -5   -1    0    0    0  501 -0.00000000000E+00 -0.00000000000E+00 -0.18126878164E+03  0.18132970302E+03  0.47000000000E+01 0.  1.
         25    2    1    2    0    0  0.27700444646E+02 -0.27635170215E+02 -0.62233271224E+02  0.14501287502E+03  0.12499894643E+03 0.  0.
         25    2    1    2    0    0 -0.27700444646E+02  0.27635170215E+02 -0.22556591295E+02  0.13291016024E+03  0.12500117447E+03 0.  0.
          5    1    3    3  502    0  0.15192338753E+02 -0.71911041975E+02 -0.85309192779E+01  0.74140890866E+02  0.47000000000E+01 0. -1.
         -5    1    3    3    0  502  0.12508105893E+02  0.44275871760E+02 -0.53702351946E+02  0.70871984152E+02  0.47000000000E+01 0. -1.
          5    1    4    4  503    0 -0.68268913533E+02  0.49059853388E+02 -0.20934542922E+02  0.86763234476E+02  0.47000000000E+01 0. -1.
         -5    1    4    4    0  503  0.40568468887E+02 -0.21424683172E+02 -0.16220483727E+01  0.46146925768E+02  0.47000000000E+01 0. -1.
<mgrwt>
<rscale>  0 0.13098157E+03</rscale>
<asrwt>0</asrwt>
<pdfrwt beam="1">  1        5 0.14856398E-01 0.13098210E+03</pdfrwt>
<pdfrwt beam="2">  1       -5 0.27900992E-01 0.13098210E+03</pdfrwt>
<totfact> 0.35141015E+02</totfact>
</mgrwt>
</event>
<event>
 8    1  0.3763376E-007  0.1608882E+03  0.7546771E-02  0.1187698E+00
          5   -1    0    0  501    0  0.00000000000E+00  0.00000000000E+00  0.60352597556E+03  0.60354427607E+03  0.47000000000E+01 0.  1.
         -5   -1    0    0    0  501 -0.00000000000E+00 -0.00000000000E+00 -0.43798626801E+02  0.44050081835E+02  0.47000000000E+01 0.  1.
         25    2    1    2    0    0  0.65217974151E+02  0.77498967154E+02  0.22971445710E+03  0.28045273711E+03  0.12500212755E+03 0.  0.
         25    2    1    2    0    0 -0.65217974151E+02 -0.77498967154E+02  0.33001289166E+03  0.36714162079E+03  0.12499994797E+03 0.  0.
          5    1    3    3  502    0 -0.36661200943E+02  0.13585089156E+02  0.42998508291E+02  0.58305746005E+02  0.47000000000E+01 0. -1.
         -5    1    3    3    0  502  0.10187917509E+03  0.63913877998E+02  0.18671594880E+03  0.22214699110E+03  0.47000000000E+01 0. -1.
          5    1    4    4  503    0 -0.89770328090E+02 -0.33476980616E+02  0.28001388572E+03  0.29598865896E+03  0.47000000000E+01 0.  1.
         -5    1    4    4    0  503  0.24552353939E+02 -0.44021986538E+02  0.49999005947E+02  0.71152961838E+02  0.47000000000E+01 0.  1.
<mgrwt>
<rscale>  0 0.16088776E+03</rscale>
<asrwt>0</asrwt>
<pdfrwt beam="1">  1        5 0.92870900E-01 0.16088818E+03</pdfrwt>
<pdfrwt beam="2">  1       -5 0.67590007E-02 0.16088818E+03</pdfrwt>
<totfact> 0.11353673E+02</totfact>
</mgrwt>
</event>
<event>
 8    1  0.3763376E-007  0.1304584E+03  0.7546771E-02  0.1226780E+00
         -5   -1    0    0    0  501 -0.00000000000E+00  0.00000000000E+00  0.18399947190E+03  0.18405948946E+03  0.47000000000E+01 0. -1.
          5   -1    0    0  501    0  0.00000000000E+00 -0.00000000000E+00 -0.92639189283E+02  0.92758338660E+02  0.47000000000E+01 0. -1.
         25    2    1    2    0    0  0.25973896529E+02  0.26843377223E+02  0.53322872722E+02  0.14093520835E+03  0.12499677595E+03 0.  0.
         25    2    1    2    0    0 -0.25973896529E+02 -0.26843377223E+02  0.38037409898E+02  0.13588261977E+03  0.12498812584E+03 0.  0.
          5    1    3    3  502    0  0.39947285678E+02  0.72241456713E+02  0.32075403049E+02  0.88687852505E+02  0.47000000000E+01 0.  1.
         -5    1    3    3    0  502 -0.13973389149E+02 -0.45398079491E+02  0.21247469673E+02  0.52247355849E+02  0.47000000000E+01 0.  1.
          5    1    4    4  503    0  0.72685176945E+01 -0.46116714501E+02 -0.31346850331E+02  0.56429582060E+02  0.47000000000E+01 0.  1.
         -5    1    4    4    0  503 -0.33242414224E+02  0.19273337278E+02  0.69384260230E+02  0.79453037707E+02  0.47000000000E+01 0.  1.
<mgrwt>
<rscale>  0 0.13045637E+03</rscale>
<asrwt>0</asrwt>
<pdfrwt beam="2">  1        5 0.14265965E-01 0.13045844E+03</pdfrwt>
<pdfrwt beam="1">  1       -5 0.28321393E-01 0.13045844E+03</pdfrwt>
<totfact> 0.36670180E+02</totfact>
</mgrwt>
</event>
<event>
 8    1  0.3763376E-007  0.1290085E+03  0.7546771E-02  0.1228937E+00
         -5   -1    0    0    0  501 -0.00000000000E+00  0.00000000000E+00  0.12822580052E+02  0.13656813655E+02  0.47000000000E+01 0.  1.
          5   -1    0    0  501    0  0.00000000000E+00 -0.00000000000E+00 -0.12706180025E+04  0.12706266951E+04  0.47000000000E+01 0.  1.
         25    2    1    2    0    0 -0.29321291845E+02  0.12547286780E+02 -0.56046046819E+03  0.57511662723E+03  0.12500410373E+03 0.  0.
         25    2    1    2    0    0  0.29321291845E+02 -0.12547286780E+02 -0.69733495424E+03  0.70916688150E+03  0.12499781939E+03 0.  0.
          5    1    3    3  502    0 -0.35421956037E+02 -0.43568150351E+02 -0.14088488223E+03  0.15173509395E+03  0.47000000000E+01 0. -1.
         -5    1    3    3    0  502  0.61006641919E+01  0.56115437131E+02 -0.41957558596E+03  0.42338153328E+03  0.47000000000E+01 0. -1.
          5    1    4    4  503    0 -0.18367346027E+02  0.48100417835E+02 -0.28282356023E+03  0.28751046210E+03  0.47000000000E+01 0. -1.
         -5    1    4    4    0  503  0.47688637872E+02 -0.60647704615E+02 -0.41451139401E+03  0.42165641940E+03  0.47000000000E+01 0. -1.
<mgrwt>
<rscale>  0 0.12900700E+03</rscale>
<asrwt>0</asrwt>
<pdfrwt beam="2">  1        5 0.19554444E+00 0.12900852E+03</pdfrwt>
<pdfrwt beam="1">  1       -5 0.20375461E-02 0.12900852E+03</pdfrwt>
<totfact> 0.10353534E+02</totfact>
</mgrwt>
</event>
<event>
 8    1  0.3763376E-007  0.1378047E+03  0.7546771E-02  0.1216316E+00
          5   -1    0    0  501    0  0.00000000000E+00  0.00000000000E+00  0.12690014079E+03  0.12698714791E+03  0.47000000000E+01 0.  1.
         -5   -1    0    0    0  501 -0.00000000000E+00 -0.00000000000E+00 -0.15754491979E+03  0.15761501119E+03  0.47000000000E+01 0.  1.
         25    2    1    2    0    0 -0.25920155327E+01 -0.57949885475E+02 -0.47531673523E+02  0.14576664153E+03  0.12499498399E+03 0.  0.
         25    2    1    2    0    0  0.25920155327E+01  0.57949885475E+02  0.16886894527E+02  0.13883551757E+03  0.12500090384E+03 0.  0.
          5    1    3    3  502    0  0.30415933920E+02 -0.75084315163E+02 -0.65417671873E+02  0.10423216976E+03  0.47000000000E+01 0. -1.
         -5    1    3    3    0  502 -0.33007949452E+02  0.17134429688E+02  0.17885998351E+02  0.41534471765E+02  0.47000000000E+01 0. -1.
          5    1    4    4  503    0  0.62562291829E+02  0.41568115535E+02  0.12955659608E+02  0.76366797131E+02  0.47000000000E+01 0. -1.
         -5    1    4    4    0  503 -0.59970276297E+02  0.16381769939E+02  0.39312349185E+01  0.62468720440E+02  0.47000000000E+01 0. -1.
<mgrwt>
<rscale>  0 0.13780335E+03</rscale>
<asrwt>0</asrwt>
<pdfrwt beam="1">  1        5 0.19535183E-01 0.13780469E+03</pdfrwt>
<pdfrwt beam="2">  1       -5 0.24249764E-01 0.13780469E+03</pdfrwt>
<totfact> 0.28364804E+02</totfact>
</mgrwt>
</event>
<event>
 8    1  0.3763376E-007  0.1784877E+03  0.7546771E-02  0.1169276E+00
          5   -1    0    0  501    0  0.00000000000E+00  0.00000000000E+00  0.21962571349E+02  0.22459842837E+02  0.47000000000E+01 0. -1.
         -5   -1    0    0    0  501 -0.00000000000E+00 -0.00000000000E+00 -0.15410477224E+04  0.15410548896E+04  0.47000000000E+01 0. -1.
         25    2    1    2    0    0 -0.81059821165E+02 -0.98295004817E+02 -0.96576667232E+03  0.98212174128E+03  0.12500098704E+03 0.  0.
         25    2    1    2    0    0  0.81059821165E+02  0.98295004817E+02 -0.55331847875E+03  0.58139299116E+03  0.12499547456E+03 0.  0.
          5    1    4    4  502    0  0.48053123573E+02  0.12491960256E+03 -0.38033843955E+03  0.40322875441E+03  0.47000000000E+01 0.  1.
         -5    1    4    4    0  502  0.33006697591E+02 -0.26624597746E+02 -0.17298003921E+03  0.17816423674E+03  0.47000000000E+01 0.  1.
          5    1    3    3  503    0 -0.11002339681E+03 -0.84618315263E+02 -0.87040173779E+03  0.88141175523E+03  0.47000000000E+01 0.  1.
         -5    1    3    3    0  503  0.28963575649E+02 -0.13676689554E+02 -0.95364934532E+02  0.10070998605E+03  0.47000000000E+01 0.  1.
<mgrwt>
<rscale>  0 0.17848671E+03</rscale>
<asrwt>0</asrwt>
<pdfrwt beam="1">  1        5 0.34176613E-02 0.17848767E+03</pdfrwt>
<pdfrwt beam="2">  1       -5 0.23712298E+00 0.17848767E+03</pdfrwt>
<totfact> 0.26156214E+01</totfact>
</mgrwt>
</event>
<event>
 8    1  0.3763376E-007  0.1300666E+03  0.7546771E-02  0.1227358E+00
          5   -1    0    0  501    0  0.00000000000E+00  0.00000000000E+00  0.23175334289E+03  0.23180099641E+03  0.47000000000E+01 0. -1.
         -5   -1    0    0    0  501 -0.00000000000E+00 -0.00000000000E+00 -0.75136580820E+02  0.75283436274E+02  0.47000000000E+01 0. -1.
         25    2    1    2    0    0 -0.34844456034E+02 -0.86792691905E+01  0.51639673531E+02  0.13993923504E+03  0.12500747094E+03 0.  0.
         25    2    1    2    0    0  0.34844456034E+02  0.86792691905E+01  0.10497708853E+03  0.16714519765E+03  0.12501144807E+03 0.  0.
          5    1    3    3  502    0 -0.11166500889E+02 -0.50509560896E+02  0.70945400382E+02  0.87927506046E+02  0.47000000000E+01 0.  1.
         -5    1    3    3    0  502 -0.23677955145E+02  0.41830291706E+02 -0.19305726851E+02  0.52011728997E+02  0.47000000000E+01 0.  1.
          5    1    4    4  503    0 -0.37236804906E+01  0.53808760205E+02  0.10021975743E+02  0.55061587963E+02  0.47000000000E+01 0.  1.
         -5    1    4    4    0  503  0.38568136525E+02 -0.45129491015E+02  0.94955112792E+02  0.11208360968E+03  0.47000000000E+01 0.  1.
<mgrwt>
<rscale>  0 0.13006567E+03</rscale>
<asrwt>0</asrwt>
<pdfrwt beam="1">  1        5 0.35669322E-01 0.13006663E+03</pdfrwt>
<pdfrwt beam="2">  1       -5 0.11574436E-01 0.13006663E+03</pdfrwt>
<totfact> 0.33703587E+02</totfact>
</mgrwt>
</event>
<event>
 8    1  0.3763376E-007  0.1488238E+03  0.7546771E-02  0.1201932E+00
         -5   -1    0    0    0  501 -0.00000000000E+00  0.00000000000E+00  0.87695156979E+02  0.87821014328E+02  0.47000000000E+01 0.  1.
          5   -1    0    0  501    0  0.00000000000E+00 -0.00000000000E+00 -0.26969258942E+03  0.26973354035E+03  0.47000000000E+01 0.  1.
         25    2    1    2    0    0  0.38902223240E+02 -0.70770522974E+02 -0.45474006257E+02  0.15559618734E+03  0.12498175216E+03 0.  0.
         25    2    1    2    0    0 -0.38902223240E+02  0.70770522974E+02 -0.13652342618E+03  0.20195836734E+03  0.12500674520E+03 0.  0.
          5    1    4    4  502    0  0.42189367717E+02  0.45146352558E+02 -0.72686937580E+02  0.95517625559E+02  0.47000000000E+01 0.  1.
         -5    1    4    4    0  502 -0.81091590956E+02  0.25624170415E+02 -0.63836488602E+02  0.10644074178E+03  0.47000000000E+01 0.  1.
          5    1    3    3  503    0  0.75109994715E+02 -0.23961362769E+02  0.28779334923E+01  0.79031833543E+02  0.47000000000E+01 0.  1.
         -5    1    3    3    0  503 -0.36207771476E+02 -0.46809160205E+02 -0.48351939749E+02  0.76564353794E+02  0.47000000000E+01 0.  1.
<mgrwt>
<rscale>  0 0.14881859E+03</rscale>
<asrwt>0</asrwt>
<pdfrwt beam="2">  1        5 0.41503999E-01 0.14882384E+03</pdfrwt>
<pdfrwt beam="1">  1       -5 0.13504394E-01 0.14882384E+03</pdfrwt>
<totfact> 0.19709031E+02</totfact>
</mgrwt>
</event>
<event>
 8    1  0.3763376E-007  0.1346593E+03  0.7546771E-02  0.1220719E+00
          5   -1    0    0  501    0  0.00000000000E+00  0.00000000000E+00  0.43692068410E+02  0.43944133192E+02  0.47000000000E+01 0. -1.
         -5   -1    0    0    0  501 -0.00000000000E+00 -0.00000000000E+00 -0.55138159630E+03  0.55140162743E+03  0.47000000000E+01 0. -1.
         25    2    1    2    0    0 -0.46404869673E+02 -0.18492603064E+02 -0.40267849864E+03  0.42458148411E+03  0.12499630030E+03 0.  0.
         25    2    1    2    0    0  0.46404869673E+02  0.18492603064E+02 -0.10501102925E+03  0.17076427651E+03  0.12505092391E+03 0.  0.
          5    1    4    4  502    0  0.26463995241E+01  0.24252513918E+01 -0.12108716670E+03  0.12123150256E+03  0.47000000000E+01 0. -1.
         -5    1    4    4    0  502  0.43758470149E+02  0.16067351672E+02  0.16076137451E+02  0.49532773947E+02  0.47000000000E+01 0. -1.
          5    1    3    3  503    0  0.78080625356E+01  0.60236377413E+01  0.53828532962E+01  0.12178471243E+02  0.47000000000E+01 0. -1.
         -5    1    3    3    0  503 -0.54212932209E+02 -0.24516240806E+02 -0.40806135194E+03  0.41240301287E+03  0.47000000000E+01 0. -1.
<mgrwt>
<rscale>  0 0.13464660E+03</rscale>
<asrwt>0</asrwt>
<pdfrwt beam="1">  1        5 0.67427875E-02 0.13465928E+03</pdfrwt>
<pdfrwt beam="2">  1       -5 0.84848864E-01 0.13465928E+03</pdfrwt>
<totfact> 0.13344373E+02</totfact>
</mgrwt>
</event>
<event>
 8    1  0.3763376E-007  0.1612324E+03  0.7546771E-02  0.1187312E+00
         -5   -1    0    0    0  501 -0.00000000000E+00  0.00000000000E+00  0.20533298807E+03  0.20538677170E+03  0.47000000000E+01 0.  1.
          5   -1    0    0  501    0  0.00000000000E+00 -0.00000000000E+00 -0.13346302441E+03  0.13354575577E+03  0.47000000000E+01 0.  1.
         25    2    1    2    0    0 -0.56436862132E+02  0.84771575598E+02  0.74652587714E+02  0.17767612883E+03  0.12499783385E+03 0.  0.
         25    2    1    2    0    0  0.56436862132E+02 -0.84771575598E+02 -0.27826240542E+01  0.16125639864E+03  0.12499817467E+03 0.  0.
          5    1    3    3  502    0 -0.51245527029E+02 -0.57166979056E+01 -0.10943401894E+02  0.52921004530E+02  0.47000000000E+01 0.  1.
         -5    1    3    3    0  502 -0.51913351032E+01  0.90488273503E+02  0.85595989608E+02  0.12475512430E+03  0.47000000000E+01 0.  1.
          5    1    4    4  503    0  0.16429280284E+02 -0.22043309915E+02 -0.60734149826E+02  0.66832295470E+02  0.47000000000E+01 0.  1.
         -5    1    4    4    0  503  0.40007581848E+02 -0.62728265683E+02  0.57951525772E+02  0.94424103174E+02  0.47000000000E+01 0.  1.
<mgrwt>
<rscale>  0 0.16123232E+03</rscale>
<asrwt>0</asrwt>
<pdfrwt beam="2">  1        5 0.20543274E-01 0.16123239E+03</pdfrwt>
<pdfrwt beam="1">  1       -5 0.31600191E-01 0.16123239E+03</pdfrwt>
<totfact> 0.16251028E+02</totfact>
</mgrwt>
</event>
<event>
 8    1  0.3763376E-007  0.1317763E+03  0.7546771E-02  0.1224845E+00
         -5   -1    0    0    0  501 -0.00000000000E+00  0.00000000000E+00  0.14104814270E+03  0.14112642757E+03  0.47000000000E+01 0.  1.
          5   -1    0    0  501    0  0.00000000000E+00 -0.00000000000E+00 -0.12824897694E+03  0.12833506959E+03  0.47000000000E+01 0.  1.
         25    2    1    2    0    0  0.36710901619E+02  0.19802397180E+02  0.33763406037E+02  0.13603298762E+03  0.12500072360E+03 0.  0.
         25    2    1    2    0    0 -0.36710901619E+02 -0.19802397180E+02 -0.20964240277E+02  0.13342850954E+03  0.12499537014E+03 0.  0.
          5    1    4    4  502    0  0.10874849828E+02 -0.64023913794E+02 -0.20616017528E+02  0.68296662253E+02  0.47000000000E+01 0.  1.
         -5    1    4    4    0  502 -0.47585751447E+02  0.44221516613E+02 -0.34822274893E+00  0.65131847290E+02  0.47000000000E+01 0.  1.
          5    1    3    3  503    0  0.23883444123E+02 -0.52380722239E+02  0.21050513876E+02  0.61476606119E+02  0.47000000000E+01 0. -1.
         -5    1    3    3    0  503  0.12827457496E+02  0.72183119420E+02  0.12712892161E+02  0.74556381498E+02  0.47000000000E+01 0. -1.
<mgrwt>
<rscale>  0 0.13177508E+03</rscale>
<asrwt>0</asrwt>
<pdfrwt beam="2">  1        5 0.19743256E-01 0.13177635E+03</pdfrwt>
<pdfrwt beam="1">  1       -5 0.21712359E-01 0.13177635E+03</pdfrwt>
<totfact> 0.33764410E+02</totfact>
</mgrwt>
</event>
<event>
 8    1  0.3763376E-007  0.1631162E+03  0.7546771E-02  0.1185223E+00
         -5   -1    0    0    0  501 -0.00000000000E+00  0.00000000000E+00  0.38394866596E+03  0.38397743175E+03  0.47000000000E+01 0.  1.
          5   -1    0    0  501    0  0.00000000000E+00 -0.00000000000E+00 -0.69277012320E+02  0.69436261679E+02  0.47000000000E+01 0.  1.
         25    2    1    2    0    0 -0.10292402950E+03  0.19712163603E+02  0.16550142783E+03  0.23237388244E+03  0.12499989353E+03 0.  0.
         25    2    1    2    0    0  0.10292402950E+03 -0.19712163603E+02  0.14917022581E+03  0.22103981099E+03  0.12499966613E+03 0.  0.
          5    1    3    3  502    0 -0.19233498682E+02 -0.47537675676E+02  0.79555677091E+02  0.94767894551E+02  0.47000000000E+01 0. -1.
         -5    1    3    3    0  502 -0.83690530821E+02  0.67249839279E+02  0.85945750741E+02  0.13760598789E+03  0.47000000000E+01 0. -1.
          5    1    4    4  503    0  0.12267218954E+03  0.11990920670E+02  0.12838898048E+03  0.17803951408E+03  0.47000000000E+01 0.  1.
         -5    1    4    4    0  503 -0.19748160035E+02 -0.31703084273E+02  0.20781245326E+02  0.43000296911E+02  0.47000000000E+01 0.  1.
<mgrwt>
<rscale>  0 0.16311617E+03</rscale>
<asrwt>0</asrwt>
<pdfrwt beam="2">  1        5 0.10672465E-01 0.16311621E+03</pdfrwt>
<pdfrwt beam="1">  1       -5 0.59083486E-01 0.16311621E+03</pdfrwt>
<totfact> 0.14571318E+02</totfact>
</mgrwt>
</event>
<event>
 8    1  0.3763376E-007  0.1285430E+03  0.7546771E-02  0.1229637E+00
         -5   -1    0    0    0  501 -0.00000000000E+00  0.00000000000E+00  0.20117380212E+02  0.20659113887E+02  0.47000000000E+01 0. -1.
          5   -1    0    0  501    0  0.00000000000E+00 -0.00000000000E+00 -0.85102618045E+03  0.85103915880E+03  0.47000000000E+01 0. -1.
         25    2    1    2    0    0 -0.20645926226E+00  0.29983433154E+02 -0.31958218137E+03  0.34446188058E+03  0.12498867003E+03 0.  0.
         25    2    1    2    0    0  0.20645926226E+00 -0.29983433154E+02 -0.51132661887E+03  0.52723639210E+03  0.12499701240E+03 0.  0.
          5    1    4    4  502    0 -0.44512974756E+02  0.18383067979E+02 -0.34337379834E+03  0.34676648843E+03  0.47000000000E+01 0. -1.
         -5    1    4    4    0  502  0.44719434018E+02 -0.48366501134E+02 -0.16795282053E+03  0.18046990368E+03  0.47000000000E+01 0. -1.
          5    1    3    3  503    0  0.38018979947E+02  0.60400960277E+02 -0.24463221574E+03  0.25487394888E+03  0.47000000000E+01 0. -1.
         -5    1    3    3    0  503 -0.38225439209E+02 -0.30417527123E+02 -0.74949965635E+02  0.89587931708E+02  0.47000000000E+01 0. -1.
<mgrwt>
<rscale>  0 0.12854097E+03</rscale>
<asrwt>0</asrwt>
<pdfrwt beam="2">  1        5 0.13096975E+00 0.12854300E+03</pdfrwt>
<pdfrwt beam="1">  1       -5 0.31376524E-02 0.12854300E+03</pdfrwt>
<totfact> 0.15957409E+02</totfact>
</mgrwt>
</event>
<event>
 8    1  0.3763376E-007  0.1384304E+03  0.7546771E-02  0.1215459E+00
         -5   -1    0    0    0  501 -0.00000000000E+00  0.00000000000E+00  0.18716223368E+03  0.18722123735E+03  0.47000000000E+01 0. -1.
          5   -1    0    0  501    0  0.00000000000E+00 -0.00000000000E+00 -0.13638716473E+03  0.13646812340E+03  0.47000000000E+01 0. -1.
         25    2    1    2    0    0 -0.40774128807E+02  0.43289048650E+02  0.10630785988E+03  0.17453556024E+03  0.12499931761E+03 0.  0.
         25    2    1    2    0    0  0.40774128807E+02 -0.43289048650E+02 -0.55532790931E+02  0.14915380052E+03  0.12500597596E+03 0.  0.
          5    1    3    3  502    0 -0.52789612238E+02  0.60288672706E+02  0.16142260425E+02  0.81878750531E+02  0.47000000000E+01 0. -1.
         -5    1    3    3    0  502  0.12015483430E+02 -0.16999624056E+02  0.90165599451E+02  0.92656809704E+02  0.47000000000E+01 0. -1.
          5    1    4    4  503    0  0.45763726526E+02 -0.65587593825E+02 -0.81475707935E+02  0.11426474571E+03  0.47000000000E+01 0.  1.
         -5    1    4    4    0  503 -0.49895977186E+01  0.22298545175E+02  0.25942917004E+02  0.34889054803E+02  0.47000000000E+01 0.  1.
<mgrwt>
<rscale>  0 0.13842886E+03</rscale>
<asrwt>0</asrwt>
<pdfrwt beam="2">  1        5 0.20993407E-01 0.13843036E+03</pdfrwt>
<pdfrwt beam="1">  1       -5 0.28804956E-01 0.13843036E+03</pdfrwt>
<totfact> 0.17812384E+02</totfact>
</mgrwt>
</event>
<event>
 8    1  0.3763376E-007  0.1592717E+03  0.7546771E-02  0.1189522E+00
          5   -1    0    0  501    0  0.00000000000E+00  0.00000000000E+00  0.22112597801E+03  0.22117592127E+03  0.47000000000E+01 0.  1.
         -5   -1    0    0    0  501 -0.00000000000E+00 -0.00000000000E+00 -0.17694362100E+03  0.17700603101E+03  0.47000000000E+01 0.  1.
         25    2    1    2    0    0 -0.91702994149E+02  0.36521931453E+02 -0.96034486960E+02  0.18598417148E+03  0.12499679493E+03 0.  0.
         25    2    1    2    0    0  0.91702994149E+02 -0.36521931453E+02  0.14021684396E+03  0.21219778080E+03  0.12499537685E+03 0.  0.
          5    1    4    4  502    0  0.49119565928E+00  0.16398606840E+02 -0.16177011636E+02  0.23514703590E+02  0.47000000000E+01 0. -1.
         -5    1    4    4    0  502  0.91211798489E+02 -0.52920538293E+02  0.15639385560E+03  0.18868307721E+03  0.47000000000E+01 0. -1.
          5    1    3    3  503    0 -0.12247311955E+03  0.34108257259E+02 -0.69240796137E+02  0.14484272877E+03  0.47000000000E+01 0. -1.
         -5    1    3    3    0  503  0.30770125406E+02  0.24136741949E+01 -0.26793690823E+02  0.41141442713E+02  0.47000000000E+01 0. -1.
<mgrwt>
<rscale>  0 0.15927147E+03</rscale>
<asrwt>0</asrwt>
<pdfrwt beam="1">  1        5 0.34028024E-01 0.15927175E+03</pdfrwt>
<pdfrwt beam="2">  1       -5 0.27230738E-01 0.15927175E+03</pdfrwt>
<totfact> 0.81584315E+01</totfact>
</mgrwt>
</event>
<event>
 8    1  0.3763376E-007  0.1362878E+03  0.7546771E-02  0.1218415E+00
          5   -1    0    0  501    0  0.00000000000E+00  0.00000000000E+00  0.54879337071E+02  0.55080229097E+02  0.47000000000E+01 0. -1.
         -5   -1    0    0    0  501 -0.00000000000E+00 -0.00000000000E+00 -0.39387400247E+03  0.39390204343E+03  0.47000000000E+01 0. -1.
         25    2    1    2    0    0  0.37372143295E+01 -0.54167156419E+02 -0.25432474525E+03  0.28854018368E+03  0.12500525568E+03 0.  0.
         25    2    1    2    0    0 -0.37372143295E+01  0.54167156419E+02 -0.84669920146E+02  0.16044208885E+03  0.12499848355E+03 0.  0.
          5    1    4    4  502    0  0.57536141314E+02  0.43766173534E+02 -0.33561264944E+02  0.79839426399E+02  0.47000000000E+01 0.  1.
         -5    1    4    4    0  502 -0.61273355644E+02  0.10400982884E+02 -0.51108655202E+02  0.80602662446E+02  0.47000000000E+01 0.  1.
          5    1    3    3  503    0 -0.45781539622E+02 -0.53106978196E+02 -0.76462272889E+02  0.10385022715E+03  0.47000000000E+01 0.  1.
         -5    1    3    3    0  503  0.49518753951E+02 -0.10601782227E+01 -0.17786247236E+03  0.18468995654E+03  0.47000000000E+01 0.  1.
<mgrwt>
<rscale>  0 0.13628624E+03</rscale>
<asrwt>0</asrwt>
<pdfrwt beam="1">  1        5 0.84605854E-02 0.13628779E+03</pdfrwt>
<pdfrwt beam="2">  1       -5 0.60613609E-01 0.13628779E+03</pdfrwt>
<totfact> 0.19474170E+02</totfact>
</mgrwt>
</event>
<event>
 8    1  0.3763376E-007  0.1283307E+03  0.7546771E-02  0.1229955E+00
          5   -1    0    0  501    0  0.00000000000E+00  0.00000000000E+00  0.57522055100E+02  0.57713748994E+02  0.47000000000E+01 0.  1.
         -5   -1    0    0    0  501 -0.00000000000E+00 -0.00000000000E+00 -0.49882436956E+03  0.49884651114E+03  0.47000000000E+01 0.  1.
         25    2    1    2    0    0  0.26454629852E+02 -0.11985775282E+02 -0.40254728268E+03  0.42250809615E+03  0.12500108108E+03 0.  0.
         25    2    1    2    0    0 -0.26454629852E+02  0.11985775282E+02 -0.38755031786E+02  0.13405216398E+03  0.12499809570E+03 0.  0.
          5    1    4    4  502    0 -0.22611549791E+02 -0.53720179534E+02 -0.34581194765E+02  0.67934445641E+02  0.47000000000E+01 0. -1.
         -5    1    4    4    0  502 -0.38430800613E+01  0.65705954816E+02 -0.41738370212E+01  0.66117718337E+02  0.47000000000E+01 0. -1.
          5    1    3    3  503    0 -0.25521502903E+02  0.25634614761E+02 -0.39347213015E+02  0.53654205394E+02  0.47000000000E+01 0. -1.
         -5    1    3    3    0  503  0.51976132755E+02 -0.37620390044E+02 -0.36320006966E+03  0.36885389076E+03  0.47000000000E+01 0. -1.
<mgrwt>
<rscale>  0 0.12833000E+03</rscale>
<asrwt>0</asrwt>
<pdfrwt beam="1">  1        5 0.88659962E-02 0.12833073E+03</pdfrwt>
<pdfrwt beam="2">  1       -5 0.76758657E-01 0.12833073E+03</pdfrwt>
<totfact> 0.10371082E+02</totfact>
</mgrwt>
</event>
<event>
 8    1  0.3763376E-007  0.1355988E+03  0.7546771E-02  0.1219381E+00
          5   -1    0    0  501    0  0.00000000000E+00  0.00000000000E+00  0.50737774783E+03  0.50739951616E+03  0.47000000000E+01 0.  1.
         -5   -1    0    0    0  501 -0.00000000000E+00 -0.00000000000E+00 -0.49383030779E+02  0.49606186398E+02  0.47000000000E+01 0.  1.
         25    2    1    2    0    0  0.42103155030E+02  0.31396162312E+02  0.84753479039E+02  0.15989606823E+03  0.12500082302E+03 0.  0.
         25    2    1    2    0    0 -0.42103155030E+02 -0.31396162312E+02  0.37324123802E+03  0.39710963433E+03  0.12501458014E+03 0.  0.
          5    1    3    3  502    0  0.35313831363E+02  0.62029767613E+02  0.23221691061E+01  0.71569834602E+02  0.47000000000E+01 0.  1.
         -5    1    3    3    0  502  0.67893236676E+01 -0.30633605301E+02  0.82431309933E+02  0.88326233628E+02  0.47000000000E+01 0.  1.
          5    1    4    4  503    0 -0.22165503587E+02 -0.76554462829E+02  0.28409836266E+03  0.29510314297E+03  0.47000000000E+01 0. -1.
         -5    1    4    4    0  503 -0.19937651443E+02  0.45158300517E+02  0.89142875359E+02  0.10200649135E+03  0.47000000000E+01 0. -1.
<mgrwt>
<rscale>  0 0.13559565E+03</rscale>
<asrwt>0</asrwt>
<pdfrwt beam="1">  1        5 0.78076952E-01 0.13559882E+03</pdfrwt>
<pdfrwt beam="2">  1       -5 0.76162300E-02 0.13559882E+03</pdfrwt>
<totfact> 0.13187326E+02</totfact>
</mgrwt>
</event>
<event>
 8    1  0.3763376E-007  0.2049318E+03  0.7546771E-02  0.1145644E+00
         -5   -1    0    0    0  501 -0.00000000000E+00  0.00000000000E+00  0.49413800707E+03  0.49416035862E+03  0.47000000000E+01 0.  1.
          5   -1    0    0  501    0  0.00000000000E+00 -0.00000000000E+00 -0.86320851070E+02  0.86448709241E+02  0.47000000000E+01 0.  1.
         25    2    1    2    0    0 -0.15360465498E+03  0.52706303198E+02  0.24110926409E+03  0.31643382338E+03  0.12499737165E+03 0.  0.
         25    2    1    2    0    0  0.15360465498E+03 -0.52706303198E+02  0.16670789190E+03  0.26417524448E+03  0.12499877657E+03 0.  0.
          5    1    4    4  502    0  0.15103483334E+03 -0.32824295025E+01  0.14656350464E+03  0.21053561722E+03  0.47000000000E+01 0. -1.
         -5    1    4    4    0  502  0.25698216339E+01 -0.49423873695E+02  0.20144387269E+02  0.53639627261E+02  0.47000000000E+01 0. -1.
          5    1    3    3  503    0 -0.16856466115E+02  0.55730049559E+02  0.12091695885E+03  0.13428693090E+03  0.47000000000E+01 0.  1.
         -5    1    3    3    0  503 -0.13674818886E+03 -0.30237463609E+01  0.12019230524E+03  0.18214689247E+03  0.47000000000E+01 0.  1.
<mgrwt>
<rscale>  0 0.20493158E+03</rscale>
<asrwt>0</asrwt>
<pdfrwt beam="2">  1        5 0.13291686E-01 0.20493179E+03</pdfrwt>
<pdfrwt beam="1">  1       -5 0.76032786E-01 0.20493179E+03</pdfrwt>
<totfact> 0.59666315E+01</totfact>
</mgrwt>
</event>
<event>
 8    1  0.3763376E-007  0.1336777E+03  0.7546771E-02  0.1222103E+00
         -5   -1    0    0    0  501 -0.00000000000E+00  0.00000000000E+00  0.27161466771E+03  0.27165532889E+03  0.47000000000E+01 0.  1.
          5   -1    0    0  501    0  0.00000000000E+00 -0.00000000000E+00 -0.74757629989E+02  0.74905228400E+02  0.47000000000E+01 0.  1.
         25    2    1    2    0    0 -0.44905907109E+02 -0.15065539476E+02  0.15881703194E+03  0.20758749481E+03  0.12500482949E+03 0.  0.
         25    2    1    2    0    0  0.44905907109E+02  0.15065539476E+02  0.38040005782E+02  0.13897306248E+03  0.12499183606E+03 0.  0.
          5    1    3    3  502    0 -0.20937263129E+02 -0.68330862614E+02  0.11028866724E+03  0.13150344442E+03  0.47000000000E+01 0. -1.
         -5    1    3    3    0  502 -0.23968643980E+02  0.53265323138E+02  0.48528364693E+02  0.76084050385E+02  0.47000000000E+01 0. -1.
          5    1    4    4  503    0  0.70198389109E+02  0.52251171569E+02  0.32273704840E+02  0.93389939436E+02  0.47000000000E+01 0. -1.
         -5    1    4    4    0  503 -0.25292482000E+02 -0.37185632093E+02  0.57663009425E+01  0.45583123044E+02  0.47000000000E+01 0. -1.
<mgrwt>
<rscale>  0 0.13367463E+03</rscale>
<asrwt>0</asrwt>
<pdfrwt beam="2">  1        5 0.11515655E-01 0.13367767E+03</pdfrwt>
<pdfrwt beam="1">  1       -5 0.41801354E-01 0.13367767E+03</pdfrwt>
<totfact> 0.24876429E+02</totfact>
</mgrwt>
</event>
<event>
 8    1  0.3763376E-007  0.1266450E+03  0.7546771E-02  0.1232531E+00
         -5   -1    0    0    0  501 -0.00000000000E+00  0.00000000000E+00  0.28388942052E+02  0.28775371950E+02  0.47000000000E+01 0. -1.
          5   -1    0    0  501    0  0.00000000000E+00 -0.00000000000E+00 -0.70928023149E+03  0.70929580344E+03  0.47000000000E+01 0. -1.
         25    2    1    2    0    0  0.83851507572E+01 -0.18534740202E+02 -0.17158325559E+03  0.21325988243E+03  0.12500046604E+03 0.  0.
         25    2    1    2    0    0 -0.83851507572E+01  0.18534740202E+02 -0.50930803384E+03  0.52481129296E+03  0.12497348730E+03 0.  0.
          5    1    3    3  502    0 -0.34544553724E+01  0.19165481738E+01  0.19612962613E+02  0.20551513844E+02  0.47000000000E+01 0.  1.
         -5    1    3    3    0  502  0.11839606130E+02 -0.20451288376E+02 -0.19119621820E+03  0.19270836859E+03  0.47000000000E+01 0.  1.
          5    1    4    4  503    0  0.42188304890E+02 -0.26091102267E+02 -0.31860639910E+03  0.32247903224E+03  0.47000000000E+01 0. -1.
         -5    1    4    4    0  503 -0.50573455648E+02  0.44625842470E+02 -0.19070163475E+03  0.20233226072E+03  0.47000000000E+01 0. -1.
<mgrwt>
<rscale>  0 0.12663837E+03</rscale>
<asrwt>0</asrwt>
<pdfrwt beam="2">  1        5 0.10915095E+00 0.12664503E+03</pdfrwt>
<pdfrwt beam="1">  1       -5 0.43984533E-02 0.12664503E+03</pdfrwt>
<totfact> 0.14533363E+02</totfact>
</mgrwt>
</event>
<event>
 8    1  0.3763376E-007  0.1956630E+03  0.7546771E-02  0.1153451E+00
          5   -1    0    0  501    0  0.00000000000E+00  0.00000000000E+00  0.21925235085E+03  0.21930272080E+03  0.47000000000E+01 0.  1.
         -5   -1    0    0    0  501 -0.00000000000E+00 -0.00000000000E+00 -0.17648302562E+03  0.17654559845E+03  0.47000000000E+01 0.  1.
         25    2    1    2    0    0 -0.14619397623E+03  0.35873481168E+02  0.45850415144E+00  0.19566355317E+03  0.12499772188E+03 0.  0.
         25    2    1    2    0    0  0.14619397623E+03 -0.35873481168E+02  0.42310821079E+02  0.20018476608E+03  0.12499659855E+03 0.  0.
          5    1    4    4  502    0  0.15807294411E+03 -0.45042217404E+02  0.10581051690E+02  0.16477228427E+03  0.47000000000E+01 0. -1.
         -5    1    4    4    0  502 -0.11878967879E+02  0.91687362360E+01  0.31729769389E+02  0.35412481803E+02  0.47000000000E+01 0. -1.
          5    1    3    3  503    0 -0.65548656470E+02 -0.42949199301E+01 -0.58335907471E+02  0.87978638331E+02  0.47000000000E+01 0.  1.
         -5    1    3    3    0  503 -0.80645319765E+02  0.40168401098E+02  0.58794411622E+02  0.10768491484E+03  0.47000000000E+01 0.  1.
<mgrwt>
<rscale>  0 0.19566284E+03</rscale>
<asrwt>0</asrwt>
<pdfrwt beam="1">  1        5 0.33739819E-01 0.19566302E+03</pdfrwt>
<pdfrwt beam="2">  1       -5 0.27159923E-01 0.19566302E+03</pdfrwt>
<totfact> 0.88508865E+01</totfact>
</mgrwt>
</event>
<event>
 8    1  0.3763376E-007  0.1272525E+03  0.7546771E-02  0.1231591E+00
         -5   -1    0    0    0  501 -0.00000000000E+00  0.00000000000E+00  0.12132998109E+03  0.12142097970E+03  0.47000000000E+01 0.  1.
          5   -1    0    0  501    0  0.00000000000E+00 -0.00000000000E+00 -0.30193726264E+03  0.30197384087E+03  0.47000000000E+01 0.  1.
         25    2    1    2    0    0 -0.23736984703E+02  0.22742071449E+01  0.67875709617E+02  0.14422282601E+03  0.12499798049E+03 0.  0.
         25    2    1    2    0    0  0.23736984703E+02 -0.22742071449E+01 -0.24848299116E+03  0.27917199456E+03  0.12499835673E+03 0.  0.
          5    1    4    4  502    0 -0.32512003461E+02 -0.43036966349E+02 -0.14174587749E+03  0.15173396003E+03  0.47000000000E+01 0.  1.
         -5    1    4    4    0  502  0.56248988164E+02  0.40762759204E+02 -0.10673711368E+03  0.12743803452E+03  0.47000000000E+01 0.  1.
          5    1    3    3  503    0  0.39917132684E+02  0.12232767195E+02 -0.98541332080E+01  0.43153354634E+02  0.47000000000E+01 0. -1.
         -5    1    3    3    0  503 -0.63654117387E+02 -0.99585600498E+01  0.77729842825E+02  0.10106947138E+03  0.47000000000E+01 0. -1.
<mgrwt>
<rscale>  0 0.12725243E+03</rscale>
<asrwt>0</asrwt>
<pdfrwt beam="2">  1        5 0.46461700E-01 0.12725253E+03</pdfrwt>
<pdfrwt beam="1">  1       -5 0.18675965E-01 0.12725253E+03</pdfrwt>
<totfact> 0.82044064E+01</totfact>
</mgrwt>
</event>
<event>
 8    1  0.3763376E-007  0.1286684E+03  0.7546771E-02  0.1229446E+00
         -5   -1    0    0    0  501 -0.00000000000E+00  0.00000000000E+00  0.19904415714E+03  0.19909963961E+03  0.47000000000E+01 0. -1.
          5   -1    0    0  501    0  0.00000000000E+00 -0.00000000000E+00 -0.84073738347E+02  0.84205008637E+02  0.47000000000E+01 0. -1.
         25    2    1    2    0    0 -0.20028023111E+02  0.22980110164E+02  0.73172058301E+02  0.14801730034E+03  0.12500305561E+03 0.  0.
         25    2    1    2    0    0  0.20028023111E+02 -0.22980110164E+02  0.41798360494E+02  0.13528734791E+03  0.12500542544E+03 0.  0.
          5    1    4    4  502    0  0.49429785587E+02 -0.23394059308E+02  0.73539563571E+02  0.91764607144E+02  0.47000000000E+01 0. -1.
         -5    1    4    4    0  502 -0.29401762476E+02  0.41394914420E+00 -0.31741203077E+02  0.43522740761E+02  0.47000000000E+01 0. -1.
          5    1    3    3  503    0  0.33789814190E+01 -0.24016710245E+02  0.89489099601E+02  0.92836462847E+02  0.47000000000E+01 0. -1.
         -5    1    3    3    0  503 -0.23407004531E+02  0.46996820409E+02 -0.16317041301E+02  0.55180837493E+02  0.47000000000E+01 0. -1.
<mgrwt>
<rscale>  0 0.12866785E+03</rscale>
<asrwt>0</asrwt>
<pdfrwt beam="2">  1        5 0.12948787E-01 0.12866842E+03</pdfrwt>
<pdfrwt beam="1">  1       -5 0.30636544E-01 0.12866842E+03</pdfrwt>
<totfact> 0.37216925E+02</totfact>
</mgrwt>
</event>
<event>
 8    1  0.3763376E-007  0.1312287E+03  0.7546771E-02  0.1225646E+00
          5   -1    0    0  501    0  0.00000000000E+00  0.00000000000E+00  0.29642524434E+03  0.29646250266E+03  0.47000000000E+01 0. -1.
         -5   -1    0    0    0  501 -0.00000000000E+00 -0.00000000000E+00 -0.96587045508E+02  0.96701330704E+02  0.47000000000E+01 0. -1.
         25    2    1    2    0    0 -0.11428260983E+02 -0.38274284240E+02 -0.24279859218E+02  0.13345595408E+03  0.12500181652E+03 0.  0.
         25    2    1    2    0    0  0.11428260983E+02  0.38274284240E+02  0.22411805805E+03  0.25970787928E+03  0.12499501043E+03 0.  0.
          5    1    3    3  502    0  0.34477728449E+02  0.23673637768E+02  0.17564231827E+02  0.45604244581E+02  0.47000000000E+01 0.  1.
         -5    1    3    3    0  502 -0.45905989432E+02 -0.61947922009E+02 -0.41844091045E+02  0.87851709501E+02  0.47000000000E+01 0.  1.
          5    1    4    4  503    0 -0.41245831995E+02  0.36036689718E+02  0.18737920917E+03  0.19527652110E+03  0.47000000000E+01 0.  1.
         -5    1    4    4    0  503  0.52674092978E+02  0.22375945227E+01  0.36738848883E+02  0.64431358185E+02  0.47000000000E+01 0.  1.
<mgrwt>
<rscale>  0 0.13122711E+03</rscale>
<asrwt>0</asrwt>
<pdfrwt beam="1">  1        5 0.45615540E-01 0.13122873E+03</pdfrwt>
<pdfrwt beam="2">  1       -5 0.14871203E-01 0.13122873E+03</pdfrwt>
<totfact> 0.13065895E+02</totfact>
</mgrwt>
</event>
<event>
 8    1  0.3763376E-007  0.1283557E+03  0.7546771E-02  0.1229919E+00
         -5   -1    0    0    0  501 -0.00000000000E+00  0.00000000000E+00  0.40928516738E+02  0.41197493642E+02  0.47000000000E+01 0. -1.
          5   -1    0    0  501    0  0.00000000000E+00 -0.00000000000E+00 -0.40580614211E+03  0.40583335862E+03  0.47000000000E+01 0. -1.
         25    2    1    2    0    0 -0.28933745203E+02 -0.36805144217E+01 -0.15790090942E+03  0.20348507779E+03  0.12499108724E+03 0.  0.
         25    2    1    2    0    0  0.28933745203E+02  0.36805144217E+01 -0.20697671595E+03  0.24354577448E+03  0.12499790207E+03 0.  0.
          5    1    4    4  502    0 -0.20742121459E+02 -0.76514909380E+01 -0.18740347988E+03  0.18876158292E+03  0.47000000000E+01 0.  1.
         -5    1    4    4    0  502  0.49675866662E+02  0.11332005360E+02 -0.19573236075E+02  0.54784191557E+02  0.47000000000E+01 0.  1.
          5    1    3    3  503    0  0.27461028647E+01  0.54360462551E+02 -0.10615858013E+03  0.11939152024E+03  0.47000000000E+01 0. -1.
         -5    1    3    3    0  503 -0.31679848068E+02 -0.58040976973E+02 -0.51742329290E+02  0.84093557553E+02  0.47000000000E+01 0. -1.
<mgrwt>
<rscale>  0 0.12835403E+03</rscale>
<asrwt>0</asrwt>
<pdfrwt beam="2">  1        5 0.62454495E-01 0.12835569E+03</pdfrwt>
<pdfrwt beam="1">  1       -5 0.63194793E-02 0.12835569E+03</pdfrwt>
<totfact> 0.29347371E+02</totfact>
</mgrwt>
</event>
<event>
 8    1  0.3763376E-007  0.2664272E+03  0.7546771E-02  0.1103342E+00
          5   -1    0    0  501    0  0.00000000000E+00  0.00000000000E+00  0.24558159040E+03  0.24562656116E+03  0.47000000000E+01 0.  1.
         -5   -1    0    0    0  501 -0.00000000000E+00 -0.00000000000E+00 -0.28909509315E+03  0.28913329604E+03  0.47000000000E+01 0.  1.
         25    2    1    2    0    0  0.17515033161E+03  0.15710011740E+03 -0.27752776086E+02  0.26786874036E+03  0.12500143973E+03 0.  0.
         25    2    1    2    0    0 -0.17515033161E+03 -0.15710011740E+03 -0.15760726657E+02  0.26689111684E+03  0.12499752875E+03 0.  0.
          5    1    3    3  502    0 -0.43018276885E+01  0.45541469885E+02 -0.32750922932E+02  0.56455683094E+02  0.47000000000E+01 0. -1.
         -5    1    3    3    0  502  0.17945215930E+03  0.11155864751E+03  0.49981468461E+01  0.21141305727E+03  0.47000000000E+01 0. -1.
          5    1    4    4  503    0 -0.12385499498E+03 -0.88851727050E+02 -0.67693002289E+02  0.16685059706E+03  0.47000000000E+01 0.  1.
         -5    1    4    4    0  503 -0.51295336634E+02 -0.68248390345E+02  0.51932275632E+02  0.10004051978E+03  0.47000000000E+01 0.  1.
<mgrwt>
<rscale>  0 0.26642673E+03</rscale>
<asrwt>0</asrwt>
<pdfrwt beam="1">  1        5 0.37788181E-01 0.26642719E+03</pdfrwt>
<pdfrwt beam="2">  1       -5 0.44482566E-01 0.26642719E+03</pdfrwt>
<totfact> 0.27980809E+01</totfact>
</mgrwt>
</event>
<event>
 8    1  0.3763376E-007  0.1550157E+03  0.7546771E-02  0.1194444E+00
         -5   -1    0    0    0  501 -0.00000000000E+00  0.00000000000E+00  0.99277848528E+03  0.99278961056E+03  0.47000000000E+01 0.  1.
          5   -1    0    0  501    0  0.00000000000E+00 -0.00000000000E+00 -0.24712515268E+02  0.25155484708E+02  0.47000000000E+01 0.  1.
         25    2    1    2    0    0 -0.80651175803E+02  0.43576536019E+02  0.57179666254E+03  0.59243672895E+03  0.12500531138E+03 0.  0.
         25    2    1    2    0    0  0.80651175803E+02 -0.43576536019E+02  0.39626930747E+03  0.42550836631E+03  0.12499791642E+03 0.  0.
          5    1    3    3  502    0  0.16308998761E+02  0.74000556088E+01  0.31482449601E+03  0.31536851071E+03  0.47000000000E+01 0.  1.
         -5    1    3    3    0  502 -0.96960174564E+02  0.36176480410E+02  0.25697216653E+03  0.27706821824E+03  0.47000000000E+01 0.  1.
          5    1    4    4  503    0  0.92150093414E+02 -0.56122658042E+02  0.19050324224E+03  0.21898622735E+03  0.47000000000E+01 0.  1.
         -5    1    4    4    0  503 -0.11498917610E+02  0.12546122024E+02  0.20576606523E+03  0.20652213897E+03  0.47000000000E+01 0.  1.
<mgrwt>
<rscale>  0 0.15501417E+03</rscale>
<asrwt>0</asrwt>
<pdfrwt beam="2">  1        5 0.38368556E-02 0.15501566E+03</pdfrwt>
<pdfrwt beam="1">  1       -5 0.15277009E+00 0.15501566E+03</pdfrwt>
<totfact> 0.80752978E+01</totfact>
</mgrwt>
</event>
<event>
 8    1  0.3763376E-007  0.1510336E+03  0.7546771E-02  0.1199209E+00
         -5   -1    0    0    0  501 -0.00000000000E+00  0.00000000000E+00  0.88996510910E+02  0.89120530486E+02  0.47000000000E+01 0.  1.
          5   -1    0    0  501    0  0.00000000000E+00 -0.00000000000E+00 -0.26956349102E+03  0.26960446155E+03  0.47000000000E+01 0.  1.
         25    2    1    2    0    0 -0.76563239961E+02 -0.36386811279E+02 -0.50042714306E+02  0.15910603226E+03  0.12499810598E+03 0.  0.
         25    2    1    2    0    0  0.76563239961E+02  0.36386811279E+02 -0.13052426580E+03  0.19961895978E+03  0.12500086156E+03 0.  0.
          5    1    3    3  502    0 -0.50249185959E+02 -0.72001697000E+02  0.52822018219E+01  0.88086416186E+02  0.47000000000E+01 0.  1.
         -5    1    3    3    0  502 -0.26314054002E+02  0.35614885721E+02 -0.55324916127E+02  0.71019616075E+02  0.47000000000E+01 0.  1.
          5    1    4    4  503    0  0.10169208769E+03  0.32334414784E+02 -0.55739300547E+02  0.12048134588E+03  0.47000000000E+01 0.  1.
         -5    1    4    4    0  503 -0.25128847732E+02  0.40523964945E+01 -0.74784965256E+02  0.79137613902E+02  0.47000000000E+01 0.  1.
<mgrwt>
<rscale>  0 0.15103302E+03</rscale>
<asrwt>0</asrwt>
<pdfrwt beam="2">  1        5 0.41483997E-01 0.15103359E+03</pdfrwt>
<pdfrwt beam="1">  1       -5 0.13704463E-01 0.15103359E+03</pdfrwt>
<totfact> 0.19307653E+02</totfact>
</mgrwt>
</event>
<event>
 8    1  0.3763376E-007  0.1273153E+03  0.7546771E-02  0.1231500E+00
         -5   -1    0    0    0  501 -0.00000000000E+00  0.00000000000E+00  0.20930679904E+03  0.20935956182E+03  0.47000000000E+01 0. -1.
          5   -1    0    0  501    0  0.00000000000E+00 -0.00000000000E+00 -0.82873320359E+02  0.83006489067E+02  0.47000000000E+01 0. -1.
         25    2    1    2    0    0 -0.16601804415E+02  0.17443082833E+02  0.10108839645E+03  0.16256704615E+03  0.12501719701E+03 0.  0.
         25    2    1    2    0    0  0.16601804415E+02 -0.17443082833E+02  0.25345082232E+02  0.12979900474E+03  0.12500210954E+03 0.  0.
          5    1    4    4  502    0  0.61040319011E+02  0.21904509881E+01  0.46192551928E+02  0.76723923741E+02  0.47000000000E+01 0. -1.
         -5    1    4    4    0  502 -0.44438514596E+02 -0.19633533821E+02 -0.20847469696E+02  0.53075080994E+02  0.47000000000E+01 0. -1.
          5    1    3    3  503    0  0.39948491080E+02 -0.16558858966E+02  0.21522569867E+01  0.43552266990E+02  0.47000000000E+01 0. -1.
         -5    1    3    3    0  503 -0.56550295495E+02  0.34001941799E+02  0.98936139463E+02  0.11901477916E+03  0.47000000000E+01 0. -1.
<mgrwt>
<rscale>  0 0.12731158E+03</rscale>
<asrwt>0</asrwt>
<pdfrwt beam="2">  1        5 0.12764044E-01 0.12731528E+03</pdfrwt>
<pdfrwt beam="1">  1       -5 0.32215348E-01 0.12731528E+03</pdfrwt>
<totfact> 0.34445293E+02</totfact>
</mgrwt>
</event>
<event>
 8    1  0.3763376E-007  0.1324475E+03  0.7546771E-02  0.1223872E+00
          5   -1    0    0  501    0  0.00000000000E+00  0.00000000000E+00  0.14636479840E+04  0.14636555302E+04  0.47000000000E+01 0.  1.
         -5   -1    0    0    0  501 -0.00000000000E+00 -0.00000000000E+00 -0.12154244274E+02  0.13031333542E+02  0.47000000000E+01 0.  1.
         25    2    1    2    0    0 -0.77464629907E+00 -0.43752796696E+02  0.56254823686E+03  0.57792980057E+03  0.12500971281E+03 0.  0.
         25    2    1    2    0    0  0.77464629907E+00  0.43752796696E+02  0.88894550283E+03  0.89875706313E+03  0.12500097691E+03 0.  0.
          5    1    3    3  502    0  0.30598706170E+02  0.82247770134E+01  0.37311003077E+02  0.49174472308E+02  0.47000000000E+01 0. -1.
         -5    1    3    3    0  502 -0.31373352469E+02 -0.51977573709E+02  0.52523723378E+03  0.52875532826E+03  0.47000000000E+01 0. -1.
          5    1    4    4  503    0  0.55616793382E+02  0.50521814549E+02  0.43926457762E+03  0.44566931755E+03  0.47000000000E+01 0. -1.
         -5    1    4    4    0  503 -0.54842147083E+02 -0.67690178536E+01  0.44968092521E+03  0.45308774558E+03  0.47000000000E+01 0. -1.
<mgrwt>
<rscale>  0 0.13244542E+03</rscale>
<asrwt>0</asrwt>
<pdfrwt beam="1">  1        5 0.22524459E+00 0.13244748E+03</pdfrwt>
<pdfrwt beam="2">  1       -5 0.19379332E-02 0.13244748E+03</pdfrwt>
<totfact> 0.71880197E+01</totfact>
</mgrwt>
</event>
<event>
 8    1  0.3763376E-007  0.1384225E+03  0.7546771E-02  0.1215468E+00
         -5   -1    0    0    0  501 -0.00000000000E+00  0.00000000000E+00  0.13547366479E+03  0.13555516903E+03  0.47000000000E+01 0. -1.
          5   -1    0    0  501    0  0.00000000000E+00 -0.00000000000E+00 -0.14416269780E+03  0.14423929228E+03  0.47000000000E+01 0. -1.
         25    2    1    2    0    0  0.45420862227E+02  0.38354658126E+02  0.15463035367E+02  0.13928067293E+03  0.12500346341E+03 0.  0.
         25    2    1    2    0    0 -0.45420862227E+02 -0.38354658126E+02 -0.24152068373E+02  0.14051378838E+03  0.12500667099E+03 0.  0.
          5    1    3    3  502    0 -0.14633529079E+02 -0.38101254184E+02  0.46339486020E+01  0.41345002399E+02  0.47000000000E+01 0. -1.
         -5    1    3    3    0  502  0.60054391306E+02  0.76455912310E+02  0.10829086765E+02  0.97935670531E+02  0.47000000000E+01 0. -1.
          5    1    4    4  503    0 -0.27764043002E+02 -0.68750385775E+02  0.26328279249E+02  0.78820846964E+02  0.47000000000E+01 0.  1.
         -5    1    4    4    0  503 -0.17656819225E+02  0.30395727649E+02 -0.50480347622E+02  0.61692941415E+02  0.47000000000E+01 0.  1.
<mgrwt>
<rscale>  0 0.13842183E+03</rscale>
<asrwt>0</asrwt>
<pdfrwt beam="2">  1        5 0.22191038E-01 0.13842255E+03</pdfrwt>
<pdfrwt beam="1">  1       -5 0.20854264E-01 0.13842255E+03</pdfrwt>
<totfact> 0.29756618E+02</totfact>
</mgrwt>
</event>
<event>
 8    1  0.3763376E-007  0.1327970E+03  0.7546771E-02  0.1223366E+00
          5   -1    0    0  501    0  0.00000000000E+00  0.00000000000E+00  0.11375265984E+03  0.11384971507E+03  0.47000000000E+01 0. -1.
         -5   -1    0    0    0  501 -0.00000000000E+00 -0.00000000000E+00 -0.59986591876E+03  0.59988433092E+03  0.47000000000E+01 0. -1.
         25    2    1    2    0    0  0.42643964408E+02  0.13875275489E+02 -0.55040186296E+03  0.56619397506E+03  0.12498950227E+03 0.  0.
         25    2    1    2    0    0 -0.42643964408E+02 -0.13875275489E+02  0.64288604047E+02  0.14754007093E+03  0.12499606774E+03 0.  0.
          5    1    3    3  502    0 -0.15131642496E+02 -0.29862712835E+02 -0.37266568704E+03  0.37419587453E+03  0.47000000000E+01 0. -1.
         -5    1    3    3    0  502  0.57775606904E+02  0.43737988324E+02 -0.17773617592E+03  0.19199810053E+03  0.47000000000E+01 0. -1.
          5    1    4    4  503    0  0.28619408923E+02  0.22017834088E+02  0.56518209745E+02  0.67232831399E+02  0.47000000000E+01 0.  1.
         -5    1    4    4    0  503 -0.71263373331E+02 -0.35893109577E+02  0.77703943013E+01  0.80307239532E+02  0.47000000000E+01 0.  1.
<mgrwt>
<rscale>  0 0.13279547E+03</rscale>
<asrwt>0</asrwt>
<pdfrwt beam="1">  1        5 0.17509292E-01 0.13279702E+03</pdfrwt>
<pdfrwt beam="2">  1       -5 0.92295944E-01 0.13279702E+03</pdfrwt>
<totfact> 0.20324593E+01</totfact>
</mgrwt>
</event>
<event>
 8    1  0.3763376E-007  0.1315434E+03  0.7546771E-02  0.1225193E+00
         -5   -1    0    0    0  501 -0.00000000000E+00  0.00000000000E+00  0.53880448926E+03  0.53882498796E+03  0.47000000000E+01 0.  1.
          5   -1    0    0  501    0  0.00000000000E+00 -0.00000000000E+00 -0.52791320221E+02  0.53000127270E+02  0.47000000000E+01 0.  1.
         25    2    1    2    0    0 -0.22074532707E+02 -0.34525242663E+02  0.42858377847E+03  0.44831653749E+03  0.12499754096E+03 0.  0.
         25    2    1    2    0    0  0.22074532707E+02  0.34525242663E+02  0.57429390572E+02  0.14350857774E+03  0.12496919463E+03 0.  0.
          5    1    4    4  502    0 -0.31876501109E+01 -0.39139206243E+02 -0.95476629665E+01  0.40685211646E+02  0.47000000000E+01 0. -1.
         -5    1    4    4    0  502  0.25262182818E+02  0.73664448906E+02  0.66977053538E+02  0.10282336609E+03  0.47000000000E+01 0. -1.
          5    1    3    3  503    0 -0.42311029446E+01 -0.78913750406E+02  0.20802099750E+03  0.22257607157E+03  0.47000000000E+01 0.  1.
         -5    1    3    3    0  503 -0.17843429763E+02  0.44388507743E+02  0.22056278097E+03  0.22574046592E+03  0.47000000000E+01 0.  1.
<mgrwt>
<rscale>  0 0.13153665E+03</rscale>
<asrwt>0</asrwt>
<pdfrwt beam="2">  1        5 0.81393801E-02 0.13154339E+03</pdfrwt>
<pdfrwt beam="1">  1       -5 0.82910641E-01 0.13154339E+03</pdfrwt>
<totfact> 0.10140476E+02</totfact>
</mgrwt>
</event>
<event>
 8    1  0.3763376E-007  0.1570294E+03  0.7546771E-02  0.1192093E+00
          5   -1    0    0  501    0  0.00000000000E+00  0.00000000000E+00  0.33878891080E+02  0.34203351602E+02  0.47000000000E+01 0.  1.
         -5   -1    0    0    0  501 -0.00000000000E+00 -0.00000000000E+00 -0.75250345261E+03  0.75251813014E+03  0.47000000000E+01 0.  1.
         25    2    1    2    0    0  0.22910551174E+02 -0.92237092395E+02 -0.28279160090E+03  0.32346281641E+03  0.12499811795E+03 0.  0.
         25    2    1    2    0    0 -0.22910551174E+02  0.92237092395E+02 -0.43583296064E+03  0.46325866534E+03  0.12500258744E+03 0.  0.
          5    1    3    3  502    0 -0.32569193113E+02 -0.81009390202E+02 -0.22943985837E+03  0.24553617299E+03  0.47000000000E+01 0.  1.
         -5    1    3    3    0  502  0.55479744287E+02 -0.11227702192E+02 -0.53351742529E+02  0.77926643412E+02  0.47000000000E+01 0.  1.
          5    1    4    4  503    0  0.19110191819E+02  0.10111281419E+03 -0.37330262766E+03  0.38725436400E+03  0.47000000000E+01 0.  1.
         -5    1    4    4    0  503 -0.42020742993E+02 -0.88757217909E+01 -0.62530332980E+02  0.76004301336E+02  0.47000000000E+01 0.  1.
<mgrwt>
<rscale>  0 0.15702848E+03</rscale>
<asrwt>0</asrwt>
<pdfrwt beam="1">  1        5 0.52382252E-02 0.15702936E+03</pdfrwt>
<pdfrwt beam="2">  1       -5 0.11579584E+00 0.15702936E+03</pdfrwt>
<totfact> 0.10054712E+02</totfact>
</mgrwt>
</event>
<event>
 8    1  0.3763376E-007  0.1263450E+03  0.7546771E-02  0.1232984E+00
          5   -1    0    0  501    0  0.00000000000E+00  0.00000000000E+00  0.63840116685E+02  0.64012893220E+02  0.47000000000E+01 0.  1.
         -5   -1    0    0    0  501 -0.00000000000E+00 -0.00000000000E+00 -0.26010748459E+03  0.26014994434E+03  0.47000000000E+01 0.  1.
         25    2    1    2    0    0  0.65269315042E+01  0.17198736500E+02 -0.13084158214E+03  0.18188289675E+03  0.12499388442E+03 0.  0.
         25    2    1    2    0    0 -0.65269315042E+01 -0.17198736500E+02 -0.65425785772E+02  0.14227994081E+03  0.12499860296E+03 0.  0.
          5    1    3    3  502    0  0.46861041407E+02 -0.14128734035E+02 -0.11969213442E+03  0.12939812737E+03  0.47000000000E+01 0. -1.
         -5    1    3    3    0  502 -0.40334109903E+02  0.31327470535E+02 -0.11149447721E+02  0.52484769375E+02  0.47000000000E+01 0. -1.
          5    1    4    4  503    0 -0.99066602874E+01 -0.36797509014E+01  0.37019628526E+02  0.38784344535E+02  0.47000000000E+01 0.  1.
         -5    1    4    4    0  503  0.33797287832E+01 -0.13518985599E+02 -0.10244541430E+03  0.10349559628E+03  0.47000000000E+01 0.  1.
<mgrwt>
<rscale>  0 0.12634379E+03</rscale>
<asrwt>0</asrwt>
<pdfrwt beam="1">  1        5 0.98381132E-02 0.12634496E+03</pdfrwt>
<pdfrwt beam="2">  1       -5 0.40033092E-01 0.12634496E+03</pdfrwt>
<totfact> 0.35095864E+02</totfact>
</mgrwt>
</event>
<event>
 8    1  0.3763376E-007  0.2595754E+03  0.7546771E-02  0.1107404E+00
          5   -1    0    0  501    0  0.00000000000E+00  0.00000000000E+00  0.66777603925E+03  0.66779257902E+03  0.47000000000E+01 0. -1.
         -5   -1    0    0    0  501 -0.00000000000E+00 -0.00000000000E+00 -0.10716184685E+03  0.10726486573E+03  0.47000000000E+01 0. -1.
         25    2    1    2    0    0 -0.12093985714E+03 -0.19263418657E+03  0.18606181422E+03  0.31937188098E+03  0.12508005744E+03 0.  0.
         25    2    1    2    0    0  0.12093985714E+03  0.19263418657E+03  0.37455237819E+03  0.45568556377E+03  0.12500188057E+03 0.  0.
          5    1    4    4  502    0  0.13380543944E+03  0.17949520292E+03  0.37491868167E+03  0.43670187927E+03  0.47000000000E+01 0. -1.
         -5    1    4    4    0  502 -0.12865582297E+02  0.13138983646E+02 -0.36630347971E+00  0.18983684503E+02  0.47000000000E+01 0. -1.
          5    1    3    3  503    0 -0.98456725036E+02 -0.19929442317E+03  0.12793588253E+03  0.25651836942E+03  0.47000000000E+01 0.  1.
         -5    1    3    3    0  503 -0.22483132109E+02  0.66602365984E+01  0.58125931687E+02  0.62853511560E+02  0.47000000000E+01 0.  1.
<mgrwt>
<rscale>  0 0.25956601E+03</rscale>
<asrwt>0</asrwt>
<pdfrwt beam="1">  1        5 0.10274397E+00 0.25957542E+03</pdfrwt>
<pdfrwt beam="2">  1       -5 0.16495635E-01 0.25957542E+03</pdfrwt>
<totfact> 0.20713557E+01</totfact>
</mgrwt>
</event>
<event>
 8    1  0.3763376E-007  0.1300675E+03  0.7546771E-02  0.1227362E+00
          5   -1    0    0  501    0  0.00000000000E+00  0.00000000000E+00  0.72092299653E+02  0.72245343582E+02  0.47000000000E+01 0. -1.
         -5   -1    0    0    0  501 -0.00000000000E+00 -0.00000000000E+00 -0.24380378265E+03  0.24384908127E+03  0.47000000000E+01 0. -1.
         25    2    1    2    0    0 -0.45123046482E+01  0.35618094083E+02 -0.11719936143E+03  0.17508069148E+03  0.12501419396E+03 0.  0.
         25    2    1    2    0    0  0.45123046482E+01 -0.35618094083E+02 -0.54512121572E+02  0.14101373337E+03  0.12499716829E+03 0.  0.
          5    1    4    4  502    0  0.30845922382E+02 -0.12626070174E+02 -0.86860009288E+02  0.93153850104E+02  0.47000000000E+01 0.  1.
         -5    1    4    4    0  502 -0.26333617734E+02 -0.22992023909E+02  0.32347887716E+02  0.47859883264E+02  0.47000000000E+01 0.  1.
          5    1    3    3  503    0 -0.15337551845E+02  0.50488723486E+02 -0.13746034173E+03  0.14731526481E+03  0.47000000000E+01 0.  1.
         -5    1    3    3    0  503  0.10825247197E+02 -0.14870629403E+02  0.20260980304E+02  0.27765426678E+02  0.47000000000E+01 0.  1.
<mgrwt>
<rscale>  0 0.13006342E+03</rscale>
<asrwt>0</asrwt>
<pdfrwt beam="1">  1        5 0.11106380E-01 0.13006751E+03</pdfrwt>
<pdfrwt beam="2">  1       -5 0.37523531E-01 0.13006751E+03</pdfrwt>
<totfact> 0.32726810E+02</totfact>
</mgrwt>
</event>
<event>
 8    1  0.3763376E-007  0.1388153E+03  0.7546771E-02  0.1214933E+00
          5   -1    0    0  501    0  0.00000000000E+00  0.00000000000E+00  0.51174401013E+02  0.51389778351E+02  0.47000000000E+01 0. -1.
         -5   -1    0    0    0  501 -0.00000000000E+00 -0.00000000000E+00 -0.44704472473E+03  0.44706943075E+03  0.47000000000E+01 0. -1.
         25    2    1    2    0    0 -0.42540373021E+02  0.42829258428E+02 -0.29759889390E+03  0.32838208847E+03  0.12500266263E+03 0.  0.
         25    2    1    2    0    0  0.42540373021E+02 -0.42829258428E+02 -0.98271429820E+02  0.17007712063E+03  0.12499969731E+03 0.  0.
          5    1    3    3  502    0 -0.52135774164E+02  0.34500060526E+02 -0.30605619406E+03  0.31241139072E+03  0.47000000000E+01 0. -1.
         -5    1    3    3    0  502  0.95954011423E+01  0.83291979021E+01  0.84573001644E+01  0.15970697757E+02  0.47000000000E+01 0. -1.
          5    1    4    4  503    0 -0.16284537443E+02 -0.54500794844E+02 -0.26869149364E+01  0.57138711135E+02  0.47000000000E+01 0.  1.
         -5    1    4    4    0  503  0.58824910464E+02  0.11671536415E+02 -0.95584514883E+02  0.11293840949E+03  0.47000000000E+01 0.  1.
<mgrwt>
<rscale>  0 0.13881466E+03</rscale>
<asrwt>0</asrwt>
<pdfrwt beam="1">  1        5 0.78914530E-02 0.13881532E+03</pdfrwt>
<pdfrwt beam="2">  1       -5 0.68794577E-01 0.13881532E+03</pdfrwt>
<totfact> 0.16674792E+02</totfact>
</mgrwt>
</event>
<event>
 8    1  0.3763376E-007  0.1322410E+03  0.7546771E-02  0.1224176E+00
          5   -1    0    0  501    0  0.00000000000E+00  0.00000000000E+00  0.10029218029E+04  0.10029328157E+04  0.47000000000E+01 0.  1.
         -5   -1    0    0    0  501 -0.00000000000E+00 -0.00000000000E+00 -0.26639057163E+02  0.27050496604E+02  0.47000000000E+01 0.  1.
         25    2    1    2    0    0  0.42289680396E+02  0.82172850134E+01  0.18307732501E+03  0.22583001218E+03  0.12500378645E+03 0.  0.
         25    2    1    2    0    0 -0.42289680396E+02 -0.82172850134E+01  0.79320542073E+03  0.80415330009E+03  0.12502699599E+03 0.  0.
          5    1    3    3  502    0 -0.34209163247E+02 -0.29491185625E+02  0.48558416651E+02  0.66483130998E+02  0.47000000000E+01 0. -1.
         -5    1    3    3    0  502  0.76498843642E+02  0.37708470638E+02  0.13451890836E+03  0.15934688118E+03  0.47000000000E+01 0. -1.
          5    1    4    4  503    0  0.31846878253E+02 -0.35912973237E+02  0.41042050019E+03  0.41324453085E+03  0.47000000000E+01 0. -1.
         -5    1    4    4    0  503 -0.74136558648E+02  0.27695688224E+02  0.38278492053E+03  0.39090876923E+03  0.47000000000E+01 0. -1.
<mgrwt>
<rscale>  0 0.13223555E+03</rscale>
<asrwt>0</asrwt>
<pdfrwt beam="1">  1        5 0.15432815E+00 0.13224103E+03</pdfrwt>
<pdfrwt beam="2">  1       -5 0.41308130E-02 0.13224103E+03</pdfrwt>
<totfact> 0.66348815E+01</totfact>
</mgrwt>
</event>
<event>
 8    1  0.3763376E-007  0.1379769E+03  0.7546771E-02  0.1216078E+00
         -5   -1    0    0    0  501 -0.00000000000E+00  0.00000000000E+00  0.23703286497E+03  0.23707945731E+03  0.47000000000E+01 0. -1.
          5   -1    0    0  501    0  0.00000000000E+00 -0.00000000000E+00 -0.86280068761E+02  0.86407987278E+02  0.47000000000E+01 0. -1.
         25    2    1    2    0    0 -0.46010690334E+02 -0.35994337200E+02  0.11829396780E+03  0.18174459251E+03  0.12500023261E+03 0.  0.
         25    2    1    2    0    0  0.46010690334E+02  0.35994337200E+02  0.32458828413E+02  0.14174285208E+03  0.12499953855E+03 0.  0.
          5    1    3    3  502    0 -0.53003714232E+02  0.23572611266E+02  0.11726627781E+02  0.59368893567E+02  0.47000000000E+01 0. -1.
         -5    1    3    3    0  502  0.69930238981E+01 -0.59566948466E+02  0.10656734002E+03  0.12237569894E+03  0.47000000000E+01 0. -1.
          5    1    4    4  503    0 -0.25392910276E+02 -0.15321795332E+02  0.43647285105E+02  0.52978607018E+02  0.47000000000E+01 0.  1.
         -5    1    4    4    0  503  0.71403600609E+02  0.51316132532E+02 -0.11188456692E+02  0.88764245060E+02  0.47000000000E+01 0.  1.
<mgrwt>
<rscale>  0 0.13797678E+03</rscale>
<asrwt>0</asrwt>
<pdfrwt beam="2">  1        5 0.13287281E-01 0.13797693E+03</pdfrwt>
<pdfrwt beam="1">  1       -5 0.36480018E-01 0.13797693E+03</pdfrwt>
<totfact> 0.25733241E+02</totfact>
</mgrwt>
</event>
<event>
 8    1  0.3763376E-007  0.2000494E+03  0.7546771E-02  0.1149699E+00
          5   -1    0    0  501    0  0.00000000000E+00  0.00000000000E+00  0.29991441170E+02  0.30357479201E+02  0.47000000000E+01 0. -1.
         -5   -1    0    0    0  501 -0.00000000000E+00 -0.00000000000E+00 -0.16229416045E+04  0.16229484101E+04  0.47000000000E+01 0. -1.
         25    2    1    2    0    0  0.11713430693E+03  0.10330902924E+03 -0.44283027612E+03  0.48591755064E+03  0.12499604472E+03 0.  0.
         25    2    1    2    0    0 -0.11713430693E+03 -0.10330902924E+03 -0.11501198873E+04  0.11673883386E+04  0.12500630675E+03 0.  0.
          5    1    4    4  502    0 -0.58989335373E+02  0.14508385469E+02 -0.52967134829E+03  0.53316419810E+03  0.47000000000E+01 0. -1.
         -5    1    4    4    0  502 -0.58144971552E+02 -0.11781741471E+03 -0.62044853897E+03  0.63422414053E+03  0.47000000000E+01 0. -1.
          5    1    3    3  503    0  0.78514792703E+01  0.75911437995E+02 -0.26091833223E+03  0.27189089400E+03  0.47000000000E+01 0.  1.
         -5    1    3    3    0  503  0.10928282765E+03  0.27397591245E+02 -0.18191194388E+03  0.21402665664E+03  0.47000000000E+01 0.  1.
<mgrwt>
<rscale>  0 0.20004784E+03</rscale>
<asrwt>0</asrwt>
<pdfrwt beam="1">  1        5 0.46427494E-02 0.20004944E+03</pdfrwt>
<pdfrwt beam="2">  1       -5 0.24971194E+00 0.20004944E+03</pdfrwt>
<totfact> 0.13428674E+01</totfact>
</mgrwt>
</event>
<event>
 8    1  0.3763376E-007  0.1868621E+03  0.7546771E-02  0.1161332E+00
         -5   -1    0    0    0  501 -0.00000000000E+00  0.00000000000E+00  0.26384141334E+03  0.26388327229E+03  0.47000000000E+01 0. -1.
          5   -1    0    0  501    0  0.00000000000E+00 -0.00000000000E+00 -0.13331326975E+03  0.13339609399E+03  0.47000000000E+01 0. -1.
         25    2    1    2    0    0 -0.10357230065E+03 -0.92479366861E+02  0.47274750452E+02  0.19271011848E+03  0.12499053156E+03 0.  0.
         25    2    1    2    0    0  0.10357230065E+03  0.92479366861E+02  0.83253393143E+02  0.20456924780E+03  0.12505116919E+03 0.  0.
          5    1    4    4  502    0  0.10903894590E+03  0.11526538676E+03  0.56011911470E+02  0.16833010822E+03  0.47000000000E+01 0.  1.
         -5    1    4    4    0  502 -0.54666452522E+01 -0.22786019897E+02  0.27241481674E+02  0.36239139571E+02  0.47000000000E+01 0.  1.
          5    1    3    3  503    0 -0.26353208939E+02  0.30424545752E+02  0.19288241123E+01  0.40570370568E+02  0.47000000000E+01 0. -1.
         -5    1    3    3    0  503 -0.77219091714E+02 -0.12290391261E+03  0.45345926339E+02  0.15213974792E+03  0.47000000000E+01 0. -1.
<mgrwt>
<rscale>  0 0.18685197E+03</rscale>
<asrwt>0</asrwt>
<pdfrwt beam="2">  1        5 0.20519325E-01 0.18686211E+03</pdfrwt>
<pdfrwt beam="1">  1       -5 0.40600577E-01 0.18686211E+03</pdfrwt>
<totfact> 0.10255395E+02</totfact>
</mgrwt>
</event>
<event>
 8    1  0.3763376E-007  0.1306477E+03  0.7546771E-02  0.1226501E+00
         -5   -1    0    0    0  501 -0.00000000000E+00  0.00000000000E+00  0.84089286192E+03  0.84090599667E+03  0.47000000000E+01 0. -1.
          5   -1    0    0  501    0  0.00000000000E+00 -0.00000000000E+00 -0.20051822577E+02  0.20595280738E+02  0.47000000000E+01 0. -1.
         25    2    1    2    0    0 -0.73324522271E+01 -0.37268513837E+02  0.42949135496E+03  0.44892276207E+03  0.12500446130E+03 0.  0.
         25    2    1    2    0    0  0.73324522271E+01  0.37268513837E+02  0.39134968439E+03  0.41257851533E+03  0.12499499535E+03 0.  0.
          5    1    3    3  502    0  0.48763591283E+02  0.14001374871E+02  0.12343404595E+03  0.13353643710E+03  0.47000000000E+01 0.  1.
         -5    1    3    3    0  502 -0.56096043510E+02 -0.51269888708E+02  0.30605730900E+03  0.31538632497E+03  0.47000000000E+01 0.  1.
          5    1    4    4  503    0 -0.13443393436E+02  0.56189357240E+01  0.36700186512E+03  0.36732105340E+03  0.47000000000E+01 0. -1.
         -5    1    4    4    0  503  0.20775845663E+02  0.31649578113E+02  0.24347819265E+02  0.45257461934E+02  0.47000000000E+01 0. -1.
<mgrwt>
<rscale>  0 0.13064544E+03</rscale>
<asrwt>0</asrwt>
<pdfrwt beam="2">  1        5 0.31277105E-02 0.13064770E+03</pdfrwt>
<pdfrwt beam="1">  1       -5 0.12941095E+00 0.13064770E+03</pdfrwt>
<totfact> 0.16638309E+02</totfact>
</mgrwt>
</event>
<event>
 8    1  0.3763376E-007  0.1462571E+03  0.7546771E-02  0.1205151E+00
          5   -1    0    0  501    0  0.00000000000E+00  0.00000000000E+00  0.41298665817E+02  0.41565247482E+02  0.47000000000E+01 0. -1.
         -5   -1    0    0    0  501 -0.00000000000E+00 -0.00000000000E+00 -0.58707989460E+03  0.58709870775E+03  0.47000000000E+01 0. -1.
         25    2    1    2    0    0 -0.49163281526E+02  0.57857813586E+02 -0.38223259999E+03  0.40925726047E+03  0.12500075965E+03 0.  0.
         25    2    1    2    0    0  0.49163281526E+02 -0.57857813586E+02 -0.16354862880E+03  0.21940669476E+03  0.12500635537E+03 0.  0.
          5    1    3    3  502    0 -0.48438295199E+02 -0.17842211487E+02 -0.26215406314E+03  0.26722921954E+03  0.47000000000E+01 0. -1.
         -5    1    3    3    0  502 -0.72498632660E+00  0.75700025073E+02 -0.12007853685E+03  0.14202804094E+03  0.47000000000E+01 0. -1.
          5    1    4    4  503    0  0.23390348052E+02  0.33863820210E+02 -0.89593635619E+02  0.98706515715E+02  0.47000000000E+01 0.  1.
         -5    1    4    4    0  503  0.25772933474E+02 -0.91721633795E+02 -0.73954993177E+02  0.12070017905E+03  0.47000000000E+01 0.  1.
<mgrwt>
<rscale>  0 0.14625592E+03</rscale>
<asrwt>0</asrwt>
<pdfrwt beam="1">  1        5 0.63755948E-02 0.14625712E+03</pdfrwt>
<pdfrwt beam="2">  1       -5 0.90341931E-01 0.14625712E+03</pdfrwt>
<totfact> 0.12993524E+02</totfact>
</mgrwt>
</event>
<event>
 8    1  0.3763376E-007  0.1451422E+03  0.7546771E-02  0.1206574E+00
         -5   -1    0    0    0  501 -0.00000000000E+00  0.00000000000E+00  0.11809710744E+03  0.11819059517E+03  0.47000000000E+01 0.  1.
          5   -1    0    0  501    0  0.00000000000E+00 -0.00000000000E+00 -0.17839747862E+03  0.17845938019E+03  0.47000000000E+01 0.  1.
         25    2    1    2    0    0 -0.61257507424E+02 -0.41076016460E+02 -0.24986743844E+02  0.14727359969E+03  0.12500181780E+03 0.  0.
         25    2    1    2    0    0  0.61257507424E+02  0.41076016460E+02 -0.35313627332E+02  0.14937637567E+03  0.12500611181E+03 0.  0.
          5    1    3    3  502    0 -0.59273443222E+02 -0.83426320327E+02 -0.16164819305E+02  0.10371443187E+03  0.47000000000E+01 0. -1.
         -5    1    3    3    0  502 -0.19840642026E+01  0.42350303867E+02 -0.88219245383E+01  0.43559167817E+02  0.47000000000E+01 0. -1.
          5    1    4    4  503    0 -0.95892736843E+00 -0.23468056028E+02  0.29977927706E+02  0.38372325248E+02  0.47000000000E+01 0.  1.
         -5    1    4    4    0  503  0.62216434793E+02  0.64544072488E+02 -0.65291555037E+02  0.11100405043E+03  0.47000000000E+01 0.  1.
<mgrwt>
<rscale>  0 0.14514124E+03</rscale>
<asrwt>0</asrwt>
<pdfrwt beam="2">  1        5 0.27457719E-01 0.14514217E+03</pdfrwt>
<pdfrwt beam="1">  1       -5 0.18180739E-01 0.14514217E+03</pdfrwt>
<totfact> 0.25968610E+02</totfact>
</mgrwt>
</event>
<event>
 8    1  0.3763376E-007  0.1367914E+03  0.7546771E-02  0.1217731E+00
          5   -1    0    0  501    0  0.00000000000E+00  0.00000000000E+00  0.31298953572E+02  0.31649873534E+02  0.47000000000E+01 0. -1.
         -5   -1    0    0    0  501 -0.00000000000E+00 -0.00000000000E+00 -0.61723818088E+03  0.61725607485E+03  0.47000000000E+01 0. -1.
         25    2    1    2    0    0 -0.11941285411E+02 -0.54270717045E+02 -0.35606925484E+03  0.38144094089E+03  0.12499588841E+03 0.  0.
         25    2    1    2    0    0  0.11941285411E+02  0.54270717045E+02 -0.22986997247E+03  0.26746500749E+03  0.12493766832E+03 0.  0.
          5    1    3    3  502    0  0.22550091051E+02 -0.25186794192E+02 -0.14854100844E+02  0.37223856866E+02  0.47000000000E+01 0. -1.
         -5    1    3    3    0  502 -0.34491376462E+02 -0.29083922853E+02 -0.34121515400E+03  0.34421708403E+03  0.47000000000E+01 0. -1.
          5    1    4    4  503    0 -0.48261110070E+02  0.36963445740E+02 -0.56728514582E+02  0.83280522530E+02  0.47000000000E+01 0. -1.
         -5    1    4    4    0  503  0.60202395481E+02  0.17307271305E+02 -0.17314145789E+03  0.18418448496E+03  0.47000000000E+01 0. -1.
<mgrwt>
<rscale>  0 0.13677806E+03</rscale>
<asrwt>0</asrwt>
<pdfrwt beam="1">  1        5 0.48435944E-02 0.13679136E+03</pdfrwt>
<pdfrwt beam="2">  1       -5 0.94988081E-01 0.13679136E+03</pdfrwt>
<totfact> 0.17863923E+02</totfact>
</mgrwt>
</event>
<event>
 8    1  0.3763376E-007  0.1349464E+03  0.7546771E-02  0.1220300E+00
         -5   -1    0    0    0  501 -0.00000000000E+00  0.00000000000E+00  0.10211518336E+02  0.11241223542E+02  0.47000000000E+01 0.  1.
          5   -1    0    0  501    0  0.00000000000E+00 -0.00000000000E+00 -0.17262533923E+04  0.17262597905E+04  0.47000000000E+01 0.  1.
         25    2    1    2    0    0  0.12647649456E+02  0.49230070547E+02 -0.97201844948E+03  0.98134112353E+03  0.12500788663E+03 0.  0.
         25    2    1    2    0    0 -0.12647649456E+02 -0.49230070547E+02 -0.74402342447E+03  0.75615989053E+03  0.12499344387E+03 0.  0.
          5    1    3    3  502    0  0.58612415499E+02  0.57410692884E+02 -0.74535523993E+03  0.74987194013E+03  0.47000000000E+01 0.  1.
         -5    1    3    3    0  502 -0.45964766043E+02 -0.81806223368E+01 -0.22666320955E+03  0.23146918340E+03  0.47000000000E+01 0.  1.
          5    1    4    4  503    0  0.25052998709E+02 -0.49213112297E+02 -0.67581831141E+03  0.67808706167E+03  0.47000000000E+01 0.  1.
         -5    1    4    4    0  503 -0.37700648164E+02 -0.16958250582E-01 -0.68205113062E+02  0.78072828867E+02  0.47000000000E+01 0.  1.
<mgrwt>
<rscale>  0 0.13494307E+03</rscale>
<asrwt>0</asrwt>
<pdfrwt beam="2">  1        5 0.26565692E+00 0.13494641E+03</pdfrwt>
<pdfrwt beam="1">  1       -5 0.16507045E-02 0.13494641E+03</pdfrwt>
<totfact> 0.51531260E+01</totfact>
</mgrwt>
</event>
<event>
 8    1  0.3763376E-007  0.1411641E+03  0.7546771E-02  0.1211779E+00
          5   -1    0    0  501    0  0.00000000000E+00  0.00000000000E+00  0.65243828079E+03  0.65245520937E+03  0.47000000000E+01 0.  1.
         -5   -1    0    0    0  501 -0.00000000000E+00 -0.00000000000E+00 -0.30376072078E+02  0.30737530072E+02  0.47000000000E+01 0.  1.
         25    2    1    2    0    0 -0.62792948290E+02  0.18741092194E+02  0.32280543995E+03  0.35231221560E+03  0.12500544914E+03 0.  0.
         25    2    1    2    0    0  0.62792948290E+02 -0.18741092194E+02  0.29925676877E+03  0.33088052384E+03  0.12503249383E+03 0.  0.
          5    1    3    3  502    0  0.12650891299E+02  0.55364998501E+02  0.12234739680E+03  0.13496778732E+03  0.47000000000E+01 0.  1.
         -5    1    3    3    0  502 -0.75443839590E+02 -0.36623906307E+02  0.20045804314E+03  0.21734442828E+03  0.47000000000E+01 0.  1.
          5    1    4    4  503    0  0.33348528756E+02 -0.42124454201E+02  0.28552914416E+03  0.29057800360E+03  0.47000000000E+01 0. -1.
         -5    1    4    4    0  503  0.29444419534E+02  0.23383362007E+02  0.13727624604E+02  0.40302520240E+02  0.47000000000E+01 0. -1.
<mgrwt>
<rscale>  0 0.14115813E+03</rscale>
<asrwt>0</asrwt>
<pdfrwt beam="1">  1        5 0.10040422E+00 0.14116412E+03</pdfrwt>
<pdfrwt beam="2">  1       -5 0.47023487E-02 0.14116412E+03</pdfrwt>
<totfact> 0.16576792E+02</totfact>
</mgrwt>
</event>
<event>
 8    1  0.3763376E-007  0.1360804E+03  0.7546771E-02  0.1218704E+00
          5   -1    0    0  501    0  0.00000000000E+00  0.00000000000E+00  0.68941535456E+02  0.69101557949E+02  0.47000000000E+01 0.  1.
         -5   -1    0    0    0  501 -0.00000000000E+00 -0.00000000000E+00 -0.31403070166E+03  0.31406587141E+03  0.47000000000E+01 0.  1.
         25    2    1    2    0    0  0.53778413957E+02  0.94683009222E+00 -0.19578820399E+03  0.23843425059E+03  0.12499942695E+03 0.  0.
         25    2    1    2    0    0 -0.53778413957E+02 -0.94683009222E+00 -0.49300962206E+02  0.14473317876E+03  0.12499637541E+03 0.  0.
          5    1    3    3  502    0  0.39844266821E+02 -0.47302801241E+02 -0.17165483237E+03  0.18251737473E+03  0.47000000000E+01 0. -1.
         -5    1    3    3    0  502  0.13934147136E+02  0.48249631333E+02 -0.24133371627E+02  0.55916875863E+02  0.47000000000E+01 0. -1.
          5    1    4    4  503    0  0.58535236721E+01 -0.49032404941E+02 -0.46411664908E+02  0.67930649292E+02  0.47000000000E+01 0.  1.
         -5    1    4    4    0  503 -0.59631937629E+02  0.48085574849E+02 -0.28892972981E+01  0.76802529469E+02  0.47000000000E+01 0.  1.
<mgrwt>
<rscale>  0 0.13607968E+03</rscale>
<asrwt>0</asrwt>
<pdfrwt beam="1">  1        5 0.10621405E-01 0.13608038E+03</pdfrwt>
<pdfrwt beam="2">  1       -5 0.48327430E-01 0.13608038E+03</pdfrwt>
<totfact> 0.21329356E+02</totfact>
</mgrwt>
</event>
<event>
 8    1  0.3763376E-007  0.1303505E+03  0.7546771E-02  0.1226937E+00
          5   -1    0    0  501    0  0.00000000000E+00  0.00000000000E+00  0.38134879040E+02  0.38423417331E+02  0.47000000000E+01 0. -1.
         -5   -1    0    0    0  501 -0.00000000000E+00 -0.00000000000E+00 -0.46613200852E+03  0.46615570293E+03  0.47000000000E+01 0. -1.
         25    2    1    2    0    0 -0.27821676611E+02  0.24338268022E+02 -0.26948003956E+03  0.29935018409E+03  0.12499857606E+03 0.  0.
         25    2    1    2    0    0  0.27821676611E+02 -0.24338268022E+02 -0.15851708993E+03  0.20522893617E+03  0.12499940584E+03 0.  0.
          5    1    3    3  502    0 -0.32158966446E+02  0.73473155886E+02 -0.17866159889E+03  0.19589425892E+03  0.47000000000E+01 0. -1.
         -5    1    3    3    0  502  0.43372898348E+01 -0.49134887864E+02 -0.90818440664E+02  0.10345592517E+03  0.47000000000E+01 0. -1.
          5    1    4    4  503    0 -0.87845032591E+01 -0.65433550838E+02 -0.48271618624E+02  0.81920426252E+02  0.47000000000E+01 0. -1.
         -5    1    4    4    0  503  0.36606179870E+02  0.41095282816E+02 -0.11024547130E+03  0.12330850992E+03  0.47000000000E+01 0. -1.
<mgrwt>
<rscale>  0 0.13035028E+03</rscale>
<asrwt>0</asrwt>
<pdfrwt beam="1">  1        5 0.58909227E-02 0.13035048E+03</pdfrwt>
<pdfrwt beam="2">  1       -5 0.71736630E-01 0.13035048E+03</pdfrwt>
<totfact> 0.24377553E+02</totfact>
</mgrwt>
</event>
<event>
 8    1  0.3763376E-007  0.1672403E+03  0.7546771E-02  0.1180757E+00
         -5   -1    0    0    0  501 -0.00000000000E+00  0.00000000000E+00  0.91432112679E+03  0.91433320671E+03  0.47000000000E+01 0. -1.
          5   -1    0    0  501    0  0.00000000000E+00 -0.00000000000E+00 -0.31296071969E+02  0.31647023884E+02  0.47000000000E+01 0. -1.
         25    2    1    2    0    0  0.35634143216E+02 -0.10524065013E+03  0.52120731519E+03  0.54738095691E+03  0.12499383973E+03 0.  0.
         25    2    1    2    0    0 -0.35634143216E+02  0.10524065013E+03  0.36181773963E+03  0.39859927369E+03  0.12499567062E+03 0.  0.
          5    1    3    3  502    0  0.91870468774E+00 -0.74838138188E+02  0.47846404516E+03  0.48430519660E+03  0.47000000000E+01 0. -1.
         -5    1    3    3    0  502  0.34715438528E+02 -0.30402511946E+02  0.42743270035E+02  0.63075760305E+02  0.47000000000E+01 0. -1.
          5    1    4    4  503    0 -0.51702168006E+02  0.11374374115E+03  0.20117798549E+03  0.23686583687E+03  0.47000000000E+01 0.  1.
         -5    1    4    4    0  503  0.16068024790E+02 -0.85030910181E+01  0.16063975414E+03  0.16173343683E+03  0.47000000000E+01 0.  1.
<mgrwt>
<rscale>  0 0.16723992E+03</rscale>
<asrwt>0</asrwt>
<pdfrwt beam="2">  1        5 0.48427065E-02 0.16724026E+03</pdfrwt>
<pdfrwt beam="1">  1       -5 0.14069270E+00 0.16724026E+03</pdfrwt>
<totfact> 0.70290370E+01</totfact>
</mgrwt>
</event>
<event>
 8    1  0.3763376E-007  0.1689699E+03  0.7546771E-02  0.1178929E+00
          5   -1    0    0  501    0  0.00000000000E+00  0.00000000000E+00  0.27922458409E+03  0.27926413726E+03  0.47000000000E+01 0. -1.
         -5   -1    0    0    0  501 -0.00000000000E+00 -0.00000000000E+00 -0.11451990401E+03  0.11461630955E+03  0.47000000000E+01 0. -1.
         25    2    1    2    0    0 -0.71637457954E+02 -0.88290608856E+02  0.17647367265E+02  0.16987892862E+03  0.12498105385E+03 0.  0.
         25    2    1    2    0    0  0.71637457954E+02  0.88290608856E+02  0.14705731282E+03  0.22400151819E+03  0.12499467951E+03 0.  0.
          5    1    4    4  502    0  0.44735299555E+02  0.11481677958E+03  0.80309311140E+02  0.14715914975E+03  0.47000000000E+01 0. -1.
         -5    1    4    4    0  502  0.26902158399E+02 -0.26526170725E+02  0.66748001675E+02  0.76842368440E+02  0.47000000000E+01 0. -1.
          5    1    3    3  503    0 -0.37181364453E+02 -0.76581575586E+01 -0.47173917513E+02  0.60733596413E+02  0.47000000000E+01 0. -1.
         -5    1    3    3    0  503 -0.34456093501E+02 -0.80632451298E+02  0.64821284778E+02  0.10914533220E+03  0.47000000000E+01 0. -1.
<mgrwt>
<rscale>  0 0.16896738E+03</rscale>
<asrwt>0</asrwt>
<pdfrwt beam="1">  1        5 0.42968086E-01 0.16896990E+03</pdfrwt>
<pdfrwt beam="2">  1       -5 0.17628905E-01 0.16896990E+03</pdfrwt>
<totfact> 0.11753106E+02</totfact>
</mgrwt>
</event>
<event>
 8    1  0.3763376E-007  0.1800401E+03  0.7546771E-02  0.1167765E+00
         -5   -1    0    0    0  501 -0.00000000000E+00  0.00000000000E+00  0.53776033031E+03  0.53778086881E+03  0.47000000000E+01 0.  1.
          5   -1    0    0  501    0  0.00000000000E+00 -0.00000000000E+00 -0.16381010012E+03  0.16387751188E+03  0.47000000000E+01 0.  1.
         25    2    1    2    0    0 -0.90243695349E+02 -0.92972765707E+02  0.46591496839E+03  0.49949023932E+03  0.12500352671E+03 0.  0.
         25    2    1    2    0    0  0.90243695349E+02  0.92972765707E+02 -0.91964738195E+02  0.20216814137E+03  0.12500633824E+03 0.  0.
          5    1    4    4  502    0  0.70736165390E+02  0.25195826837E+02 -0.10611541941E+03  0.13008077114E+03  0.47000000000E+01 0.  1.
         -5    1    4    4    0  502  0.19507529958E+02  0.67776938870E+02  0.14150681216E+02  0.72087370230E+02  0.47000000000E+01 0.  1.
          5    1    3    3  503    0 -0.19058158469E+01 -0.58866419895E+02  0.66408965060E+02  0.88888290374E+02  0.47000000000E+01 0. -1.
         -5    1    3    3    0  503 -0.88337879502E+02 -0.34106345812E+02  0.39950600333E+03  0.41060194894E+03  0.47000000000E+01 0. -1.
<mgrwt>
<rscale>  0 0.18003963E+03</rscale>
<asrwt>0</asrwt>
<pdfrwt beam="2">  1        5 0.25208319E-01 0.18004012E+03</pdfrwt>
<pdfrwt beam="1">  1       -5 0.82739125E-01 0.18004012E+03</pdfrwt>
<totfact> 0.14409500E+01</totfact>
</mgrwt>
</event>
<event>
 8    1  0.3763376E-007  0.1724650E+03  0.7546771E-02  0.1175302E+00
         -5   -1    0    0    0  501 -0.00000000000E+00  0.00000000000E+00  0.71321424028E+03  0.71322972634E+03  0.47000000000E+01 0.  1.
          5   -1    0    0  501    0  0.00000000000E+00 -0.00000000000E+00 -0.44730200179E+02  0.44976447259E+02  0.47000000000E+01 0.  1.
         25    2    1    2    0    0 -0.53387317504E+02 -0.10615582263E+03  0.43494121335E+03  0.46788676299E+03  0.12499959823E+03 0.  0.
         25    2    1    2    0    0  0.53387317504E+02  0.10615582263E+03  0.23354282675E+03  0.29031941061E+03  0.12499537553E+03 0.  0.
          5    1    3    3  502    0 -0.91842663996E+02 -0.94604851721E+02  0.33959852096E+03  0.36432732307E+03  0.47000000000E+01 0.  1.
         -5    1    3    3    0  502  0.38455346492E+02 -0.11550970912E+02  0.95342692394E+02  0.10355943992E+03  0.47000000000E+01 0.  1.
          5    1    4    4  503    0  0.24572079419E+02 -0.15297885320E+02  0.11294547787E+03  0.11669011678E+03  0.47000000000E+01 0. -1.
         -5    1    4    4    0  503  0.28815238085E+02  0.12145370795E+03  0.12059734887E+03  0.17362929383E+03  0.47000000000E+01 0. -1.
<mgrwt>
<rscale>  0 0.17246420E+03</rscale>
<asrwt>0</asrwt>
<pdfrwt beam="2">  1        5 0.69017033E-02 0.17246496E+03</pdfrwt>
<pdfrwt beam="1">  1       -5 0.10974539E+00 0.17246496E+03</pdfrwt>
<totfact> 0.74245671E+01</totfact>
</mgrwt>
</event>
<event>
 8    1  0.3763376E-007  0.1346490E+03  0.7546771E-02  0.1220717E+00
          5   -1    0    0  501    0  0.00000000000E+00  0.00000000000E+00  0.25581874563E+02  0.26010042410E+02  0.47000000000E+01 0.  1.
         -5   -1    0    0    0  501 -0.00000000000E+00 -0.00000000000E+00 -0.70787019543E+03  0.70788579840E+03  0.47000000000E+01 0.  1.
         25    2    1    2    0    0  0.10385673121E+02 -0.48945281933E+02 -0.37342041393E+03  0.39695410106E+03  0.12500499983E+03 0.  0.
         25    2    1    2    0    0 -0.10385673121E+02  0.48945281933E+02 -0.30886790694E+03  0.33694173975E+03  0.12500739666E+03 0.  0.
          5    1    3    3  502    0 -0.11477207021E+02  0.39060000442E+02 -0.15691752890E+03  0.16218079661E+03  0.47000000000E+01 0.  1.
         -5    1    3    3    0  502  0.21862880142E+02 -0.88005282375E+02 -0.21650288503E+03  0.23477330445E+03  0.47000000000E+01 0.  1.
          5    1    4    4  503    0  0.47598043359E+02  0.12869757465E+02 -0.55037226603E+02  0.74043167821E+02  0.47000000000E+01 0.  1.
         -5    1    4    4    0  503 -0.57983716480E+02  0.36075524468E+02 -0.25383068034E+03  0.26289857193E+03  0.47000000000E+01 0.  1.
<mgrwt>
<rscale>  0 0.13464844E+03</rscale>
<asrwt>0</asrwt>
<pdfrwt beam="1">  1        5 0.39698098E-02 0.13464900E+03</pdfrwt>
<pdfrwt beam="2">  1       -5 0.10893723E+00 0.13464900E+03</pdfrwt>
<totfact> 0.17646255E+02</totfact>
</mgrwt>
</event>
<event>
 8    1  0.3763376E-007  0.1310340E+03  0.7546771E-02  0.1225930E+00
         -5   -1    0    0    0  501 -0.00000000000E+00  0.00000000000E+00  0.40011981886E+02  0.40287078505E+02  0.47000000000E+01 0. -1.
          5   -1    0    0  501    0  0.00000000000E+00 -0.00000000000E+00 -0.61741780835E+03  0.61743569711E+03  0.47000000000E+01 0. -1.
         25    2    1    2    0    0 -0.36055871846E+02 -0.15625057731E+02 -0.10628518890E+03  0.16871911851E+03  0.12500172498E+03 0.  0.
         25    2    1    2    0    0  0.36055871846E+02  0.15625057731E+02 -0.47112063756E+03  0.48900365710E+03  0.12500301277E+03 0.  0.
          5    1    3    3  502    0 -0.21354800383E+02 -0.61192267133E+02 -0.16795565582E+02  0.67117077406E+02  0.47000000000E+01 0.  1.
         -5    1    3    3    0  502 -0.14701071463E+02  0.45567209402E+02 -0.89489623318E+02  0.10160204110E+03  0.47000000000E+01 0.  1.
          5    1    4    4  503    0  0.26847412370E+02  0.65486342604E+02 -0.35786414059E+03  0.36482609246E+03  0.47000000000E+01 0. -1.
         -5    1    4    4    0  503  0.92084594764E+01 -0.49861284873E+02 -0.11325649697E+03  0.12417756465E+03  0.47000000000E+01 0. -1.
<mgrwt>
<rscale>  0 0.13103374E+03</rscale>
<asrwt>0</asrwt>
<pdfrwt beam="2">  1        5 0.95009886E-01 0.13103405E+03</pdfrwt>
<pdfrwt beam="1">  1       -5 0.61782273E-02 0.13103405E+03</pdfrwt>
<totfact> 0.11724455E+02</totfact>
</mgrwt>
</event>
<event>
 8    1  0.3763376E-007  0.1577831E+03  0.7546771E-02  0.1191223E+00
         -5   -1    0    0    0  501 -0.00000000000E+00  0.00000000000E+00  0.12550378466E+03  0.12559175914E+03  0.47000000000E+01 0.  1.
          5   -1    0    0  501    0  0.00000000000E+00 -0.00000000000E+00 -0.27330212179E+03  0.27334253196E+03  0.47000000000E+01 0.  1.
         25    2    1    2    0    0  0.67368686501E+01 -0.96043879519E+02  0.30653288204E+02  0.16073307027E+03  0.12500273440E+03 0.  0.
         25    2    1    2    0    0 -0.67368686501E+01  0.96043879519E+02 -0.17845162534E+03  0.23820122083E+03  0.12500010730E+03 0.  0.
          5    1    4    4  502    0  0.38582751546E+02 -0.33099431549E+01 -0.15476553491E+02  0.41966631370E+02  0.47000000000E+01 0. -1.
         -5    1    4    4    0  502 -0.45319620197E+02  0.99353822674E+02 -0.16297507185E+03  0.19623458946E+03  0.47000000000E+01 0. -1.
          5    1    3    3  503    0  0.21175246583E+02 -0.51777872311E+02 -0.44883445579E+02  0.71874563066E+02  0.47000000000E+01 0. -1.
         -5    1    3    3    0  503 -0.14438377933E+02 -0.44266007209E+02  0.75536733783E+02  0.88858507202E+02  0.47000000000E+01 0. -1.
<mgrwt>
<rscale>  0 0.15778255E+03</rscale>
<asrwt>0</asrwt>
<pdfrwt beam="2">  1        5 0.42056356E-01 0.15778307E+03</pdfrwt>
<pdfrwt beam="1">  1       -5 0.19318150E-01 0.15778307E+03</pdfrwt>
<totfact> 0.10157392E+02</totfact>
</mgrwt>
</event>
<event>
 8    1  0.3763376E-007  0.1377731E+03  0.7546771E-02  0.1216367E+00
         -5   -1    0    0    0  501 -0.00000000000E+00  0.00000000000E+00  0.80150013709E+02  0.80287699540E+02  0.47000000000E+01 0. -1.
          5   -1    0    0  501    0  0.00000000000E+00 -0.00000000000E+00 -0.23671689095E+03  0.23676354546E+03  0.47000000000E+01 0. -1.
         25    2    1    2    0    0  0.16540529887E+02 -0.55510406492E+02 -0.83978250880E+02  0.16134986881E+03  0.12500575661E+03 0.  0.
         25    2    1    2    0    0 -0.16540529887E+02  0.55510406492E+02 -0.72588626358E+02  0.15570137620E+03  0.12497525961E+03 0.  0.
          5    1    3    3  502    0 -0.16768921672E+02 -0.62813975177E+01  0.28534884918E+02  0.34014443199E+02  0.47000000000E+01 0.  1.
         -5    1    3    3    0  502  0.33309451559E+02 -0.49229008975E+02 -0.11251313580E+03  0.12733542561E+03  0.47000000000E+01 0.  1.
          5    1    4    4  503    0  0.48757049375E+02  0.17199445903E+02 -0.59091818483E+02  0.78657509589E+02  0.47000000000E+01 0.  1.
         -5    1    4    4    0  503 -0.65297579262E+02  0.38310960589E+02 -0.13496807876E+02  0.77043866606E+02  0.47000000000E+01 0.  1.
<mgrwt>
<rscale>  0 0.13776621E+03</rscale>
<asrwt>0</asrwt>
<pdfrwt beam="2">  1        5 0.36432163E-01 0.13777312E+03</pdfrwt>
<pdfrwt beam="1">  1       -5 0.12344951E-01 0.13777312E+03</pdfrwt>
<totfact> 0.29402823E+02</totfact>
</mgrwt>
</event>
<event>
 8    1  0.3763376E-007  0.1327904E+03  0.7546771E-02  0.1223373E+00
         -5   -1    0    0    0  501 -0.00000000000E+00  0.00000000000E+00  0.31624463441E+03  0.31627955798E+03  0.47000000000E+01 0.  1.
          5   -1    0    0  501    0  0.00000000000E+00 -0.00000000000E+00 -0.58119556723E+02  0.58309286342E+02  0.47000000000E+01 0.  1.
         25    2    1    2    0    0  0.43426868299E+02 -0.11039507753E+02  0.16782120068E+03  0.21400217291E+03  0.12500084397E+03 0.  0.
         25    2    1    2    0    0 -0.43426868299E+02  0.11039507753E+02  0.90303877012E+02  0.16058667141E+03  0.12500210081E+03 0.  0.
          5    1    4    4  502    0 -0.23241842781E+02 -0.56735028732E+02  0.48389578873E+02  0.78247607533E+02  0.47000000000E+01 0. -1.
         -5    1    4    4    0  502 -0.20185025518E+02  0.67774536485E+02  0.41914298139E+02  0.82339063873E+02  0.47000000000E+01 0. -1.
          5    1    3    3  503    0  0.37922295472E+02 -0.62004493863E+02  0.13367766876E+03  0.15223162246E+03  0.47000000000E+01 0. -1.
         -5    1    3    3    0  503  0.55045728277E+01  0.50964986110E+02  0.34143531920E+02  0.61770550452E+02  0.47000000000E+01 0. -1.
<mgrwt>
<rscale>  0 0.13279010E+03</rscale>
<asrwt>0</asrwt>
<pdfrwt beam="2">  1        5 0.89587514E-02 0.13279039E+03</pdfrwt>
<pdfrwt beam="1">  1       -5 0.48670301E-01 0.13279039E+03</pdfrwt>
<totfact> 0.28029565E+02</totfact>
</mgrwt>
</event>
<event>
 8    1  0.3763376E-007  0.1415717E+03  0.7546771E-02  0.1211230E+00
          5   -1    0    0  501    0  0.00000000000E+00  0.00000000000E+00  0.90689217447E+02  0.90810925340E+02  0.47000000000E+01 0.  1.
         -5   -1    0    0    0  501 -0.00000000000E+00 -0.00000000000E+00 -0.24911220564E+03  0.24915653915E+03  0.47000000000E+01 0.  1.
         25    2    1    2    0    0  0.15497238300E+02 -0.64631521090E+02 -0.13659169484E+03  0.19672235725E+03  0.12499998731E+03 0.  0.
         25    2    1    2    0    0 -0.15497238300E+02  0.64631521090E+02 -0.21831293351E+02  0.14324510724E+03  0.12500062986E+03 0.  0.
          5    1    4    4  502    0 -0.37296490170E+02  0.51470442020E+01  0.39621565356E+02  0.54858715664E+02  0.47000000000E+01 0. -1.
         -5    1    4    4    0  502  0.21799251870E+02  0.59484476888E+02 -0.61452858708E+02  0.88386391578E+02  0.47000000000E+01 0. -1.
          5    1    3    3  503    0 -0.33754652931E+02 -0.28899731503E+02 -0.12739445129E+03  0.13500373067E+03  0.47000000000E+01 0. -1.
         -5    1    3    3    0  503  0.49251891231E+02 -0.35731789587E+02 -0.91972435497E+01  0.61718626572E+02  0.47000000000E+01 0. -1.
<mgrwt>
<rscale>  0 0.14157159E+03</rscale>
<asrwt>0</asrwt>
<pdfrwt beam="1">  1        5 0.13964960E-01 0.14157173E+03</pdfrwt>
<pdfrwt beam="2">  1       -5 0.38337727E-01 0.14157173E+03</pdfrwt>
<totfact> 0.21469403E+02</totfact>
</mgrwt>
</event>
<event>
 8    1  0.3763376E-007  0.1581718E+03  0.7546771E-02  0.1190778E+00
         -5   -1    0    0    0  501 -0.00000000000E+00  0.00000000000E+00  0.10841662373E+03  0.10851845144E+03  0.47000000000E+01 0. -1.
          5   -1    0    0  501    0  0.00000000000E+00 -0.00000000000E+00 -0.23698612883E+03  0.23703273035E+03  0.47000000000E+01 0. -1.
         25    2    1    2    0    0 -0.70228087738E+02  0.66777961257E+02 -0.35757153365E+02  0.16216317770E+03  0.12500816681E+03 0.  0.
         25    2    1    2    0    0  0.70228087738E+02 -0.66777961257E+02 -0.92812351729E+02  0.18338800408E+03  0.12500298792E+03 0.  0.
          5    1    3    3  502    0 -0.10001765410E+03  0.59337919520E+02 -0.21641677273E+01  0.11641002296E+03  0.47000000000E+01 0.  1.
         -5    1    3    3    0  502  0.29789566359E+02  0.74400417369E+01 -0.33592985638E+02  0.45753154743E+02  0.47000000000E+01 0.  1.
          5    1    4    4  503    0 -0.34688303102E+02 -0.28164537221E+01 -0.18169090099E+02  0.39540063463E+02  0.47000000000E+01 0.  1.
         -5    1    4    4    0  503  0.10491639084E+03 -0.63961507535E+02 -0.74643261630E+02  0.14384794062E+03  0.47000000000E+01 0.  1.
<mgrwt>
<rscale>  0 0.15817079E+03</rscale>
<asrwt>0</asrwt>
<pdfrwt beam="2">  1        5 0.36470822E-01 0.15817181E+03</pdfrwt>
<pdfrwt beam="1">  1       -5 0.16690898E-01 0.15817181E+03</pdfrwt>
<totfact> 0.17822571E+02</totfact>
</mgrwt>
</event>
<event>
 8    1  0.3763376E-007  0.1796576E+03  0.7546771E-02  0.1168137E+00
         -5   -1    0    0    0  501 -0.00000000000E+00  0.00000000000E+00  0.33331108275E+03  0.33334421832E+03  0.47000000000E+01 0. -1.
          5   -1    0    0  501    0  0.00000000000E+00 -0.00000000000E+00 -0.99375866051E+02  0.99486947653E+02  0.47000000000E+01 0. -1.
         25    2    1    2    0    0  0.12500665551E+03 -0.31988067888E+02  0.15220811667E+03  0.23546582952E+03  0.12500778249E+03 0.  0.
         25    2    1    2    0    0 -0.12500665551E+03  0.31988067888E+02  0.81727100033E+02  0.19736533645E+03  0.12499542688E+03 0.  0.
          5    1    3    3  502    0  0.11893142651E+02 -0.53536144755E+02  0.87291540278E+02  0.10319626273E+03  0.47000000000E+01 0.  1.
         -5    1    3    3    0  502  0.11311351286E+03  0.21548076867E+02  0.64916576389E+02  0.13226956679E+03  0.47000000000E+01 0.  1.
          5    1    4    4  503    0 -0.13614168493E+03  0.59570956043E+02  0.74931296729E+02  0.16649338248E+03  0.47000000000E+01 0.  1.
         -5    1    4    4    0  503  0.11135029420E+02 -0.27582888156E+02  0.67958033033E+01  0.30871953967E+02  0.47000000000E+01 0.  1.
<mgrwt>
<rscale>  0 0.17965543E+03</rscale>
<asrwt>0</asrwt>
<pdfrwt beam="2">  1        5 0.15299688E-01 0.17965758E+03</pdfrwt>
<pdfrwt beam="1">  1       -5 0.51289722E-01 0.17965758E+03</pdfrwt>
<totfact> 0.10687500E+02</totfact>
</mgrwt>
</event>
<event>
 8    1  0.3763376E-007  0.1462231E+03  0.7546771E-02  0.1205195E+00
         -5   -1    0    0    0  501 -0.00000000000E+00  0.00000000000E+00  0.44587877982E+02  0.44834906746E+02  0.47000000000E+01 0. -1.
          5   -1    0    0  501    0  0.00000000000E+00 -0.00000000000E+00 -0.50618819210E+03  0.50621001158E+03  0.47000000000E+01 0. -1.
         25    2    1    2    0    0 -0.75110695193E+02  0.10722500921E+02 -0.16570977826E+03  0.22099980729E+03  0.12499838260E+03 0.  0.
         25    2    1    2    0    0  0.75110695193E+02 -0.10722500921E+02 -0.29589053585E+03  0.33004511103E+03  0.12498790962E+03 0.  0.
          5    1    3    3  502    0 -0.47677245010E+02  0.34339351607E+02 -0.17387558776E+03  0.18359499116E+03  0.47000000000E+01 0. -1.
         -5    1    3    3    0  502 -0.27433450183E+02 -0.23616850686E+02  0.81658094935E+01  0.37404816133E+02  0.47000000000E+01 0. -1.
          5    1    4    4  503    0  0.49658019661E+02 -0.50462781401E+02 -0.71625229297E+02  0.10082001138E+03  0.47000000000E+01 0. -1.
         -5    1    4    4    0  503  0.25452675532E+02  0.39740280480E+02 -0.22426530656E+03  0.22922509965E+03  0.47000000000E+01 0. -1.
<mgrwt>
<rscale>  0 0.14622082E+03</rscale>
<asrwt>0</asrwt>
<pdfrwt beam="2">  1        5 0.77895783E-01 0.14622306E+03</pdfrwt>
<pdfrwt beam="1">  1       -5 0.68803545E-02 0.14622306E+03</pdfrwt>
<totfact> 0.16153674E+02</totfact>
</mgrwt>
</event>
<event>
 8    1  0.3763376E-007  0.1274092E+03  0.7546771E-02  0.1231353E+00
         -5   -1    0    0    0  501 -0.00000000000E+00  0.00000000000E+00  0.52605216213E+03  0.52607315773E+03  0.47000000000E+01 0.  1.
          5   -1    0    0  501    0  0.00000000000E+00 -0.00000000000E+00 -0.37001857733E+02  0.37299161863E+02  0.47000000000E+01 0.  1.
         25    2    1    2    0    0  0.23801166752E+02 -0.64516724006E+01  0.36062266709E+03  0.38246695249E+03  0.12499656842E+03 0.  0.
         25    2    1    2    0    0 -0.23801166752E+02  0.64516724006E+01  0.12842763731E+03  0.18090536710E+03  0.12499989681E+03 0.  0.
          5    1    4    4  502    0  0.39458331471E+02  0.34039652261E+01  0.26096020252E+01  0.39968073815E+02  0.47000000000E+01 0.  1.
         -5    1    4    4    0  502 -0.63259498223E+02  0.30477071744E+01  0.12581803529E+03  0.14093729328E+03  0.47000000000E+01 0.  1.
          5    1    3    3  503    0 -0.48673901547E+01  0.45811119717E+02  0.59146654301E+02  0.75118352562E+02  0.47000000000E+01 0. -1.
         -5    1    3    3    0  503  0.28668556906E+02 -0.52262792117E+02  0.30147601278E+03  0.30734859993E+03  0.47000000000E+01 0. -1.
<mgrwt>
<rscale>  0 0.12740834E+03</rscale>
<asrwt>0</asrwt>
<pdfrwt beam="2">  1        5 0.57170786E-02 0.12740916E+03</pdfrwt>
<pdfrwt beam="1">  1       -5 0.80955580E-01 0.12740916E+03</pdfrwt>
<totfact> 0.19281122E+02</totfact>
</mgrwt>
</event>
<event>
 8    1  0.3763376E-007  0.1268633E+03  0.7546771E-02  0.1232189E+00
          5   -1    0    0  501    0  0.00000000000E+00  0.00000000000E+00  0.42121345121E+03  0.42123967225E+03  0.47000000000E+01 0.  1.
         -5   -1    0    0    0  501 -0.00000000000E+00 -0.00000000000E+00 -0.52294994551E+02  0.52505775445E+02  0.47000000000E+01 0.  1.
         25    2    1    2    0    0 -0.18383480364E+02  0.11450872428E+02  0.61084538315E+02  0.14079498443E+03  0.12499132766E+03 0.  0.
         25    2    1    2    0    0  0.18383480364E+02 -0.11450872428E+02  0.30783391834E+03  0.33295046327E+03  0.12500085951E+03 0.  0.
          5    1    3    3  502    0 -0.18648205051E+02  0.15083818321E+02  0.99226499420E+02  0.10219229577E+03  0.47000000000E+01 0.  1.
         -5    1    3    3    0  502  0.26472468728E+00 -0.36329458925E+01 -0.38141961106E+02  0.38602688663E+02  0.47000000000E+01 0.  1.
          5    1    4    4  503    0  0.29495994756E+02 -0.33745054432E+02  0.30398858930E+03  0.30731074636E+03  0.47000000000E+01 0. -1.
         -5    1    4    4    0  503 -0.11112514392E+02  0.22294182004E+02  0.38453290374E+01  0.25639716901E+02  0.47000000000E+01 0. -1.
<mgrwt>
<rscale>  0 0.12686092E+03</rscale>
<asrwt>0</asrwt>
<pdfrwt beam="1">  1        5 0.64820301E-01 0.12686327E+03</pdfrwt>
<pdfrwt beam="2">  1       -5 0.80636146E-02 0.12686327E+03</pdfrwt>
<totfact> 0.17795313E+02</totfact>
</mgrwt>
</event>
<event>
 8    1  0.3763376E-007  0.1393251E+03  0.7546771E-02  0.1214241E+00
         -5   -1    0    0    0  501 -0.00000000000E+00  0.00000000000E+00  0.64658819541E+02  0.64829414192E+02  0.47000000000E+01 0. -1.
          5   -1    0    0  501    0  0.00000000000E+00 -0.00000000000E+00 -0.30393693275E+03  0.30397327036E+03  0.47000000000E+01 0. -1.
         25    2    1    2    0    0 -0.53055622407E+02  0.31169775597E+02 -0.97681005030E+02  0.17015418916E+03  0.12499766144E+03 0.  0.
         25    2    1    2    0    0  0.53055622407E+02 -0.31169775597E+02 -0.14159710818E+03  0.19864849539E+03  0.12500011878E+03 0.  0.
          5    1    4    4  502    0 -0.62142070877E+01  0.42132678346E+01  0.20538817961E+02  0.22367410195E+02  0.47000000000E+01 0.  1.
         -5    1    4    4    0  502  0.59269829495E+02 -0.35383043431E+02 -0.16213592614E+03  0.17628108519E+03  0.47000000000E+01 0.  1.
          5    1    3    3  503    0 -0.77156653369E+02  0.13285532799E+02 -0.12124300458E+02  0.79364621857E+02  0.47000000000E+01 0.  1.
         -5    1    3    3    0  503  0.24101030962E+02  0.17884242798E+02 -0.85556704572E+02  0.90789567303E+02  0.47000000000E+01 0.  1.
<mgrwt>
<rscale>  0 0.13932455E+03</rscale>
<asrwt>0</asrwt>
<pdfrwt beam="2">  1        5 0.46775445E-01 0.13932510E+03</pdfrwt>
<pdfrwt beam="1">  1       -5 0.99634287E-02 0.13932510E+03</pdfrwt>
<totfact> 0.25751731E+02</totfact>
</mgrwt>
</event>
<event>
 8    1  0.3763376E-007  0.1268307E+03  0.7546771E-02  0.1232261E+00
          5   -1    0    0  501    0  0.00000000000E+00  0.00000000000E+00  0.53483294100E+03  0.53485359191E+03  0.47000000000E+01 0.  1.
         -5   -1    0    0    0  501 -0.00000000000E+00 -0.00000000000E+00 -0.49294770017E+02  0.49518323386E+02  0.47000000000E+01 0.  1.
         25    2    1    2    0    0  0.93240132651E+00 -0.21420162021E+02  0.59834632865E+02  0.14017654617E+03  0.12493833717E+03 0.  0.
         25    2    1    2    0    0 -0.93240132651E+00  0.21420162021E+02  0.42570353812E+03  0.44419536912E+03  0.12500532337E+03 0.  0.
          5    1    4    4  502    0  0.32406830747E+02  0.40611087090E+02  0.75013820540E+02  0.91370817802E+02  0.47000000000E+01 0.  1.
         -5    1    4    4    0  502 -0.33339232073E+02 -0.19190925069E+02  0.35068971758E+03  0.35282455132E+03  0.47000000000E+01 0.  1.
          5    1    3    3  503    0 -0.56893762247E+02 -0.20410292201E+02  0.58265499836E+01  0.60905819879E+02  0.47000000000E+01 0.  1.
         -5    1    3    3    0  503  0.57826163574E+02 -0.10098698200E+01  0.54008082881E+02  0.79270726294E+02  0.47000000000E+01 0.  1.
<mgrwt>
<rscale>  0 0.12681418E+03</rscale>
<asrwt>0</asrwt>
<pdfrwt beam="1">  1        5 0.82300778E-01 0.12683069E+03</pdfrwt>
<pdfrwt beam="2">  1       -5 0.76025955E-02 0.12683069E+03</pdfrwt>
<totfact> 0.11449146E+02</totfact>
</mgrwt>
</event>
<event>
 8    1  0.3763376E-007  0.1363134E+03  0.7546771E-02  0.1218380E+00
          5   -1    0    0  501    0  0.00000000000E+00  0.00000000000E+00  0.50396597188E+02  0.50615284333E+02  0.47000000000E+01 0.  1.
         -5   -1    0    0    0  501 -0.00000000000E+00 -0.00000000000E+00 -0.38600139583E+03  0.38603000865E+03  0.47000000000E+01 0.  1.
         25    2    1    2    0    0 -0.38703778287E+02  0.38169830135E+02 -0.21539001510E+03  0.25490038884E+03  0.12500572484E+03 0.  0.
         25    2    1    2    0    0  0.38703778287E+02 -0.38169830135E+02 -0.12021478355E+03  0.18174490414E+03  0.12499879045E+03 0.  0.
          5    1    4    4  502    0 -0.28508414362E+02 -0.22613870183E+02 -0.10460913232E+03  0.11085701321E+03  0.47000000000E+01 0.  1.
         -5    1    4    4    0  502  0.67212192649E+02 -0.15555959952E+02 -0.15605651228E+02  0.70887890933E+02  0.47000000000E+01 0.  1.
          5    1    3    3  503    0 -0.63019320619E+02 -0.89523762264E-01 -0.19497705849E+03  0.20496240173E+03  0.47000000000E+01 0. -1.
         -5    1    3    3    0  503  0.24315542332E+02  0.38259353897E+02 -0.20412956607E+02  0.49937987114E+02  0.47000000000E+01 0. -1.
<mgrwt>
<rscale>  0 0.13631183E+03</rscale>
<asrwt>0</asrwt>
<pdfrwt beam="1">  1        5 0.77723460E-02 0.13631342E+03</pdfrwt>
<pdfrwt beam="2">  1       -5 0.59403851E-01 0.13631342E+03</pdfrwt>
<totfact> 0.23543775E+02</totfact>
</mgrwt>
</event>
<event>
 8    1  0.3763376E-007  0.1477591E+03  0.7546771E-02  0.1203265E+00
         -5   -1    0    0    0  501 -0.00000000000E+00  0.00000000000E+00  0.22860597721E+03  0.22865428668E+03  0.47000000000E+01 0.  1.
          5   -1    0    0  501    0  0.00000000000E+00 -0.00000000000E+00 -0.95870865426E+02  0.95986003342E+02  0.47000000000E+01 0.  1.
         25    2    1    2    0    0 -0.70370166269E+02 -0.35294108327E+02  0.54592949725E+02  0.15752184860E+03  0.12504042644E+03 0.  0.
         25    2    1    2    0    0  0.70370166269E+02  0.35294108327E+02  0.78142162059E+02  0.16711844142E+03  0.12499896635E+03 0.  0.
          5    1    4    4  502    0  0.64286924225E+02 -0.12205274221E+02 -0.10325883024E+02  0.66411529160E+02  0.47000000000E+01 0. -1.
         -5    1    4    4    0  502  0.60832420445E+01  0.47499382549E+02  0.88468045083E+02  0.10070691226E+03  0.47000000000E+01 0. -1.
          5    1    3    3  503    0 -0.27702563869E+02  0.21556273133E+02 -0.30365381609E+02  0.46650309287E+02  0.47000000000E+01 0.  1.
         -5    1    3    3    0  503 -0.42667602400E+02 -0.56850381460E+02  0.84958331333E+02  0.11087153931E+03  0.47000000000E+01 0.  1.
<mgrwt>
<rscale>  0 0.14775030E+03</rscale>
<asrwt>0</asrwt>
<pdfrwt beam="2">  1        5 0.14761937E-01 0.14775907E+03</pdfrwt>
<pdfrwt beam="1">  1       -5 0.35182723E-01 0.14775907E+03</pdfrwt>
<totfact> 0.23436674E+02</totfact>
</mgrwt>
</event>
<event>
 8    1  0.3763376E-007  0.2524355E+03  0.7546771E-02  0.1111776E+00
          5   -1    0    0  501    0  0.00000000000E+00  0.00000000000E+00  0.38792160119E+03  0.38795007239E+03  0.47000000000E+01 0. -1.
         -5   -1    0    0    0  501 -0.00000000000E+00 -0.00000000000E+00 -0.16420566514E+03  0.16427291458E+03  0.47000000000E+01 0. -1.
         25    2    1    2    0    0 -0.30156121592E+02 -0.21723174034E+03  0.11012592590E+03  0.27541137424E+03  0.12499873929E+03 0.  0.
         25    2    1    2    0    0  0.30156121592E+02  0.21723174034E+03  0.11359001015E+03  0.27681161273E+03  0.12499183117E+03 0.  0.
          5    1    3    3  502    0 -0.51132521124E+02 -0.14286390015E+03  0.12491712432E+03  0.19659859265E+03  0.47000000000E+01 0.  1.
         -5    1    3    3    0  502  0.20976399531E+02 -0.74367840188E+02 -0.14791198420E+02  0.78812781592E+02  0.47000000000E+01 0.  1.
          5    1    4    4  503    0  0.75139823274E+01  0.44305273566E+02  0.90069921986E+02  0.10076754459E+03  0.47000000000E+01 0. -1.
         -5    1    4    4    0  503  0.22642139265E+02  0.17292646677E+03  0.23520088162E+02  0.17604406814E+03  0.47000000000E+01 0. -1.
<mgrwt>
<rscale>  0 0.25243469E+03</rscale>
<asrwt>0</asrwt>
<pdfrwt beam="1">  1        5 0.59687610E-01 0.25243555E+03</pdfrwt>
<pdfrwt beam="2">  1       -5 0.25269773E-01 0.25243555E+03</pdfrwt>
<totfact> 0.32700354E+01</totfact>
</mgrwt>
</event>
<event>
 8    1  0.3763376E-007  0.1296913E+03  0.7546771E-02  0.1227918E+00
          5   -1    0    0  501    0  0.00000000000E+00  0.00000000000E+00  0.31413535270E+02  0.31763189357E+02  0.47000000000E+01 0. -1.
         -5   -1    0    0    0  501 -0.00000000000E+00 -0.00000000000E+00 -0.56891092994E+03  0.56893034390E+03  0.47000000000E+01 0. -1.
         25    2    1    2    0    0  0.33880160607E+02  0.68699698654E+01 -0.34514007827E+03  0.36869965375E+03  0.12499079676E+03 0.  0.
         25    2    1    2    0    0 -0.33880160607E+02 -0.68699698654E+01 -0.19235731640E+03  0.23199387950E+03  0.12499904475E+03 0.  0.
          5    1    3    3  502    0 -0.26891120587E+02  0.48306999190E+02 -0.16431371789E+03  0.17342948545E+03  0.47000000000E+01 0. -1.
         -5    1    3    3    0  502  0.60771281194E+02 -0.41437029324E+02 -0.18082636039E+03  0.19527016830E+03  0.47000000000E+01 0. -1.
          5    1    4    4  503    0 -0.32439060139E+02 -0.24548007622E+02 -0.22602977818E+01  0.41013366687E+02  0.47000000000E+01 0. -1.
         -5    1    4    4    0  503 -0.14411004675E+01  0.17678037757E+02 -0.19009701862E+03  0.19098051282E+03  0.47000000000E+01 0. -1.
<mgrwt>
<rscale>  0 0.12968927E+03</rscale>
<asrwt>0</asrwt>
<pdfrwt beam="1">  1        5 0.48612418E-02 0.12969126E+03</pdfrwt>
<pdfrwt beam="2">  1       -5 0.87553141E-01 0.12969126E+03</pdfrwt>
<totfact> 0.21166678E+02</totfact>
</mgrwt>
</event>
<event>
 8    1  0.3763376E-007  0.1287387E+03  0.7546771E-02  0.1229340E+00
         -5   -1    0    0    0  501 -0.00000000000E+00  0.00000000000E+00  0.24706764419E+03  0.24711234450E+03  0.47000000000E+01 0. -1.
          5   -1    0    0  501    0  0.00000000000E+00 -0.00000000000E+00 -0.71485712688E+02  0.71640052474E+02  0.47000000000E+01 0. -1.
         25    2    1    2    0    0 -0.30665289023E+02  0.29359230173E+01  0.12789209916E+03  0.18146638211E+03  0.12499871684E+03 0.  0.
         25    2    1    2    0    0  0.30665289023E+02 -0.29359230173E+01  0.47689832343E+02  0.13728601487E+03  0.12499660066E+03 0.  0.
          5    1    4    4  502    0  0.48212263174E+01  0.50713386252E+02 -0.12312105036E+02  0.52619100132E+02  0.47000000000E+01 0.  1.
         -5    1    4    4    0  502  0.25844062705E+02 -0.53649309269E+02  0.60001937379E+02  0.84666914739E+02  0.47000000000E+01 0.  1.
          5    1    3    3  503    0 -0.36790770282E+02 -0.54927997098E+02  0.90376416699E+02  0.11207422691E+03  0.47000000000E+01 0.  1.
         -5    1    3    3    0  503  0.61254812596E+01  0.57863920115E+02  0.37515682463E+02  0.69392155193E+02  0.47000000000E+01 0.  1.
<mgrwt>
<rscale>  0 0.12873821E+03</rscale>
<asrwt>0</asrwt>
<pdfrwt beam="2">  1        5 0.11013113E-01 0.12873872E+03</pdfrwt>
<pdfrwt beam="1">  1       -5 0.38025717E-01 0.12873872E+03</pdfrwt>
<totfact> 0.32212255E+02</totfact>
</mgrwt>
</event>
<event>
 8    1  0.3763376E-007  0.1273206E+03  0.7546771E-02  0.1231493E+00
          5   -1    0    0  501    0  0.00000000000E+00  0.00000000000E+00  0.13512072938E+04  0.13512154680E+04  0.47000000000E+01 0.  1.
         -5   -1    0    0    0  501 -0.00000000000E+00 -0.00000000000E+00 -0.11881291499E+02  0.12777131434E+02  0.47000000000E+01 0.  1.
         25    2    1    2    0    0 -0.23804560378E+02 -0.30956217188E+01  0.55614890973E+03  0.57053671338E+03  0.12503716067E+03 0.  0.
         25    2    1    2    0    0  0.23804560378E+02  0.30956217188E+01  0.78317709262E+03  0.79345588605E+03  0.12501857757E+03 0.  0.
          5    1    4    4  502    0  0.19826282871E+01  0.42557180956E+02  0.10028697529E+03  0.10906242194E+03  0.47000000000E+01 0.  1.
         -5    1    4    4    0  502  0.21821932091E+02 -0.39461559237E+02  0.68289011732E+03  0.68439346411E+03  0.47000000000E+01 0.  1.
          5    1    3    3  503    0  0.24916935796E+02  0.15646588825E+02  0.31810453824E+02  0.43585139714E+02  0.47000000000E+01 0.  1.
         -5    1    3    3    0  503 -0.48721496175E+02 -0.18742210544E+02  0.52433845591E+03  0.52695157366E+03  0.47000000000E+01 0.  1.
<mgrwt>
<rscale>  0 0.12731602E+03</rscale>
<asrwt>0</asrwt>
<pdfrwt beam="1">  1        5 0.20794751E+00 0.12732059E+03</pdfrwt>
<pdfrwt beam="2">  1       -5 0.18974312E-02 0.12732059E+03</pdfrwt>
<totfact> 0.95273029E+01</totfact>
</mgrwt>
</event>
<event>
 8    1  0.3763376E-007  0.1251996E+03  0.7546771E-02  0.1234761E+00
         -5   -1    0    0    0  501 -0.00000000000E+00  0.00000000000E+00  0.18644297295E+03  0.18650220418E+03  0.47000000000E+01 0.  1.
          5   -1    0    0  501    0  0.00000000000E+00 -0.00000000000E+00 -0.84860881406E+02  0.84990935947E+02  0.47000000000E+01 0.  1.
         25    2    1    2    0    0 -0.70361135916E+01  0.95431775902E+00  0.64995769786E+02  0.14106521858E+03  0.12499811273E+03 0.  0.
         25    2    1    2    0    0  0.70361135916E+01 -0.95431775902E+00  0.36586321757E+02  0.13042792154E+03  0.12498986424E+03 0.  0.
          5    1    3    3  502    0 -0.27693027365E+02 -0.55237269890E+02  0.17193027183E+02  0.64309796558E+02  0.47000000000E+01 0. -1.
         -5    1    3    3    0  502  0.20656913774E+02  0.56191587649E+02  0.47802742603E+02  0.76755422021E+02  0.47000000000E+01 0. -1.
          5    1    4    4  503    0 -0.56772857475E+02  0.10029085618E+01  0.56858729288E+00  0.56978736937E+02  0.47000000000E+01 0. -1.
         -5    1    4    4    0  503  0.63808971066E+02 -0.19572263209E+01  0.36017734464E+02  0.73449184606E+02  0.47000000000E+01 0. -1.
<mgrwt>
<rscale>  0 0.12519756E+03</rscale>
<asrwt>0</asrwt>
<pdfrwt beam="2">  1        5 0.13070081E-01 0.12519962E+03</pdfrwt>
<pdfrwt beam="1">  1       -5 0.28698094E-01 0.12519962E+03</pdfrwt>
<totfact> 0.41176727E+02</totfact>
</mgrwt>
</event>
<event>
 8    1  0.3763376E-007  0.1434831E+03  0.7546771E-02  0.1208721E+00
         -5   -1    0    0    0  501 -0.00000000000E+00  0.00000000000E+00  0.43269550917E+03  0.43272103446E+03  0.47000000000E+01 0. -1.
          5   -1    0    0  501    0  0.00000000000E+00 -0.00000000000E+00 -0.49530213426E+02  0.49752708891E+02  0.47000000000E+01 0. -1.
         25    2    1    2    0    0  0.36161903848E+02  0.60447326606E+02  0.24110906508E+03  0.28057259267E+03  0.12500334358E+03 0.  0.
         25    2    1    2    0    0 -0.36161903848E+02 -0.60447326606E+02  0.14205623067E+03  0.20190115068E+03  0.12499015718E+03 0.  0.
          5    1    3    3  502    0  0.39679588852E+02 -0.21138130945E+02  0.30216762418E+02  0.54373091528E+02  0.47000000000E+01 0.  1.
         -5    1    3    3    0  502 -0.35176850037E+01  0.81585457550E+02  0.21089230266E+03  0.22619950114E+03  0.47000000000E+01 0.  1.
          5    1    4    4  503    0 -0.35750212298E+01 -0.95019484863E+02  0.10260043243E+03  0.13996578873E+03  0.47000000000E+01 0. -1.
         -5    1    4    4    0  503 -0.32586882619E+02  0.34572158257E+02  0.39455798234E+02  0.61935361948E+02  0.47000000000E+01 0. -1.
<mgrwt>
<rscale>  0 0.14348022E+03</rscale>
<asrwt>0</asrwt>
<pdfrwt beam="2">  1        5 0.76391108E-02 0.14348309E+03</pdfrwt>
<pdfrwt beam="1">  1       -5 0.66587623E-01 0.14348309E+03</pdfrwt>
<totfact> 0.19171515E+02</totfact>
</mgrwt>
</event>
<event>
 8    1  0.3763376E-007  0.1375362E+03  0.7546771E-02  0.1216687E+00
         -5   -1    0    0    0  501 -0.00000000000E+00  0.00000000000E+00  0.40182441862E+03  0.40185190481E+03  0.47000000000E+01 0. -1.
          5   -1    0    0  501    0  0.00000000000E+00 -0.00000000000E+00 -0.48118609474E+02  0.48347601572E+02  0.47000000000E+01 0. -1.
         25    2    1    2    0    0  0.37101061417E+02  0.43729302235E+02  0.21220616584E+03  0.25287872719E+03  0.12500981246E+03 0.  0.
         25    2    1    2    0    0 -0.37101061417E+02 -0.43729302235E+02  0.14149964330E+03  0.19732077919E+03  0.12499840084E+03 0.  0.
          5    1    4    4  502    0  0.10992640880E+02 -0.76844531840E+02  0.93285562944E+02  0.12145042808E+03  0.47000000000E+01 0.  1.
         -5    1    4    4    0  502 -0.48093702297E+02  0.33115229604E+02  0.48214080357E+02  0.75870351106E+02  0.47000000000E+01 0.  1.
          5    1    3    3  503    0  0.34124418698E+02  0.82737797443E+02  0.10168290944E+03  0.13554159196E+03  0.47000000000E+01 0. -1.
         -5    1    3    3    0  503  0.29766427194E+01 -0.39008495208E+02  0.11052325640E+03  0.11733713524E+03  0.47000000000E+01 0. -1.
<mgrwt>
<rscale>  0 0.13753356E+03</rscale>
<asrwt>0</asrwt>
<pdfrwt beam="2">  1        5 0.74225919E-02 0.13753615E+03</pdfrwt>
<pdfrwt beam="1">  1       -5 0.61838872E-01 0.13753615E+03</pdfrwt>
<totfact> 0.23393050E+02</totfact>
</mgrwt>
</event>
<event>
 8    1  0.3763376E-007  0.1520367E+03  0.7546771E-02  0.1198010E+00
         -5   -1    0    0    0  501 -0.00000000000E+00  0.00000000000E+00  0.10793040938E+02  0.11771989326E+02  0.47000000000E+01 0.  1.
          5   -1    0    0  501    0  0.00000000000E+00 -0.00000000000E+00 -0.21533069057E+04  0.21533120350E+04  0.47000000000E+01 0.  1.
         25    2    1    2    0    0  0.19071782948E+02 -0.84330392245E+02 -0.83058298023E+03  0.84437292207E+03  0.12498878557E+03 0.  0.
         25    2    1    2    0    0 -0.19071782948E+02  0.84330392245E+02 -0.13119308846E+04  0.13207111023E+04  0.12505927357E+03 0.  0.
          5    1    4    4  502    0  0.34883278900E+02  0.53511312139E+02 -0.10293635961E+04  0.10313543555E+04  0.47000000000E+01 0. -1.
         -5    1    4    4    0  502 -0.53955061848E+02  0.30819080106E+02 -0.28256728846E+03  0.28935674678E+03  0.47000000000E+01 0. -1.
          5    1    3    3  503    0 -0.51785713531E+02 -0.53056083463E+02 -0.39131570200E+03  0.39830487914E+03  0.47000000000E+01 0.  1.
         -5    1    3    3    0  503  0.70857496479E+02 -0.31274308783E+02 -0.43926727823E+03  0.44606804293E+03  0.47000000000E+01 0.  1.
<mgrwt>
<rscale>  0 0.15202224E+03</rscale>
<asrwt>0</asrwt>
<pdfrwt beam="2">  1        5 0.33135336E+00 0.15203674E+03</pdfrwt>
<pdfrwt beam="1">  1       -5 0.17361678E-02 0.15203674E+03</pdfrwt>
<totfact> 0.18748660E+01</totfact>
</mgrwt>
</event>
<event>
 8    1  0.3763376E-007  0.1340067E+03  0.7546771E-02  0.1221629E+00
          5   -1    0    0  501    0  0.00000000000E+00  0.00000000000E+00  0.10393023514E+04  0.10393129787E+04  0.47000000000E+01 0. -1.
         -5   -1    0    0    0  501 -0.00000000000E+00 -0.00000000000E+00 -0.22997938498E+02  0.23473286415E+02  0.47000000000E+01 0. -1.
         25    2    1    2    0    0  0.48299385687E+02  0.57810688509E+00  0.23891044478E+03  0.27392697776E+03  0.12499849462E+03 0.  0.
         25    2    1    2    0    0 -0.48299385687E+02 -0.57810688509E+00  0.77739396816E+03  0.78885928736E+03  0.12499771457E+03 0.  0.
          5    1    4    4  502    0 -0.61999292154E+02 -0.40510764006E+02  0.65726626113E+03  0.66144241037E+03  0.47000000000E+01 0.  1.
         -5    1    4    4    0  502  0.13699906467E+02  0.39932657121E+02  0.12012770704E+03  0.12741687698E+03  0.47000000000E+01 0.  1.
          5    1    3    3  503    0 -0.63656324732E+01 -0.11747005886E+02 -0.10895761218E+02  0.17869556138E+02  0.47000000000E+01 0.  1.
         -5    1    3    3    0  503  0.54665018161E+02  0.12325112771E+02  0.24980620600E+03  0.25605742163E+03  0.47000000000E+01 0.  1.
<mgrwt>
<rscale>  0 0.13400649E+03</rscale>
<asrwt>0</asrwt>
<pdfrwt beam="1">  1        5 0.15993001E+00 0.13400667E+03</pdfrwt>
<pdfrwt beam="2">  1       -5 0.35755279E-02 0.13400667E+03</pdfrwt>
<totfact> 0.76396499E+01</totfact>
</mgrwt>
</event>
<event>
 8    1  0.3763376E-007  0.1660772E+03  0.7546771E-02  0.1182006E+00
          5   -1    0    0  501    0  0.00000000000E+00  0.00000000000E+00  0.10542864893E+03  0.10553335973E+03  0.47000000000E+01 0.  1.
         -5   -1    0    0    0  501 -0.00000000000E+00 -0.00000000000E+00 -0.33691739340E+03  0.33695017432E+03  0.47000000000E+01 0.  1.
         25    2    1    2    0    0  0.10893472724E+03  0.94587642332E+01 -0.22051546232E+03  0.27605925790E+03  0.12500160691E+03 0.  0.
         25    2    1    2    0    0 -0.10893472724E+03 -0.94587642332E+01 -0.10973282148E+02  0.16642427616E+03  0.12498153365E+03 0.  0.
          5    1    3    3  502    0  0.10226930840E+01  0.46371650573E+02 -0.98490769108E+02  0.10896741475E+03  0.47000000000E+01 0. -1.
         -5    1    3    3    0  502  0.10791203415E+03 -0.36912886339E+02 -0.12202469321E+03  0.16709184315E+03  0.47000000000E+01 0. -1.
          5    1    4    4  503    0 -0.42206694191E+02 -0.55696212429E+02 -0.39301850516E+02  0.80313128238E+02  0.47000000000E+01 0.  1.
         -5    1    4    4    0  503 -0.66728033047E+02  0.46237448196E+02  0.28328568367E+02  0.86111147918E+02  0.47000000000E+01 0.  1.
<mgrwt>
<rscale>  0 0.16607345E+03</rscale>
<asrwt>0</asrwt>
<pdfrwt beam="1">  1        5 0.16230369E-01 0.16607723E+03</pdfrwt>
<pdfrwt beam="2">  1       -5 0.51844021E-01 0.16607723E+03</pdfrwt>
<totfact> 0.91637463E+01</totfact>
</mgrwt>
</event>
<event>
 8    1  0.3763376E-007  0.1339436E+03  0.7546771E-02  0.1221719E+00
          5   -1    0    0  501    0  0.00000000000E+00  0.00000000000E+00  0.50992021122E+03  0.50994187101E+03  0.47000000000E+01 0. -1.
         -5   -1    0    0    0  501 -0.00000000000E+00 -0.00000000000E+00 -0.37880810096E+02  0.38171268954E+02  0.47000000000E+01 0. -1.
         25    2    1    2    0    0  0.25326725618E+02 -0.40933417137E+02  0.16081789128E+03  0.20929208409E+03  0.12499517846E+03 0.  0.
         25    2    1    2    0    0 -0.25326725618E+02  0.40933417137E+02  0.31122150984E+03  0.33882105588E+03  0.12499556811E+03 0.  0.
          5    1    4    4  502    0  0.20093152555E+01  0.33864406849E+02  0.92217224314E+01  0.35467810246E+02  0.47000000000E+01 0. -1.
         -5    1    4    4    0  502 -0.27336040874E+02  0.70690102886E+01  0.30199978741E+03  0.30335324563E+03  0.47000000000E+01 0. -1.
          5    1    3    3  503    0  0.73918069988E+02 -0.24794183415E+02  0.69778766542E+02  0.10473680758E+03  0.47000000000E+01 0.  1.
         -5    1    3    3    0  503 -0.48591344370E+02 -0.16139233722E+02  0.91039124733E+02  0.10455527650E+03  0.47000000000E+01 0.  1.
<mgrwt>
<rscale>  0 0.13394348E+03</rscale>
<asrwt>0</asrwt>
<pdfrwt beam="1">  1        5 0.78473267E-01 0.13394357E+03</pdfrwt>
<pdfrwt beam="2">  1       -5 0.58518264E-02 0.13394357E+03</pdfrwt>
<totfact> 0.20276860E+02</totfact>
</mgrwt>
</event>
<event>
 8    1  0.3763376E-007  0.1260260E+03  0.7546771E-02  0.1233477E+00
          5   -1    0    0  501    0  0.00000000000E+00  0.00000000000E+00  0.82392108085E+02  0.82526053309E+02  0.47000000000E+01 0.  1.
         -5   -1    0    0    0  501 -0.00000000000E+00 -0.00000000000E+00 -0.21997519036E+03  0.22002539484E+03  0.47000000000E+01 0.  1.
         25    2    1    2    0    0 -0.91274184694E+01 -0.13189357603E+02 -0.12229109045E+03  0.17560105969E+03  0.12499340958E+03 0.  0.
         25    2    1    2    0    0  0.91274184694E+01  0.13189357603E+02 -0.15291991824E+02  0.12695038846E+03  0.12500114877E+03 0.  0.
          5    1    4    4  502    0  0.62220666663E+02 -0.16895124720E+02 -0.11208352664E+02  0.65609250634E+02  0.47000000000E+01 0.  1.
         -5    1    4    4    0  502 -0.53093248194E+02  0.30084482323E+02 -0.40836391608E+01  0.61341137821E+02  0.47000000000E+01 0.  1.
          5    1    3    3  503    0 -0.52915217334E+02 -0.33733084000E+02 -0.10791702671E+03  0.12492444050E+03  0.47000000000E+01 0. -1.
         -5    1    3    3    0  503  0.43787798864E+02  0.20543726397E+02 -0.14374063739E+02  0.50676619185E+02  0.47000000000E+01 0. -1.
<mgrwt>
<rscale>  0 0.12602409E+03</rscale>
<asrwt>0</asrwt>
<pdfrwt beam="1">  1        5 0.12689874E-01 0.12602601E+03</pdfrwt>
<pdfrwt beam="2">  1       -5 0.33856502E-01 0.12602601E+03</pdfrwt>
<totfact> 0.31417201E+02</totfact>
</mgrwt>
</event>
<event>
 8    1  0.3763376E-007  0.1287932E+03  0.7546771E-02  0.1229261E+00
         -5   -1    0    0    0  501 -0.00000000000E+00  0.00000000000E+00  0.32979298452E+03  0.32982647352E+03  0.47000000000E+01 0. -1.
          5   -1    0    0  501    0  0.00000000000E+00 -0.00000000000E+00 -0.52531675785E+02  0.52741510793E+02  0.47000000000E+01 0. -1.
         25    2    1    2    0    0 -0.16107733149E+02  0.26479444298E+02  0.17929218636E+03  0.22075636161E+03  0.12500825199E+03 0.  0.
         25    2    1    2    0    0  0.16107733149E+02 -0.26479444298E+02  0.97969122374E+02  0.16181162271E+03  0.12499772904E+03 0.  0.
          5    1    3    3  502    0  0.31413637745E+02 -0.39634791925E+01  0.15645094027E+03  0.15969193002E+03  0.47000000000E+01 0. -1.
         -5    1    3    3    0  502 -0.47521370894E+02  0.30442923491E+02  0.22841246091E+02  0.61064431589E+02  0.47000000000E+01 0. -1.
          5    1    4    4  503    0 -0.20417152763E+01  0.49195010884E+02  0.26824012340E+02  0.56266644961E+02  0.47000000000E+01 0.  1.
         -5    1    4    4    0  503  0.18149448425E+02 -0.75674455182E+02  0.71145110034E+02  0.10554497774E+03  0.47000000000E+01 0.  1.
<mgrwt>
<rscale>  0 0.12879063E+03</rscale>
<asrwt>0</asrwt>
<pdfrwt beam="2">  1        5 0.81005137E-02 0.12879318E+03</pdfrwt>
<pdfrwt beam="1">  1       -5 0.50756098E-01 0.12879318E+03</pdfrwt>
<totfact> 0.30168037E+02</totfact>
</mgrwt>
</event>
<event>
 8    1  0.3763376E-007  0.1492666E+03  0.7546771E-02  0.1201377E+00
          5   -1    0    0  501    0  0.00000000000E+00  0.00000000000E+00  0.29689179638E+02  0.30058898642E+02  0.47000000000E+01 0. -1.
         -5   -1    0    0    0  501 -0.00000000000E+00 -0.00000000000E+00 -0.75552757408E+03  0.75554219287E+03  0.47000000000E+01 0. -1.
         25    2    1    2    0    0  0.74880719156E+02  0.32385383735E+02 -0.40830946637E+03  0.43473766351E+03  0.12499712224E+03 0.  0.
         25    2    1    2    0    0 -0.74880719156E+02 -0.32385383735E+02 -0.31752892808E+03  0.35086342800E+03  0.12499835902E+03 0.  0.
          5    1    4    4  502    0 -0.87392186306E+02  0.22330103779E+02 -0.16242543548E+03  0.18584977765E+03  0.47000000000E+01 0.  1.
         -5    1    4    4    0  502  0.12511467150E+02 -0.54715487514E+02 -0.15510349260E+03  0.16501365034E+03  0.47000000000E+01 0.  1.
          5    1    3    3  503    0  0.46869997380E+02 -0.14121991099E+02 -0.42815090559E+02  0.65203138472E+02  0.47000000000E+01 0. -1.
         -5    1    3    3    0  503  0.28010721776E+02  0.46507374834E+02 -0.36549437581E+03  0.36953452504E+03  0.47000000000E+01 0. -1.
<mgrwt>
<rscale>  0 0.14926636E+03</rscale>
<asrwt>0</asrwt>
<pdfrwt beam="1">  1        5 0.45971311E-02 0.14926662E+03</pdfrwt>
<pdfrwt beam="2">  1       -5 0.11626456E+00 0.14926662E+03</pdfrwt>
<totfact> 0.12172749E+02</totfact>
</mgrwt>
</event>
<event>
 8    1  0.3763376E-007  0.1261386E+03  0.7546771E-02  0.1233303E+00
          5   -1    0    0  501    0  0.00000000000E+00  0.00000000000E+00  0.65584501322E+03  0.65586185387E+03  0.47000000000E+01 0.  1.
         -5   -1    0    0    0  501 -0.00000000000E+00 -0.00000000000E+00 -0.25474567045E+02  0.25904508607E+02  0.47000000000E+01 0.  1.
         25    2    1    2    0    0 -0.13983125862E+02 -0.94699700680E+01  0.23428983522E+03  0.26608524029E+03  0.12499768027E+03 0.  0.
         25    2    1    2    0    0  0.13983125862E+02  0.94699700680E+01  0.39608061095E+03  0.41568112219E+03  0.12500294727E+03 0.  0.
          5    1    4    4  502    0  0.66394681186E+02  0.24509296344E+02  0.24134218525E+03  0.25154939809E+03  0.47000000000E+01 0. -1.
         -5    1    4    4    0  502 -0.52411555324E+02 -0.15039326276E+02  0.15473842570E+03  0.16413172410E+03  0.47000000000E+01 0. -1.
          5    1    3    3  503    0  0.36281344001E+01 -0.13166924274E+02 -0.12192739117E+02  0.18901961306E+02  0.47000000000E+01 0.  1.
         -5    1    3    3    0  503 -0.17611260262E+02  0.36969542058E+01  0.24648257434E+03  0.24718327899E+03  0.47000000000E+01 0.  1.
<mgrwt>
<rscale>  0 0.12613729E+03</rscale>
<asrwt>0</asrwt>
<pdfrwt beam="1">  1        5 0.10093360E+00 0.12613859E+03</pdfrwt>
<pdfrwt beam="2">  1       -5 0.39535321E-02 0.12613859E+03</pdfrwt>
<totfact> 0.20960335E+02</totfact>
</mgrwt>
</event>
<event>
 8    1  0.3763376E-007  0.1429839E+03  0.7546771E-02  0.1209372E+00
          5   -1    0    0  501    0  0.00000000000E+00  0.00000000000E+00  0.20156683450E+03  0.20162162277E+03  0.47000000000E+01 0. -1.
         -5   -1    0    0    0  501 -0.00000000000E+00 -0.00000000000E+00 -0.10389850675E+03  0.10400475809E+03  0.47000000000E+01 0. -1.
         25    2    1    2    0    0  0.33884236472E+02  0.60567860327E+02  0.24677092309E+02  0.14509771575E+03  0.12501112369E+03 0.  0.
         25    2    1    2    0    0 -0.33884236472E+02 -0.60567860327E+02  0.72991235441E+02  0.16052866511E+03  0.12500049874E+03 0.  0.
          5    1    4    4  502    0 -0.69285677151E+00 -0.81802793455E+02  0.53606325169E+01  0.82115792930E+02  0.47000000000E+01 0.  1.
         -5    1    4    4    0  502 -0.33191379701E+02  0.21234933128E+02  0.67630602924E+02  0.78412872178E+02  0.47000000000E+01 0.  1.
          5    1    3    3  503    0  0.71332812308E+02  0.73876233473E+02  0.20855273878E+02  0.10489566451E+03  0.47000000000E+01 0. -1.
         -5    1    3    3    0  503 -0.37448575836E+02 -0.13308373146E+02  0.38218184313E+01  0.40202051242E+02  0.47000000000E+01 0. -1.
<mgrwt>
<rscale>  0 0.14298155E+03</rscale>
<asrwt>0</asrwt>
<pdfrwt beam="1">  1        5 0.31022670E-01 0.14298387E+03</pdfrwt>
<pdfrwt beam="2">  1       -5 0.15996773E-01 0.14298387E+03</pdfrwt>
<totfact> 0.25735037E+02</totfact>
</mgrwt>
</event>
<event>
 8    1  0.3763376E-007  0.1263829E+03  0.7546771E-02  0.1232929E+00
         -5   -1    0    0    0  501 -0.00000000000E+00  0.00000000000E+00  0.40440588991E+03  0.40443320066E+03  0.47000000000E+01 0.  1.
          5   -1    0    0  501    0  0.00000000000E+00 -0.00000000000E+00 -0.39457008050E+02  0.39735947003E+02  0.47000000000E+01 0.  1.
         25    2    1    2    0    0 -0.16753529621E+02  0.80574657741E+01  0.19533185502E+03  0.23265248198E+03  0.12500816083E+03 0.  0.
         25    2    1    2    0    0  0.16753529621E+02 -0.80574657741E+01  0.16961702683E+03  0.21151666568E+03  0.12499504214E+03 0.  0.
          5    1    3    3  502    0 -0.38807832019E+02  0.23941681495E+02  0.12174004509E+02  0.47429403587E+02  0.47000000000E+01 0.  1.
         -5    1    3    3    0  502  0.22054302397E+02 -0.15884215721E+02  0.18315785051E+03  0.18522307839E+03  0.47000000000E+01 0.  1.
          5    1    4    4  503    0 -0.10427016915E+02 -0.23007221866E+02 -0.11177998372E+02  0.28019503696E+02  0.47000000000E+01 0. -1.
         -5    1    4    4    0  503  0.27180546536E+02  0.14949756092E+02  0.18079502521E+03  0.18349716199E+03  0.47000000000E+01 0. -1.
<mgrwt>
<rscale>  0 0.12637968E+03</rscale>
<asrwt>0</asrwt>
<pdfrwt beam="2">  1        5 0.60938663E-02 0.12638293E+03</pdfrwt>
<pdfrwt beam="1">  1       -5 0.62239851E-01 0.12638293E+03</pdfrwt>
<totfact> 0.31258509E+02</totfact>
</mgrwt>
</event>
<event>
 8    1  0.3763376E-007  0.1306094E+03  0.7546771E-02  0.1226557E+00
         -5   -1    0    0    0  501 -0.00000000000E+00  0.00000000000E+00  0.95372676960E+02  0.95488415583E+02  0.47000000000E+01 0.  1.
          5   -1    0    0  501    0  0.00000000000E+00 -0.00000000000E+00 -0.21309134284E+03  0.21314316877E+03  0.47000000000E+01 0.  1.
         25    2    1    2    0    0  0.18615645846E+02 -0.32965566523E+02  0.31981217345E+01  0.13064859886E+03  0.12500223020E+03 0.  0.
         25    2    1    2    0    0 -0.18615645846E+02  0.32965566523E+02 -0.12091678761E+03  0.17798298549E+03  0.12499521091E+03 0.  0.
          5    1    4    4  502    0 -0.19554098023E+02  0.57678023622E+02 -0.71920465571E+01  0.61505550092E+02  0.47000000000E+01 0.  1.
         -5    1    4    4    0  502  0.93845217763E+00 -0.24712457099E+02 -0.11372474106E+03  0.11647743540E+03  0.47000000000E+01 0.  1.
          5    1    3    3  503    0  0.70344755894E+02 -0.54268674005E+01 -0.67131175642E+01  0.71028103727E+02  0.47000000000E+01 0.  1.
         -5    1    3    3    0  503 -0.51729110049E+02 -0.27538699122E+02  0.99112392987E+01  0.59620495136E+02  0.47000000000E+01 0.  1.
<mgrwt>
<rscale>  0 0.13060777E+03</rscale>
<asrwt>0</asrwt>
<pdfrwt beam="2">  1        5 0.32796173E-01 0.13060945E+03</pdfrwt>
<pdfrwt beam="1">  1       -5 0.14685609E-01 0.13060945E+03</pdfrwt>
<totfact> 0.26099767E+02</totfact>
</mgrwt>
</event>
<event>
 8    1  0.3763376E-007  0.1706104E+03  0.7546771E-02  0.1177213E+00
          5   -1    0    0  501    0  0.00000000000E+00  0.00000000000E+00  0.99159808605E+02  0.99271131969E+02  0.47000000000E+01 0. -1.
         -5   -1    0    0    0  501 -0.00000000000E+00 -0.00000000000E+00 -0.32277782330E+03  0.32281204007E+03  0.47000000000E+01 0. -1.
         25    2    1    2    0    0  0.10566077966E+03 -0.48152353827E+02 -0.17562638666E+03  0.24485207814E+03  0.12500025175E+03 0.  0.
         25    2    1    2    0    0 -0.10566077966E+03  0.48152353827E+02 -0.47991628030E+02  0.17723109390E+03  0.12499925898E+03 0.  0.
          5    1    3    3  502    0  0.12679015363E+03 -0.46545790401E+02 -0.10551500273E+03  0.17145774833E+03  0.47000000000E+01 0. -1.
         -5    1    3    3    0  502 -0.21129373968E+02 -0.16065634263E+01 -0.70111383937E+02  0.73394329808E+02  0.47000000000E+01 0. -1.
          5    1    4    4  503    0 -0.45711098579E+02 -0.33017501505E+02  0.14543977177E+02  0.58423259161E+02  0.47000000000E+01 0. -1.
         -5    1    4    4    0  503 -0.59949681084E+02  0.81169855332E+02 -0.62535605207E+02  0.11880783474E+03  0.47000000000E+01 0. -1.
<mgrwt>
<rscale>  0 0.17061023E+03</rscale>
<asrwt>0</asrwt>
<pdfrwt beam="1">  1        5 0.15266551E-01 0.17061041E+03</pdfrwt>
<pdfrwt beam="2">  1       -5 0.49669321E-01 0.17061041E+03</pdfrwt>
<totfact> 0.11317276E+02</totfact>
</mgrwt>
</event>
<event>
 8    1  0.3763376E-007  0.1254773E+03  0.7546771E-02  0.1234327E+00
         -5   -1    0    0    0  501 -0.00000000000E+00  0.00000000000E+00  0.79543328910E+01  0.92391239704E+01  0.47000000000E+01 0.  1.
          5   -1    0    0  501    0  0.00000000000E+00 -0.00000000000E+00 -0.24601504526E+04  0.24601549421E+04  0.47000000000E+01 0.  1.
         25    2    1    2    0    0  0.10652702832E+02 -0.22164156294E+01 -0.60141228960E+03  0.61436162801E+03  0.12500030122E+03 0.  0.
         25    2    1    2    0    0 -0.10652702832E+02  0.22164156294E+01 -0.18507838301E+04  0.18550324381E+04  0.12500467245E+03 0.  0.
          5    1    4    4  502    0  0.13334011330E+02 -0.58097524940E+02 -0.97754203570E+03  0.97936900085E+03  0.47000000000E+01 0. -1.
         -5    1    4    4    0  502 -0.23986714162E+02  0.60313940570E+02 -0.87324179439E+03  0.87566343726E+03  0.47000000000E+01 0. -1.
          5    1    3    3  503    0  0.37880738430E+02  0.49841495143E+02 -0.38421804555E+03  0.38931314068E+03  0.47000000000E+01 0.  1.
         -5    1    3    3    0  503 -0.27228035598E+02 -0.52057910772E+02 -0.21719424406E+03  0.22504848733E+03  0.47000000000E+01 0.  1.
<mgrwt>
<rscale>  0 0.12547624E+03</rscale>
<asrwt>0</asrwt>
<pdfrwt beam="2">  1        5 0.37858330E+00 0.12547733E+03</pdfrwt>
<pdfrwt beam="1">  1       -5 0.13229209E-02 0.12547733E+03</pdfrwt>
<totfact> 0.13389589E+01</totfact>
</mgrwt>
</event>
<event>
 8    1  0.3763376E-007  0.1459987E+03  0.7546771E-02  0.1205478E+00
          5   -1    0    0  501    0  0.00000000000E+00  0.00000000000E+00  0.82039583557E+02  0.82174103404E+02  0.47000000000E+01 0.  1.
         -5   -1    0    0    0  501 -0.00000000000E+00 -0.00000000000E+00 -0.11930191559E+04  0.11930284139E+04  0.47000000000E+01 0.  1.
         25    2    1    2    0    0  0.57631780062E+02 -0.48677458965E+02 -0.11194767853E+04  0.11289567986E+04  0.12499705255E+03 0.  0.
         25    2    1    2    0    0 -0.57631780062E+02  0.48677458965E+02  0.84972129077E+01  0.14624571876E+03  0.12499876217E+03 0.  0.
          5    1    4    4  502    0 -0.23296287282E+02  0.51606989785E+02  0.60940721639E+02  0.83317824921E+02  0.47000000000E+01 0.  1.
         -5    1    4    4    0  502 -0.34335492780E+02 -0.29295308196E+01 -0.52443508731E+02  0.62927893841E+02  0.47000000000E+01 0.  1.
          5    1    3    3  503    0  0.43952579087E+02 -0.88838026400E+02 -0.89267927619E+03  0.89817726774E+03  0.47000000000E+01 0. -1.
         -5    1    3    3    0  503  0.13679200975E+02  0.40160567435E+02 -0.22679750909E+03  0.23077953082E+03  0.47000000000E+01 0. -1.
<mgrwt>
<rscale>  0 0.14599829E+03</rscale>
<asrwt>0</asrwt>
<pdfrwt beam="1">  1        5 0.12632535E-01 0.14599866E+03</pdfrwt>
<pdfrwt beam="2">  1       -5 0.18355246E+00 0.14599866E+03</pdfrwt>
<totfact> 0.61682842E+00</totfact>
</mgrwt>
</event>
<event>
 8    1  0.3763376E-007  0.1259228E+03  0.7546771E-02  0.1233641E+00
          5   -1    0    0  501    0  0.00000000000E+00  0.00000000000E+00  0.11244795386E+04  0.11244893609E+04  0.47000000000E+01 0. -1.
         -5   -1    0    0    0  501 -0.00000000000E+00 -0.00000000000E+00 -0.19700199523E+02  0.20253095103E+02  0.47000000000E+01 0. -1.
         25    2    1    2    0    0  0.14850871650E+02 -0.27477681821E+01  0.24177181883E+03  0.27259891388E+03  0.12501382663E+03 0.  0.
         25    2    1    2    0    0 -0.14850871650E+02  0.27477681821E+01  0.86300752025E+03  0.87214354211E+03  0.12499711763E+03 0.  0.
          5    1    4    4  502    0  0.51801136738E+02  0.78885714190E+01  0.51972964313E+03  0.52238547001E+03  0.47000000000E+01 0.  1.
         -5    1    4    4    0  502 -0.66652008388E+02 -0.51408032369E+01  0.34327787711E+03  0.34975807210E+03  0.47000000000E+01 0.  1.
          5    1    3    3  503    0 -0.91299643306E+01 -0.22307658896E+02  0.23999419157E+03  0.24124736244E+03  0.47000000000E+01 0. -1.
         -5    1    3    3    0  503  0.23980835980E+02  0.19559890714E+02  0.17776272572E+01  0.31351551440E+02  0.47000000000E+01 0. -1.
<mgrwt>
<rscale>  0 0.12591867E+03</rscale>
<asrwt>0</asrwt>
<pdfrwt beam="1">  1        5 0.17304021E+00 0.12592282E+03</pdfrwt>
<pdfrwt beam="2">  1       -5 0.30740847E-02 0.12592282E+03</pdfrwt>
<totfact> 0.76536423E+01</totfact>
</mgrwt>
</event>
<event>
 8    1  0.3763376E-007  0.2270670E+03  0.7546771E-02  0.1128722E+00
          5   -1    0    0  501    0  0.00000000000E+00  0.00000000000E+00  0.68074020868E+03  0.68075643347E+03  0.47000000000E+01 0. -1.
         -5   -1    0    0    0  501 -0.00000000000E+00 -0.00000000000E+00 -0.84999583866E+02  0.85129426507E+02  0.47000000000E+01 0. -1.
         25    2    1    2    0    0 -0.70336045807E+02 -0.17602981861E+03  0.17097583343E+03  0.28423812580E+03  0.12499968064E+03 0.  0.
         25    2    1    2    0    0  0.70336045807E+02  0.17602981861E+03  0.42476479138E+03  0.48164773418E+03  0.12500302183E+03 0.  0.
          5    1    3    3  502    0 -0.98007840990E+02 -0.16375576472E+03  0.12227722789E+03  0.22670531056E+03  0.47000000000E+01 0.  1.
         -5    1    3    3    0  502  0.27671795183E+02 -0.12274053885E+02  0.48698605542E+02  0.57532815238E+02  0.47000000000E+01 0.  1.
          5    1    4    4  503    0  0.23449963565E+02  0.24692571838E+01  0.15864821692E+03  0.16045979171E+03  0.47000000000E+01 0.  1.
         -5    1    4    4    0  503  0.46886082241E+02  0.17356056142E+03  0.26611657445E+03  0.32118794247E+03  0.47000000000E+01 0.  1.
<mgrwt>
<rscale>  0 0.22706652E+03</rscale>
<asrwt>0</asrwt>
<pdfrwt beam="1">  1        5 0.10474050E+00 0.22706698E+03</pdfrwt>
<pdfrwt beam="2">  1       -5 0.13088095E-01 0.22706698E+03</pdfrwt>
<totfact> 0.29229477E+01</totfact>
</mgrwt>
</event>
<event>
 8    1  0.3763376E-007  0.1302094E+03  0.7546771E-02  0.1227150E+00
         -5   -1    0    0    0  501 -0.00000000000E+00  0.00000000000E+00  0.95033595443E+01  0.10602067847E+02  0.47000000000E+01 0.  1.
          5   -1    0    0  501    0  0.00000000000E+00 -0.00000000000E+00 -0.17049041232E+04  0.17049106015E+04  0.47000000000E+01 0.  1.
         25    2    1    2    0    0  0.22648421094E+02  0.28537726627E+02 -0.75578596468E+03  0.76692041595E+03  0.12500858842E+03 0.  0.
         25    2    1    2    0    0 -0.22648421094E+02 -0.28537726627E+02 -0.93961479897E+03  0.94859225344E+03  0.12499576007E+03 0.  0.
          5    1    4    4  502    0 -0.43772435136E+02  0.37930169356E+02 -0.34180414395E+03  0.34670864807E+03  0.47000000000E+01 0.  1.
         -5    1    4    4    0  502  0.21124014042E+02 -0.66467895983E+02 -0.59781065502E+03  0.60188360538E+03  0.47000000000E+01 0.  1.
          5    1    3    3  503    0  0.62874126059E+02  0.34114083444E+01 -0.21614621727E+03  0.22518008499E+03  0.47000000000E+01 0.  1.
         -5    1    3    3    0  503 -0.40225704964E+02  0.25126318283E+02 -0.53963974741E+03  0.54174033096E+03  0.47000000000E+01 0.  1.
<mgrwt>
<rscale>  0 0.13020637E+03</rscale>
<asrwt>0</asrwt>
<pdfrwt beam="2">  1        5 0.26237773E+00 0.13020945E+03</pdfrwt>
<pdfrwt beam="1">  1       -5 0.15470710E-02 0.13020945E+03</pdfrwt>
<totfact> 0.59240149E+01</totfact>
</mgrwt>
</event>
<event>
 8    1  0.3763376E-007  0.1712657E+03  0.7546771E-02  0.1176535E+00
          5   -1    0    0  501    0  0.00000000000E+00  0.00000000000E+00  0.89559030647E+02  0.89682272331E+02  0.47000000000E+01 0.  1.
         -5   -1    0    0    0  501 -0.00000000000E+00 -0.00000000000E+00 -0.49565711922E+03  0.49567940227E+03  0.47000000000E+01 0.  1.
         25    2    1    2    0    0 -0.11430988598E+03  0.25264649194E+02 -0.37368073343E+03  0.41105867158E+03  0.12500755343E+03 0.  0.
         25    2    1    2    0    0  0.11430988598E+03 -0.25264649194E+02 -0.32417355148E+02  0.17430300302E+03  0.12500239765E+03 0.  0.
          5    1    3    3  502    0 -0.10684539496E+03 -0.33219532445E+02 -0.25208800127E+03  0.27584402503E+03  0.47000000000E+01 0. -1.
         -5    1    3    3    0  502 -0.74644910168E+01  0.58484181639E+02 -0.12159273216E+03  0.13521464655E+03  0.47000000000E+01 0. -1.
          5    1    4    4  503    0  0.12827993871E+03 -0.27287959191E+02 -0.58963505500E+02  0.14387202776E+03  0.47000000000E+01 0. -1.
         -5    1    4    4    0  503 -0.13970052733E+02  0.20233099973E+01  0.26546150352E+02  0.30430975260E+02  0.47000000000E+01 0. -1.
<mgrwt>
<rscale>  0 0.17126476E+03</rscale>
<asrwt>0</asrwt>
<pdfrwt beam="1">  1        5 0.13789507E-01 0.17126570E+03</pdfrwt>
<pdfrwt beam="2">  1       -5 0.76266134E-01 0.17126570E+03</pdfrwt>
<totfact> 0.52809106E+01</totfact>
</mgrwt>
</event>
<event>
 8    1  0.3763376E-007  0.1335448E+03  0.7546771E-02  0.1222290E+00
          5   -1    0    0  501    0  0.00000000000E+00  0.00000000000E+00  0.71544882337E+03  0.71546426107E+03  0.47000000000E+01 0. -1.
         -5   -1    0    0    0  501 -0.00000000000E+00 -0.00000000000E+00 -0.25472392659E+02  0.25902370311E+02  0.47000000000E+01 0. -1.
         25    2    1    2    0    0  0.89964100706E+01 -0.46130152579E+02  0.28056634679E+03  0.31072660509E+03  0.12499848713E+03 0.  0.
         25    2    1    2    0    0 -0.89964100706E+01  0.46130152579E+02  0.40941008392E+03  0.43064002629E+03  0.12500115623E+03 0.  0.
          5    1    3    3  502    0 -0.64699210207E+01  0.21225771827E+01 -0.11551780956E+02  0.14209111696E+02  0.47000000000E+01 0.  1.
         -5    1    3    3    0  502  0.15466331091E+02 -0.48252729762E+02  0.29211812775E+03  0.29651749339E+03  0.47000000000E+01 0.  1.
          5    1    4    4  503    0  0.57367907920E+02  0.15416951933E+02  0.16227100494E+03  0.17286621507E+03  0.47000000000E+01 0. -1.
         -5    1    4    4    0  503 -0.66364317991E+02  0.30713200646E+02  0.24713907898E+03  0.25777381123E+03  0.47000000000E+01 0. -1.
<mgrwt>
<rscale>  0 0.13354418E+03</rscale>
<asrwt>0</asrwt>
<pdfrwt beam="1">  1        5 0.11010331E+00 0.13354481E+03</pdfrwt>
<pdfrwt beam="2">  1       -5 0.39530924E-02 0.13354481E+03</pdfrwt>
<totfact> 0.17258391E+02</totfact>
</mgrwt>
</event>
<event>
 8    1  0.3763376E-007  0.1578395E+03  0.7546771E-02  0.1191159E+00
         -5   -1    0    0    0  501 -0.00000000000E+00  0.00000000000E+00  0.65582638266E+03  0.65584322379E+03  0.47000000000E+01 0.  1.
          5   -1    0    0  501    0  0.00000000000E+00 -0.00000000000E+00 -0.38296097416E+02  0.38583430087E+02  0.47000000000E+01 0.  1.
         25    2    1    2    0    0  0.65992923137E+02  0.70226653524E+02  0.34716229802E+03  0.38135769742E+03  0.12500073378E+03 0.  0.
         25    2    1    2    0    0 -0.65992923137E+02 -0.70226653524E+02  0.27036798722E+03  0.31306895646E+03  0.12500589671E+03 0.  0.
          5    1    3    3  502    0  0.43089138955E+02  0.10486618578E+03  0.22058026059E+03  0.24805509908E+03  0.47000000000E+01 0.  1.
         -5    1    3    3    0  502  0.22903784181E+02 -0.34639532257E+02  0.12658203743E+03  0.13330259834E+03  0.47000000000E+01 0.  1.
          5    1    4    4  503    0 -0.51984813349E+02 -0.92436857825E+02  0.11941930282E+03  0.15978126733E+03  0.47000000000E+01 0. -1.
         -5    1    4    4    0  503 -0.14008109787E+02  0.22210204301E+02  0.15094868441E+03  0.15328768913E+03  0.47000000000E+01 0. -1.
<mgrwt>
<rscale>  0 0.15783853E+03</rscale>
<asrwt>0</asrwt>
<pdfrwt beam="2">  1        5 0.59151053E-02 0.15783955E+03</pdfrwt>
<pdfrwt beam="1">  1       -5 0.10091976E+00 0.15783955E+03</pdfrwt>
<totfact> 0.11564614E+02</totfact>
</mgrwt>
</event>
<event>
 8    1  0.3763376E-007  0.1254144E+03  0.7546771E-02  0.1234424E+00
          5   -1    0    0  501    0  0.00000000000E+00  0.00000000000E+00  0.53490184420E+03  0.53492249245E+03  0.47000000000E+01 0.  1.
         -5   -1    0    0    0  501 -0.00000000000E+00 -0.00000000000E+00 -0.29866503581E+02  0.30234054246E+02  0.47000000000E+01 0.  1.
         25    2    1    2    0    0 -0.90955282477E+01  0.43720039787E+01  0.21043157800E+03  0.24496886686E+03  0.12500581448E+03 0.  0.
         25    2    1    2    0    0  0.90955282477E+01 -0.43720039787E+01  0.29460376262E+03  0.32018767984E+03  0.12500772105E+03 0.  0.
          5    1    3    3  502    0 -0.63485350268E+02 -0.18329015140E+02  0.11438970135E+03  0.13218712596E+03  0.47000000000E+01 0. -1.
         -5    1    3    3    0  502  0.54389822020E+02  0.22701019119E+02  0.96041876656E+02  0.11278174090E+03  0.47000000000E+01 0. -1.
          5    1    4    4  503    0  0.55229220038E+02  0.25932106573E+02  0.21255667775E+03  0.22119035276E+03  0.47000000000E+01 0.  1.
         -5    1    4    4    0  503 -0.46133691790E+02 -0.30304110552E+02  0.82047084869E+02  0.98997327086E+02  0.47000000000E+01 0.  1.
<mgrwt>
<rscale>  0 0.12541393E+03</rscale>
<asrwt>0</asrwt>
<pdfrwt beam="1">  1        5 0.82322448E-01 0.12541441E+03</pdfrwt>
<pdfrwt beam="2">  1       -5 0.46247085E-02 0.12541441E+03</pdfrwt>
<totfact> 0.26232044E+02</totfact>
</mgrwt>
</event>
<event>
 8    1  0.3763376E-007  0.1522812E+03  0.7546771E-02  0.1197702E+00
          5   -1    0    0  501    0  0.00000000000E+00  0.00000000000E+00  0.13077280305E+04  0.13077364764E+04  0.47000000000E+01 0. -1.
         -5   -1    0    0    0  501 -0.00000000000E+00 -0.00000000000E+00 -0.19801086468E+02  0.20351241371E+02  0.47000000000E+01 0. -1.
         25    2    1    2    0    0 -0.32902201744E+02 -0.80476758137E+02  0.41660896483E+03  0.44356264812E+03  0.12500291897E+03 0.  0.
         25    2    1    2    0    0  0.32902201744E+02  0.80476758137E+02  0.87131797919E+03  0.88452506966E+03  0.12502205611E+03 0.  0.
          5    1    4    4  502    0 -0.15016254895E+01  0.10340034182E+03  0.72685939940E+03  0.73419381778E+03  0.47000000000E+01 0.  1.
         -5    1    4    4    0  502  0.34403827233E+02 -0.22923583680E+02  0.14445857979E+03  0.15033125188E+03  0.47000000000E+01 0.  1.
          5    1    3    3  503    0  0.34550855872E+02 -0.81227022077E+01  0.37971017607E+02  0.52188390575E+02  0.47000000000E+01 0.  1.
         -5    1    3    3    0  503 -0.67453057616E+02 -0.72354055930E+02  0.37863794722E+03  0.39137425754E+03  0.47000000000E+01 0.  1.
<mgrwt>
<rscale>  0 0.15227732E+03</rscale>
<asrwt>0</asrwt>
<pdfrwt beam="1">  1        5 0.20123192E+00 0.15228125E+03</pdfrwt>
<pdfrwt beam="2">  1       -5 0.30892899E-02 0.15228125E+03</pdfrwt>
<totfact> 0.51037388E+01</totfact>
</mgrwt>
</event>
<event>
 8    1  0.3763376E-007  0.1384621E+03  0.7546771E-02  0.1215427E+00
         -5   -1    0    0    0  501 -0.00000000000E+00  0.00000000000E+00  0.11610268689E+03  0.11619777925E+03  0.47000000000E+01 0.  1.
          5   -1    0    0  501    0  0.00000000000E+00 -0.00000000000E+00 -0.17696464349E+03  0.17702704609E+03  0.47000000000E+01 0.  1.
         25    2    1    2    0    0 -0.57195674904E+02 -0.16315159182E+02  0.78531836095E+01  0.13868466085E+03  0.12503692660E+03 0.  0.
         25    2    1    2    0    0  0.57195674904E+02  0.16315159182E+02 -0.68715140211E+02  0.15454016450E+03  0.12499344904E+03 0.  0.
          5    1    3    3  502    0 -0.51966243825E+02 -0.30686987347E+02 -0.50091801389E+02  0.78571370461E+02  0.47000000000E+01 0. -1.
         -5    1    3    3    0  502 -0.52294310791E+01  0.14371828165E+02  0.57944984999E+02  0.60113290384E+02  0.47000000000E+01 0. -1.
          5    1    4    4  503    0  0.58431038263E+02  0.90362957191E+01  0.22106404866E+02  0.63297898929E+02  0.47000000000E+01 0.  1.
         -5    1    4    4    0  503 -0.12353633582E+01  0.72788634626E+01 -0.90821545076E+02  0.91242265568E+02  0.47000000000E+01 0.  1.
<mgrwt>
<rscale>  0 0.13845232E+03</rscale>
<asrwt>0</asrwt>
<pdfrwt beam="2">  1        5 0.27237445E-01 0.13846213E+03</pdfrwt>
<pdfrwt beam="1">  1       -5 0.17874067E-01 0.13846213E+03</pdfrwt>
<totfact> 0.26788434E+02</totfact>
</mgrwt>
</event>
<event>
 8    1  0.3763376E-007  0.1290316E+03  0.7546771E-02  0.1228901E+00
          5   -1    0    0  501    0  0.00000000000E+00  0.00000000000E+00  0.26293249322E+03  0.26297449685E+03  0.47000000000E+01 0.  1.
         -5   -1    0    0    0  501 -0.00000000000E+00 -0.00000000000E+00 -0.65024845115E+02  0.65194481992E+02  0.47000000000E+01 0.  1.
         25    2    1    2    0    0  0.21414084047E+02  0.23737967441E+02  0.71401821457E+02  0.14746994272E+03  0.12500843894E+03 0.  0.
         25    2    1    2    0    0 -0.21414084047E+02 -0.23737967441E+02  0.12650582665E+03  0.18069903611E+03  0.12500545341E+03 0.  0.
          5    1    4    4  502    0 -0.25143792703E+02 -0.68523743603E+02  0.40652084092E+02  0.83680318414E+02  0.47000000000E+01 0. -1.
         -5    1    4    4    0  502  0.37297086561E+01  0.44785776162E+02  0.85853742557E+02  0.97018717700E+02  0.47000000000E+01 0. -1.
          5    1    3    3  503    0  0.33133316501E+02  0.41981901446E+02 -0.17008875607E+02  0.56317746411E+02  0.47000000000E+01 0.  1.
         -5    1    3    3    0  503 -0.11719232454E+02 -0.18243934004E+02  0.88410697064E+02  0.91152196313E+02  0.47000000000E+01 0.  1.
<mgrwt>
<rscale>  0 0.12903092E+03</rscale>
<asrwt>0</asrwt>
<pdfrwt beam="1">  1        5 0.40467433E-01 0.12903164E+03</pdfrwt>
<pdfrwt beam="2">  1       -5 0.10020102E-01 0.12903164E+03</pdfrwt>
<totfact> 0.33509508E+02</totfact>
</mgrwt>
</event>
<event>
 8    1  0.3763376E-007  0.1558890E+03  0.7546771E-02  0.1193419E+00
          5   -1    0    0  501    0  0.00000000000E+00  0.00000000000E+00  0.28970739059E+03  0.28974551276E+03  0.47000000000E+01 0. -1.
         -5   -1    0    0    0  501 -0.00000000000E+00 -0.00000000000E+00 -0.84163009832E+02  0.84294141101E+02  0.47000000000E+01 0. -1.
         25    2    1    2    0    0  0.93087285625E+02 -0.32604318700E+01  0.90005410408E+02  0.18000197330E+03  0.12499545323E+03 0.  0.
         25    2    1    2    0    0 -0.93087285625E+02  0.32604318700E+01  0.11553897035E+03  0.19403768055E+03  0.12500197856E+03 0.  0.
          5    1    3    3  502    0  0.10770653730E+02  0.35344561180E+02  0.80209038677E+02  0.88435427698E+02  0.47000000000E+01 0.  1.
         -5    1    3    3    0  502  0.82316631895E+02 -0.38604993050E+02  0.97963717311E+01  0.91566545605E+02  0.47000000000E+01 0.  1.
          5    1    4    4  503    0 -0.66567282119E+01  0.49458639481E+02  0.12299679144E+02  0.51612412817E+02  0.47000000000E+01 0. -1.
         -5    1    4    4    0  503 -0.86430557413E+02 -0.46198207611E+02  0.10323929120E+03  0.14242526774E+03  0.47000000000E+01 0. -1.
<mgrwt>
<rscale>  0 0.15588765E+03</rscale>
<asrwt>0</asrwt>
<pdfrwt beam="1">  1        5 0.44583388E-01 0.15588896E+03</pdfrwt>
<pdfrwt beam="2">  1       -5 0.12961175E-01 0.15588896E+03</pdfrwt>
<totfact> 0.18569277E+02</totfact>
</mgrwt>
</event>
<event>
 8    1  0.3763376E-007  0.1875598E+03  0.7546771E-02  0.1160682E+00
          5   -1    0    0  501    0  0.00000000000E+00  0.00000000000E+00  0.74970399117E+03  0.74971872351E+03  0.47000000000E+01 0. -1.
         -5   -1    0    0    0  501 -0.00000000000E+00 -0.00000000000E+00 -0.56742280480E+02  0.56936599776E+02  0.47000000000E+01 0. -1.
         25    2    1    2    0    0 -0.13866859781E+03 -0.18042100289E+02  0.17790625031E+03  0.25851364593E+03  0.12499669527E+03 0.  0.
         25    2    1    2    0    0  0.13866859781E+03  0.18042100289E+02  0.51505546038E+03  0.54814167736E+03  0.12499069479E+03 0.  0.
          5    1    4    4  502    0 -0.21067677650E+01 -0.15666671546E+02  0.20789793515E+03  0.20855101176E+03  0.47000000000E+01 0. -1.
         -5    1    4    4    0  502  0.14077536558E+03  0.33708771835E+02  0.30715752523E+03  0.33959066559E+03  0.47000000000E+01 0. -1.
          5    1    3    3  503    0 -0.10999303785E+03 -0.11235987881E+02  0.40404922949E+02  0.11781071088E+03  0.47000000000E+01 0.  1.
         -5    1    3    3    0  503 -0.28675559962E+02 -0.68061124086E+01  0.13750132736E+03  0.14070293505E+03  0.47000000000E+01 0.  1.
<mgrwt>
<rscale>  0 0.18755878E+03</rscale>
<asrwt>0</asrwt>
<pdfrwt beam="1">  1        5 0.11535515E+00 0.18755978E+03</pdfrwt>
<pdfrwt beam="2">  1       -5 0.87456633E-02 0.18755978E+03</pdfrwt>
<totfact> 0.44613798E+01</totfact>
</mgrwt>
</event>
<event>
 8    1  0.3763376E-007  0.2346414E+03  0.7546771E-02  0.1123416E+00
         -5   -1    0    0    0  501 -0.00000000000E+00  0.00000000000E+00  0.27916529838E+03  0.27920485995E+03  0.47000000000E+01 0.  1.
          5   -1    0    0  501    0  0.00000000000E+00 -0.00000000000E+00 -0.19858393309E+03  0.19863954410E+03  0.47000000000E+01 0.  1.
         25    2    1    2    0    0  0.19840578291E+03  0.79869045039E+01  0.60708233478E+02  0.24236766983E+03  0.12501180918E+03 0.  0.
         25    2    1    2    0    0 -0.19840578291E+03 -0.79869045039E+01  0.19873131809E+02  0.23547673422E+03  0.12500282259E+03 0.  0.
          5    1    3    3  502    0  0.13196995596E+02  0.29624198834E+02  0.44323449402E+02  0.55121792571E+02  0.47000000000E+01 0. -1.
         -5    1    3    3    0  502  0.18520878731E+03 -0.21637294330E+02  0.16384784076E+02  0.18724587726E+03  0.47000000000E+01 0. -1.
          5    1    4    4  503    0 -0.15298184928E+03 -0.39524431733E+02 -0.29959430010E+02  0.16088904363E+03  0.47000000000E+01 0. -1.
         -5    1    4    4    0  503 -0.45423933623E+02  0.31537527229E+02  0.49832561819E+02  0.74587690586E+02  0.47000000000E+01 0. -1.
<mgrwt>
<rscale>  0 0.23464023E+03</rscale>
<asrwt>0</asrwt>
<pdfrwt beam="2">  1        5 0.30558695E-01 0.23464142E+03</pdfrwt>
<pdfrwt beam="1">  1       -5 0.42955828E-01 0.23464142E+03</pdfrwt>
<totfact> 0.44880778E+01</totfact>
</mgrwt>
</event>
<event>
 8    1  0.3763376E-007  0.1452423E+03  0.7546771E-02  0.1206445E+00
          5   -1    0    0  501    0  0.00000000000E+00  0.00000000000E+00  0.22992329623E+03  0.22997132897E+03  0.47000000000E+01 0. -1.
         -5   -1    0    0    0  501 -0.00000000000E+00 -0.00000000000E+00 -0.10455077887E+03  0.10465636800E+03  0.47000000000E+01 0. -1.
         25    2    1    2    0    0 -0.36990192529E+02 -0.64049255136E+02  0.39149076370E+01  0.14529507284E+03  0.12499900105E+03 0.  0.
         25    2    1    2    0    0  0.36990192529E+02  0.64049255136E+02  0.12145760972E+03  0.18933262412E+03  0.12499724065E+03 0.  0.
          5    1    4    4  502    0  0.67877094753E+02  0.70186677335E+02  0.47229915460E+02  0.10856437989E+03  0.47000000000E+01 0.  1.
         -5    1    4    4    0  502 -0.30886902224E+02 -0.61374221989E+01  0.74227694264E+02  0.80768244230E+02  0.47000000000E+01 0.  1.
          5    1    3    3  503    0 -0.63662102868E+02  0.36015411666E+01 -0.22506475994E+02  0.67782489642E+02  0.47000000000E+01 0. -1.
         -5    1    3    3    0  503  0.26671910339E+02 -0.67650796303E+02  0.26421383631E+02  0.77512583201E+02  0.47000000000E+01 0. -1.
<mgrwt>
<rscale>  0 0.14524194E+03</rscale>
<asrwt>0</asrwt>
<pdfrwt beam="1">  1        5 0.35384632E-01 0.14524232E+03</pdfrwt>
<pdfrwt beam="2">  1       -5 0.16096552E-01 0.14524232E+03</pdfrwt>
<totfact> 0.19684006E+02</totfact>
</mgrwt>
</event>
<event>
 8    1  0.3763376E-007  0.1273404E+03  0.7546771E-02  0.1231458E+00
         -5   -1    0    0    0  501 -0.00000000000E+00  0.00000000000E+00  0.43662209653E+02  0.43914445822E+02  0.47000000000E+01 0.  1.
          5   -1    0    0  501    0  0.00000000000E+00 -0.00000000000E+00 -0.39167998616E+03  0.39170818418E+03  0.47000000000E+01 0.  1.
         25    2    1    2    0    0  0.13601806774E+02  0.20123777533E+02 -0.12283081089E+03  0.17692653174E+03  0.12500245582E+03 0.  0.
         25    2    1    2    0    0 -0.13601806774E+02 -0.20123777533E+02 -0.22518696562E+03  0.25869609826E+03  0.12499810480E+03 0.  0.
          5    1    3    3  502    0 -0.39028784892E+02  0.50454355714E+02 -0.45574290772E+02  0.78536577720E+02  0.47000000000E+01 0.  1.
         -5    1    3    3    0  502  0.52630591665E+02 -0.30330578182E+02 -0.77256520116E+02  0.98389954021E+02  0.47000000000E+01 0.  1.
          5    1    4    4  503    0 -0.60347329414E+02 -0.22983207054E+02 -0.65030510601E+02  0.91766471453E+02  0.47000000000E+01 0.  1.
         -5    1    4    4    0  503  0.46745522640E+02  0.28594295217E+01 -0.16015645501E+03  0.16692962681E+03  0.47000000000E+01 0.  1.
<mgrwt>
<rscale>  0 0.12733938E+03</rscale>
<asrwt>0</asrwt>
<pdfrwt beam="2">  1        5 0.60280029E-01 0.12734045E+03</pdfrwt>
<pdfrwt beam="1">  1       -5 0.67388351E-02 0.12734045E+03</pdfrwt>
<totfact> 0.28378427E+02</totfact>
</mgrwt>
</event>
<event>
 8    1  0.3763376E-007  0.1644224E+03  0.7546771E-02  0.1183793E+00
          5   -1    0    0  501    0  0.00000000000E+00  0.00000000000E+00  0.45537351932E+02  0.45779257540E+02  0.47000000000E+01 0. -1.
         -5   -1    0    0    0  501 -0.00000000000E+00 -0.00000000000E+00 -0.64358787320E+03  0.64360503458E+03  0.47000000000E+01 0. -1.
         25    2    1    2    0    0  0.19364605076E+02 -0.10504841757E+03 -0.39672969328E+03  0.42945216630E+03  0.12499822256E+03 0.  0.
         25    2    1    2    0    0 -0.19364605076E+02  0.10504841757E+03 -0.20132082799E+03  0.25993212582E+03  0.12499790513E+03 0.  0.
          5    1    4    4  502    0  0.71542956076E+01  0.37685755203E+02 -0.18030837972E+03  0.18440336735E+03  0.47000000000E+01 0.  1.
         -5    1    4    4    0  502 -0.26518900683E+02  0.67362662365E+02 -0.21012448268E+02  0.75528758474E+02  0.47000000000E+01 0.  1.
          5    1    3    3  503    0  0.50903118531E+02 -0.11561218177E+03 -0.34816017037E+03  0.37039829681E+03  0.47000000000E+01 0. -1.
         -5    1    3    3    0  503 -0.31538513455E+02  0.10563764206E+02 -0.48569522909E+02  0.59053869482E+02  0.47000000000E+01 0. -1.
<mgrwt>
<rscale>  0 0.16442230E+03</rscale>
<asrwt>0</asrwt>
<pdfrwt beam="1">  1        5 0.70256752E-02 0.16442236E+03</pdfrwt>
<pdfrwt beam="2">  1       -5 0.99033441E-01 0.16442236E+03</pdfrwt>
<totfact> 0.91600621E+01</totfact>
</mgrwt>
</event>
<event>
 8    1  0.3763376E-007  0.1407285E+03  0.7546771E-02  0.1212352E+00
         -5   -1    0    0    0  501 -0.00000000000E+00  0.00000000000E+00  0.15941865768E+04  0.15941935051E+04  0.47000000000E+01 0.  1.
          5   -1    0    0  501    0  0.00000000000E+00 -0.00000000000E+00 -0.14731322589E+02  0.15462919039E+02  0.47000000000E+01 0.  1.
         25    2    1    2    0    0 -0.43618800650E+02 -0.47711222341E+02  0.11288206205E+04  0.11375588836E+04  0.12500103948E+03 0.  0.
         25    2    1    2    0    0  0.43618800650E+02  0.47711222341E+02  0.45063463367E+03  0.47209754049E+03  0.12500221664E+03 0.  0.
          5    1    3    3  502    0 -0.63604475570E+02  0.82306913374E+01  0.85064033255E+03  0.85306760515E+03  0.47000000000E+01 0. -1.
         -5    1    3    3    0  502  0.19985674920E+02 -0.55941913679E+02  0.27818028798E+03  0.28449127848E+03  0.47000000000E+01 0. -1.
          5    1    4    4  503    0 -0.88901350467E+01 -0.34825991464E+02  0.67203145142E+02  0.76355987974E+02  0.47000000000E+01 0. -1.
         -5    1    4    4    0  503  0.52508935697E+02  0.82537213805E+02  0.38343148853E+03  0.39574155252E+03  0.47000000000E+01 0. -1.
<mgrwt>
<rscale>  0 0.14072825E+03</rscale>
<asrwt>0</asrwt>
<pdfrwt beam="2">  1        5 0.23231669E-02 0.14072851E+03</pdfrwt>
<pdfrwt beam="1">  1       -5 0.24531629E+00 0.14072851E+03</pdfrwt>
<totfact> 0.40760403E+01</totfact>
</mgrwt>
</event>
<event>
 8    1  0.3763376E-007  0.1612457E+03  0.7546771E-02  0.1187298E+00
          5   -1    0    0  501    0  0.00000000000E+00  0.00000000000E+00  0.19943006262E+02  0.20489350862E+02  0.47000000000E+01 0. -1.
         -5   -1    0    0    0  501 -0.00000000000E+00 -0.00000000000E+00 -0.13840509345E+04  0.13840589146E+04  0.47000000000E+01 0. -1.
         25    2    1    2    0    0 -0.12406543474E+02 -0.10109567071E+03 -0.86937364516E+03  0.88420012517E+03  0.12500027798E+03 0.  0.
         25    2    1    2    0    0  0.12406543474E+02  0.10109567071E+03 -0.49473428304E+03  0.52034814033E+03  0.12500367743E+03 0.  0.
          5    1    3    3  502    0  0.46672892443E+02 -0.54686110715E+02 -0.60639441213E+03  0.61065964551E+03  0.47000000000E+01 0. -1.
         -5    1    3    3    0  502 -0.59079435917E+02 -0.46409559994E+02 -0.26297923304E+03  0.27354047967E+03  0.47000000000E+01 0. -1.
          5    1    4    4  503    0 -0.35833438680E+02  0.27088239375E+02 -0.33256735152E+03  0.33562023380E+03  0.47000000000E+01 0.  1.
         -5    1    4    4    0  503  0.48239982154E+02  0.74007431334E+02 -0.16216693151E+03  0.18472790652E+03  0.47000000000E+01 0.  1.
<mgrwt>
<rscale>  0 0.16124504E+03</rscale>
<asrwt>0</asrwt>
<pdfrwt beam="1">  1        5 0.31107963E-02 0.16124570E+03</pdfrwt>
<pdfrwt beam="2">  1       -5 0.21297348E+00 0.16124570E+03</pdfrwt>
<totfact> 0.42770002E+01</totfact>
</mgrwt>
</event>
<event>
 8    1  0.3763376E-007  0.1678743E+03  0.7546771E-02  0.1180087E+00
          5   -1    0    0  501    0  0.00000000000E+00  0.00000000000E+00  0.13131750422E+03  0.13140158642E+03  0.47000000000E+01 0.  1.
         -5   -1    0    0    0  501 -0.00000000000E+00 -0.00000000000E+00 -0.21447354411E+03  0.21452503612E+03  0.47000000000E+01 0.  1.
         25    2    1    2    0    0 -0.67896305776E+02 -0.89128141183E+02 -0.38651037949E+02  0.17225318627E+03  0.12499409409E+03 0.  0.
         25    2    1    2    0    0  0.67896305776E+02  0.89128141183E+02 -0.44505001945E+02  0.17367343627E+03  0.12501213293E+03 0.  0.
          5    1    4    4  502    0  0.52469395827E+02 -0.18974748594E+02 -0.90752857206E+00  0.55999930274E+02  0.47000000000E+01 0.  1.
         -5    1    4    4    0  502  0.15426909949E+02  0.10810288978E+03 -0.43597473373E+02  0.11767350600E+03  0.47000000000E+01 0.  1.
          5    1    3    3  503    0 -0.95482595886E+02 -0.83544924439E+02 -0.35402956863E+01  0.12700907137E+03  0.47000000000E+01 0. -1.
         -5    1    3    3    0  503  0.27586290110E+02 -0.55832167439E+01 -0.35110742263E+02  0.45244114904E+02  0.47000000000E+01 0. -1.
<mgrwt>
<rscale>  0 0.16787090E+03</rscale>
<asrwt>0</asrwt>
<pdfrwt beam="1">  1        5 0.20213122E-01 0.16787426E+03</pdfrwt>
<pdfrwt beam="2">  1       -5 0.33006359E-01 0.16787426E+03</pdfrwt>
<totfact> 0.15552680E+02</totfact>
</mgrwt>
</event>
<event>
 8    1  0.3763376E-007  0.1269513E+03  0.7546771E-02  0.1232051E+00
          5   -1    0    0  501    0  0.00000000000E+00  0.00000000000E+00  0.85318888013E+01  0.97407970165E+01  0.47000000000E+01 0.  1.
         -5   -1    0    0    0  501 -0.00000000000E+00 -0.00000000000E+00 -0.17950327990E+04  0.17950389521E+04  0.47000000000E+01 0.  1.
         25    2    1    2    0    0 -0.21844422335E+02 -0.38693747287E+01 -0.10141278539E+04  0.10220430230E+04  0.12499794369E+03 0.  0.
         25    2    1    2    0    0  0.21844422335E+02  0.38693747287E+01 -0.77237305625E+03  0.78273672607E+03  0.12499797383E+03 0.  0.
          5    1    4    4  502    0 -0.50139731498E+02  0.17164942659E+02 -0.35552235309E+03  0.35948137849E+03  0.47000000000E+01 0.  1.
         -5    1    4    4    0  502  0.71984153833E+02 -0.13295567930E+02 -0.41685070316E+03  0.42325534758E+03  0.47000000000E+01 0.  1.
          5    1    3    3  503    0  0.12403857150E+01  0.52419331551E+02 -0.25000284588E+03  0.25548549435E+03  0.47000000000E+01 0.  1.
         -5    1    3    3    0  503 -0.23084808050E+02 -0.56288706280E+02 -0.76412500806E+03  0.76655752867E+03  0.47000000000E+01 0.  1.
<mgrwt>
<rscale>  0 0.12695134E+03</rscale>
<asrwt>0</asrwt>
<pdfrwt beam="1">  1        5 0.14060660E-02 0.12695135E+03</pdfrwt>
<pdfrwt beam="2">  1       -5 0.27625208E+00 0.12695135E+03</pdfrwt>
<totfact> 0.55899064E+01</totfact>
</mgrwt>
</event>
<event>
 8    1  0.3763376E-007  0.1488783E+03  0.7546771E-02  0.1201865E+00
          5   -1    0    0  501    0  0.00000000000E+00  0.00000000000E+00  0.18575223316E+02  0.19160608582E+02  0.47000000000E+01 0. -1.
         -5   -1    0    0    0  501 -0.00000000000E+00 -0.00000000000E+00 -0.12508483967E+04  0.12508572267E+04  0.47000000000E+01 0. -1.
         25    2    1    2    0    0 -0.22701214652E+02  0.77598387133E+02 -0.77356475928E+03  0.78776085885E+03  0.12501151591E+03 0.  0.
         25    2    1    2    0    0  0.22701214652E+02 -0.77598387133E+02 -0.45870841415E+03  0.48225697645E+03  0.12498610839E+03 0.  0.
          5    1    4    4  502    0  0.62684124610E+02 -0.43776492831E+02 -0.37971428427E+03  0.38736379346E+03  0.47000000000E+01 0. -1.
         -5    1    4    4    0  502 -0.39982909958E+02 -0.33821894302E+02 -0.78994129877E+02  0.94893182989E+02  0.47000000000E+01 0. -1.
          5    1    3    3  503    0 -0.51295206019E+02  0.52872770090E+02 -0.70873018842E+03  0.71256389044E+03  0.47000000000E+01 0. -1.
         -5    1    3    3    0  503  0.28593991367E+02  0.24725617043E+02 -0.64834570857E+02  0.75196968414E+02  0.47000000000E+01 0. -1.
<mgrwt>
<rscale>  0 0.14887292E+03</rscale>
<asrwt>0</asrwt>
<pdfrwt beam="1">  1        5 0.29034365E-02 0.14887825E+03</pdfrwt>
<pdfrwt beam="2">  1       -5 0.19248386E+00 0.14887825E+03</pdfrwt>
<totfact> 0.64338004E+01</totfact>
</mgrwt>
</event>
<event>
 8    1  0.3763376E-007  0.1312057E+03  0.7546771E-02  0.1225682E+00
          5   -1    0    0  501    0  0.00000000000E+00  0.00000000000E+00  0.44845640885E+03  0.44848103710E+03  0.47000000000E+01 0.  1.
         -5   -1    0    0    0  501 -0.00000000000E+00 -0.00000000000E+00 -0.38848868295E+02  0.39132142387E+02  0.47000000000E+01 0.  1.
         25    2    1    2    0    0 -0.72012658643E+01 -0.39197366846E+02  0.23586968790E+03  0.26990638510E+03  0.12500662082E+03 0.  0.
         25    2    1    2    0    0  0.72012658643E+01  0.39197366846E+02  0.17373785266E+03  0.21770679440E+03  0.12499246010E+03 0.  0.
          5    1    3    3  502    0  0.48395322238E+02 -0.30828943126E+02  0.52014896873E+02  0.77589757349E+02  0.47000000000E+01 0.  1.
         -5    1    3    3    0  502 -0.55596588103E+02 -0.83684237201E+01  0.18385479103E+03  0.19231662775E+03  0.47000000000E+01 0.  1.
          5    1    4    4  503    0  0.58395215910E+01  0.84652406181E+02  0.12174859899E+03  0.14847538934E+03  0.47000000000E+01 0. -1.
         -5    1    4    4    0  503  0.13617442733E+01 -0.45455039335E+02  0.51989253668E+02  0.69231405052E+02  0.47000000000E+01 0. -1.
<mgrwt>
<rscale>  0 0.13120237E+03</rscale>
<asrwt>0</asrwt>
<pdfrwt beam="1">  1        5 0.69016978E-01 0.13120574E+03</pdfrwt>
<pdfrwt beam="2">  1       -5 0.60004338E-02 0.13120574E+03</pdfrwt>
<totfact> 0.25846061E+02</totfact>
</mgrwt>
</event>
<event>
 8    1  0.3763376E-007  0.1372159E+03  0.7546771E-02  0.1217125E+00
         -5   -1    0    0    0  501 -0.00000000000E+00  0.00000000000E+00  0.10358223971E+03  0.10368881513E+03  0.47000000000E+01 0. -1.
          5   -1    0    0  501    0  0.00000000000E+00 -0.00000000000E+00 -0.27817753776E+03  0.27821723979E+03  0.47000000000E+01 0. -1.
         25    2    1    2    0    0 -0.54108005765E+02 -0.16589983729E+02  0.25219617145E+02  0.13951336348E+03  0.12500018261E+03 0.  0.
         25    2    1    2    0    0  0.54108005765E+02  0.16589983729E+02 -0.19981491520E+03  0.24239269143E+03  0.12500125070E+03 0.  0.
          5    1    3    3  502    0 -0.38021384576E+02 -0.23035178184E+02 -0.47136289196E+02  0.64962796108E+02  0.47000000000E+01 0. -1.
         -5    1    3    3    0  502 -0.16086621189E+02  0.64451944549E+01  0.72355906341E+02  0.74550567371E+02  0.47000000000E+01 0. -1.
          5    1    4    4  503    0  0.43510730814E+02 -0.30057313791E+02 -0.20772690120E+02  0.57010704812E+02  0.47000000000E+01 0.  1.
         -5    1    4    4    0  503  0.10597274951E+02  0.46647297520E+02 -0.17904222508E+03  0.18538198662E+03  0.47000000000E+01 0.  1.
<mgrwt>
<rscale>  0 0.13721571E+03</rscale>
<asrwt>0</asrwt>
<pdfrwt beam="2">  1        5 0.42807796E-01 0.13721595E+03</pdfrwt>
<pdfrwt beam="1">  1       -5 0.15946981E-01 0.13721595E+03</pdfrwt>
<totfact> 0.13330260E+02</totfact>
</mgrwt>
</event>
<event>
 8    1  0.3763376E-007  0.1340046E+03  0.7546771E-02  0.1221636E+00
         -5   -1    0    0    0  501 -0.00000000000E+00  0.00000000000E+00  0.47727114897E+03  0.47729429039E+03  0.47000000000E+01 0. -1.
          5   -1    0    0  501    0  0.00000000000E+00 -0.00000000000E+00 -0.45786626870E+02  0.46027222381E+02  0.47000000000E+01 0. -1.
         25    2    1    2    0    0  0.78192124617E+01  0.47653694424E+02  0.32704358416E+03  0.35343280634E+03  0.12500091191E+03 0.  0.
         25    2    1    2    0    0 -0.78192124617E+01 -0.47653694424E+02  0.10444093794E+03  0.16988870644E+03  0.12498899304E+03 0.  0.
          5    1    3    3  502    0 -0.24853796701E+02  0.21964555337E+02  0.30368054310E+03  0.30552269172E+03  0.47000000000E+01 0.  1.
         -5    1    3    3    0  502  0.32673009162E+02  0.25689139087E+02  0.23363041067E+02  0.47910114618E+02  0.47000000000E+01 0.  1.
          5    1    4    4  503    0  0.11102621456E+02 -0.70764913205E+02  0.12194316453E+02  0.72812996764E+02  0.47000000000E+01 0.  1.
         -5    1    4    4    0  503 -0.18921833917E+02  0.23111218780E+02  0.92246621488E+02  0.97075709672E+02  0.47000000000E+01 0.  1.
<mgrwt>
<rscale>  0 0.13400186E+03</rscale>
<asrwt>0</asrwt>
<pdfrwt beam="2">  1        5 0.70643837E-02 0.13400464E+03</pdfrwt>
<pdfrwt beam="1">  1       -5 0.73446621E-01 0.13400464E+03</pdfrwt>
<totfact> 0.17172236E+02</totfact>
</mgrwt>
</event>
<event>
 8    1  0.3763376E-007  0.1445300E+03  0.7546771E-02  0.1207361E+00
         -5   -1    0    0    0  501 -0.00000000000E+00  0.00000000000E+00  0.50752995764E+03  0.50755171944E+03  0.47000000000E+01 0. -1.
          5   -1    0    0  501    0  0.00000000000E+00 -0.00000000000E+00 -0.41152295061E+02  0.41419818792E+02  0.47000000000E+01 0. -1.
         25    2    1    2    0    0  0.49551790913E+02 -0.53000060527E+02  0.24980139109E+03  0.28859948519E+03  0.12499816583E+03 0.  0.
         25    2    1    2    0    0 -0.49551790913E+02  0.53000060527E+02  0.21657627149E+03  0.26037205304E+03  0.12499575286E+03 0.  0.
          5    1    3    3  502    0  0.56247085321E+02 -0.64806034718E+01  0.30926144331E+02  0.64685773023E+02  0.47000000000E+01 0. -1.
         -5    1    3    3    0  502 -0.66952944074E+01 -0.46519457055E+02  0.21887524676E+03  0.22391371217E+03  0.47000000000E+01 0. -1.
          5    1    4    4  503    0 -0.74971829346E+02  0.95053788231E+01  0.18703995663E+03  0.20178494195E+03  0.47000000000E+01 0.  1.
         -5    1    4    4    0  503  0.25420038432E+02  0.43494681703E+02  0.29536314861E+02  0.58587111091E+02  0.47000000000E+01 0.  1.
<mgrwt>
<rscale>  0 0.14452950E+03</rscale>
<asrwt>0</asrwt>
<pdfrwt beam="2">  1        5 0.63533749E-02 0.14453002E+03</pdfrwt>
<pdfrwt beam="1">  1       -5 0.78103787E-01 0.14453002E+03</pdfrwt>
<totfact> 0.18304303E+02</totfact>
</mgrwt>
</event>
<event>
 8    1  0.3763376E-007  0.1272846E+03  0.7546771E-02  0.1231542E+00
          5   -1    0    0  501    0  0.00000000000E+00  0.00000000000E+00  0.25343911260E+02  0.25776032239E+02  0.47000000000E+01 0. -1.
         -5   -1    0    0    0  501 -0.00000000000E+00 -0.00000000000E+00 -0.66139388963E+03  0.66141058900E+03  0.47000000000E+01 0. -1.
         25    2    1    2    0    0 -0.12258627369E+02  0.20719419617E+02 -0.38867572357E+03  0.40898636586E+03  0.12498584348E+03 0.  0.
         25    2    1    2    0    0  0.12258627369E+02 -0.20719419617E+02 -0.24737425480E+03  0.27820025538E+03  0.12498716679E+03 0.  0.
          5    1    4    4  502    0 -0.51923195965E+02  0.13984782598E+02 -0.11265438071E+03  0.12491874125E+03  0.47000000000E+01 0. -1.
         -5    1    4    4    0  502  0.64181823334E+02 -0.34704202215E+02 -0.13471987409E+03  0.15328151413E+03  0.47000000000E+01 0. -1.
          5    1    3    3  503    0  0.40392720874E+02 -0.14157418221E+01 -0.30418094963E+03  0.30689039793E+03  0.47000000000E+01 0.  1.
         -5    1    3    3    0  503 -0.52651348242E+02  0.22135161439E+02 -0.84494773942E+02  0.10209596793E+03  0.47000000000E+01 0.  1.
<mgrwt>
<rscale>  0 0.12728424E+03</rscale>
<asrwt>0</asrwt>
<pdfrwt beam="1">  1        5 0.39335884E-02 0.12728456E+03</pdfrwt>
<pdfrwt beam="2">  1       -5 0.10178742E+00 0.12728456E+03</pdfrwt>
<totfact> 0.20769987E+02</totfact>
</mgrwt>
</event>
<event>
 8    1  0.3763376E-007  0.1261067E+03  0.7546771E-02  0.1233353E+00
          5   -1    0    0  501    0  0.00000000000E+00  0.00000000000E+00  0.53211908725E+02  0.53419071783E+02  0.47000000000E+01 0. -1.
         -5   -1    0    0    0  501 -0.00000000000E+00 -0.00000000000E+00 -0.33137943673E+03  0.33141276543E+03  0.47000000000E+01 0. -1.
         25    2    1    2    0    0  0.67396576273E+01 -0.15194623453E+02 -0.20010445710E+03  0.23652632451E+03  0.12500643531E+03 0.  0.
         25    2    1    2    0    0 -0.67396576273E+01  0.15194623453E+02 -0.78063070903E+02  0.14830551270E+03  0.12499752994E+03 0.  0.
          5    1    4    4  502    0  0.48958962767E+02  0.40418343158E+02 -0.49576139455E+02  0.80687707255E+02  0.47000000000E+01 0. -1.
         -5    1    4    4    0  502 -0.55698620395E+02 -0.25223719704E+02 -0.28486931448E+02  0.67617805443E+02  0.47000000000E+01 0. -1.
          5    1    3    3  503    0  0.30187391937E+02 -0.49881295805E+02 -0.39731150829E+02  0.70711220110E+02  0.47000000000E+01 0. -1.
         -5    1    3    3    0  503 -0.23447734310E+02  0.34686672351E+02 -0.16037330627E+03  0.16581510440E+03  0.47000000000E+01 0. -1.
<mgrwt>
<rscale>  0 0.12610453E+03</rscale>
<asrwt>0</asrwt>
<pdfrwt beam="1">  1        5 0.82049470E-02 0.12610673E+03</pdfrwt>
<pdfrwt beam="2">  1       -5 0.50999950E-01 0.12610673E+03</pdfrwt>
<totfact> 0.28990526E+02</totfact>
</mgrwt>
</event>
<event>
 8    1  0.3763376E-007  0.1601209E+03  0.7546771E-02  0.1188560E+00
         -5   -1    0    0    0  501 -0.00000000000E+00  0.00000000000E+00  0.14437030302E+03  0.14444678741E+03  0.47000000000E+01 0.  1.
          5   -1    0    0  501    0  0.00000000000E+00 -0.00000000000E+00 -0.32442136253E+03  0.32445540598E+03  0.47000000000E+01 0.  1.
         25    2    1    2    0    0  0.60191152649E+02  0.79941256789E+02  0.67754672946E+02  0.17386603148E+03  0.12500048721E+03 0.  0.
         25    2    1    2    0    0 -0.60191152649E+02 -0.79941256789E+02 -0.24780573246E+03  0.29503616191E+03  0.12500030559E+03 0.  0.
          5    1    3    3  502    0  0.72297947892E+02  0.87292639123E+02  0.96230467276E+01  0.11384942311E+03  0.47000000000E+01 0.  1.
         -5    1    3    3    0  502 -0.12106795243E+02 -0.73513823337E+01  0.58131626218E+02  0.60016608368E+02  0.47000000000E+01 0.  1.
          5    1    4    4  503    0 -0.43603024643E+01 -0.95200055171E+02 -0.11073487050E+03  0.14617237867E+03  0.47000000000E+01 0. -1.
         -5    1    4    4    0  503 -0.55830850185E+02  0.15258798382E+02 -0.13707086196E+03  0.14886378324E+03  0.47000000000E+01 0. -1.
<mgrwt>
<rscale>  0 0.16012086E+03</rscale>
<asrwt>0</asrwt>
<pdfrwt beam="2">  1        5 0.49919481E-01 0.16012090E+03</pdfrwt>
<pdfrwt beam="1">  1       -5 0.22219318E-01 0.16012090E+03</pdfrwt>
<totfact> 0.54778063E+01</totfact>
</mgrwt>
</event>
<event>
 8    1  0.3763376E-007  0.1399237E+03  0.7546771E-02  0.1213433E+00
         -5   -1    0    0    0  501 -0.00000000000E+00  0.00000000000E+00  0.10050641938E+03  0.10061625285E+03  0.47000000000E+01 0.  1.
          5   -1    0    0  501    0  0.00000000000E+00 -0.00000000000E+00 -0.25522301552E+03  0.25526628773E+03  0.47000000000E+01 0.  1.
         25    2    1    2    0    0 -0.47543452437E+02 -0.41136653438E+02  0.93724091627E+01  0.14023720717E+03  0.12500411231E+03 0.  0.
         25    2    1    2    0    0  0.47543452437E+02  0.41136653438E+02 -0.16408900530E+03  0.21564533341E+03  0.12500041613E+03 0.  0.
          5    1    3    3  502    0  0.39503767721E+02 -0.29008061719E+02 -0.96978086867E+01  0.50181199689E+02  0.47000000000E+01 0.  1.
         -5    1    3    3    0  502 -0.87047220159E+02 -0.12128591719E+02  0.19070217849E+02  0.90056007480E+02  0.47000000000E+01 0.  1.
          5    1    4    4  503    0  0.60723933332E+01  0.55970782682E+02 -0.16170169170E+03  0.17128668825E+03  0.47000000000E+01 0. -1.
         -5    1    4    4    0  503  0.41471059104E+02 -0.14834129244E+02 -0.23873136066E+01  0.44358645154E+02  0.47000000000E+01 0. -1.
<mgrwt>
<rscale>  0 0.13992284E+03</rscale>
<asrwt>0</asrwt>
<pdfrwt beam="2">  1        5 0.39276857E-01 0.13992367E+03</pdfrwt>
<pdfrwt beam="1">  1       -5 0.15474303E-01 0.13992367E+03</pdfrwt>
<totfact> 0.16910840E+02</totfact>
</mgrwt>
</event>
<event>
 8    1  0.3763376E-007  0.1265299E+03  0.7546771E-02  0.1232699E+00
         -5   -1    0    0    0  501 -0.00000000000E+00  0.00000000000E+00  0.14014168861E+03  0.14022047956E+03  0.47000000000E+01 0.  1.
          5   -1    0    0  501    0  0.00000000000E+00 -0.00000000000E+00 -0.11596194057E+03  0.11605714825E+03  0.47000000000E+01 0.  1.
         25    2    1    2    0    0  0.18973946484E+02 -0.49142070119E+01  0.28409806216E+02  0.12968014860E+03  0.12500265508E+03 0.  0.
         25    2    1    2    0    0 -0.18973946484E+02  0.49142070119E+01 -0.42300581731E+01  0.12659747921E+03  0.12499947309E+03 0.  0.
          5    1    4    4  502    0 -0.31706504761E+02 -0.48390127216E+02  0.26260053763E+02  0.63707042623E+02  0.47000000000E+01 0.  1.
         -5    1    4    4    0  502  0.12732558277E+02  0.53304334228E+02 -0.30490111936E+02  0.62890436583E+02  0.47000000000E+01 0.  1.
          5    1    3    3  503    0  0.43198038422E+02 -0.52839164408E+02  0.32264062543E+02  0.75638003349E+02  0.47000000000E+01 0. -1.
         -5    1    3    3    0  503 -0.24224091938E+02  0.47924957396E+02 -0.38542563274E+01  0.54042145252E+02  0.47000000000E+01 0. -1.
<mgrwt>
<rscale>  0 0.12652915E+03</rscale>
<asrwt>0</asrwt>
<pdfrwt beam="2">  1        5 0.17853683E-01 0.12652993E+03</pdfrwt>
<pdfrwt beam="1">  1       -5 0.21573644E-01 0.12652993E+03</pdfrwt>
<totfact> 0.40556253E+02</totfact>
</mgrwt>
</event>
<event>
 8    1  0.3763376E-007  0.1576957E+03  0.7546771E-02  0.1191324E+00
          5   -1    0    0  501    0  0.00000000000E+00  0.00000000000E+00  0.22173994091E+03  0.22178974592E+03  0.47000000000E+01 0.  1.
         -5   -1    0    0    0  501 -0.00000000000E+00 -0.00000000000E+00 -0.12148766969E+03  0.12157855028E+03  0.47000000000E+01 0.  1.
         25    2    1    2    0    0 -0.37879286961E+02 -0.88356629045E+02  0.22649113446E+01  0.15770877640E+03  0.12500077621E+03 0.  0.
         25    2    1    2    0    0  0.37879286961E+02  0.88356629045E+02  0.97987359876E+02  0.18565951980E+03  0.12500480118E+03 0.  0.
          5    1    4    4  502    0  0.10230438896E+02  0.11107703315E+03  0.42491666914E+02  0.11945878340E+03  0.47000000000E+01 0.  1.
         -5    1    4    4    0  502  0.27648848065E+02 -0.22720404107E+02  0.55495692962E+02  0.66200736397E+02  0.47000000000E+01 0.  1.
          5    1    3    3  503    0 -0.14305422334E+02 -0.91098698610E+02 -0.46417860079E+02  0.10334566140E+03  0.47000000000E+01 0.  1.
         -5    1    3    3    0  503 -0.23573864628E+02  0.27420695648E+01  0.48682771423E+02  0.54363114999E+02  0.47000000000E+01 0.  1.
<mgrwt>
<rscale>  0 0.15769490E+03</rscale>
<asrwt>0</asrwt>
<pdfrwt beam="1">  1        5 0.34124659E-01 0.15769570E+03</pdfrwt>
<pdfrwt beam="2">  1       -5 0.18701233E-01 0.15769570E+03</pdfrwt>
<totfact> 0.16501152E+02</totfact>
</mgrwt>
</event>
<event>
 8    1  0.3763376E-007  0.1316455E+03  0.7546771E-02  0.1225042E+00
          5   -1    0    0  501    0  0.00000000000E+00  0.00000000000E+00  0.44475225302E+03  0.44477708638E+03  0.47000000000E+01 0. -1.
         -5   -1    0    0    0  501 -0.00000000000E+00 -0.00000000000E+00 -0.42726580269E+02  0.42984307154E+02  0.47000000000E+01 0. -1.
         25    2    1    2    0    0 -0.13237674521E+02 -0.39088278317E+02  0.12727867090E+03  0.18311308868E+03  0.12500965424E+03 0.  0.
         25    2    1    2    0    0  0.13237674521E+02  0.39088278317E+02  0.27474700185E+03  0.30464830485E+03  0.12498617960E+03 0.  0.
          5    1    3    3  502    0 -0.59684319984E+02 -0.69592758378E+01  0.23156706167E+02  0.64567581747E+02  0.47000000000E+01 0.  1.
         -5    1    3    3    0  502  0.46446645463E+02 -0.32129002479E+02  0.10412196473E+03  0.11854550694E+03  0.47000000000E+01 0.  1.
          5    1    4    4  503    0 -0.64277522655E+01 -0.10246225638E+02 -0.90922348234E+01  0.15844868983E+02  0.47000000000E+01 0.  1.
         -5    1    4    4    0  503  0.19665426787E+02  0.49334503955E+02  0.28383923668E+03  0.28880343587E+03  0.47000000000E+01 0.  1.
<mgrwt>
<rscale>  0 0.13163995E+03</rscale>
<asrwt>0</asrwt>
<pdfrwt beam="1">  1        5 0.68445158E-01 0.13164552E+03</pdfrwt>
<pdfrwt beam="2">  1       -5 0.65950555E-02 0.13164552E+03</pdfrwt>
<totfact> 0.22485011E+02</totfact>
</mgrwt>
</event>
<event>
 8    1  0.3763376E-007  0.1370935E+03  0.7546771E-02  0.1217296E+00
         -5   -1    0    0    0  501 -0.00000000000E+00  0.00000000000E+00  0.15526674595E+03  0.15533786530E+03  0.47000000000E+01 0. -1.
          5   -1    0    0  501    0  0.00000000000E+00 -0.00000000000E+00 -0.12391232711E+03  0.12400143068E+03  0.47000000000E+01 0. -1.
         25    2    1    2    0    0 -0.12885410432E+02 -0.54781249033E+02 -0.60930224578E+01  0.13722337711E+03  0.12500444494E+03 0.  0.
         25    2    1    2    0    0  0.12885410432E+02  0.54781249033E+02  0.37447441290E+02  0.14211591888E+03  0.12501041753E+03 0.  0.
          5    1    3    3  502    0 -0.49972925297E+01 -0.88342591908E+02 -0.31606650642E+02  0.94076866670E+02  0.47000000000E+01 0.  1.
         -5    1    3    3    0  502 -0.78881179023E+01  0.33561342875E+02  0.25513628184E+02  0.43146510435E+02  0.47000000000E+01 0.  1.
          5    1    4    4  503    0  0.37458654293E+02 -0.12924697721E+02 -0.24647049090E+02  0.46901659048E+02  0.47000000000E+01 0. -1.
         -5    1    4    4    0  503 -0.24573243861E+02  0.67705946754E+02  0.62094490381E+02  0.95214259831E+02  0.47000000000E+01 0. -1.
<mgrwt>
<rscale>  0 0.13709212E+03</rscale>
<asrwt>0</asrwt>
<pdfrwt beam="2">  1        5 0.19075760E-01 0.13709348E+03</pdfrwt>
<pdfrwt beam="1">  1       -5 0.23899516E-01 0.13709348E+03</pdfrwt>
<totfact> 0.30428092E+02</totfact>
</mgrwt>
</event>
<event>
 8    1  0.3763376E-007  0.2160223E+03  0.7546771E-02  0.1136884E+00
         -5   -1    0    0    0  501 -0.00000000000E+00  0.00000000000E+00  0.39486327932E+02  0.39765061216E+02  0.47000000000E+01 0.  1.
          5   -1    0    0  501    0  0.00000000000E+00 -0.00000000000E+00 -0.14524364716E+04  0.14524440760E+04  0.47000000000E+01 0.  1.
         25    2    1    2    0    0 -0.17495247326E+03  0.20796095954E+02 -0.38181827694E+03  0.43869189407E+03  0.12499814322E+03 0.  0.
         25    2    1    2    0    0  0.17495247326E+03 -0.20796095954E+02 -0.10311318667E+04  0.10535172432E+04  0.12499923845E+03 0.  0.
          5    1    4    4  502    0  0.48531961170E+01  0.27246905418E+02 -0.57810631014E+02  0.64265904068E+02  0.47000000000E+01 0. -1.
         -5    1    4    4    0  502  0.17009927714E+03 -0.48043001372E+02 -0.97332123570E+03  0.98925133911E+03  0.47000000000E+01 0. -1.
          5    1    3    3  503    0 -0.46332972275E+02  0.55729564856E+02 -0.20313337655E+03  0.21572618615E+03  0.47000000000E+01 0.  1.
         -5    1    3    3    0  503 -0.12861950099E+03 -0.34933468902E+02 -0.17868490039E+03  0.22296570793E+03  0.47000000000E+01 0.  1.
<mgrwt>
<rscale>  0 0.21602219E+03</rscale>
<asrwt>0</asrwt>
<pdfrwt beam="2">  1        5 0.22347375E+00 0.21602235E+03</pdfrwt>
<pdfrwt beam="1">  1       -5 0.60968468E-02 0.21602235E+03</pdfrwt>
<totfact> 0.12775919E+01</totfact>
</mgrwt>
</event>
<event>
 8    1  0.3763376E-007  0.1619809E+03  0.7546771E-02  0.1186481E+00
          5   -1    0    0  501    0  0.00000000000E+00  0.00000000000E+00  0.21949741246E+03  0.21954772620E+03  0.47000000000E+01 0. -1.
         -5   -1    0    0    0  501 -0.00000000000E+00 -0.00000000000E+00 -0.21143631768E+03  0.21148854918E+03  0.47000000000E+01 0. -1.
         25    2    1    2    0    0 -0.36461259250E+02 -0.96330378854E+02 -0.13810528953E+03  0.21285650373E+03  0.12500341943E+03 0.  0.
         25    2    1    2    0    0  0.36461259250E+02  0.96330378854E+02  0.14616638431E+03  0.21817977164E+03  0.12501534120E+03 0.  0.
          5    1    3    3  502    0  0.43163471082E+02 -0.48708848844E+02 -0.34896126751E+02  0.73996397573E+02  0.47000000000E+01 0.  1.
         -5    1    3    3    0  502 -0.79624730332E+02 -0.47621530010E+02 -0.10320916278E+03  0.13886010616E+03  0.47000000000E+01 0.  1.
          5    1    4    4  503    0  0.47274714366E+02  0.12267723555E+03  0.13065363888E+03  0.18541053393E+03  0.47000000000E+01 0.  1.
         -5    1    4    4    0  503 -0.10813455116E+02 -0.26346856695E+02  0.15512745436E+02  0.32769237712E+02  0.47000000000E+01 0.  1.
<mgrwt>
<rscale>  0 0.16197857E+03</rscale>
<asrwt>0</asrwt>
<pdfrwt beam="1">  1        5 0.33776721E-01 0.16198087E+03</pdfrwt>
<pdfrwt beam="2">  1       -5 0.32536552E-01 0.16198087E+03</pdfrwt>
<totfact> 0.58641627E+01</totfact>
</mgrwt>
</event>
<event>
 8    1  0.3763376E-007  0.1286192E+03  0.7546771E-02  0.1229519E+00
         -5   -1    0    0    0  501 -0.00000000000E+00  0.00000000000E+00  0.16134819288E+03  0.16141663281E+03  0.47000000000E+01 0.  1.
          5   -1    0    0  501    0  0.00000000000E+00 -0.00000000000E+00 -0.13469353143E+03  0.13477550745E+03  0.47000000000E+01 0.  1.
         25    2    1    2    0    0  0.27788343270E+02 -0.12141522849E+02  0.85815957097E+02  0.15461976010E+03  0.12499313230E+03 0.  0.
         25    2    1    2    0    0 -0.27788343270E+02  0.12141522849E+02 -0.59161295642E+02  0.14157238016E+03  0.12499228505E+03 0.  0.
          5    1    3    3  502    0 -0.40619066113E+02 -0.36531142910E+02  0.46544315870E+02  0.71922849457E+02  0.47000000000E+01 0.  1.
         -5    1    3    3    0  502  0.68407409383E+02  0.24389620061E+02  0.39271641227E+02  0.82696910643E+02  0.47000000000E+01 0.  1.
          5    1    4    4  503    0 -0.64657041546E+02  0.45076038847E+02 -0.36232458071E+02  0.86874986719E+02  0.47000000000E+01 0. -1.
         -5    1    4    4    0  503  0.36868698276E+02 -0.32934515998E+02 -0.22928837571E+02  0.54697393438E+02  0.47000000000E+01 0. -1.
<mgrwt>
<rscale>  0 0.12861897E+03</rscale>
<asrwt>0</asrwt>
<pdfrwt beam="2">  1        5 0.20733652E-01 0.12861917E+03</pdfrwt>
<pdfrwt beam="1">  1       -5 0.24834369E-01 0.12861917E+03</pdfrwt>
<totfact> 0.23673638E+02</totfact>
</mgrwt>
</event>
<event>
 8    1  0.3763376E-007  0.1338180E+03  0.7546771E-02  0.1221899E+00
          5   -1    0    0  501    0  0.00000000000E+00  0.00000000000E+00  0.22869312920E+03  0.22874142026E+03  0.47000000000E+01 0. -1.
         -5   -1    0    0    0  501 -0.00000000000E+00 -0.00000000000E+00 -0.78453416798E+02  0.78594074886E+02  0.47000000000E+01 0. -1.
         25    2    1    2    0    0  0.15206460398E+02 -0.45275153285E+02  0.65956190360E+02  0.14918941758E+03  0.12500474922E+03 0.  0.
         25    2    1    2    0    0 -0.15206460398E+02  0.45275153285E+02  0.84283522039E+02  0.15814607757E+03  0.12500157527E+03 0.  0.
          5    1    4    4  502    0 -0.96520875970E+01 -0.42456908600E+02  0.15598692256E+02  0.46488289740E+02  0.47000000000E+01 0.  1.
         -5    1    4    4    0  502 -0.55543728015E+01  0.87732061885E+02  0.68684829783E+02  0.11165778783E+03  0.47000000000E+01 0.  1.
          5    1    3    3  503    0  0.69781204608E+02 -0.16272713669E+02  0.36965684429E+02  0.80763664800E+02  0.47000000000E+01 0. -1.
         -5    1    3    3    0  503 -0.54574744209E+02 -0.29002439616E+02  0.28990505931E+02  0.68425752779E+02  0.47000000000E+01 0. -1.
<mgrwt>
<rscale>  0 0.13381728E+03</rscale>
<asrwt>0</asrwt>
<pdfrwt beam="1">  1        5 0.35198092E-01 0.13381802E+03</pdfrwt>
<pdfrwt beam="2">  1       -5 0.12084291E-01 0.13381802E+03</pdfrwt>
<totfact> 0.32402886E+02</totfact>
</mgrwt>
</event>
<event>
 8    1  0.3763376E-007  0.1522275E+03  0.7546771E-02  0.1197764E+00
         -5   -1    0    0    0  501 -0.00000000000E+00  0.00000000000E+00  0.15562632010E+03  0.15569727521E+03  0.47000000000E+01 0. -1.
          5   -1    0    0  501    0  0.00000000000E+00 -0.00000000000E+00 -0.15723173035E+03  0.15730196130E+03  0.47000000000E+01 0. -1.
         25    2    1    2    0    0  0.83578001525E+02 -0.23722304761E+02  0.35518194306E+02  0.15631623554E+03  0.12500077314E+03 0.  0.
         25    2    1    2    0    0 -0.83578001525E+02  0.23722304761E+02 -0.37123604560E+02  0.15668300097E+03  0.12499348261E+03 0.  0.
          5    1    4    4  502    0 -0.54662040495E+02 -0.49163028778E+02 -0.17735160111E+02  0.75773134909E+02  0.47000000000E+01 0. -1.
         -5    1    4    4    0  502 -0.28915961030E+02  0.72885333539E+02 -0.19388444450E+02  0.80909866058E+02  0.47000000000E+01 0. -1.
          5    1    3    3  503    0  0.56541280221E+02 -0.74801445588E+02  0.27151781656E+02  0.97731683083E+02  0.47000000000E+01 0. -1.
         -5    1    3    3    0  503  0.27036721304E+02  0.51079140827E+02  0.83664126495E+01  0.58584552461E+02  0.47000000000E+01 0. -1.
<mgrwt>
<rscale>  0 0.15222604E+03</rscale>
<asrwt>0</asrwt>
<pdfrwt beam="2">  1        5 0.24200358E-01 0.15222754E+03</pdfrwt>
<pdfrwt beam="1">  1       -5 0.23953371E-01 0.15222754E+03</pdfrwt>
<totfact> 0.20046255E+02</totfact>
</mgrwt>
</event>
<event>
 8    1  0.3763376E-007  0.1600279E+03  0.7546771E-02  0.1188668E+00
         -5   -1    0    0    0  501 -0.00000000000E+00  0.00000000000E+00  0.90546523230E+02  0.90668422668E+02  0.47000000000E+01 0.  1.
          5   -1    0    0  501    0  0.00000000000E+00 -0.00000000000E+00 -0.28253021954E+03  0.28256931000E+03  0.47000000000E+01 0.  1.
         25    2    1    2    0    0 -0.77677616459E+02  0.62831703502E+02 -0.98503498742E+02  0.18790698940E+03  0.12499784933E+03 0.  0.
         25    2    1    2    0    0  0.77677616459E+02 -0.62831703502E+02 -0.93480197572E+02  0.18533074327E+03  0.12500920766E+03 0.  0.
          5    1    3    3  502    0 -0.98491182911E+02  0.80027389904E+02 -0.98150146894E+02  0.16050058436E+03  0.47000000000E+01 0.  1.
         -5    1    3    3    0  502  0.20813566452E+02 -0.17195686402E+02 -0.35335184799E+00  0.27406405033E+02  0.47000000000E+01 0.  1.
          5    1    4    4  503    0  0.57138852613E+02 -0.78424017068E+02 -0.11562425649E+03  0.15101732887E+03  0.47000000000E+01 0.  1.
         -5    1    4    4    0  503  0.20538763846E+02  0.15592313566E+02  0.22144058916E+02  0.34313414402E+02  0.47000000000E+01 0.  1.
<mgrwt>
<rscale>  0 0.16002571E+03</rscale>
<asrwt>0</asrwt>
<pdfrwt beam="2">  1        5 0.43478571E-01 0.16002793E+03</pdfrwt>
<pdfrwt beam="1">  1       -5 0.13942618E-01 0.16002793E+03</pdfrwt>
<totfact> 0.17307618E+02</totfact>
</mgrwt>
</event>
<event>
 8    1  0.3763376E-007  0.1468966E+03  0.7546771E-02  0.1204342E+00
         -5   -1    0    0    0  501 -0.00000000000E+00  0.00000000000E+00  0.73271916386E+03  0.73273423770E+03  0.47000000000E+01 0. -1.
          5   -1    0    0  501    0  0.00000000000E+00 -0.00000000000E+00 -0.33410948005E+02  0.33739908812E+02  0.47000000000E+01 0. -1.
         25    2    1    2    0    0  0.72761722299E+02  0.25670362924E+02  0.48424956946E+03  0.50603976751E+03  0.12500146005E+03 0.  0.
         25    2    1    2    0    0 -0.72761722299E+02 -0.25670362924E+02  0.21505864639E+03  0.26043437900E+03  0.12499043407E+03 0.  0.
          5    1    3    3  502    0 -0.25569765885E+01  0.30468620033E+02  0.22783976228E+02  0.38419715105E+02  0.47000000000E+01 0. -1.
         -5    1    3    3    0  502  0.75318698888E+02 -0.47982571088E+01  0.46146559324E+03  0.46762005241E+03  0.47000000000E+01 0. -1.
          5    1    4    4  503    0  0.29753278343E+02  0.13313905437E+02  0.79147800532E+02  0.85726203574E+02  0.47000000000E+01 0.  1.
         -5    1    4    4    0  503 -0.10251500064E+03 -0.38984268360E+02  0.13591084586E+03  0.17470817542E+03  0.47000000000E+01 0.  1.
<mgrwt>
<rscale>  0 0.14689422E+03</rscale>
<asrwt>0</asrwt>
<pdfrwt beam="2">  1        5 0.51666099E-02 0.14689656E+03</pdfrwt>
<pdfrwt beam="1">  1       -5 0.11275249E+00 0.14689656E+03</pdfrwt>
<totfact> 0.10775089E+02</totfact>
</mgrwt>
</event>
<event>
 8    1  0.3763376E-007  0.1710931E+03  0.7546771E-02  0.1176715E+00
          5   -1    0    0  501    0  0.00000000000E+00  0.00000000000E+00  0.10601587425E+04  0.10601691607E+04  0.47000000000E+01 0.  1.
         -5   -1    0    0    0  501 -0.00000000000E+00 -0.00000000000E+00 -0.27706795003E+02  0.28102606451E+02  0.47000000000E+01 0.  1.
         25    2    1    2    0    0 -0.94069532998E+01  0.11643501464E+03  0.45933953941E+03  0.49016584290E+03  0.12499655065E+03 0.  0.
         25    2    1    2    0    0  0.94069532998E+01 -0.11643501464E+03  0.57311240808E+03  0.59810592424E+03  0.12500904333E+03 0.  0.
          5    1    4    4  502    0 -0.53375278162E+02 -0.85571063104E+02  0.34204261039E+03  0.35663225384E+03  0.47000000000E+01 0. -1.
         -5    1    4    4    0  502  0.62782231461E+02 -0.30863951535E+02  0.23106979769E+03  0.24147367040E+03  0.47000000000E+01 0. -1.
          5    1    3    3  503    0 -0.15699969038E+02 -0.14637124324E+02  0.18190007224E+03  0.18322243508E+03  0.47000000000E+01 0.  1.
         -5    1    3    3    0  503  0.62930157378E+01  0.13107213896E+03  0.27743946718E+03  0.30694340782E+03  0.47000000000E+01 0.  1.
<mgrwt>
<rscale>  0 0.17109086E+03</rscale>
<asrwt>0</asrwt>
<pdfrwt beam="1">  1        5 0.16313260E+00 0.17109315E+03</pdfrwt>
<pdfrwt beam="2">  1       -5 0.42938320E-02 0.17109315E+03</pdfrwt>
<totfact> 0.57395565E+01</totfact>
</mgrwt>
</event>
<event>
 8    1  0.3763376E-007  0.1295520E+03  0.7546771E-02  0.1228124E+00
          5   -1    0    0  501    0  0.00000000000E+00  0.00000000000E+00  0.80958725130E+03  0.80960089394E+03  0.47000000000E+01 0. -1.
         -5   -1    0    0    0  501 -0.00000000000E+00 -0.00000000000E+00 -0.20582659733E+02  0.21112457973E+02  0.47000000000E+01 0. -1.
         25    2    1    2    0    0 -0.30465803824E+02  0.15194029355E+02  0.36158861780E+03  0.38409479522E+03  0.12499383769E+03 0.  0.
         25    2    1    2    0    0  0.30465803824E+02 -0.15194029355E+02  0.42741597377E+03  0.44661855670E+03  0.12499878728E+03 0.  0.
          5    1    3    3  502    0  0.28224956011E+02  0.24276204945E+02  0.28300347138E+03  0.28548036199E+03  0.47000000000E+01 0.  1.
         -5    1    3    3    0  502 -0.58690759835E+02 -0.90821755904E+01  0.78585146422E+02  0.98614433232E+02  0.47000000000E+01 0.  1.
          5    1    4    4  503    0 -0.19427938937E+01  0.13332340074E+02  0.38709187029E+03  0.38735478800E+03  0.47000000000E+01 0. -1.
         -5    1    4    4    0  503  0.32408597718E+02 -0.28526369428E+02  0.40324103476E+02  0.59263768695E+02  0.47000000000E+01 0. -1.
<mgrwt>
<rscale>  0 0.12955081E+03</rscale>
<asrwt>0</asrwt>
<pdfrwt beam="1">  1        5 0.12459371E+00 0.12955200E+03</pdfrwt>
<pdfrwt beam="2">  1       -5 0.32083657E-02 0.12955200E+03</pdfrwt>
<totfact> 0.17560406E+02</totfact>
</mgrwt>
</event>
<event>
 8    1  0.3763376E-007  0.1380513E+03  0.7546771E-02  0.1215978E+00
         -5   -1    0    0    0  501 -0.00000000000E+00  0.00000000000E+00  0.11132002342E+03  0.11141919769E+03  0.47000000000E+01 0.  1.
          5   -1    0    0  501    0  0.00000000000E+00 -0.00000000000E+00 -0.17385910618E+03  0.17392262303E+03  0.47000000000E+01 0.  1.
         25    2    1    2    0    0 -0.49820371428E+02 -0.30810568267E+02 -0.12928024511E+02  0.13864684985E+03  0.12499781850E+03 0.  0.
         25    2    1    2    0    0  0.49820371428E+02  0.30810568267E+02 -0.49611058246E+02  0.14669497087E+03  0.12500718720E+03 0.  0.
          5    1    4    4  502    0  0.13891809691E+02 -0.47037440680E+02 -0.39166226153E+01  0.49426037014E+02  0.47000000000E+01 0. -1.
         -5    1    4    4    0  502  0.35928561737E+02  0.77848008947E+02 -0.45694435631E+02  0.97268933854E+02  0.47000000000E+01 0. -1.
          5    1    3    3  503    0 -0.26587265233E+02 -0.35349044269E+02 -0.66433827484E+02  0.79949865775E+02  0.47000000000E+01 0. -1.
         -5    1    3    3    0  503 -0.23233106195E+02  0.45384760023E+01  0.53505802973E+02  0.58696984076E+02  0.47000000000E+01 0. -1.
<mgrwt>
<rscale>  0 0.13804916E+03</rscale>
<asrwt>0</asrwt>
<pdfrwt beam="2">  1        5 0.26760069E-01 0.13805129E+03</pdfrwt>
<pdfrwt beam="1">  1       -5 0.17138672E-01 0.13805129E+03</pdfrwt>
<totfact> 0.29917077E+02</totfact>
</mgrwt>
</event>
<event>
 8    1  0.3763376E-007  0.1323264E+03  0.7546771E-02  0.1224045E+00
          5   -1    0    0  501    0  0.00000000000E+00  0.00000000000E+00  0.12880154274E+03  0.12888726629E+03  0.47000000000E+01 0.  1.
         -5   -1    0    0    0  501 -0.00000000000E+00 -0.00000000000E+00 -0.17040514540E+03  0.17046994919E+03  0.47000000000E+01 0.  1.
         25    2    1    2    0    0 -0.31620065600E+02 -0.29751772762E+02 -0.88246728556E+02  0.15905273645E+03  0.12500116535E+03 0.  0.
         25    2    1    2    0    0  0.31620065600E+02  0.29751772762E+02  0.46643125897E+02  0.14030447903E+03  0.12499907644E+03 0.  0.
          5    1    4    4  502    0  0.62768964181E+00  0.62428848225E+02 -0.14455195479E+02  0.64255721624E+02  0.47000000000E+01 0.  1.
         -5    1    4    4    0  502  0.30992375958E+02 -0.32677075464E+02  0.61098321376E+02  0.76048757408E+02  0.47000000000E+01 0.  1.
          5    1    3    3  503    0  0.30298893648E+02 -0.47216916778E+02 -0.92318915289E+01  0.57050661762E+02  0.47000000000E+01 0. -1.
         -5    1    3    3    0  503 -0.61918959248E+02  0.17465144016E+02 -0.79014837027E+02  0.10200207469E+03  0.47000000000E+01 0. -1.
<mgrwt>
<rscale>  0 0.13232595E+03</rscale>
<asrwt>0</asrwt>
<pdfrwt beam="1">  1        5 0.19827201E-01 0.13232644E+03</pdfrwt>
<pdfrwt beam="2">  1       -5 0.26227755E-01 0.13232644E+03</pdfrwt>
<totfact> 0.23413316E+02</totfact>
</mgrwt>
</event>
<event>
 8    1  0.3763376E-007  0.1353870E+03  0.7546771E-02  0.1219675E+00
          5   -1    0    0  501    0  0.00000000000E+00  0.00000000000E+00  0.34800155793E+03  0.34803329485E+03  0.47000000000E+01 0. -1.
         -5   -1    0    0    0  501 -0.00000000000E+00 -0.00000000000E+00 -0.52752183936E+02  0.52961145287E+02  0.47000000000E+01 0. -1.
         25    2    1    2    0    0 -0.24358099202E+02  0.45957620369E+02  0.16055105842E+03  0.21001495292E+03  0.12499687286E+03 0.  0.
         25    2    1    2    0    0  0.24358099202E+02 -0.45957620369E+02  0.13469831558E+03  0.19097948721E+03  0.12499643375E+03 0.  0.
          5    1    3    3  502    0 -0.61816236447E+02  0.59248615747E+02  0.14203859141E+03  0.16591774169E+03  0.47000000000E+01 0.  1.
         -5    1    3    3    0  502  0.37458137245E+02 -0.13290995378E+02  0.18512467009E+02  0.44097211236E+02  0.47000000000E+01 0.  1.
          5    1    4    4  503    0  0.62997775523E+02 -0.55912438022E+02  0.52168312765E+02  0.99189431408E+02  0.47000000000E+01 0. -1.
         -5    1    4    4    0  503 -0.38639676321E+02  0.99548176521E+01  0.82530002810E+02  0.91790055804E+02  0.47000000000E+01 0. -1.
<mgrwt>
<rscale>  0 0.13538689E+03</rscale>
<asrwt>0</asrwt>
<pdfrwt beam="1">  1        5 0.53557216E-01 0.13538699E+03</pdfrwt>
<pdfrwt beam="2">  1       -5 0.81342360E-02 0.13538699E+03</pdfrwt>
<totfact> 0.27186954E+02</totfact>
</mgrwt>
</event>
<event>
 8    1  0.3763376E-007  0.1297602E+03  0.7546771E-02  0.1227816E+00
         -5   -1    0    0    0  501 -0.00000000000E+00  0.00000000000E+00  0.10620884992E+03  0.10631279227E+03  0.47000000000E+01 0.  1.
          5   -1    0    0  501    0  0.00000000000E+00 -0.00000000000E+00 -0.16399697778E+03  0.16406431276E+03  0.47000000000E+01 0.  1.
         25    2    1    2    0    0  0.30624504876E+02 -0.16501588857E+02 -0.37219201526E+01  0.12980379068E+03  0.12500003461E+03 0.  0.
         25    2    1    2    0    0 -0.30624504876E+02  0.16501588857E+02 -0.54066207707E+02  0.14057331434E+03  0.12501015621E+03 0.  0.
          5    1    3    3  502    0  0.52345562942E+02  0.41105255292E+02  0.71686203416E+01  0.67105730679E+02  0.47000000000E+01 0.  1.
         -5    1    3    3    0  502 -0.21721058066E+02 -0.57606844148E+02 -0.10890540494E+02  0.62698060006E+02  0.47000000000E+01 0.  1.
          5    1    4    4  503    0  0.42408763731E+02  0.15119447477E+02 -0.49729726793E+02  0.67247577354E+02  0.47000000000E+01 0.  1.
         -5    1    4    4    0  503 -0.73033268607E+02  0.13821413800E+01 -0.43364809143E+01  0.73325736989E+02  0.47000000000E+01 0.  1.
<mgrwt>
<rscale>  0 0.12975773E+03</rscale>
<asrwt>0</asrwt>
<pdfrwt beam="2">  1        5 0.25243480E-01 0.12976017E+03</pdfrwt>
<pdfrwt beam="1">  1       -5 0.16352998E-01 0.12976017E+03</pdfrwt>
<totfact> 0.35685124E+02</totfact>
</mgrwt>
</event>
<event>
 8    1  0.3763376E-007  0.1504840E+03  0.7546771E-02  0.1199880E+00
          5   -1    0    0  501    0  0.00000000000E+00  0.00000000000E+00  0.25969106060E+03  0.25973358842E+03  0.47000000000E+01 0. -1.
         -5   -1    0    0    0  501 -0.00000000000E+00 -0.00000000000E+00 -0.87122577169E+02  0.87249260470E+02  0.47000000000E+01 0. -1.
         25    2    1    2    0    0 -0.14553180081E+02 -0.82512386411E+02  0.82829157173E+02  0.17177344237E+03  0.12500142904E+03 0.  0.
         25    2    1    2    0    0  0.14553180081E+02  0.82512386411E+02  0.89739326258E+02  0.17520940653E+03  0.12500040198E+03 0.  0.
          5    1    4    4  502    0 -0.33208384078E+02  0.14079995426E+02  0.83871742101E+02  0.91419922158E+02  0.47000000000E+01 0.  1.
         -5    1    4    4    0  502  0.47761564159E+02  0.68432390985E+02  0.58675841568E+01  0.83789484368E+02  0.47000000000E+01 0.  1.
          5    1    3    3  503    0 -0.30287008803E+02  0.20648407801E+02  0.50200690778E+02  0.62336658569E+02  0.47000000000E+01 0. -1.
         -5    1    3    3    0  503  0.15733828723E+02 -0.10316079421E+03  0.32628466395E+02  0.10943678380E+03  0.47000000000E+01 0. -1.
<mgrwt>
<rscale>  0 0.15048383E+03</rscale>
<asrwt>0</asrwt>
<pdfrwt beam="1">  1        5 0.39965487E-01 0.15048404E+03</pdfrwt>
<pdfrwt beam="2">  1       -5 0.13416490E-01 0.15048404E+03</pdfrwt>
<totfact> 0.21629357E+02</totfact>
</mgrwt>
</event>
<event>
 8    1  0.3763376E-007  0.1300007E+03  0.7546771E-02  0.1227455E+00
          5   -1    0    0  501    0  0.00000000000E+00  0.00000000000E+00  0.85472240455E+03  0.85473532677E+03  0.47000000000E+01 0.  1.
         -5   -1    0    0    0  501 -0.00000000000E+00 -0.00000000000E+00 -0.21335812648E+02  0.21847354562E+02  0.47000000000E+01 0.  1.
         25    2    1    2    0    0 -0.55353770865E+01  0.35270416850E+02  0.28905826117E+03  0.31694612935E+03  0.12500211141E+03 0.  0.
         25    2    1    2    0    0  0.55353770865E+01 -0.35270416850E+02  0.54432833073E+03  0.55963655198E+03  0.12500038391E+03 0.  0.
          5    1    3    3  502    0  0.39167074452E+02  0.52017274386E+02  0.23841818749E+03  0.24719461701E+03  0.47000000000E+01 0. -1.
         -5    1    3    3    0  502 -0.44702451539E+02 -0.16746857536E+02  0.50640073683E+02  0.69751512339E+02  0.47000000000E+01 0. -1.
          5    1    4    4  503    0  0.58872776954E+02 -0.45667139380E+02  0.34460521105E+03  0.35259939445E+03  0.47000000000E+01 0. -1.
         -5    1    4    4    0  503 -0.53337399868E+02  0.10396722530E+02  0.19972311967E+03  0.20703715753E+03  0.47000000000E+01 0. -1.
<mgrwt>
<rscale>  0 0.13000024E+03</rscale>
<asrwt>0</asrwt>
<pdfrwt beam="1">  1        5 0.13153607E+00 0.13000066E+03</pdfrwt>
<pdfrwt beam="2">  1       -5 0.33227767E-02 0.13000066E+03</pdfrwt>
<totfact> 0.14435674E+02</totfact>
</mgrwt>
</event>
<event>
 8    1  0.3763376E-007  0.1282425E+03  0.7546771E-02  0.1230088E+00
          5   -1    0    0  501    0  0.00000000000E+00  0.00000000000E+00  0.61425790060E+02  0.61605338116E+02  0.47000000000E+01 0. -1.
         -5   -1    0    0    0  501 -0.00000000000E+00 -0.00000000000E+00 -0.30366259716E+03  0.30369896758E+03  0.47000000000E+01 0. -1.
         25    2    1    2    0    0  0.26138959927E+02 -0.11755271948E+02 -0.18443477199E+03  0.22463722852E+03  0.12499707067E+03 0.  0.
         25    2    1    2    0    0 -0.26138959927E+02  0.11755271948E+02 -0.57802035110E+02  0.14066707718E+03  0.12499887877E+03 0.  0.
          5    1    3    3  502    0 -0.29200785527E+02 -0.29959459473E+02 -0.13851950672E+02  0.44319539988E+02  0.47000000000E+01 0.  1.
         -5    1    3    3    0  502  0.55339745454E+02  0.18204187525E+02 -0.17058282131E+03  0.18031768853E+03  0.47000000000E+01 0.  1.
          5    1    4    4  503    0  0.40057290156E+02  0.22983434257E+02 -0.56796323611E+02  0.73353507896E+02  0.47000000000E+01 0. -1.
         -5    1    4    4    0  503 -0.66196250083E+02 -0.11228162309E+02 -0.10057114984E+01  0.67313569283E+02  0.47000000000E+01 0. -1.
<mgrwt>
<rscale>  0 0.12824211E+03</rscale>
<asrwt>0</asrwt>
<pdfrwt beam="1">  1        5 0.94667309E-02 0.12824255E+03</pdfrwt>
<pdfrwt beam="2">  1       -5 0.46733931E-01 0.12824255E+03</pdfrwt>
<totfact> 0.27397629E+02</totfact>
</mgrwt>
</event>
<event>
 8    1  0.3763376E-007  0.1368155E+03  0.7546771E-02  0.1217682E+00
          5   -1    0    0  501    0  0.00000000000E+00  0.00000000000E+00  0.60951235170E+02  0.61132177032E+02  0.47000000000E+01 0.  1.
         -5   -1    0    0    0  501 -0.00000000000E+00 -0.00000000000E+00 -0.32936537941E+03  0.32939891188E+03  0.47000000000E+01 0.  1.
         25    2    1    2    0    0  0.42753442124E+02  0.35546521035E+02 -0.18570840289E+03  0.23066016745E+03  0.12500035988E+03 0.  0.
         25    2    1    2    0    0 -0.42753442124E+02 -0.35546521035E+02 -0.82705741342E+02  0.15987092147E+03  0.12500823937E+03 0.  0.
          5    1    3    3  502    0 -0.13596161241E+02 -0.30399946231E+02 -0.11133016894E+03  0.11629922118E+03  0.47000000000E+01 0.  1.
         -5    1    3    3    0  502  0.56349603366E+02  0.65946467266E+02 -0.74378233957E+02  0.11436094627E+03  0.47000000000E+01 0.  1.
          5    1    4    4  503    0 -0.53018300697E+02 -0.24735160337E+02 -0.11212439902E+03  0.12655725669E+03  0.47000000000E+01 0. -1.
         -5    1    4    4    0  503  0.10264858573E+02 -0.10811360697E+02  0.29418657677E+02  0.33313664781E+02  0.47000000000E+01 0. -1.
<mgrwt>
<rscale>  0 0.13681367E+03</rscale>
<asrwt>0</asrwt>
<pdfrwt beam="1">  1        5 0.93936114E-02 0.13681547E+03</pdfrwt>
<pdfrwt beam="2">  1       -5 0.50688094E-01 0.13681547E+03</pdfrwt>
<totfact> 0.23934808E+02</totfact>
</mgrwt>
</event>
<event>
 8    1  0.3763376E-007  0.1269391E+03  0.7546771E-02  0.1232076E+00
          5   -1    0    0  501    0  0.00000000000E+00  0.00000000000E+00  0.16077852819E+04  0.16077921516E+04  0.47000000000E+01 0.  1.
         -5   -1    0    0    0  501 -0.00000000000E+00 -0.00000000000E+00 -0.15671601845E+02  0.16361207302E+02  0.47000000000E+01 0.  1.
         25    2    1    2    0    0 -0.14878915747E+01 -0.21987424956E+02  0.29905586707E+03  0.32488144193E+03  0.12501151548E+03 0.  0.
         25    2    1    2    0    0  0.14878915747E+01  0.21987424956E+02  0.12930578130E+04  0.12992719169E+04  0.12499338302E+03 0.  0.
          5    1    3    3  502    0 -0.61782091114E+02 -0.22313506646E+02  0.17166116873E+03  0.18386018115E+03  0.47000000000E+01 0.  1.
         -5    1    3    3    0  502  0.60294199539E+02  0.32608168999E+00  0.12739469834E+03  0.14102126078E+03  0.47000000000E+01 0.  1.
          5    1    4    4  503    0 -0.33894658265E+02 -0.50813320127E+01  0.10880556466E+03  0.11417271432E+03  0.47000000000E+01 0. -1.
         -5    1    4    4    0  503  0.35382549840E+02  0.27068756968E+02  0.11842522483E+04  0.11850992026E+04  0.47000000000E+01 0. -1.
<mgrwt>
<rscale>  0 0.12693465E+03</rscale>
<asrwt>0</asrwt>
<pdfrwt beam="1">  1        5 0.24740529E+00 0.12693912E+03</pdfrwt>
<pdfrwt beam="2">  1       -5 0.24645893E-02 0.12693912E+03</pdfrwt>
<totfact> 0.34985157E+01</totfact>
</mgrwt>
</event>
<event>
 8    1  0.3763376E-007  0.1806350E+03  0.7546771E-02  0.1167191E+00
          5   -1    0    0  501    0  0.00000000000E+00  0.00000000000E+00  0.74434681134E+02  0.74582918658E+02  0.47000000000E+01 0.  1.
         -5   -1    0    0    0  501 -0.00000000000E+00 -0.00000000000E+00 -0.44507922509E+03  0.44510404020E+03  0.47000000000E+01 0.  1.
         25    2    1    2    0    0  0.12308969715E+03 -0.43012198956E+02 -0.21865720581E+03  0.28361939371E+03  0.12501145562E+03 0.  0.
         25    2    1    2    0    0 -0.12308969715E+03  0.43012198956E+02 -0.15198733815E+03  0.23606756515E+03  0.12500648605E+03 0.  0.
          5    1    3    3  502    0  0.13993383360E+02 -0.62552510932E+02 -0.48591920698E+02  0.80572303920E+02  0.47000000000E+01 0. -1.
         -5    1    3    3    0  502  0.10909631379E+03  0.19540311977E+02 -0.17006528511E+03  0.20304708979E+03  0.47000000000E+01 0. -1.
          5    1    4    4  503    0 -0.65913507452E+02  0.22818770501E+02  0.25879486206E+01  0.69957660266E+02  0.47000000000E+01 0.  1.
         -5    1    4    4    0  503 -0.57176189695E+02  0.20193428455E+02 -0.15457528677E+03  0.16610990488E+03  0.47000000000E+01 0.  1.
<mgrwt>
<rscale>  0 0.18063409E+03</rscale>
<asrwt>0</asrwt>
<pdfrwt beam="1">  1        5 0.11464802E-01 0.18063495E+03</pdfrwt>
<pdfrwt beam="2">  1       -5 0.68487037E-01 0.18063495E+03</pdfrwt>
<totfact> 0.95296795E+01</totfact>
</mgrwt>
</event>
<event>
 8    1  0.3763376E-007  0.1552040E+03  0.7546771E-02  0.1194222E+00
         -5   -1    0    0    0  501 -0.00000000000E+00  0.00000000000E+00  0.49580224968E+03  0.49582452621E+03  0.47000000000E+01 0. -1.
          5   -1    0    0  501    0  0.00000000000E+00 -0.00000000000E+00 -0.61086871314E+02  0.61267412601E+02  0.47000000000E+01 0. -1.
         25    2    1    2    0    0 -0.48836279855E+02 -0.77951231963E+02  0.34383425327E+03  0.37723735437E+03  0.12499860406E+03 0.  0.
         25    2    1    2    0    0  0.48836279855E+02  0.77951231963E+02  0.90881125094E+02  0.17985458443E+03  0.12500766316E+03 0.  0.
          5    1    4    4  502    0  0.57199230331E+02  0.10585409443E+03  0.90010742100E+02  0.15033584054E+03  0.47000000000E+01 0. -1.
         -5    1    4    4    0  502 -0.83629504768E+01 -0.27902862466E+02  0.87038299447E+00  0.29518743893E+02  0.47000000000E+01 0. -1.
          5    1    3    3  503    0 -0.39104366156E+02  0.26121391922E+02  0.73747810048E+02  0.87591712252E+02  0.47000000000E+01 0. -1.
         -5    1    3    3    0  503 -0.97319136986E+01 -0.10407262389E+03  0.27008644322E+03  0.28964564212E+03  0.47000000000E+01 0. -1.
<mgrwt>
<rscale>  0 0.15520221E+03</rscale>
<asrwt>0</asrwt>
<pdfrwt beam="2">  1        5 0.94135819E-02 0.15520404E+03</pdfrwt>
<pdfrwt beam="1">  1       -5 0.76292868E-01 0.15520404E+03</pdfrwt>
<totfact> 0.10076948E+02</totfact>
</mgrwt>
</event>
<event>
 8    1  0.3763376E-007  0.1760827E+03  0.7546771E-02  0.1171650E+00
          5   -1    0    0  501    0  0.00000000000E+00  0.00000000000E+00  0.54753499974E+03  0.54755517159E+03  0.47000000000E+01 0. -1.
         -5   -1    0    0    0  501 -0.00000000000E+00 -0.00000000000E+00 -0.71660352112E+02  0.71814316572E+02  0.47000000000E+01 0. -1.
         25    2    1    2    0    0  0.90787332837E+02 -0.84476472276E+02  0.95720937078E+02  0.20041861558E+03  0.12500603787E+03 0.  0.
         25    2    1    2    0    0 -0.90787332837E+02  0.84476472276E+02  0.38015371055E+03  0.41895087259E+03  0.12499750328E+03 0.  0.
          5    1    3    3  502    0  0.65121424866E+02 -0.95393572587E+02  0.17088613456E+02  0.11685394464E+03  0.47000000000E+01 0. -1.
         -5    1    3    3    0  502  0.25665907971E+02  0.10917100311E+02  0.78632323623E+02  0.83564670941E+02  0.47000000000E+01 0. -1.
          5    1    4    4  503    0 -0.86458055075E+02  0.59866502698E+02  0.37916430412E+03  0.39350559457E+03  0.47000000000E+01 0.  1.
         -5    1    4    4    0  503 -0.43292777620E+01  0.24609969578E+02  0.98940642475E+00  0.25445278022E+02  0.47000000000E+01 0.  1.
<mgrwt>
<rscale>  0 0.17608120E+03</rscale>
<asrwt>0</asrwt>
<pdfrwt beam="1">  1        5 0.84249550E-01 0.17608272E+03</pdfrwt>
<pdfrwt beam="2">  1       -5 0.11038064E-01 0.17608272E+03</pdfrwt>
<totfact> 0.62805464E+01</totfact>
</mgrwt>
</event>
<event>
 8    1  0.3763376E-007  0.1300404E+03  0.7546771E-02  0.1227398E+00
         -5   -1    0    0    0  501 -0.00000000000E+00  0.00000000000E+00  0.18744137668E+03  0.18750029251E+03  0.47000000000E+01 0.  1.
          5   -1    0    0  501    0  0.00000000000E+00 -0.00000000000E+00 -0.10591984509E+03  0.10602407077E+03  0.47000000000E+01 0.  1.
         25    2    1    2    0    0 -0.34053435910E+02  0.11219647273E+02  0.97473413001E+02  0.16251639458E+03  0.12499998114E+03 0.  0.
         25    2    1    2    0    0  0.34053435910E+02 -0.11219647273E+02 -0.15951881407E+02  0.13100796870E+03  0.12499243321E+03 0.  0.
          5    1    4    4  502    0 -0.42306827910E+00 -0.31974471888E+02 -0.61850170542E+02  0.69785954428E+02  0.47000000000E+01 0. -1.
         -5    1    4    4    0  502  0.34476504189E+02  0.20754824615E+02  0.45898289136E+02  0.61222014272E+02  0.47000000000E+01 0. -1.
          5    1    3    3  503    0  0.19410805932E+02  0.57002463049E+01  0.10589242291E+03  0.10790999687E+03  0.47000000000E+01 0. -1.
         -5    1    3    3    0  503 -0.53464241842E+02  0.55194009685E+01 -0.84190099119E+01  0.54606397709E+02  0.47000000000E+01 0. -1.
<mgrwt>
<rscale>  0 0.13003861E+03</rscale>
<asrwt>0</asrwt>
<pdfrwt beam="2">  1        5 0.16307910E-01 0.13004043E+03</pdfrwt>
<pdfrwt beam="1">  1       -5 0.28849684E-01 0.13004043E+03</pdfrwt>
<totfact> 0.27728534E+02</totfact>
</mgrwt>
</event>
<event>
 8    1  0.3763376E-007  0.1308332E+03  0.7546771E-02  0.1226254E+00
          5   -1    0    0  501    0  0.00000000000E+00  0.00000000000E+00  0.21833268603E+03  0.21838326810E+03  0.47000000000E+01 0.  1.
         -5   -1    0    0    0  501 -0.00000000000E+00 -0.00000000000E+00 -0.85541610260E+02  0.85670631409E+02  0.47000000000E+01 0.  1.
         25    2    1    2    0    0 -0.37943780078E+02  0.55973661917E+01  0.21956059365E+02  0.13258457503E+03  0.12500216013E+03 0.  0.
         25    2    1    2    0    0  0.37943780078E+02 -0.55973661917E+01  0.11083501640E+03  0.17146932449E+03  0.12508504077E+03 0.  0.
          5    1    4    4  502    0 -0.41570506371E+02  0.21060140294E+02  0.39912599553E+02  0.61536510400E+02  0.47000000000E+01 0. -1.
         -5    1    4    4    0  502  0.79514286449E+02 -0.26657506486E+02  0.70922416850E+02  0.10993281409E+03  0.47000000000E+01 0. -1.
          5    1    3    3  503    0 -0.69472520524E+02  0.78659272308E+01  0.53131324143E+02  0.87939362770E+02  0.47000000000E+01 0.  1.
         -5    1    3    3    0  503  0.31528740447E+02 -0.22685610391E+01 -0.31175264778E+02  0.44645212255E+02  0.47000000000E+01 0.  1.
<mgrwt>
<rscale>  0 0.13081339E+03</rscale>
<asrwt>0</asrwt>
<pdfrwt beam="1">  1        5 0.33603459E-01 0.13083321E+03</pdfrwt>
<pdfrwt beam="2">  1       -5 0.13174063E-01 0.13083321E+03</pdfrwt>
<totfact> 0.30242073E+02</totfact>
</mgrwt>
</event>
<event>
 8    1  0.3763376E-007  0.1597402E+03  0.7546771E-02  0.1188996E+00
         -5   -1    0    0    0  501 -0.00000000000E+00  0.00000000000E+00  0.88440607625E+02  0.88565405645E+02  0.47000000000E+01 0.  1.
          5   -1    0    0  501    0  0.00000000000E+00 -0.00000000000E+00 -0.29474573493E+03  0.29478320552E+03  0.47000000000E+01 0.  1.
         25    2    1    2    0    0  0.76051309379E+02 -0.64045083406E+02 -0.74448557408E+02  0.17621799139E+03  0.12499847368E+03 0.  0.
         25    2    1    2    0    0 -0.76051309379E+02  0.64045083406E+02 -0.13185656989E+03  0.20713061978E+03  0.12502545444E+03 0.  0.
          5    1    3    3  502    0  0.10736754133E+02 -0.17156409639E+02 -0.91553882251E+02  0.93881966512E+02  0.47000000000E+01 0. -1.
         -5    1    3    3    0  502  0.65314555245E+02 -0.46888673767E+02  0.17105324842E+02  0.82336024877E+02  0.47000000000E+01 0. -1.
          5    1    4    4  503    0 -0.70297676203E+02  0.10034608086E+03 -0.10393548901E+03  0.16073510848E+03  0.47000000000E+01 0.  1.
         -5    1    4    4    0  503 -0.57536331756E+01 -0.36300997451E+02 -0.27921080883E+02  0.46395511295E+02  0.47000000000E+01 0.  1.
<mgrwt>
<rscale>  0 0.15973494E+03</rscale>
<asrwt>0</asrwt>
<pdfrwt beam="2">  1        5 0.45357979E-01 0.15974022E+03</pdfrwt>
<pdfrwt beam="1">  1       -5 0.13618730E-01 0.15974022E+03</pdfrwt>
<totfact> 0.16521499E+02</totfact>
</mgrwt>
</event>
<event>
 8    1  0.3763376E-007  0.1412431E+03  0.7546771E-02  0.1211667E+00
         -5   -1    0    0    0  501 -0.00000000000E+00  0.00000000000E+00  0.25119584830E+03  0.25123981413E+03  0.47000000000E+01 0.  1.
          5   -1    0    0  501    0  0.00000000000E+00 -0.00000000000E+00 -0.79297447101E+02  0.79436610682E+02  0.47000000000E+01 0.  1.
         25    2    1    2    0    0  0.60968181979E+02  0.24625093865E+02  0.85566017657E+02  0.16513976791E+03  0.12500434035E+03 0.  0.
         25    2    1    2    0    0 -0.60968181979E+02 -0.24625093865E+02  0.86332383544E+02  0.16553665690E+03  0.12500235945E+03 0.  0.
          5    1    3    3  502    0  0.25621832288E+02 -0.25512254218E+02  0.96041931933E+02  0.10273021023E+03  0.47000000000E+01 0.  1.
         -5    1    3    3    0  502  0.35346349691E+02  0.50137348084E+02 -0.10475914276E+02  0.62409557676E+02  0.47000000000E+01 0.  1.
          5    1    4    4  503    0  0.57391527756E+00 -0.50607284246E+02  0.84421967576E+02  0.98542301612E+02  0.47000000000E+01 0.  1.
         -5    1    4    4    0  503 -0.61542097257E+02  0.25982190381E+02  0.19104159674E+01  0.66994355292E+02  0.47000000000E+01 0.  1.
<mgrwt>
<rscale>  0 0.14124261E+03</rscale>
<asrwt>0</asrwt>
<pdfrwt beam="2">  1        5 0.12213694E-01 0.14124305E+03</pdfrwt>
<pdfrwt beam="1">  1       -5 0.38659602E-01 0.14124305E+03</pdfrwt>
<totfact> 0.26797980E+02</totfact>
</mgrwt>
</event>
<event>
 8    1  0.3763376E-007  0.1295480E+03  0.7546771E-02  0.1228138E+00
          5   -1    0    0  501    0  0.00000000000E+00  0.00000000000E+00  0.15041767771E+03  0.15049108866E+03  0.47000000000E+01 0.  1.
         -5   -1    0    0    0  501 -0.00000000000E+00 -0.00000000000E+00 -0.22182318219E+03  0.22187296851E+03  0.47000000000E+01 0.  1.
         25    2    1    2    0    0 -0.25114720713E+02 -0.22964148477E+02 -0.16702128741E+03  0.21137361373E+03  0.12499837128E+03 0.  0.
         25    2    1    2    0    0  0.25114720713E+02  0.22964148477E+02  0.95615782930E+02  0.16099044344E+03  0.12496977083E+03 0.  0.
          5    1    3    3  502    0  0.41622651043E+02 -0.12994869253E+02 -0.12321184635E+03  0.13078440575E+03  0.47000000000E+01 0. -1.
         -5    1    3    3    0  502 -0.66737371756E+02 -0.99692792243E+01 -0.43809441061E+02  0.80589207982E+02  0.47000000000E+01 0. -1.
          5    1    4    4  503    0  0.72746924641E+02  0.72339278428E+01  0.32263057140E+02  0.80046484075E+02  0.47000000000E+01 0. -1.
         -5    1    4    4    0  503 -0.47632203929E+02  0.15730220635E+02  0.63352725790E+02  0.80943959363E+02  0.47000000000E+01 0. -1.
<mgrwt>
<rscale>  0 0.12954114E+03</rscale>
<asrwt>0</asrwt>
<pdfrwt beam="1">  1        5 0.23150658E-01 0.12954804E+03</pdfrwt>
<pdfrwt beam="2">  1       -5 0.34136120E-01 0.12954804E+03</pdfrwt>
<totfact> 0.10360727E+02</totfact>
</mgrwt>
</event>
<event>
 8    1  0.3763376E-007  0.1438607E+03  0.7546771E-02  0.1208232E+00
         -5   -1    0    0    0  501 -0.00000000000E+00  0.00000000000E+00  0.22697426851E+03  0.22702292520E+03  0.47000000000E+01 0.  1.
          5   -1    0    0  501    0  0.00000000000E+00 -0.00000000000E+00 -0.91053078334E+02  0.91174300513E+02  0.47000000000E+01 0.  1.
         25    2    1    2    0    0 -0.65252838146E+02  0.28487171127E+02  0.68426393674E+02  0.15930499179E+03  0.12500582887E+03 0.  0.
         25    2    1    2    0    0  0.65252838146E+02 -0.28487171127E+02  0.67494796506E+02  0.15889223393E+03  0.12498696989E+03 0.  0.
          5    1    3    3  502    0 -0.23491292702E+02 -0.31463818768E+02  0.76027700872E+02  0.85697806414E+02  0.47000000000E+01 0.  1.
         -5    1    3    3    0  502 -0.41761545443E+02  0.59950989896E+02 -0.76013071986E+01  0.73607185372E+02  0.47000000000E+01 0.  1.
          5    1    4    4  503    0  0.43110770595E+02  0.45050902596E+02  0.49804593659E+02  0.79941915886E+02  0.47000000000E+01 0. -1.
         -5    1    4    4    0  503  0.22142067550E+02 -0.73538073723E+02  0.17690202847E+02  0.78950318043E+02  0.47000000000E+01 0. -1.
<mgrwt>
<rscale>  0 0.14385663E+03</rscale>
<asrwt>0</asrwt>
<pdfrwt beam="2">  1        5 0.14021234E-01 0.14386073E+03</pdfrwt>
<pdfrwt beam="1">  1       -5 0.34932185E-01 0.14386073E+03</pdfrwt>
<totfact> 0.25857601E+02</totfact>
</mgrwt>
</event>
<event>
 8    1  0.3763376E-007  0.1385512E+03  0.7546771E-02  0.1215294E+00
          5   -1    0    0  501    0  0.00000000000E+00  0.00000000000E+00  0.32189069766E+03  0.32192500872E+03  0.47000000000E+01 0. -1.
         -5   -1    0    0    0  501 -0.00000000000E+00 -0.00000000000E+00 -0.60463525505E+02  0.60645922505E+02  0.47000000000E+01 0. -1.
         25    2    1    2    0    0 -0.14088660127E+02 -0.58071978424E+02  0.15476789172E+03  0.20772059804E+03  0.12499560600E+03 0.  0.
         25    2    1    2    0    0  0.14088660127E+02  0.58071978424E+02  0.10665928043E+03  0.17485033319E+03  0.12500236754E+03 0.  0.
          5    1    4    4  502    0 -0.43555447478E+02  0.99461171682E+01  0.74214192591E+00  0.44929311439E+02  0.47000000000E+01 0.  1.
         -5    1    4    4    0  502  0.57644107605E+02  0.48125861256E+02  0.10591713851E+03  0.12992102175E+03  0.47000000000E+01 0.  1.
          5    1    3    3  503    0  0.43367513783E+02 -0.50926744385E+02  0.12637674053E+03  0.14306447879E+03  0.47000000000E+01 0. -1.
         -5    1    3    3    0  503 -0.57456173909E+02 -0.71452340393E+01  0.28391151194E+02  0.64656119245E+02  0.47000000000E+01 0. -1.
<mgrwt>
<rscale>  0 0.13854968E+03</rscale>
<asrwt>0</asrwt>
<pdfrwt beam="1">  1        5 0.49538316E-01 0.13855121E+03</pdfrwt>
<pdfrwt beam="2">  1       -5 0.93187506E-02 0.13855121E+03</pdfrwt>
<totfact> 0.25588239E+02</totfact>
</mgrwt>
</event>
<event>
 8    1  0.3763376E-007  0.1627925E+03  0.7546771E-02  0.1185580E+00
          5   -1    0    0  501    0  0.00000000000E+00  0.00000000000E+00  0.47735425850E+02  0.47966247311E+02  0.47000000000E+01 0.  1.
         -5   -1    0    0    0  501 -0.00000000000E+00 -0.00000000000E+00 -0.56028902360E+03  0.56030873629E+03  0.47000000000E+01 0.  1.
         25    2    1    2    0    0 -0.70292654027E+02  0.77037176276E+02 -0.28952883902E+03  0.33215645164E+03  0.12500070399E+03 0.  0.
         25    2    1    2    0    0  0.70292654027E+02 -0.77037176276E+02 -0.22302475873E+03  0.27611853197E+03  0.12500246779E+03 0.  0.
          5    1    4    4  502    0  0.76841090606E+02 -0.47642391740E+02 -0.56259387897E+02  0.10659061602E+03  0.47000000000E+01 0.  1.
         -5    1    4    4    0  502 -0.65484365786E+01 -0.29394784536E+02 -0.16676537083E+03  0.16952791595E+03  0.47000000000E+01 0.  1.
          5    1    3    3  503    0 -0.27577084089E+02  0.10540756659E+03 -0.16956069789E+03  0.20160399533E+03  0.47000000000E+01 0.  1.
         -5    1    3    3    0  503 -0.42715569938E+02 -0.28370390317E+02 -0.11996814113E+03  0.13055245631E+03  0.47000000000E+01 0.  1.
<mgrwt>
<rscale>  0 0.16279217E+03</rscale>
<asrwt>0</asrwt>
<pdfrwt beam="1">  1        5 0.73631839E-02 0.16279251E+03</pdfrwt>
<pdfrwt beam="2">  1       -5 0.86217579E-01 0.16279251E+03</pdfrwt>
<totfact> 0.11749956E+02</totfact>
</mgrwt>
</event>
<event>
 8    1  0.3763376E-007  0.1540996E+03  0.7546771E-02  0.1195527E+00
         -5   -1    0    0    0  501 -0.00000000000E+00  0.00000000000E+00  0.50933602947E+03  0.50935771410E+03  0.47000000000E+01 0. -1.
          5   -1    0    0  501    0  0.00000000000E+00 -0.00000000000E+00 -0.55273837973E+02  0.55473301364E+02  0.47000000000E+01 0. -1.
         25    2    1    2    0    0  0.90060799110E+02  0.27308899524E+01  0.33944982259E+03  0.37279063352E+03  0.12501307566E+03 0.  0.
         25    2    1    2    0    0 -0.90060799110E+02 -0.27308899524E+01  0.11461236891E+03  0.19204038195E+03  0.12500043159E+03 0.  0.
          5    1    4    4  502    0 -0.87166340511E+02 -0.13997935997E+02  0.12649538983E+02  0.89308532441E+02  0.47000000000E+01 0.  1.
         -5    1    4    4    0  502 -0.28944585990E+01  0.11267046045E+02  0.10196282993E+03  0.10273184951E+03  0.47000000000E+01 0.  1.
          5    1    3    3  503    0  0.43620961458E+02  0.38430557769E+02  0.48177350688E+02  0.75649475664E+02  0.47000000000E+01 0.  1.
         -5    1    3    3    0  503  0.46439837652E+02 -0.35699667816E+02  0.29127247190E+03  0.29714115785E+03  0.47000000000E+01 0.  1.
<mgrwt>
<rscale>  0 0.15409700E+03</rscale>
<asrwt>0</asrwt>
<pdfrwt beam="2">  1        5 0.85206790E-02 0.15409956E+03</pdfrwt>
<pdfrwt beam="1">  1       -5 0.78376398E-01 0.15409956E+03</pdfrwt>
<totfact> 0.11231059E+02</totfact>
</mgrwt>
</event>
<event>
 8    1  0.3763376E-007  0.1251042E+03  0.7546771E-02  0.1234907E+00
         -5   -1    0    0    0  501 -0.00000000000E+00  0.00000000000E+00  0.56498498364E+02  0.56693653237E+02  0.47000000000E+01 0.  1.
          5   -1    0    0  501    0  0.00000000000E+00 -0.00000000000E+00 -0.29135547364E+03  0.29139338019E+03  0.47000000000E+01 0.  1.
         25    2    1    2    0    0  0.26759027085E+01  0.42163388768E+01 -0.77910761546E+02  0.14738035875E+03  0.12500378159E+03 0.  0.
         25    2    1    2    0    0 -0.26759027085E+01 -0.42163388768E+01 -0.15694621373E+03  0.20070667468E+03  0.12500446907E+03 0.  0.
          5    1    3    3  502    0 -0.16348796529E+02 -0.30683820431E+02  0.20853742909E+02  0.40813583247E+02  0.47000000000E+01 0.  1.
         -5    1    3    3    0  502  0.19024699237E+02  0.34900159308E+02 -0.98764504454E+02  0.10656677550E+03  0.47000000000E+01 0.  1.
          5    1    4    4  503    0  0.38811902258E+02 -0.31675387781E+02 -0.13863587026E+03  0.14748453638E+03  0.47000000000E+01 0.  1.
         -5    1    4    4    0  503 -0.41487804966E+02  0.27459048904E+02 -0.18310343472E+02  0.53222138304E+02  0.47000000000E+01 0.  1.
<mgrwt>
<rscale>  0 0.12510401E+03</rscale>
<asrwt>0</asrwt>
<pdfrwt beam="2">  1        5 0.44841846E-01 0.12510418E+03</pdfrwt>
<pdfrwt beam="1">  1       -5 0.87100046E-02 0.12510418E+03</pdfrwt>
<totfact> 0.34180043E+02</totfact>
</mgrwt>
</event>
<event>
 8    1  0.3763376E-007  0.1256929E+03  0.7546771E-02  0.1233996E+00
         -5   -1    0    0    0  501 -0.00000000000E+00  0.00000000000E+00  0.73645438392E+01  0.87365042185E+01  0.47000000000E+01 0.  1.
          5   -1    0    0  501    0  0.00000000000E+00 -0.00000000000E+00 -0.19816012738E+04  0.19816068476E+04  0.47000000000E+01 0.  1.
         25    2    1    2    0    0 -0.91044190590E+01  0.92902941596E+01 -0.88529146262E+03  0.89416795380E+03  0.12500462312E+03 0.  0.
         25    2    1    2    0    0  0.91044190590E+01 -0.92902941596E+01 -0.10889452673E+04  0.10961753980E+04  0.12501803020E+03 0.  0.
          5    1    3    3  502    0  0.11948538912E+02 -0.55020858508E+02 -0.46819676365E+03  0.47159342865E+03  0.47000000000E+01 0.  1.
         -5    1    3    3    0  502 -0.21052957971E+02  0.64311152667E+02 -0.41709469898E+03  0.42257452516E+03  0.47000000000E+01 0.  1.
          5    1    4    4  503    0 -0.43397830892E+02 -0.50661207254E+01 -0.86324913388E+03  0.86436693276E+03  0.47000000000E+01 0. -1.
         -5    1    4    4    0  503  0.52502249951E+02 -0.42241734342E+01 -0.22569613345E+03  0.23180846521E+03  0.47000000000E+01 0. -1.
<mgrwt>
<rscale>  0 0.12568958E+03</rscale>
<asrwt>0</asrwt>
<pdfrwt beam="2">  1        5 0.30496731E+00 0.12569291E+03</pdfrwt>
<pdfrwt beam="1">  1       -5 0.12389725E-02 0.12569291E+03</pdfrwt>
<totfact> 0.44806544E+01</totfact>
</mgrwt>
</event>
<event>
 8    1  0.3763376E-007  0.2440037E+03  0.7546771E-02  0.1117154E+00
          5   -1    0    0  501    0  0.00000000000E+00  0.00000000000E+00  0.11106387897E+03  0.11116328177E+03  0.47000000000E+01 0.  1.
         -5   -1    0    0    0  501 -0.00000000000E+00 -0.00000000000E+00 -0.58070579897E+03  0.58072481861E+03  0.47000000000E+01 0.  1.
         25    2    1    2    0    0  0.11403430992E+03  0.17580803653E+03 -0.33110350675E+03  0.41129955044E+03  0.12500199385E+03 0.  0.
         25    2    1    2    0    0 -0.11403430992E+03 -0.17580803653E+03 -0.13853841325E+03  0.28058854994E+03  0.12499901146E+03 0.  0.
          5    1    4    4  502    0  0.32900370006E+01 -0.17429876388E+02  0.20331930985E+02  0.27387996494E+02  0.47000000000E+01 0.  1.
         -5    1    4    4    0  502 -0.11732434692E+03 -0.15837816014E+03 -0.15887034423E+03  0.25320055345E+03  0.47000000000E+01 0.  1.
          5    1    3    3  503    0  0.11567322684E+03  0.67492667845E+02 -0.15964616283E+03  0.20843354559E+03  0.47000000000E+01 0.  1.
         -5    1    3    3    0  503 -0.16389169171E+01  0.10831536868E+03 -0.17145734392E+03  0.20286600485E+03  0.47000000000E+01 0.  1.
<mgrwt>
<rscale>  0 0.24400328E+03</rscale>
<asrwt>0</asrwt>
<pdfrwt beam="1">  1        5 0.17095860E-01 0.24400366E+03</pdfrwt>
<pdfrwt beam="2">  1       -5 0.89348461E-01 0.24400366E+03</pdfrwt>
<totfact> 0.26897600E+01</totfact>
</mgrwt>
</event>
<event>
 8    1  0.3763376E-007  0.1252630E+03  0.7546771E-02  0.1234664E+00
         -5   -1    0    0    0  501 -0.00000000000E+00  0.00000000000E+00  0.17247989661E+02  0.17876888637E+02  0.47000000000E+01 0. -1.
          5   -1    0    0  501    0  0.00000000000E+00 -0.00000000000E+00 -0.90865727247E+03  0.90866942768E+03  0.47000000000E+01 0. -1.
         25    2    1    2    0    0  0.56182497553E+01  0.56174364515E+01 -0.38432725167E+03  0.40422169832E+03  0.12499849878E+03 0.  0.
         25    2    1    2    0    0 -0.56182497553E+01 -0.56174364515E+01 -0.50708203114E+03  0.52232461800E+03  0.12501079930E+03 0.  0.
          5    1    4    4  502    0  0.80118282071E+01  0.47588708745E+02 -0.95866425432E+02  0.10743061070E+03  0.47000000000E+01 0.  1.
         -5    1    4    4    0  502 -0.13630077962E+02 -0.53206145196E+02 -0.41121560571E+03  0.41489400730E+03  0.47000000000E+01 0.  1.
          5    1    3    3  503    0  0.16138909148E+02  0.13358929846E+02 -0.19138231912E+01  0.21556393816E+02  0.47000000000E+01 0.  1.
         -5    1    3    3    0  503 -0.10520659393E+02 -0.77414933948E+01 -0.38241342847E+03  0.38266530450E+03  0.47000000000E+01 0.  1.
<mgrwt>
<rscale>  0 0.12525994E+03</rscale>
<asrwt>0</asrwt>
<pdfrwt beam="2">  1        5 0.13984270E+00 0.12526300E+03</pdfrwt>
<pdfrwt beam="1">  1       -5 0.27028494E-02 0.12526300E+03</pdfrwt>
<totfact> 0.16928747E+02</totfact>
</mgrwt>
</event>
<event>
 8    1  0.3763376E-007  0.1659536E+03  0.7546771E-02  0.1182136E+00
         -5   -1    0    0    0  501 -0.00000000000E+00  0.00000000000E+00  0.12146605658E+03  0.12155695332E+03  0.47000000000E+01 0. -1.
          5   -1    0    0  501    0  0.00000000000E+00 -0.00000000000E+00 -0.22652702110E+03  0.22657577383E+03  0.47000000000E+01 0. -1.
         25    2    1    2    0    0 -0.17146501407E+02  0.10780368424E+03 -0.52861279039E+02  0.17416315967E+03  0.12499141778E+03 0.  0.
         25    2    1    2    0    0  0.17146501407E+02 -0.10780368424E+03 -0.52199685478E+02  0.17396956748E+03  0.12499986560E+03 0.  0.
          5    1    3    3  502    0  0.22067682237E+02  0.50726513476E+02  0.32353832912E+02  0.64257468615E+02  0.47000000000E+01 0. -1.
         -5    1    3    3    0  502 -0.39214183643E+02  0.57077170762E+02 -0.85215111952E+02  0.10990569105E+03  0.47000000000E+01 0. -1.
          5    1    4    4  503    0 -0.48041419303E+02 -0.44894292696E+02  0.59952437571E+01  0.66192963622E+02  0.47000000000E+01 0.  1.
         -5    1    4    4    0  503  0.65187920710E+02 -0.62909391542E+02 -0.58194929235E+02  0.10777660386E+03  0.47000000000E+01 0.  1.
<mgrwt>
<rscale>  0 0.16595203E+03</rscale>
<asrwt>0</asrwt>
<pdfrwt beam="2">  1        5 0.34861053E-01 0.16595362E+03</pdfrwt>
<pdfrwt beam="1">  1       -5 0.18697828E-01 0.16595362E+03</pdfrwt>
<totfact> 0.16066446E+02</totfact>
</mgrwt>
</event>
<event>
 8    1  0.3763376E-007  0.1547750E+03  0.7546771E-02  0.1194728E+00
         -5   -1    0    0    0  501 -0.00000000000E+00  0.00000000000E+00  0.78355897662E+02  0.78496730495E+02  0.47000000000E+01 0.  1.
          5   -1    0    0  501    0  0.00000000000E+00 -0.00000000000E+00 -0.31294490512E+03  0.31298019688E+03  0.47000000000E+01 0.  1.
         25    2    1    2    0    0  0.17337972074E+00 -0.91254790620E+02 -0.86662611256E+02  0.17738579856E+03  0.12501138535E+03 0.  0.
         25    2    1    2    0    0 -0.17337972074E+00  0.91254790620E+02 -0.14792639620E+03  0.21409112882E+03  0.12500130349E+03 0.  0.
          5    1    4    4  502    0 -0.45452349563E+02  0.88229848057E+02 -0.13314684761E+03  0.16613426858E+03  0.47000000000E+01 0.  1.
         -5    1    4    4    0  502  0.45278969843E+02  0.30249425626E+01 -0.14779548595E+02  0.47956860241E+02  0.47000000000E+01 0.  1.
          5    1    3    3  503    0  0.49253128705E+02 -0.67879813925E+02 -0.11911215155E+02  0.84838121574E+02  0.47000000000E+01 0.  1.
         -5    1    3    3    0  503 -0.49079748984E+02 -0.23374976694E+02 -0.74751396101E+02  0.92547676982E+02  0.47000000000E+01 0.  1.
<mgrwt>
<rscale>  0 0.15477301E+03</rscale>
<asrwt>0</asrwt>
<pdfrwt beam="2">  1        5 0.48158917E-01 0.15477504E+03</pdfrwt>
<pdfrwt beam="1">  1       -5 0.12068302E-01 0.15477504E+03</pdfrwt>
<totfact> 0.17895930E+02</totfact>
</mgrwt>
</event>
<event>
 8    1  0.3763376E-007  0.1305979E+03  0.7546771E-02  0.1226574E+00
         -5   -1    0    0    0  501 -0.00000000000E+00  0.00000000000E+00  0.25551855707E+03  0.25556177924E+03  0.47000000000E+01 0. -1.
          5   -1    0    0  501    0  0.00000000000E+00 -0.00000000000E+00 -0.66975522670E+02  0.67140231136E+02  0.47000000000E+01 0. -1.
         25    2    1    2    0    0  0.35286653021E+02  0.13551556951E+02  0.82447766683E+02  0.15444028323E+03  0.12500149710E+03 0.  0.
         25    2    1    2    0    0 -0.35286653021E+02 -0.13551556951E+02  0.10609526772E+03  0.16826172714E+03  0.12500804139E+03 0.  0.
          5    1    4    4  502    0 -0.17471721564E+02  0.43900946230E+02  0.14933758317E+01  0.47506571184E+02  0.47000000000E+01 0.  1.
         -5    1    4    4    0  502 -0.17814931458E+02 -0.57452503181E+02  0.10460189189E+03  0.12075515596E+03  0.47000000000E+01 0.  1.
          5    1    3    3  503    0  0.54336888562E+02 -0.25744893372E+02 -0.79980126857E+00  0.60316056531E+02  0.47000000000E+01 0.  1.
         -5    1    3    3    0  503 -0.19050235541E+02  0.39296450323E+02  0.83247567952E+02  0.94124226701E+02  0.47000000000E+01 0.  1.
<mgrwt>
<rscale>  0 0.13059630E+03</rscale>
<asrwt>0</asrwt>
<pdfrwt beam="2">  1        5 0.10319921E-01 0.13059787E+03</pdfrwt>
<pdfrwt beam="1">  1       -5 0.39326543E-01 0.13059787E+03</pdfrwt>
<totfact> 0.33891890E+02</totfact>
</mgrwt>
</event>
<event>
 8    1  0.3763376E-007  0.1294958E+03  0.7546771E-02  0.1228208E+00
         -5   -1    0    0    0  501 -0.00000000000E+00  0.00000000000E+00  0.11794534990E+03  0.11803895782E+03  0.47000000000E+01 0.  1.
          5   -1    0    0  501    0  0.00000000000E+00 -0.00000000000E+00 -0.15380884834E+03  0.15388064150E+03  0.47000000000E+01 0.  1.
         25    2    1    2    0    0  0.14699461980E+02  0.30458453300E+02  0.19751094247E+02  0.13098651999E+03  0.12499428441E+03 0.  0.
         25    2    1    2    0    0 -0.14699461980E+02 -0.30458453300E+02 -0.55614592690E+02  0.14093307932E+03  0.12500143346E+03 0.  0.
          5    1    3    3  502    0  0.65930823089E+00 -0.47664835929E+02  0.18825850830E+02  0.51467212193E+02  0.47000000000E+01 0.  1.
         -5    1    3    3    0  502  0.14040153749E+02  0.78123289229E+02  0.92524341780E+00  0.79519307798E+02  0.47000000000E+01 0.  1.
          5    1    4    4  503    0 -0.31641408566E+02 -0.74795947713E+02 -0.29339390418E+02  0.86478334631E+02  0.47000000000E+01 0.  1.
         -5    1    4    4    0  503  0.16941946586E+02  0.44337494414E+02 -0.26275202272E+02  0.54454744692E+02  0.47000000000E+01 0.  1.
<mgrwt>
<rscale>  0 0.12949403E+03</rscale>
<asrwt>0</asrwt>
<pdfrwt beam="2">  1        5 0.23675623E-01 0.12949575E+03</pdfrwt>
<pdfrwt beam="1">  1       -5 0.18158162E-01 0.12949575E+03</pdfrwt>
<totfact> 0.33259783E+02</totfact>
</mgrwt>
</event>
<event>
 8    1  0.3763376E-007  0.1818612E+03  0.7546771E-02  0.1166016E+00
         -5   -1    0    0    0  501 -0.00000000000E+00  0.00000000000E+00  0.98827279101E+03  0.98828396701E+03  0.47000000000E+01 0. -1.
          5   -1    0    0  501    0  0.00000000000E+00 -0.00000000000E+00 -0.34983664100E+02  0.35297970959E+02  0.47000000000E+01 0. -1.
         25    2    1    2    0    0 -0.58939665816E+02 -0.11821059785E+03  0.58879890841E+03  0.61624480006E+03  0.12500347757E+03 0.  0.
         25    2    1    2    0    0  0.58939665816E+02  0.11821059785E+03  0.36449021850E+03  0.40733713791E+03  0.12499117924E+03 0.  0.
          5    1    3    3  502    0 -0.29036922621E+02 -0.96522551664E+02  0.56040509311E+03  0.56941698626E+03  0.47000000000E+01 0.  1.
         -5    1    3    3    0  502 -0.29902743195E+02 -0.21688046190E+02  0.28393815298E+02  0.46827813800E+02  0.47000000000E+01 0.  1.
          5    1    4    4  503    0 -0.22952954040E+02  0.81035120747E+02  0.11912942238E+03  0.14597067572E+03  0.47000000000E+01 0. -1.
         -5    1    4    4    0  503  0.81892619856E+02  0.37175477107E+02  0.24536079612E+03  0.26136646219E+03  0.47000000000E+01 0. -1.
<mgrwt>
<rscale>  0 0.18185909E+03</rscale>
<asrwt>0</asrwt>
<pdfrwt beam="2">  1        5 0.54071394E-02 0.18186121E+03</pdfrwt>
<pdfrwt beam="1">  1       -5 0.15206700E+00 0.18186121E+03</pdfrwt>
<totfact> 0.48388402E+01</totfact>
</mgrwt>
</event>
<event>
 8    1  0.3763376E-007  0.2220977E+03  0.7546771E-02  0.1132329E+00
          5   -1    0    0  501    0  0.00000000000E+00  0.00000000000E+00  0.43421319829E+03  0.43423863436E+03  0.47000000000E+01 0.  1.
         -5   -1    0    0    0  501 -0.00000000000E+00 -0.00000000000E+00 -0.12276710675E+03  0.12285704091E+03  0.47000000000E+01 0.  1.
         25    2    1    2    0    0 -0.33058180811E+02  0.18057923142E+03  0.79327632665E+02  0.23583821167E+03  0.12500034656E+03 0.  0.
         25    2    1    2    0    0  0.33058180811E+02 -0.18057923142E+03  0.23211845888E+03  0.32125746360E+03  0.12500270728E+03 0.  0.
          5    1    4    4  502    0  0.69490290715E+02 -0.12787784317E+03  0.10730255918E+03  0.18087999470E+03  0.47000000000E+01 0.  1.
         -5    1    4    4    0  502 -0.36432109904E+02 -0.52701388251E+02  0.12481589970E+03  0.14037746889E+03  0.47000000000E+01 0.  1.
          5    1    3    3  503    0  0.11966926768E+02  0.17180468423E+03  0.44184188757E+02  0.17786058977E+03  0.47000000000E+01 0.  1.
         -5    1    3    3    0  503 -0.45025107579E+02  0.87745471927E+01  0.35143443909E+02  0.57977621896E+02  0.47000000000E+01 0.  1.
<mgrwt>
<rscale>  0 0.22209735E+03</rscale>
<asrwt>0</asrwt>
<pdfrwt beam="1">  1        5 0.66810904E-01 0.22209768E+03</pdfrwt>
<pdfrwt beam="2">  1       -5 0.18896122E-01 0.22209768E+03</pdfrwt>
<totfact> 0.42890094E+01</totfact>
</mgrwt>
</event>
<event>
 8    1  0.3763376E-007  0.1310156E+03  0.7546771E-02  0.1225961E+00
         -5   -1    0    0    0  501 -0.00000000000E+00  0.00000000000E+00  0.37899144327E+02  0.38189463739E+02  0.47000000000E+01 0.  1.
          5   -1    0    0  501    0  0.00000000000E+00 -0.00000000000E+00 -0.53982413841E+03  0.53984459839E+03  0.47000000000E+01 0.  1.
         25    2    1    2    0    0 -0.12000285965E+02  0.37323545763E+02 -0.13366718301E+03  0.18716835836E+03  0.12501209792E+03 0.  0.
         25    2    1    2    0    0  0.12000285965E+02 -0.37323545763E+02 -0.36825781107E+03  0.39086570376E+03  0.12500051614E+03 0.  0.
          5    1    4    4  502    0 -0.51953679272E+02  0.11341816276E+01 -0.10584434262E+03  0.11800672025E+03  0.47000000000E+01 0. -1.
         -5    1    4    4    0  502  0.63953965237E+02 -0.38457727390E+02 -0.26241346844E+03  0.27285898352E+03  0.47000000000E+01 0. -1.
          5    1    3    3  503    0  0.24039980241E+02  0.59534798197E+02 -0.12918655839E+03  0.14433838615E+03  0.47000000000E+01 0.  1.
         -5    1    3    3    0  503 -0.36040266205E+02 -0.22211252435E+02 -0.44806246206E+01  0.42829972214E+02  0.47000000000E+01 0.  1.
<mgrwt>
<rscale>  0 0.13101280E+03</rscale>
<asrwt>0</asrwt>
<pdfrwt beam="2">  1        5 0.83073768E-01 0.13101557E+03</pdfrwt>
<pdfrwt beam="1">  1       -5 0.58545441E-02 0.13101557E+03</pdfrwt>
<totfact> 0.17622659E+02</totfact>
</mgrwt>
</event>
<event>
 8    1  0.3763376E-007  0.1294264E+03  0.7546771E-02  0.1228311E+00
         -5   -1    0    0    0  501 -0.00000000000E+00  0.00000000000E+00  0.45972270950E+02  0.46211899943E+02  0.47000000000E+01 0.  1.
          5   -1    0    0  501    0  0.00000000000E+00 -0.00000000000E+00 -0.43636802581E+03  0.43639333628E+03  0.47000000000E+01 0.  1.
         25    2    1    2    0    0 -0.31363266766E+02 -0.11976693481E+02 -0.96394504244E+02  0.16137874407E+03  0.12499641155E+03 0.  0.
         25    2    1    2    0    0  0.31363266766E+02  0.11976693481E+02 -0.29400125062E+03  0.32122649215E+03  0.12499051247E+03 0.  0.
          5    1    3    3  502    0  0.36987636724E+02 -0.28478457143E+02 -0.73656484796E+02  0.87329694515E+02  0.47000000000E+01 0.  1.
         -5    1    3    3    0  502 -0.68350903490E+02  0.16501763662E+02 -0.22738019448E+02  0.74049049557E+02  0.47000000000E+01 0.  1.
          5    1    4    4  503    0  0.66596958547E+02 -0.28892994161E+01 -0.26419116723E+03  0.27251158835E+03  0.47000000000E+01 0.  1.
         -5    1    4    4    0  503 -0.35233691781E+02  0.14865992897E+02 -0.29810083382E+02  0.48714903804E+02  0.47000000000E+01 0.  1.
<mgrwt>
<rscale>  0 0.12942500E+03</rscale>
<asrwt>0</asrwt>
<pdfrwt beam="2">  1        5 0.67153920E-01 0.12942642E+03</pdfrwt>
<pdfrwt beam="1">  1       -5 0.70930373E-02 0.12942642E+03</pdfrwt>
<totfact> 0.20616509E+02</totfact>
</mgrwt>
</event>
<event>
 8    1  0.3763376E-007  0.1409560E+03  0.7546771E-02  0.1212049E+00
         -5   -1    0    0    0  501 -0.00000000000E+00  0.00000000000E+00  0.19653225834E+03  0.19658844973E+03  0.47000000000E+01 0. -1.
          5   -1    0    0  501    0  0.00000000000E+00 -0.00000000000E+00 -0.12022713593E+03  0.12031896864E+03  0.47000000000E+01 0. -1.
         25    2    1    2    0    0 -0.10394762720E+02  0.64303328388E+02  0.10152952353E+03  0.17371225028E+03  0.12499893045E+03 0.  0.
         25    2    1    2    0    0  0.10394762720E+02 -0.64303328388E+02 -0.25224401131E+02  0.14319516809E+03  0.12500246645E+03 0.  0.
          5    1    4    4  502    0 -0.26982313435E+02 -0.89810893209E+02 -0.68958059018E+01  0.94147139714E+02  0.47000000000E+01 0.  1.
         -5    1    4    4    0  502  0.37377076155E+02  0.25507564820E+02 -0.18328595229E+02  0.49048028381E+02  0.47000000000E+01 0.  1.
          5    1    3    3  503    0 -0.38575509945E+02  0.89611306279E+02  0.92429597536E+02  0.13447518984E+03  0.47000000000E+01 0. -1.
         -5    1    3    3    0  503  0.28180747225E+02 -0.25307977891E+02  0.90999259984E+01  0.39237060444E+02  0.47000000000E+01 0. -1.
<mgrwt>
<rscale>  0 0.14095519E+03</rscale>
<asrwt>0</asrwt>
<pdfrwt beam="2">  1        5 0.18507869E-01 0.14095597E+03</pdfrwt>
<pdfrwt beam="1">  1       -5 0.30247118E-01 0.14095597E+03</pdfrwt>
<totfact> 0.20596174E+02</totfact>
</mgrwt>
</event>
<event>
 8    1  0.3763376E-007  0.1629502E+03  0.7546771E-02  0.1185406E+00
         -5   -1    0    0    0  501 -0.00000000000E+00  0.00000000000E+00  0.16575764533E+03  0.16582426537E+03  0.47000000000E+01 0.  1.
          5   -1    0    0  501    0  0.00000000000E+00 -0.00000000000E+00 -0.16007000560E+03  0.16013899179E+03  0.47000000000E+01 0.  1.
         25    2    1    2    0    0  0.47998182087E+02 -0.92867042407E+02  0.44042173404E+01  0.16300972191E+03  0.12499863702E+03 0.  0.
         25    2    1    2    0    0 -0.47998182087E+02  0.92867042407E+02  0.12834223979E+01  0.16295353525E+03  0.12499637767E+03 0.  0.
          5    1    4    4  502    0  0.31331636205E+02  0.73689305643E+02 -0.83173123083E+01  0.80641508402E+02  0.47000000000E+01 0. -1.
         -5    1    4    4    0  502 -0.79329818292E+02  0.19177736764E+02  0.96007347062E+01  0.82312026852E+02  0.47000000000E+01 0. -1.
          5    1    3    3  503    0  0.53127739040E+02 -0.79959234118E+02 -0.48819583891E+02  0.10780295704E+03  0.47000000000E+01 0.  1.
         -5    1    3    3    0  503 -0.51295569535E+01 -0.12907808289E+02  0.53223801232E+02  0.55206764865E+02  0.47000000000E+01 0.  1.
<mgrwt>
<rscale>  0 0.16294978E+03</rscale>
<asrwt>0</asrwt>
<pdfrwt beam="2">  1        5 0.24636586E-01 0.16295021E+03</pdfrwt>
<pdfrwt beam="1">  1       -5 0.25511608E-01 0.16295021E+03</pdfrwt>
<totfact> 0.17545727E+02</totfact>
</mgrwt>
</event>
<event>
 8    1  0.3763376E-007  0.1258934E+03  0.7546771E-02  0.1233681E+00
          5   -1    0    0  501    0  0.00000000000E+00  0.00000000000E+00  0.15716522286E+03  0.15723548351E+03  0.47000000000E+01 0.  1.
         -5   -1    0    0    0  501 -0.00000000000E+00 -0.00000000000E+00 -0.10352600060E+03  0.10363263386E+03  0.47000000000E+01 0.  1.
         25    2    1    2    0    0  0.14912712348E+02  0.94754511792E+00  0.52628664843E+01  0.12600338978E+03  0.12500347851E+03 0.  0.
         25    2    1    2    0    0 -0.14912712348E+02 -0.94754511792E+00  0.48376355767E+02  0.13486472760E+03  0.12499974448E+03 0.  0.
          5    1    3    3  502    0  0.30206670244E+02  0.98449856145E+01  0.60126236044E+02  0.68166127437E+02  0.47000000000E+01 0.  1.
         -5    1    3    3    0  502 -0.15293957896E+02 -0.88974404966E+01 -0.54863369560E+02  0.57837262340E+02  0.47000000000E+01 0.  1.
          5    1    4    4  503    0 -0.53281142035E+00 -0.54873630565E+02 -0.76956912293E+01  0.55612164883E+02  0.47000000000E+01 0.  1.
         -5    1    4    4    0  503 -0.14379900928E+02  0.53926085447E+02  0.56072046997E+02  0.79252562714E+02  0.47000000000E+01 0.  1.
<mgrwt>
<rscale>  0 0.12589251E+03</rscale>
<asrwt>0</asrwt>
<pdfrwt beam="1">  1        5 0.24192872E-01 0.12589343E+03</pdfrwt>
<pdfrwt beam="2">  1       -5 0.15940684E-01 0.12589343E+03</pdfrwt>
<totfact> 0.40095827E+02</totfact>
</mgrwt>
</event>
<event>
 8    1  0.3763376E-007  0.1463157E+03  0.7546771E-02  0.1205076E+00
          5   -1    0    0  501    0  0.00000000000E+00  0.00000000000E+00  0.62851705404E+02  0.63027191530E+02  0.47000000000E+01 0.  1.
         -5   -1    0    0    0  501 -0.00000000000E+00 -0.00000000000E+00 -0.40285681610E+03  0.40288423185E+03  0.47000000000E+01 0.  1.
         25    2    1    2    0    0 -0.86053790824E+01  0.75551876905E+02 -0.26204298527E+03  0.30012467183E+03  0.12500461534E+03 0.  0.
         25    2    1    2    0    0  0.86053790824E+01 -0.75551876905E+02 -0.77962125423E+02  0.16578675156E+03  0.12500006136E+03 0.  0.
          5    1    4    4  502    0 -0.40804105141E+02 -0.85129201160E+02 -0.40310348530E+02  0.10275684933E+03  0.47000000000E+01 0. -1.
         -5    1    4    4    0  502  0.49409484224E+02  0.95773242555E+01 -0.37651776893E+02  0.63029902224E+02  0.47000000000E+01 0. -1.
          5    1    3    3  503    0 -0.23209943330E+02  0.84234471114E+02 -0.84274625614E+02  0.12148436161E+03  0.47000000000E+01 0.  1.
         -5    1    3    3    0  503  0.14604564247E+02 -0.86825942096E+01 -0.17776835966E+03  0.17864031022E+03  0.47000000000E+01 0.  1.
<mgrwt>
<rscale>  0 0.14631476E+03</rscale>
<asrwt>0</asrwt>
<pdfrwt beam="1">  1        5 0.96851012E-02 0.14631573E+03</pdfrwt>
<pdfrwt beam="2">  1       -5 0.61993578E-01 0.14631573E+03</pdfrwt>
<totfact> 0.15012025E+02</totfact>
</mgrwt>
</event>
<event>
 8    1  0.3763376E-007  0.2287735E+03  0.7546771E-02  0.1127507E+00
          5   -1    0    0  501    0  0.00000000000E+00  0.00000000000E+00  0.10128793500E+04  0.10128902545E+04  0.47000000000E+01 0. -1.
         -5   -1    0    0    0  501 -0.00000000000E+00 -0.00000000000E+00 -0.52948974973E+02  0.53157162741E+02  0.47000000000E+01 0. -1.
         25    2    1    2    0    0  0.19335120071E+02  0.19062626211E+03  0.39360364513E+03  0.45525940810E+03  0.12500032214E+03 0.  0.
         25    2    1    2    0    0 -0.19335120071E+02 -0.19062626211E+03  0.56632672994E+03  0.61078800918E+03  0.12499523364E+03 0.  0.
          5    1    3    3  502    0  0.22491851878E+02  0.13677532817E+03  0.37190790258E+03  0.39692688470E+03  0.47000000000E+01 0. -1.
         -5    1    3    3    0  502 -0.31567318069E+01  0.53850933944E+02  0.21695742552E+02  0.58332523408E+02  0.47000000000E+01 0. -1.
          5    1    4    4  503    0 -0.67083413310E+02 -0.11848992377E+03  0.41021350872E+03  0.43224675720E+03  0.47000000000E+01 0.  1.
         -5    1    4    4    0  503  0.47748293239E+02 -0.72136338337E+02  0.15611322123E+03  0.17854125198E+03  0.47000000000E+01 0.  1.
<mgrwt>
<rscale>  0 0.22877277E+03</rscale>
<asrwt>0</asrwt>
<pdfrwt beam="1">  1        5 0.15584444E+00 0.22877347E+03</pdfrwt>
<pdfrwt beam="2">  1       -5 0.81628498E-02 0.22877347E+03</pdfrwt>
<totfact> 0.23676884E+01</totfact>
</mgrwt>
</event>
<event>
 8    1  0.3763376E-007  0.1890998E+03  0.7546771E-02  0.1159288E+00
          5   -1    0    0  501    0  0.00000000000E+00  0.00000000000E+00  0.52326070197E+03  0.52328180957E+03  0.47000000000E+01 0.  1.
         -5   -1    0    0    0  501 -0.00000000000E+00 -0.00000000000E+00 -0.69638141041E+02  0.69796566446E+02  0.47000000000E+01 0.  1.
         25    2    1    2    0    0 -0.11335567963E+03 -0.85290854289E+02  0.18451433834E+03  0.26420497575E+03  0.12503874691E+03 0.  0.
         25    2    1    2    0    0  0.11335567963E+03  0.85290854289E+02  0.26910822259E+03  0.32887340026E+03  0.12495774487E+03 0.  0.
          5    1    4    4  502    0  0.28985850790E+02 -0.32674568965E+02  0.63829772526E+02  0.77486365664E+02  0.47000000000E+01 0. -1.
         -5    1    4    4    0  502  0.84369828843E+02  0.11796542325E+03  0.20527845006E+03  0.25138703459E+03  0.47000000000E+01 0. -1.
          5    1    3    3  503    0 -0.14393950183E+02  0.14517178039E+02  0.95484200726E+02  0.97761223644E+02  0.47000000000E+01 0. -1.
         -5    1    3    3    0  503 -0.98961729450E+02 -0.99808032328E+02  0.89030137613E+02  0.16644375211E+03  0.47000000000E+01 0. -1.
<mgrwt>
<rscale>  0 0.18908639E+03</rscale>
<asrwt>0</asrwt>
<pdfrwt beam="1">  1        5 0.80515453E-01 0.18909978E+03</pdfrwt>
<pdfrwt beam="2">  1       -5 0.10727371E-01 0.18909978E+03</pdfrwt>
<totfact> 0.74935938E+01</totfact>
</mgrwt>
</event>
<event>
 8    1  0.3763376E-007  0.1320583E+03  0.7546771E-02  0.1224434E+00
          5   -1    0    0  501    0  0.00000000000E+00  0.00000000000E+00  0.12103570951E+03  0.12112692920E+03  0.47000000000E+01 0.  1.
         -5   -1    0    0    0  501 -0.00000000000E+00 -0.00000000000E+00 -0.14807112396E+03  0.14814569771E+03  0.47000000000E+01 0.  1.
         25    2    1    2    0    0  0.12595880506E+02  0.40687190771E+02 -0.36103319341E+02  0.13690336013E+03  0.12499990660E+03 0.  0.
         25    2    1    2    0    0 -0.12595880506E+02 -0.40687190771E+02  0.90679048919E+01  0.13236926678E+03  0.12500116876E+03 0.  0.
          5    1    3    3  502    0 -0.49488719741E+02  0.29546634092E+00  0.83257974312E+01  0.50404658364E+02  0.47000000000E+01 0. -1.
         -5    1    3    3    0  502  0.62084600246E+02  0.40391724430E+02 -0.44429116772E+02  0.86498701767E+02  0.47000000000E+01 0. -1.
          5    1    4    4  503    0  0.19763306242E+02 -0.62988238029E+02  0.44086057924E+02  0.79522178711E+02  0.47000000000E+01 0. -1.
         -5    1    4    4    0  503 -0.32359186747E+02  0.22301047258E+02 -0.35018153032E+02  0.52847088070E+02  0.47000000000E+01 0. -1.
<mgrwt>
<rscale>  0 0.13205801E+03</rscale>
<asrwt>0</asrwt>
<pdfrwt beam="1">  1        5 0.18633632E-01 0.13205830E+03</pdfrwt>
<pdfrwt beam="2">  1       -5 0.22792926E-01 0.13205830E+03</pdfrwt>
<totfact> 0.34324905E+02</totfact>
</mgrwt>
</event>
<event>
 8    1  0.3763376E-007  0.1393021E+03  0.7546771E-02  0.1214280E+00
         -5   -1    0    0    0  501 -0.00000000000E+00  0.00000000000E+00  0.16241463637E+03  0.16248262709E+03  0.47000000000E+01 0.  1.
          5   -1    0    0  501    0  0.00000000000E+00 -0.00000000000E+00 -0.12508342817E+03  0.12517169809E+03  0.47000000000E+01 0.  1.
         25    2    1    2    0    0  0.61206639477E+02 -0.51913485341E+01  0.49524539412E+02  0.14781961682E+03  0.12499902519E+03 0.  0.
         25    2    1    2    0    0 -0.61206639477E+02  0.51913485341E+01 -0.12193331214E+02  0.13983470836E+03  0.12502745906E+03 0.  0.
          5    1    3    3  502    0  0.30544966600E+02 -0.10401809810E+02 -0.40768381829E+02  0.52204823425E+02  0.47000000000E+01 0.  1.
         -5    1    3    3    0  502  0.30661672877E+02  0.52104612759E+01  0.90292921240E+02  0.95614793398E+02  0.47000000000E+01 0.  1.
          5    1    4    4  503    0  0.24139534128E+02 -0.18651581357E+02  0.28681649169E+02  0.42134612780E+02  0.47000000000E+01 0. -1.
         -5    1    4    4    0  503 -0.85346173605E+02  0.23842929891E+02 -0.40874980383E+02  0.97700095579E+02  0.47000000000E+01 0. -1.
<mgrwt>
<rscale>  0 0.13929570E+03</rscale>
<asrwt>0</asrwt>
<pdfrwt beam="2">  1        5 0.19255624E-01 0.13930208E+03</pdfrwt>
<pdfrwt beam="1">  1       -5 0.24998887E-01 0.13930208E+03</pdfrwt>
<totfact> 0.27590061E+02</totfact>
</mgrwt>
</event>
<event>
 8    1  0.3763376E-007  0.1325889E+03  0.7546771E-02  0.1223665E+00
         -5   -1    0    0    0  501 -0.00000000000E+00  0.00000000000E+00  0.43198403062E+03  0.43200959794E+03  0.47000000000E+01 0.  1.
          5   -1    0    0  501    0  0.00000000000E+00 -0.00000000000E+00 -0.58016054480E+02  0.58206121477E+02  0.47000000000E+01 0.  1.
         25    2    1    2    0    0 -0.11415404487E+02 -0.42704689190E+02  0.32124531500E+03  0.34753183896E+03  0.12500329895E+03 0.  0.
         25    2    1    2    0    0  0.11415404487E+02  0.42704689190E+02  0.52722661147E+02  0.14268388045E+03  0.12500003522E+03 0.  0.
          5    1    4    4  502    0  0.82219845560E+01  0.15827379138E+01  0.87807469300E+02  0.88330899204E+02  0.47000000000E+01 0. -1.
         -5    1    4    4    0  502  0.31934199311E+01  0.41121951276E+02 -0.35084808153E+02  0.54352981250E+02  0.47000000000E+01 0. -1.
          5    1    3    3  503    0  0.64517905181E+01  0.43432030397E+02  0.11915589844E+03  0.12707550904E+03  0.47000000000E+01 0.  1.
         -5    1    3    3    0  503 -0.17867195005E+02 -0.86136719587E+02  0.20208941655E+03  0.22045632992E+03  0.47000000000E+01 0.  1.
<mgrwt>
<rscale>  0 0.13258817E+03</rscale>
<asrwt>0</asrwt>
<pdfrwt beam="2">  1        5 0.89421338E-02 0.13258894E+03</pdfrwt>
<pdfrwt beam="1">  1       -5 0.66475671E-01 0.13258894E+03</pdfrwt>
<totfact> 0.14302827E+02</totfact>
</mgrwt>
</event>
<event>
 8    1  0.3763376E-007  0.1306388E+03  0.7546771E-02  0.1226513E+00
         -5   -1    0    0    0  501 -0.00000000000E+00  0.00000000000E+00  0.73357390736E+02  0.73507800781E+02  0.47000000000E+01 0.  1.
          5   -1    0    0  501    0  0.00000000000E+00 -0.00000000000E+00 -0.23699451233E+03  0.23704111220E+03  0.47000000000E+01 0.  1.
         25    2    1    2    0    0  0.24835484800E+02 -0.28700408835E+02 -0.59809001446E+02  0.14367882790E+03  0.12500389658E+03 0.  0.
         25    2    1    2    0    0 -0.24835484800E+02  0.28700408835E+02 -0.10382812015E+03  0.16687008508E+03  0.12499932795E+03 0.  0.
          5    1    3    3  502    0  0.16456543034E+02 -0.77822849117E+02 -0.44853198762E+02  0.91439122330E+02  0.47000000000E+01 0. -1.
         -5    1    3    3    0  502  0.83789417654E+01  0.49122440282E+02 -0.14955802684E+02  0.52239705572E+02  0.47000000000E+01 0. -1.
          5    1    4    4  503    0 -0.29105803280E+02  0.72149895397E+02 -0.35491760441E+02  0.85641755292E+02  0.47000000000E+01 0.  1.
         -5    1    4    4    0  503  0.42703184803E+01 -0.43449486562E+02 -0.68336359707E+02  0.81228329789E+02  0.47000000000E+01 0.  1.
<mgrwt>
<rscale>  0 0.13063768E+03</rscale>
<asrwt>0</asrwt>
<pdfrwt beam="2">  1        5 0.36475849E-01 0.13063877E+03</pdfrwt>
<pdfrwt beam="1">  1       -5 0.11300907E-01 0.13063877E+03</pdfrwt>
<totfact> 0.33663187E+02</totfact>
</mgrwt>
</event>
<event>
 8    1  0.3763376E-007  0.1495301E+03  0.7546771E-02  0.1201053E+00
          5   -1    0    0  501    0  0.00000000000E+00  0.00000000000E+00  0.16892630968E+03  0.16899168057E+03  0.47000000000E+01 0.  1.
         -5   -1    0    0    0  501 -0.00000000000E+00 -0.00000000000E+00 -0.13291870037E+03  0.13300177032E+03  0.47000000000E+01 0.  1.
         25    2    1    2    0    0 -0.15082157040E+02 -0.80666252950E+02  0.28913122767E+02  0.15229978112E+03  0.12499895533E+03 0.  0.
         25    2    1    2    0    0  0.15082157040E+02  0.80666252950E+02  0.70944865358E+01  0.14969366977E+03  0.12499338864E+03 0.  0.
          5    1    3    3  502    0 -0.45178881195E+02  0.31011697316E+01  0.42324122851E+02  0.62162447947E+02  0.47000000000E+01 0.  1.
         -5    1    3    3    0  502  0.30096724155E+02 -0.83767422682E+02 -0.13411000084E+02  0.90137333169E+02  0.47000000000E+01 0.  1.
          5    1    4    4  503    0  0.32028550374E+02  0.59074446967E+01  0.51399794188E+02  0.61030769162E+02  0.47000000000E+01 0.  1.
         -5    1    4    4    0  503 -0.16946393335E+02  0.74758808253E+02 -0.44305307652E+02  0.88662900610E+02  0.47000000000E+01 0.  1.
<mgrwt>
<rscale>  0 0.14952895E+03</rscale>
<asrwt>0</asrwt>
<pdfrwt beam="1">  1        5 0.26000082E-01 0.14953011E+03</pdfrwt>
<pdfrwt beam="2">  1       -5 0.20460449E-01 0.14953011E+03</pdfrwt>
<totfact> 0.23395237E+02</totfact>
</mgrwt>
</event>
<event>
 8    1  0.3763376E-007  0.1475245E+03  0.7546771E-02  0.1203553E+00
          5   -1    0    0  501    0  0.00000000000E+00  0.00000000000E+00  0.75164740103E+02  0.75311540648E+02  0.47000000000E+01 0.  1.
         -5   -1    0    0    0  501 -0.00000000000E+00 -0.00000000000E+00 -0.33090835669E+03  0.33094173283E+03  0.47000000000E+01 0.  1.
         25    2    1    2    0    0  0.53639039031E+02 -0.57092483842E+02 -0.20008924810E+03  0.24859443676E+03  0.12500715406E+03 0.  0.
         25    2    1    2    0    0 -0.53639039031E+02  0.57092483842E+02 -0.55654368488E+02  0.15765883671E+03  0.12498880687E+03 0.  0.
          5    1    4    4  502    0 -0.13872121005E+02  0.17712568344E+02 -0.89285565132E+02  0.92196382573E+02  0.47000000000E+01 0.  1.
         -5    1    4    4    0  502 -0.39766918027E+02  0.39379915498E+02  0.33631196645E+02  0.65462454138E+02  0.47000000000E+01 0.  1.
          5    1    3    3  503    0  0.53514063986E+02  0.14576764558E+02 -0.28403368475E+02  0.62490626897E+02  0.47000000000E+01 0.  1.
         -5    1    3    3    0  503  0.12497504505E+00 -0.71669248400E+02 -0.17168587962E+03  0.18610380987E+03  0.47000000000E+01 0.  1.
<mgrwt>
<rscale>  0 0.14752064E+03</rscale>
<asrwt>0</asrwt>
<pdfrwt beam="1">  1        5 0.11577666E-01 0.14752453E+03</pdfrwt>
<pdfrwt beam="2">  1       -5 0.50922837E-01 0.14752453E+03</pdfrwt>
<totfact> 0.16847816E+02</totfact>
</mgrwt>
</event>
<event>
 8    1  0.3763376E-007  0.1303117E+03  0.7546771E-02  0.1226995E+00
         -5   -1    0    0    0  501 -0.00000000000E+00  0.00000000000E+00  0.20874739487E+03  0.20880029901E+03  0.47000000000E+01 0.  1.
          5   -1    0    0  501    0  0.00000000000E+00 -0.00000000000E+00 -0.82044127846E+02  0.82178640254E+02  0.47000000000E+01 0.  1.
         25    2    1    2    0    0  0.28574808673E+02  0.23228027214E+02  0.77958210248E+02  0.15185068111E+03  0.12500034347E+03 0.  0.
         25    2    1    2    0    0 -0.28574808673E+02 -0.23228027214E+02  0.48745056779E+02  0.13912825816E+03  0.12499812286E+03 0.  0.
          5    1    4    4  502    0 -0.73413930625E+01 -0.71834566278E+02  0.95073919625E+01  0.72983432821E+02  0.47000000000E+01 0. -1.
         -5    1    4    4    0  502 -0.21233415611E+02  0.48606539064E+02  0.39237664817E+02  0.66144825334E+02  0.47000000000E+01 0. -1.
          5    1    3    3  503    0  0.32289063008E+02  0.49691352628E+02  0.10037340983E+03  0.11665644224E+03  0.47000000000E+01 0.  1.
         -5    1    3    3    0  503 -0.37142543352E+01 -0.26463325414E+02 -0.22415199579E+02  0.35194238867E+02  0.47000000000E+01 0.  1.
<mgrwt>
<rscale>  0 0.13031120E+03</rscale>
<asrwt>0</asrwt>
<pdfrwt beam="2">  1        5 0.12636590E-01 0.13031173E+03</pdfrwt>
<pdfrwt beam="1">  1       -5 0.32129401E-01 0.13031173E+03</pdfrwt>
<totfact> 0.35554426E+02</totfact>
</mgrwt>
</event>
<event>
 8    1  0.3763376E-007  0.1385931E+03  0.7546771E-02  0.1215236E+00
          5   -1    0    0  501    0  0.00000000000E+00  0.00000000000E+00  0.33884938296E+03  0.33888197700E+03  0.47000000000E+01 0. -1.
         -5   -1    0    0    0  501 -0.00000000000E+00 -0.00000000000E+00 -0.61217348758E+02  0.61397506374E+02  0.47000000000E+01 0. -1.
         25    2    1    2    0    0 -0.94836002407E+01  0.59093269026E+02  0.83666065582E+02  0.16188905341E+03  0.12500440779E+03 0.  0.
         25    2    1    2    0    0  0.94836002407E+01 -0.59093269026E+02  0.19396596862E+03  0.23839042996E+03  0.12500098798E+03 0.  0.
          5    1    3    3  502    0  0.37987758800E+02 -0.62516207170E+01 -0.80262642433E+01  0.39606356787E+02  0.47000000000E+01 0. -1.
         -5    1    3    3    0  502 -0.47471359041E+02  0.65344889743E+02  0.91692329825E+02  0.12228269662E+03  0.47000000000E+01 0. -1.
          5    1    4    4  503    0  0.32957237983E+02 -0.68990943986E+02  0.48566427301E+02  0.90701255494E+02  0.47000000000E+01 0. -1.
         -5    1    4    4    0  503 -0.23473637742E+02  0.98976749599E+01  0.14539954132E+03  0.14768917447E+03  0.47000000000E+01 0. -1.
<mgrwt>
<rscale>  0 0.13859236E+03</rscale>
<asrwt>0</asrwt>
<pdfrwt beam="1">  1        5 0.52147038E-01 0.13859313E+03</pdfrwt>
<pdfrwt beam="2">  1       -5 0.94344195E-02 0.13859313E+03</pdfrwt>
<totfact> 0.22459759E+02</totfact>
</mgrwt>
</event>
<event>
 8    1  0.3763376E-007  0.1415669E+03  0.7546771E-02  0.1211243E+00
         -5   -1    0    0    0  501 -0.00000000000E+00  0.00000000000E+00  0.20491607283E+03  0.20496996586E+03  0.47000000000E+01 0. -1.
          5   -1    0    0  501    0  0.00000000000E+00 -0.00000000000E+00 -0.12064149112E+03  0.12073300866E+03  0.47000000000E+01 0. -1.
         25    2    1    2    0    0  0.66395776384E+02 -0.14649408914E+01  0.11315878690E+03  0.18121945026E+03  0.12500013170E+03 0.  0.
         25    2    1    2    0    0 -0.66395776384E+02  0.14649408914E+01 -0.28884205193E+02  0.14448352427E+03  0.12502258317E+03 0.  0.
          5    1    3    3  502    0  0.91655638956E+02  0.14974577660E+01  0.33901394570E+02  0.97848827719E+02  0.47000000000E+01 0.  1.
         -5    1    3    3    0  502 -0.25259862572E+02 -0.29623986574E+01  0.79257392333E+02  0.83370622538E+02  0.47000000000E+01 0.  1.
          5    1    4    4  503    0 -0.10322375386E+03  0.60922003002E+01 -0.27235621694E+02  0.10703330021E+03  0.47000000000E+01 0.  1.
         -5    1    4    4    0  503  0.36827977473E+02 -0.46272594087E+01 -0.16485834996E+01  0.37450224058E+02  0.47000000000E+01 0.  1.
<mgrwt>
<rscale>  0 0.14156196E+03</rscale>
<asrwt>0</asrwt>
<pdfrwt beam="2">  1        5 0.18571415E-01 0.14156692E+03</pdfrwt>
<pdfrwt beam="1">  1       -5 0.31536735E-01 0.14156692E+03</pdfrwt>
<totfact> 0.18876280E+02</totfact>
</mgrwt>
</event>
<event>
 8    1  0.3763376E-007  0.1614285E+03  0.7546771E-02  0.1187094E+00
         -5   -1    0    0    0  501 -0.00000000000E+00  0.00000000000E+00  0.11262398712E+03  0.11272201416E+03  0.47000000000E+01 0.  1.
          5   -1    0    0  501    0  0.00000000000E+00 -0.00000000000E+00 -0.23967923131E+03  0.23972530930E+03  0.47000000000E+01 0.  1.
         25    2    1    2    0    0  0.39581988843E+02  0.94168571311E+02 -0.30307255539E+02  0.16424889902E+03  0.12499886970E+03 0.  0.
         25    2    1    2    0    0 -0.39581988843E+02 -0.94168571311E+02 -0.96747988645E+02  0.18819842445E+03  0.12499607991E+03 0.  0.
          5    1    3    3  502    0  0.68663475756E+02  0.19221487231E+02 -0.41982760983E+02  0.82878107448E+02  0.47000000000E+01 0.  1.
         -5    1    3    3    0  502 -0.29081486914E+02  0.74947084080E+02  0.11675505444E+02  0.81370791569E+02  0.47000000000E+01 0.  1.
          5    1    4    4  503    0 -0.46444949797E+02 -0.11775084994E+03 -0.10201999171E+03  0.16264244443E+03  0.47000000000E+01 0. -1.
         -5    1    4    4    0  503  0.68629609543E+01  0.23582278626E+02  0.52720030626E+01  0.25555980015E+02  0.47000000000E+01 0. -1.
<mgrwt>
<rscale>  0 0.16142799E+03</rscale>
<asrwt>0</asrwt>
<pdfrwt beam="2">  1        5 0.36884813E-01 0.16142853E+03</pdfrwt>
<pdfrwt beam="1">  1       -5 0.17337852E-01 0.16142853E+03</pdfrwt>
<totfact> 0.16348668E+02</totfact>
</mgrwt>
</event>
<event>
 8    1  0.3763376E-007  0.1532132E+03  0.7546771E-02  0.1196583E+00
          5   -1    0    0  501    0  0.00000000000E+00  0.00000000000E+00  0.25837591231E+02  0.26261590215E+02  0.47000000000E+01 0. -1.
         -5   -1    0    0    0  501 -0.00000000000E+00 -0.00000000000E+00 -0.96317829329E+03  0.96318976046E+03  0.47000000000E+01 0. -1.
         25    2    1    2    0    0  0.63093266211E+02 -0.62175406522E+02 -0.59471688059E+03  0.61413553716E+03  0.12501099363E+03 0.  0.
         25    2    1    2    0    0 -0.63093266211E+02  0.62175406522E+02 -0.34262382147E+03  0.37531581352E+03  0.12499734166E+03 0.  0.
          5    1    4    4  502    0 -0.80034625727E+02  0.76312484237E+00 -0.25195506046E+03  0.26440417199E+03  0.47000000000E+01 0. -1.
         -5    1    4    4    0  502  0.16941359516E+02  0.61412281680E+02 -0.90668761003E+02  0.11091164152E+03  0.47000000000E+01 0. -1.
          5    1    3    3  503    0  0.48981527260E+02  0.24386149669E+02 -0.34678091763E+03  0.35110250518E+03  0.47000000000E+01 0. -1.
         -5    1    3    3    0  503  0.14111738952E+02 -0.86561556191E+02 -0.24793596296E+03  0.26303303198E+03  0.47000000000E+01 0. -1.
<mgrwt>
<rscale>  0 0.15321043E+03</rscale>
<asrwt>0</asrwt>
<pdfrwt beam="1">  1        5 0.40085122E-02 0.15321322E+03</pdfrwt>
<pdfrwt beam="2">  1       -5 0.14821475E+00 0.15321322E+03</pdfrwt>
<totfact> 0.81369808E+01</totfact>
</mgrwt>
</event>
<event>
 8    1  0.3763376E-007  0.1493212E+03  0.7546771E-02  0.1201318E+00
         -5   -1    0    0    0  501 -0.00000000000E+00  0.00000000000E+00  0.36991774558E+03  0.36994760237E+03  0.47000000000E+01 0. -1.
          5   -1    0    0  501    0  0.00000000000E+00 -0.00000000000E+00 -0.71271439281E+02  0.71426242076E+02  0.47000000000E+01 0. -1.
         25    2    1    2    0    0  0.27227377256E+02 -0.76999886151E+02  0.23642714788E+03  0.27963299271E+03  0.12500600713E+03 0.  0.
         25    2    1    2    0    0 -0.27227377256E+02  0.76999886151E+02  0.62219158424E+02  0.16174085174E+03  0.12497426497E+03 0.  0.
          5    1    4    4  502    0  0.31023013136E+02  0.83658989503E+02  0.27714516387E+02  0.93549122322E+02  0.47000000000E+01 0. -1.
         -5    1    4    4    0  502 -0.58250390392E+02 -0.66591033522E+01  0.34504642037E+02  0.68191729414E+02  0.47000000000E+01 0. -1.
          5    1    3    3  503    0 -0.34724841382E+02 -0.69631850125E+02  0.17672302117E+03  0.19315156062E+03  0.47000000000E+01 0. -1.
         -5    1    3    3    0  503  0.61952218638E+02 -0.73680360252E+01  0.59704126713E+02  0.86481432086E+02  0.47000000000E+01 0. -1.
<mgrwt>
<rscale>  0 0.14931454E+03</rscale>
<asrwt>0</asrwt>
<pdfrwt beam="2">  1        5 0.10979042E-01 0.14932118E+03</pdfrwt>
<pdfrwt beam="1">  1       -5 0.56924626E-01 0.14932118E+03</pdfrwt>
<totfact> 0.14619623E+02</totfact>
</mgrwt>
</event>
<event>
 8    1  0.3763376E-007  0.1261059E+03  0.7546771E-02  0.1233357E+00
         -5   -1    0    0    0  501 -0.00000000000E+00  0.00000000000E+00  0.43553783167E+03  0.43556319039E+03  0.47000000000E+01 0. -1.
          5   -1    0    0  501    0  0.00000000000E+00 -0.00000000000E+00 -0.54408971685E+02  0.54611594005E+02  0.47000000000E+01 0. -1.
         25    2    1    2    0    0 -0.10772183824E+01  0.16536799728E+02  0.33147210765E+03  0.35464440959E+03  0.12499709179E+03 0.  0.
         25    2    1    2    0    0  0.10772183824E+01 -0.16536799728E+02  0.49656752336E+02  0.13553037480E+03  0.12501225259E+03 0.  0.
          5    1    4    4  502    0  0.83631465314E+01  0.10741858321E+02 -0.39419587801E+02  0.41968126507E+02  0.47000000000E+01 0. -1.
         -5    1    4    4    0  502 -0.72859281490E+01 -0.27278658049E+02  0.89076340137E+02  0.93562248295E+02  0.47000000000E+01 0. -1.
          5    1    3    3  503    0 -0.28905551239E+02  0.59143705975E+02  0.11862637401E+03  0.13574909009E+03  0.47000000000E+01 0.  1.
         -5    1    3    3    0  503  0.27828332857E+02 -0.42606906248E+02  0.21284573364E+03  0.21889531950E+03  0.47000000000E+01 0.  1.
<mgrwt>
<rscale>  0 0.12610211E+03</rscale>
<asrwt>0</asrwt>
<pdfrwt beam="2">  1        5 0.83881483E-02 0.12610587E+03</pdfrwt>
<pdfrwt beam="1">  1       -5 0.67023355E-01 0.12610587E+03</pdfrwt>
<totfact> 0.15407162E+02</totfact>
</mgrwt>
</event>
<event>
 8    1  0.3763376E-007  0.1539620E+03  0.7546771E-02  0.1195689E+00
          5   -1    0    0  501    0  0.00000000000E+00  0.00000000000E+00  0.12707068778E+03  0.12715757819E+03  0.47000000000E+01 0.  1.
         -5   -1    0    0    0  501 -0.00000000000E+00 -0.00000000000E+00 -0.19942744618E+03  0.19948282204E+03  0.47000000000E+01 0.  1.
         25    2    1    2    0    0  0.57256915727E+02  0.69286083499E+02 -0.77976198081E+02  0.17258210715E+03  0.12500152190E+03 0.  0.
         25    2    1    2    0    0 -0.57256915727E+02 -0.69286083499E+02  0.56194396763E+01  0.15405829308E+03  0.12499385505E+03 0.  0.
          5    1    4    4  502    0 -0.23484587712E+02 -0.96497375261E+02 -0.22783451824E+02  0.10200218120E+03  0.47000000000E+01 0.  1.
         -5    1    4    4    0  502 -0.33772328015E+02  0.27211291762E+02  0.28402891501E+02  0.52056111884E+02  0.47000000000E+01 0.  1.
          5    1    3    3  503    0 -0.11786210327E+01  0.63664441560E+01 -0.85852069035E+02  0.86224059962E+02  0.47000000000E+01 0.  1.
         -5    1    3    3    0  503  0.58435536759E+02  0.62919639343E+02  0.78758709543E+01  0.86358047192E+02  0.47000000000E+01 0.  1.
<mgrwt>
<rscale>  0 0.15396044E+03</rscale>
<asrwt>0</asrwt>
<pdfrwt beam="1">  1        5 0.19560280E-01 0.15396200E+03</pdfrwt>
<pdfrwt beam="2">  1       -5 0.30692089E-01 0.15396200E+03</pdfrwt>
<totfact> 0.18592153E+02</totfact>
</mgrwt>
</event>
<event>
 8    1  0.3763376E-007  0.1781126E+03  0.7546771E-02  0.1169643E+00
         -5   -1    0    0    0  501 -0.00000000000E+00  0.00000000000E+00  0.13114669394E+04  0.13114753612E+04  0.47000000000E+01 0.  1.
          5   -1    0    0  501    0  0.00000000000E+00 -0.00000000000E+00 -0.32948825172E+02  0.33282353887E+02  0.47000000000E+01 0.  1.
         25    2    1    2    0    0  0.65342032942E+02 -0.10875828822E+03  0.98846242053E+03  0.10043808697E+04  0.12500011237E+03 0.  0.
         25    2    1    2    0    0 -0.65342032942E+02  0.10875828822E+03  0.29005569370E+03  0.34037684543E+03  0.12500457964E+03 0.  0.
          5    1    3    3  502    0 -0.14206470522E+02  0.16281920602E+02  0.56083471632E+02  0.60285740714E+02  0.47000000000E+01 0.  1.
         -5    1    3    3    0  502  0.79548503464E+02 -0.12504020882E+03  0.93237894890E+03  0.94409512899E+03  0.47000000000E+01 0.  1.
          5    1    4    4  503    0  0.15287671305E+02  0.23045185062E+02  0.79785766186E+00  0.28062787198E+02  0.47000000000E+01 0.  1.
         -5    1    4    4    0  503 -0.80629704247E+02  0.85713103156E+02  0.28925783604E+03  0.31231405823E+03  0.47000000000E+01 0.  1.
<mgrwt>
<rscale>  0 0.17811180E+03</rscale>
<asrwt>0</asrwt>
<pdfrwt beam="2">  1        5 0.50953537E-02 0.17811258E+03</pdfrwt>
<pdfrwt beam="1">  1       -5 0.20179046E+00 0.17811258E+03</pdfrwt>
<totfact> 0.23124987E+01</totfact>
</mgrwt>
</event>
<event>
 8    1  0.3763376E-007  0.1407101E+03  0.7546771E-02  0.1212379E+00
          5   -1    0    0  501    0  0.00000000000E+00  0.00000000000E+00  0.91526608478E+02  0.91647204319E+02  0.47000000000E+01 0. -1.
         -5   -1    0    0    0  501 -0.00000000000E+00 -0.00000000000E+00 -0.23165241299E+03  0.23170008728E+03  0.47000000000E+01 0. -1.
         25    2    1    2    0    0 -0.36518780763E+02 -0.53301381946E+02 -0.11203699594E+03  0.17986096047E+03  0.12499207166E+03 0.  0.
         25    2    1    2    0    0  0.36518780763E+02  0.53301381946E+02 -0.28088808571E+02  0.14348633112E+03  0.12499874954E+03 0.  0.
          5    1    3    3  502    0  0.50134006870E+01 -0.17982509380E+02  0.25434635082E+02  0.31898518646E+02  0.47000000000E+01 0.  1.
         -5    1    3    3    0  502 -0.41532181450E+02 -0.35318872566E+02 -0.13747163103E+03  0.14796244183E+03  0.47000000000E+01 0.  1.
          5    1    4    4  503    0  0.17300997281E+02  0.93817200637E+02 -0.21686877221E+02  0.97945915105E+02  0.47000000000E+01 0.  1.
         -5    1    4    4    0  503  0.19217783482E+02 -0.40515818691E+02 -0.64019313498E+01  0.45540416019E+02  0.47000000000E+01 0.  1.
<mgrwt>
<rscale>  0 0.14070867E+03</rscale>
<asrwt>0</asrwt>
<pdfrwt beam="1">  1        5 0.14093961E-01 0.14071015E+03</pdfrwt>
<pdfrwt beam="2">  1       -5 0.35651776E-01 0.14071015E+03</pdfrwt>
<totfact> 0.24407262E+02</totfact>
</mgrwt>
</event>
<event>
 8    1  0.3763376E-007  0.1262117E+03  0.7546771E-02  0.1233191E+00
          5   -1    0    0  501    0  0.00000000000E+00  0.00000000000E+00  0.22534694230E+02  0.23019609989E+02  0.47000000000E+01 0.  1.
         -5   -1    0    0    0  501 -0.00000000000E+00 -0.00000000000E+00 -0.72135428259E+03  0.72136959390E+03  0.47000000000E+01 0.  1.
         25    2    1    2    0    0 -0.31249983613E+01 -0.17086026850E+02 -0.41519239871E+03  0.43395175009E+03  0.12501078164E+03 0.  0.
         25    2    1    2    0    0  0.31249983613E+01  0.17086026850E+02 -0.28362718965E+03  0.31043745381E+03  0.12500132836E+03 0.  0.
          5    1    3    3  502    0 -0.31704741530E+01  0.46237157233E+02 -0.28851077108E+03  0.29224729536E+03  0.47000000000E+01 0. -1.
         -5    1    3    3    0  502  0.45475791654E-01 -0.63323184082E+02 -0.12668162763E+03  0.14170445473E+03  0.47000000000E+01 0. -1.
          5    1    4    4  503    0  0.43316753049E+02  0.53333221316E+01 -0.25671042697E+03  0.26043640056E+03  0.47000000000E+01 0. -1.
         -5    1    4    4    0  503 -0.40191754688E+02  0.11752704718E+02 -0.26916762676E+02  0.50001053249E+02  0.47000000000E+01 0. -1.
<mgrwt>
<rscale>  0 0.12620936E+03</rscale>
<asrwt>0</asrwt>
<pdfrwt beam="1">  1        5 0.35053556E-02 0.12621170E+03</pdfrwt>
<pdfrwt beam="2">  1       -5 0.11101604E+00 0.12621170E+03</pdfrwt>
<totfact> 0.20173813E+02</totfact>
</mgrwt>
</event>
<event>
 8    1  0.3763376E-007  0.1445986E+03  0.7546771E-02  0.1207272E+00
          5   -1    0    0  501    0  0.00000000000E+00  0.00000000000E+00  0.28923496399E+03  0.28927314842E+03  0.47000000000E+01 0.  1.
         -5   -1    0    0    0  501 -0.00000000000E+00 -0.00000000000E+00 -0.72877764211E+02  0.73029162095E+02  0.47000000000E+01 0.  1.
         25    2    1    2    0    0 -0.45555743422E+02  0.56641866688E+02  0.90349836889E+02  0.17050395827E+03  0.12499951976E+03 0.  0.
         25    2    1    2    0    0  0.45555743422E+02 -0.56641866688E+02  0.12600736289E+03  0.19179835224E+03  0.12500050239E+03 0.  0.
          5    1    3    3  502    0 -0.56258002782E+02  0.30665561801E+02  0.11572084092E+03  0.13235838689E+03  0.47000000000E+01 0. -1.
         -5    1    3    3    0  502  0.10702259360E+02  0.25976304888E+02 -0.25371004026E+02  0.38145571385E+02  0.47000000000E+01 0. -1.
          5    1    4    4  503    0 -0.18819896603E+02 -0.57780042603E+01 -0.17282837176E+02  0.26615039024E+02  0.47000000000E+01 0.  1.
         -5    1    4    4    0  503  0.64375640025E+02 -0.50863862428E+02  0.14329020007E+03  0.16518331322E+03  0.47000000000E+01 0.  1.
<mgrwt>
<rscale>  0 0.14459838E+03</rscale>
<asrwt>0</asrwt>
<pdfrwt beam="1">  1        5 0.44512270E-01 0.14459859E+03</pdfrwt>
<pdfrwt beam="2">  1       -5 0.11226547E-01 0.14459859E+03</pdfrwt>
<totfact> 0.23458032E+02</totfact>
</mgrwt>
</event>
<event>
 8    1  0.3763376E-007  0.1264195E+03  0.7546771E-02  0.1232876E+00
          5   -1    0    0  501    0  0.00000000000E+00  0.00000000000E+00  0.26483556111E+03  0.26487726295E+03  0.47000000000E+01 0.  1.
         -5   -1    0    0    0  501 -0.00000000000E+00 -0.00000000000E+00 -0.63821886076E+02  0.63994711830E+02  0.47000000000E+01 0.  1.
         25    2    1    2    0    0  0.96418528929E+01 -0.16312530732E+02  0.61383590446E+02  0.14051475670E+03  0.12496954704E+03 0.  0.
         25    2    1    2    0    0 -0.96418528929E+01  0.16312530732E+02  0.13963008459E+03  0.18835721808E+03  0.12499126808E+03 0.  0.
          5    1    3    3  502    0 -0.27712179100E+02 -0.82207525272E+01 -0.29648156065E+02  0.41673118442E+02  0.47000000000E+01 0.  1.
         -5    1    3    3    0  502  0.37354031992E+02 -0.80917782050E+01  0.91031746511E+02  0.98841638258E+02  0.47000000000E+01 0.  1.
          5    1    4    4  503    0  0.27259897441E+02 -0.46093503382E+02  0.60574007683E+02  0.80987736537E+02  0.47000000000E+01 0. -1.
         -5    1    4    4    0  503 -0.36901750334E+02  0.62406034115E+02  0.79056076904E+02  0.10736948154E+03  0.47000000000E+01 0. -1.
<mgrwt>
<rscale>  0 0.12641410E+03</rscale>
<asrwt>0</asrwt>
<pdfrwt beam="1">  1        5 0.40760434E-01 0.12641946E+03</pdfrwt>
<pdfrwt beam="2">  1       -5 0.98352539E-02 0.12641946E+03</pdfrwt>
<totfact> 0.33851546E+02</totfact>
</mgrwt>
</event>
<event>
 8    1  0.3763376E-007  0.1381515E+03  0.7546771E-02  0.1215840E+00
          5   -1    0    0  501    0  0.00000000000E+00  0.00000000000E+00  0.14328379646E+03  0.14336086051E+03  0.47000000000E+01 0. -1.
         -5   -1    0    0    0  501 -0.00000000000E+00 -0.00000000000E+00 -0.14030033858E+03  0.14037904048E+03  0.47000000000E+01 0. -1.
         25    2    1    2    0    0  0.30598305980E+01 -0.58743785757E+02 -0.30755174594E+02  0.14152832813E+03  0.12499676784E+03 0.  0.
         25    2    1    2    0    0 -0.30598305980E+01  0.58743785757E+02  0.33738632468E+02  0.14221157286E+03  0.12500256480E+03 0.  0.
          5    1    3    3  502    0 -0.45749450059E+02 -0.73228859854E+02 -0.13233792921E+02  0.87479719771E+02  0.47000000000E+01 0. -1.
         -5    1    3    3    0  502  0.48809280657E+02  0.14485074097E+02 -0.17521381672E+02  0.54048608359E+02  0.47000000000E+01 0. -1.
          5    1    4    4  503    0 -0.53476680612E+02  0.67692267700E+02  0.16331556021E+02  0.87925014630E+02  0.47000000000E+01 0.  1.
         -5    1    4    4    0  503  0.50416850014E+02 -0.89484819435E+01  0.17407076447E+02  0.54286558233E+02  0.47000000000E+01 0.  1.
<mgrwt>
<rscale>  0 0.13815019E+03</rscale>
<asrwt>0</asrwt>
<pdfrwt beam="1">  1        5 0.22055643E-01 0.13815150E+03</pdfrwt>
<pdfrwt beam="2">  1       -5 0.21596649E-01 0.13815150E+03</pdfrwt>
<totfact> 0.28168515E+02</totfact>
</mgrwt>
</event>
<event>
 8    1  0.3763376E-007  0.1688422E+03  0.7546771E-02  0.1179065E+00
          5   -1    0    0  501    0  0.00000000000E+00  0.00000000000E+00  0.13377163175E+03  0.13385417237E+03  0.47000000000E+01 0. -1.
         -5   -1    0    0    0  501 -0.00000000000E+00 -0.00000000000E+00 -0.26336564070E+03  0.26340757525E+03  0.47000000000E+01 0. -1.
         25    2    1    2    0    0 -0.10919735926E+03 -0.30901074809E+02 -0.15171470543E+03  0.22699128705E+03  0.12501501054E+03 0.  0.
         25    2    1    2    0    0  0.10919735926E+03  0.30901074809E+02  0.22120696481E+02  0.17027046057E+03  0.12499505924E+03 0.  0.
          5    1    3    3  502    0 -0.35193654204E+02 -0.56739289388E+02 -0.12886161785E+03  0.14520794335E+03  0.47000000000E+01 0.  1.
         -5    1    3    3    0  502 -0.74003705058E+02  0.25838214579E+02 -0.22853087575E+02  0.81783343700E+02  0.47000000000E+01 0.  1.
          5    1    4    4  503    0  0.13204880262E+03  0.26294595615E+02  0.39980392695E+02  0.14053047296E+03  0.47000000000E+01 0. -1.
         -5    1    4    4    0  503 -0.22851443355E+02  0.46064791940E+01 -0.17859696214E+02  0.29739987606E+02  0.47000000000E+01 0. -1.
<mgrwt>
<rscale>  0 0.16883852E+03</rscale>
<asrwt>0</asrwt>
<pdfrwt beam="1">  1        5 0.20589826E-01 0.16884221E+03</pdfrwt>
<pdfrwt beam="2">  1       -5 0.40527366E-01 0.16884221E+03</pdfrwt>
<totfact> 0.99293987E+01</totfact>
</mgrwt>
</event>
<event>
 8    1  0.3763376E-007  0.1395702E+03  0.7546771E-02  0.1213917E+00
          5   -1    0    0  501    0  0.00000000000E+00  0.00000000000E+00  0.19559548294E+03  0.19565194338E+03  0.47000000000E+01 0.  1.
         -5   -1    0    0    0  501 -0.00000000000E+00 -0.00000000000E+00 -0.21282196338E+03  0.21287385489E+03  0.47000000000E+01 0.  1.
         25    2    1    2    0    0 -0.60163142571E+02 -0.15337938236E+02 -0.15765191040E+03  0.21055631143E+03  0.12499991742E+03 0.  0.
         25    2    1    2    0    0  0.60163142571E+02  0.15337938236E+02  0.14042542997E+03  0.19796948684E+03  0.12497103770E+03 0.  0.
          5    1    3    3  502    0 -0.17368144177E+02  0.54493699822E+02 -0.60172497984E+02  0.83150678085E+02  0.47000000000E+01 0.  1.
         -5    1    3    3    0  502 -0.42794998395E+02 -0.69831638057E+02 -0.97479412420E+02  0.12740563334E+03  0.47000000000E+01 0.  1.
          5    1    4    4  503    0  0.91785154670E+02  0.37987956169E+02  0.11055794265E+03  0.14870355784E+03  0.47000000000E+01 0. -1.
         -5    1    4    4    0  503 -0.31622012098E+02 -0.22650017933E+02  0.29867487320E+02  0.49265929001E+02  0.47000000000E+01 0. -1.
<mgrwt>
<rscale>  0 0.13956371E+03</rscale>
<asrwt>0</asrwt>
<pdfrwt beam="1">  1        5 0.30099948E-01 0.13957018E+03</pdfrwt>
<pdfrwt beam="2">  1       -5 0.32750175E-01 0.13957018E+03</pdfrwt>
<totfact> 0.69482527E+01</totfact>
</mgrwt>
</event>
<event>
 8    1  0.3763376E-007  0.1265202E+03  0.7546771E-02  0.1232719E+00
          5   -1    0    0  501    0  0.00000000000E+00  0.00000000000E+00  0.11476731999E+02  0.12401829598E+02  0.47000000000E+01 0. -1.
         -5   -1    0    0    0  501 -0.00000000000E+00 -0.00000000000E+00 -0.13396317087E+04  0.13396399535E+04  0.47000000000E+01 0. -1.
         25    2    1    2    0    0 -0.14338419984E+02  0.13315194436E+02 -0.66125027751E+03  0.67324192495E+03  0.12497949957E+03 0.  0.
         25    2    1    2    0    0  0.14338419984E+02 -0.13315194436E+02 -0.66690469917E+03  0.67879985810E+03  0.12499793957E+03 0.  0.
          5    1    3    3  502    0 -0.61988082619E+02  0.27211614935E+02 -0.49641006110E+03  0.50102697845E+03  0.47000000000E+01 0. -1.
         -5    1    3    3    0  502  0.47649662635E+02 -0.13896420500E+02 -0.16484021641E+03  0.17221494650E+03  0.47000000000E+01 0. -1.
          5    1    4    4  503    0 -0.30173365277E+01  0.29689523048E+02 -0.57459880609E+03  0.57539243135E+03  0.47000000000E+01 0. -1.
         -5    1    4    4    0  503  0.17355756512E+02 -0.43004717483E+02 -0.92305893080E+02  0.10340742675E+03  0.47000000000E+01 0. -1.
<mgrwt>
<rscale>  0 0.12651568E+03</rscale>
<asrwt>0</asrwt>
<pdfrwt beam="1">  1        5 0.18374477E-02 0.12652023E+03</pdfrwt>
<pdfrwt beam="2">  1       -5 0.20616886E+00 0.12652023E+03</pdfrwt>
<totfact> 0.10278383E+02</totfact>
</mgrwt>
</event>
<event>
 8    1  0.3763376E-007  0.1279388E+03  0.7546771E-02  0.1230581E+00
          5   -1    0    0  501    0  0.00000000000E+00  0.00000000000E+00  0.19593645229E+03  0.19599281450E+03  0.47000000000E+01 0.  1.
         -5   -1    0    0    0  501 -0.00000000000E+00 -0.00000000000E+00 -0.11512375081E+03  0.11521965111E+03  0.47000000000E+01 0.  1.
         25    2    1    2    0    0 -0.18130532484E+02  0.20361019376E+02 -0.41277592460E+02  0.13443278177E+03  0.12500018343E+03 0.  0.
         25    2    1    2    0    0  0.18130532484E+02 -0.20361019376E+02  0.12209029393E+03  0.17677968383E+03  0.12490688302E+03 0.  0.
          5    1    4    4  502    0  0.32415811530E+02  0.13617184066E+02 -0.12146942976E+02  0.37494676458E+02  0.47000000000E+01 0. -1.
         -5    1    4    4    0  502 -0.14285279046E+02 -0.33978203442E+02  0.13423723691E+03  0.13928500738E+03  0.47000000000E+01 0. -1.
          5    1    3    3  503    0  0.40633700187E+02  0.31164707704E+02  0.13576681288E+02  0.53186021396E+02  0.47000000000E+01 0.  1.
         -5    1    3    3    0  503 -0.58764232671E+02 -0.10803688328E+02 -0.54854273748E+02  0.81246760374E+02  0.47000000000E+01 0.  1.
<mgrwt>
<rscale>  0 0.12791599E+03</rscale>
<asrwt>0</asrwt>
<pdfrwt beam="1">  1        5 0.30155782E-01 0.12793879E+03</pdfrwt>
<pdfrwt beam="2">  1       -5 0.17723059E-01 0.12793879E+03</pdfrwt>
<totfact> 0.21706574E+02</totfact>
</mgrwt>
</event>
<event>
 8    1  0.3763376E-007  0.1302389E+03  0.7546771E-02  0.1227103E+00
          5   -1    0    0  501    0  0.00000000000E+00  0.00000000000E+00  0.86876850231E+02  0.87003891327E+02  0.47000000000E+01 0. -1.
         -5   -1    0    0    0  501 -0.00000000000E+00 -0.00000000000E+00 -0.19887310748E+03  0.19892863765E+03  0.47000000000E+01 0. -1.
         25    2    1    2    0    0  0.15149890133E+02 -0.33290769121E+02 -0.76088674637E+02  0.15083649498E+03  0.12499746930E+03 0.  0.
         25    2    1    2    0    0 -0.15149890133E+02  0.33290769121E+02 -0.35907582610E+02  0.13509603399E+03  0.12499515764E+03 0.  0.
          5    1    4    4  502    0 -0.20560619842E+02  0.68009167610E+02 -0.59265986569E+02  0.92641962044E+02  0.47000000000E+01 0. -1.
         -5    1    4    4    0  502  0.54107297090E+01 -0.34718398489E+02  0.23358403959E+02  0.42454071950E+02  0.47000000000E+01 0. -1.
          5    1    3    3  503    0  0.42387797646E+02  0.39511886740E+01 -0.92262160380E+02  0.10171889460E+03  0.47000000000E+01 0. -1.
         -5    1    3    3    0  503 -0.27237907513E+02 -0.37241957795E+02  0.16173485743E+02  0.49117600381E+02  0.47000000000E+01 0. -1.
<mgrwt>
<rscale>  0 0.13023831E+03</rscale>
<asrwt>0</asrwt>
<pdfrwt beam="1">  1        5 0.13379713E-01 0.13023886E+03</pdfrwt>
<pdfrwt beam="2">  1       -5 0.30609907E-01 0.13023886E+03</pdfrwt>
<totfact> 0.35320760E+02</totfact>
</mgrwt>
</event>
<event>
 8    1  0.3763376E-007  0.1558219E+03  0.7546771E-02  0.1193497E+00
          5   -1    0    0  501    0  0.00000000000E+00  0.00000000000E+00  0.37959472241E+04  0.37959501338E+04  0.47000000000E+01 0. -1.
         -5   -1    0    0    0  501 -0.00000000000E+00 -0.00000000000E+00 -0.58137535571E+01  0.74759434470E+01  0.47000000000E+01 0. -1.
         25    2    1    2    0    0 -0.85669186698E+02 -0.36275829962E+02  0.15252447832E+04  0.15331836483E+04  0.12500122087E+03 0.  0.
         25    2    1    2    0    0  0.85669186698E+02  0.36275829962E+02  0.22648886873E+04  0.22702424289E+04  0.12499909941E+03 0.  0.
          5    1    3    3  502    0 -0.72407467107E+02 -0.30869300656E+02  0.15088649498E+04  0.15109239827E+04  0.47000000000E+01 0.  1.
         -5    1    3    3    0  502 -0.13261719591E+02 -0.54065293055E+01  0.16379833471E+02  0.22259665546E+02  0.47000000000E+01 0.  1.
          5    1    4    4  503    0  0.30691022521E+02  0.76404421020E+02  0.94517253810E+03  0.94876382266E+03  0.47000000000E+01 0.  1.
         -5    1    4    4    0  503  0.54978164177E+02 -0.40128591058E+02  0.13197161492E+04  0.13214786063E+04  0.47000000000E+01 0.  1.
<mgrwt>
<rscale>  0 0.15582143E+03</rscale>
<asrwt>0</asrwt>
<pdfrwt beam="1">  1        5 0.58411907E+00 0.15582186E+03</pdfrwt>
<pdfrwt beam="2">  1       -5 0.10225098E-02 0.15582186E+03</pdfrwt>
<totfact> 0.51541194E-01</totfact>
</mgrwt>
</event>
<event>
 8    1  0.3763376E-007  0.2120898E+03  0.7546771E-02  0.1139922E+00
         -5   -1    0    0    0  501 -0.00000000000E+00  0.00000000000E+00  0.19733271778E+03  0.19738868131E+03  0.47000000000E+01 0. -1.
          5   -1    0    0  501    0  0.00000000000E+00 -0.00000000000E+00 -0.24450444640E+03  0.24454961523E+03  0.47000000000E+01 0. -1.
         25    2    1    2    0    0 -0.10997815298E+03 -0.13138662484E+03  0.34094306570E+02  0.21481219309E+03  0.12499686893E+03 0.  0.
         25    2    1    2    0    0  0.10997815298E+03  0.13138662484E+03 -0.81266035186E+02  0.22712610344E+03  0.12499783626E+03 0.  0.
          5    1    3    3  502    0 -0.28437226706E+02  0.22950857600E+02  0.12285358212E+02  0.38838611634E+02  0.47000000000E+01 0.  1.
         -5    1    3    3    0  502 -0.81540926277E+02 -0.15433748244E+03  0.21808948358E+02  0.17597358146E+03  0.47000000000E+01 0.  1.
          5    1    4    4  503    0  0.52752946123E+02  0.12831865189E+03 -0.94742958310E+02  0.16806804544E+03  0.47000000000E+01 0.  1.
         -5    1    4    4    0  503  0.57225206861E+02  0.30679729429E+01  0.13476923124E+02  0.59058058003E+02  0.47000000000E+01 0.  1.
<mgrwt>
<rscale>  0 0.21208969E+03</rscale>
<asrwt>0</asrwt>
<pdfrwt beam="2">  1        5 0.37623848E-01 0.21208984E+03</pdfrwt>
<pdfrwt beam="1">  1       -5 0.30366659E-01 0.21208984E+03</pdfrwt>
<totfact> 0.58238298E+01</totfact>
</mgrwt>
</event>
<event>
 8    1  0.3763376E-007  0.1381289E+03  0.7546771E-02  0.1215874E+00
          5   -1    0    0  501    0  0.00000000000E+00  0.00000000000E+00  0.24621365863E+02  0.25065946161E+02  0.47000000000E+01 0. -1.
         -5   -1    0    0    0  501 -0.00000000000E+00 -0.00000000000E+00 -0.78873346996E+03  0.78874747330E+03  0.47000000000E+01 0. -1.
         25    2    1    2    0    0 -0.55868672638E+02 -0.18202086826E+02 -0.44888662283E+03  0.46965816600E+03  0.12500787250E+03 0.  0.
         25    2    1    2    0    0  0.55868672638E+02  0.18202086826E+02 -0.31522548127E+03  0.34415525346E+03  0.12499243936E+03 0.  0.
          5    1    3    3  502    0 -0.73129103557E+02  0.34785571087E+01 -0.42899729263E+03  0.43522492257E+03  0.47000000000E+01 0.  1.
         -5    1    3    3    0  502  0.17260430918E+02 -0.21680643935E+02 -0.19889330198E+02  0.34433243423E+02  0.47000000000E+01 0.  1.
          5    1    4    4  503    0  0.69690403406E+02  0.48532496897E+02 -0.12639547272E+03  0.15234848573E+03  0.47000000000E+01 0.  1.
         -5    1    4    4    0  503 -0.13821730767E+02 -0.30330410071E+02 -0.18883000855E+03  0.19180676773E+03  0.47000000000E+01 0.  1.
<mgrwt>
<rscale>  0 0.13812541E+03</rscale>
<asrwt>0</asrwt>
<pdfrwt beam="1">  1        5 0.38231787E-02 0.13812890E+03</pdfrwt>
<pdfrwt beam="2">  1       -5 0.12137887E+00 0.13812890E+03</pdfrwt>
<totfact> 0.14419817E+02</totfact>
</mgrwt>
</event>
<event>
 8    1  0.3763376E-007  0.1476423E+03  0.7546771E-02  0.1203404E+00
          5   -1    0    0  501    0  0.00000000000E+00  0.00000000000E+00  0.20188203870E+02  0.20728086634E+02  0.47000000000E+01 0. -1.
         -5   -1    0    0    0  501 -0.00000000000E+00 -0.00000000000E+00 -0.10901718714E+04  0.10901820028E+04  0.47000000000E+01 0. -1.
         25    2    1    2    0    0 -0.19654995799E+02  0.76060861232E+02 -0.61962212232E+03  0.63696925421E+03  0.12500673130E+03 0.  0.
         25    2    1    2    0    0  0.19654995799E+02 -0.76060861232E+02 -0.45036154520E+03  0.47394083520E+03  0.12499128130E+03 0.  0.
          5    1    4    4  502    0  0.84281153144E+01 -0.39262799076E+02 -0.26569348702E+02  0.48379962893E+02  0.47000000000E+01 0. -1.
         -5    1    4    4    0  502  0.11226880485E+02 -0.36798062156E+02 -0.42379219650E+03  0.42556087230E+03  0.47000000000E+01 0. -1.
          5    1    3    3  503    0 -0.59379717512E+02  0.85872256859E+02 -0.39437342741E+03  0.40798588897E+03  0.47000000000E+01 0.  1.
         -5    1    3    3    0  503  0.39724721713E+02 -0.98113956273E+01 -0.22524869491E+03  0.22898336524E+03  0.47000000000E+01 0.  1.
<mgrwt>
<rscale>  0 0.14763906E+03</rscale>
<asrwt>0</asrwt>
<pdfrwt beam="1">  1        5 0.31481872E-02 0.14764233E+03</pdfrwt>
<pdfrwt beam="2">  1       -5 0.16776101E+00 0.14764233E+03</pdfrwt>
<totfact> 0.84481981E+01</totfact>
</mgrwt>
</event>
<event>
 8    1  0.3763376E-007  0.1266597E+03  0.7546771E-02  0.1232500E+00
          5   -1    0    0  501    0  0.00000000000E+00  0.00000000000E+00  0.13591702814E+03  0.13599826667E+03  0.47000000000E+01 0. -1.
         -5   -1    0    0    0  501 -0.00000000000E+00 -0.00000000000E+00 -0.12206602436E+03  0.12215647467E+03  0.47000000000E+01 0. -1.
         25    2    1    2    0    0  0.14554850932E+01  0.20381739291E+02 -0.17004870297E+02  0.12779080563E+03  0.12499516253E+03 0.  0.
         25    2    1    2    0    0 -0.14554850932E+01 -0.20381739291E+02  0.30855874076E+02  0.13036393571E+03  0.12500054814E+03 0.  0.
          5    1    3    3  502    0  0.28350782414E+02  0.33837024786E+02 -0.60292319711E+02  0.74872991967E+02  0.47000000000E+01 0. -1.
         -5    1    3    3    0  502 -0.26895297320E+02 -0.13455285495E+02  0.43287449414E+02  0.52917813659E+02  0.47000000000E+01 0. -1.
          5    1    4    4  503    0 -0.86898388079E+01 -0.54150576638E+02  0.62503420871E+02  0.83286048467E+02  0.47000000000E+01 0.  1.
         -5    1    4    4    0  503  0.72343537147E+01  0.33768837347E+02 -0.31647546795E+02  0.47077887246E+02  0.47000000000E+01 0.  1.
<mgrwt>
<rscale>  0 0.12665834E+03</rscale>
<asrwt>0</asrwt>
<pdfrwt beam="1">  1        5 0.20923519E-01 0.12665967E+03</pdfrwt>
<pdfrwt beam="2">  1       -5 0.18792595E-01 0.12665967E+03</pdfrwt>
<totfact> 0.39092298E+02</totfact>
</mgrwt>
</event>
<event>
 8    1  0.3763376E-007  0.1561983E+03  0.7546771E-02  0.1193058E+00
          5   -1    0    0  501    0  0.00000000000E+00  0.00000000000E+00  0.28139535602E+02  0.28529343910E+02  0.47000000000E+01 0.  1.
         -5   -1    0    0    0  501 -0.00000000000E+00 -0.00000000000E+00 -0.86269974783E+03  0.86271255056E+03  0.47000000000E+01 0.  1.
         25    2    1    2    0    0 -0.93125277884E+02 -0.99870776686E+01 -0.43903749197E+03  0.46599551728E+03  0.12500337464E+03 0.  0.
         25    2    1    2    0    0  0.93125277884E+02  0.99870776686E+01 -0.39552272025E+03  0.42524637719E+03  0.12499679986E+03 0.  0.
          5    1    4    4  502    0 -0.18265829778E+01  0.84641878156E+01 -0.25724729278E+03  0.25743589207E+03  0.47000000000E+01 0. -1.
         -5    1    4    4    0  502  0.94951860862E+02  0.15228898530E+01 -0.13827542747E+03  0.16781048512E+03  0.47000000000E+01 0. -1.
          5    1    3    3  503    0 -0.25175573239E+02 -0.64104002309E+02 -0.20522502882E+03  0.21652375171E+03  0.47000000000E+01 0. -1.
         -5    1    3    3    0  503 -0.67949704645E+02  0.54116924641E+02 -0.23381246315E+03  0.24947176557E+03  0.47000000000E+01 0. -1.
<mgrwt>
<rscale>  0 0.15619696E+03</rscale>
<asrwt>0</asrwt>
<pdfrwt beam="1">  1        5 0.43601301E-02 0.15619828E+03</pdfrwt>
<pdfrwt beam="2">  1       -5 0.13275399E+00 0.15619828E+03</pdfrwt>
<totfact> 0.95703829E+01</totfact>
</mgrwt>
</event>
<event>
 8    1  0.3763376E-007  0.1280539E+03  0.7546771E-02  0.1230377E+00
         -5   -1    0    0    0  501 -0.00000000000E+00  0.00000000000E+00  0.21686443720E+03  0.21691536165E+03  0.47000000000E+01 0.  1.
          5   -1    0    0  501    0  0.00000000000E+00 -0.00000000000E+00 -0.85499084314E+02  0.85628169539E+02  0.47000000000E+01 0.  1.
         25    2    1    2    0    0 -0.92654233238E+00  0.27766004044E+02  0.11743220100E+03  0.17374732460E+03  0.12500400599E+03 0.  0.
         25    2    1    2    0    0  0.92654233238E+00 -0.27766004044E+02  0.13933151881E+02  0.12879620659E+03  0.12499008220E+03 0.  0.
          5    1    4    4  502    0 -0.34999438936E+02 -0.13262230993E+01 -0.43422364345E+02  0.55984920459E+02  0.47000000000E+01 0.  1.
         -5    1    4    4    0  502  0.35925981269E+02 -0.26439780944E+02  0.57355516226E+02  0.72811286131E+02  0.47000000000E+01 0.  1.
          5    1    3    3  503    0 -0.49467408870E+02 -0.17132401519E+02  0.20718781242E+02  0.56496916892E+02  0.47000000000E+01 0. -1.
         -5    1    3    3    0  503  0.48540866538E+02  0.44898405563E+02  0.96713419759E+02  0.11725040771E+03  0.47000000000E+01 0. -1.
<mgrwt>
<rscale>  0 0.12805054E+03</rscale>
<asrwt>0</asrwt>
<pdfrwt beam="2">  1        5 0.13167552E-01 0.12805394E+03</pdfrwt>
<pdfrwt beam="1">  1       -5 0.33377606E-01 0.12805394E+03</pdfrwt>
<totfact> 0.30438513E+02</totfact>
</mgrwt>
</event>
<event>
 8    1  0.3763376E-007  0.1253160E+03  0.7546771E-02  0.1234577E+00
         -5   -1    0    0    0  501 -0.00000000000E+00  0.00000000000E+00  0.42216454894E+03  0.42219071092E+03  0.47000000000E+01 0. -1.
          5   -1    0    0  501    0  0.00000000000E+00 -0.00000000000E+00 -0.37087403703E+02  0.37384027517E+02  0.47000000000E+01 0. -1.
         25    2    1    2    0    0  0.46713295492E+01  0.75833048790E+01  0.20212071920E+03  0.23781553391E+03  0.12499646079E+03 0.  0.
         25    2    1    2    0    0 -0.46713295492E+01 -0.75833048790E+01  0.18295642605E+03  0.22175920452E+03  0.12499905250E+03 0.  0.
          5    1    4    4  502    0 -0.42350905966E+02 -0.21214924656E+02  0.17405258358E+03  0.18044407476E+03  0.47000000000E+01 0.  1.
         -5    1    4    4    0  502  0.37679576417E+02  0.13631619777E+02  0.89038424650E+01  0.41315129763E+02  0.47000000000E+01 0.  1.
          5    1    3    3  503    0 -0.36502289291E+02  0.41214842468E+02  0.43098185191E+02  0.70075844125E+02  0.47000000000E+01 0. -1.
         -5    1    3    3    0  503  0.41173618840E+02 -0.33631537588E+02  0.15902253400E+03  0.16773968979E+03  0.47000000000E+01 0. -1.
<mgrwt>
<rscale>  0 0.12531532E+03</rscale>
<asrwt>0</asrwt>
<pdfrwt beam="2">  1        5 0.57305842E-02 0.12531596E+03</pdfrwt>
<pdfrwt beam="1">  1       -5 0.64973221E-01 0.12531596E+03</pdfrwt>
<totfact> 0.31415687E+02</totfact>
</mgrwt>
</event>
<event>
 8    1  0.3763376E-007  0.1318585E+03  0.7546771E-02  0.1224724E+00
          5   -1    0    0  501    0  0.00000000000E+00  0.00000000000E+00  0.58877583574E+02  0.59064878291E+02  0.47000000000E+01 0.  1.
         -5   -1    0    0    0  501 -0.00000000000E+00 -0.00000000000E+00 -0.29821128863E+03  0.29824832383E+03  0.47000000000E+01 0.  1.
         25    2    1    2    0    0  0.21085098945E+02  0.36297078188E+02 -0.13924769613E+03  0.19177201249E+03  0.12499809843E+03 0.  0.
         25    2    1    2    0    0 -0.21085098945E+02 -0.36297078188E+02 -0.10008600892E+03  0.16554118963E+03  0.12499846799E+03 0.  0.
          5    1    4    4  502    0  0.39753678163E+02 -0.16418762622E+02  0.37974421475E+01  0.43433181560E+02  0.47000000000E+01 0.  1.
         -5    1    4    4    0  502 -0.60838777108E+02 -0.19878315566E+02 -0.10388345107E+03  0.12210800807E+03  0.47000000000E+01 0.  1.
          5    1    3    3  503    0  0.54478370827E+02  0.62339260256E+02 -0.61946879098E+02  0.10350643500E+03  0.47000000000E+01 0. -1.
         -5    1    3    3    0  503 -0.33393271881E+02 -0.26042182068E+02 -0.77300817037E+02  0.88265577483E+02  0.47000000000E+01 0. -1.
<mgrwt>
<rscale>  0 0.13185846E+03</rscale>
<asrwt>0</asrwt>
<pdfrwt beam="1">  1        5 0.90753461E-02 0.13185855E+03</pdfrwt>
<pdfrwt beam="2">  1       -5 0.45895915E-01 0.13185855E+03</pdfrwt>
<totfact> 0.30924020E+02</totfact>
</mgrwt>
</event>
<event>
 8    1  0.3763376E-007  0.1446230E+03  0.7546771E-02  0.1207256E+00
          5   -1    0    0  501    0  0.00000000000E+00  0.00000000000E+00  0.67078473491E+03  0.67080120050E+03  0.47000000000E+01 0.  1.
         -5   -1    0    0    0  501 -0.00000000000E+00 -0.00000000000E+00 -0.41989715875E+02  0.42251937698E+02  0.47000000000E+01 0.  1.
         25    2    1    2    0    0 -0.38887612089E+02  0.61340469315E+02  0.13254754853E+03  0.19617506792E+03  0.12506360422E+03 0.  0.
         25    2    1    2    0    0  0.38887612089E+02 -0.61340469315E+02  0.49624747051E+03  0.51687807028E+03  0.12500595186E+03 0.  0.
          5    1    4    4  502    0  0.39227264397E+01 -0.75102943080E+02  0.45371789583E+03  0.45993245030E+03  0.47000000000E+01 0.  1.
         -5    1    4    4    0  502  0.34964885650E+02  0.13762473765E+02  0.42529574675E+02  0.56945619978E+02  0.47000000000E+01 0.  1.
          5    1    3    3  503    0 -0.46877287196E+02 -0.91580344430E+01  0.11248129263E+03  0.12229260338E+03  0.47000000000E+01 0. -1.
         -5    1    3    3    0  503  0.79896751064E+01  0.70498503759E+02  0.20066255901E+02  0.73882464539E+02  0.47000000000E+01 0. -1.
<mgrwt>
<rscale>  0 0.14461051E+03</rscale>
<asrwt>0</asrwt>
<pdfrwt beam="1">  1        5 0.10321908E+00 0.14462297E+03</pdfrwt>
<pdfrwt beam="2">  1       -5 0.64813941E-02 0.14462297E+03</pdfrwt>
<totfact> 0.91262361E+01</totfact>
</mgrwt>
</event>
<event>
 8    1  0.3763376E-007  0.1278879E+03  0.7546771E-02  0.1230629E+00
         -5   -1    0    0    0  501 -0.00000000000E+00  0.00000000000E+00  0.12374630592E+03  0.12383552894E+03  0.47000000000E+01 0. -1.
          5   -1    0    0  501    0  0.00000000000E+00 -0.00000000000E+00 -0.17005018845E+03  0.17011512746E+03  0.47000000000E+01 0. -1.
         25    2    1    2    0    0  0.23256033912E+02  0.13668406646E+02  0.46360693457E+02  0.13603175043E+03  0.12501061864E+03 0.  0.
         25    2    1    2    0    0 -0.23256033912E+02 -0.13668406646E+02 -0.92664575985E+02  0.15791890597E+03  0.12499595501E+03 0.  0.
          5    1    4    4  502    0 -0.40287789857E+02 -0.32004717777E+02  0.95829616957E+01  0.52548369398E+02  0.47000000000E+01 0. -1.
         -5    1    4    4    0  502  0.17031755944E+02  0.18336311131E+02 -0.10224753768E+03  0.10537053658E+03  0.47000000000E+01 0. -1.
          5    1    3    3  503    0 -0.92321916282E+01 -0.50780322369E+02  0.34672373230E+01  0.51942143167E+02  0.47000000000E+01 0. -1.
         -5    1    3    3    0  503  0.32488225540E+02  0.64448729015E+02  0.42893456134E+02  0.84089607262E+02  0.47000000000E+01 0. -1.
<mgrwt>
<rscale>  0 0.12788435E+03</rscale>
<asrwt>0</asrwt>
<pdfrwt beam="2">  1        5 0.26173426E-01 0.12788793E+03</pdfrwt>
<pdfrwt beam="1">  1       -5 0.19049752E-01 0.12788793E+03</pdfrwt>
<totfact> 0.25011731E+02</totfact>
</mgrwt>
</event>
<event>
 8    1  0.3763376E-007  0.1416391E+03  0.7546771E-02  0.1211144E+00
          5   -1    0    0  501    0  0.00000000000E+00  0.00000000000E+00  0.46437831920E+03  0.46440210308E+03  0.47000000000E+01 0.  1.
         -5   -1    0    0    0  501 -0.00000000000E+00 -0.00000000000E+00 -0.48250859966E+02  0.48479227381E+02  0.47000000000E+01 0.  1.
         25    2    1    2    0    0  0.59783080677E+02 -0.29324369026E+02  0.12405118232E+03  0.18827358819E+03  0.12499725126E+03 0.  0.
         25    2    1    2    0    0 -0.59783080677E+02  0.29324369026E+02  0.29207627691E+03  0.32460774226E+03  0.12501079733E+03 0.  0.
          5    1    3    3  502    0  0.75632836032E+02  0.28512656344E+02  0.78990470724E+02  0.11311446381E+03  0.47000000000E+01 0.  1.
         -5    1    3    3    0  502 -0.15849755355E+02 -0.57837025370E+02  0.45060711598E+02  0.75159124384E+02  0.47000000000E+01 0.  1.
          5    1    4    4  503    0 -0.73205393312E+02 -0.31017328359E+02  0.16431505266E+03  0.18259964622E+03  0.47000000000E+01 0. -1.
         -5    1    4    4    0  503  0.13422312634E+02  0.60341697385E+02  0.12776122425E+03  0.14200809604E+03  0.47000000000E+01 0. -1.
<mgrwt>
<rscale>  0 0.14163611E+03</rscale>
<asrwt>0</asrwt>
<pdfrwt beam="1">  1        5 0.71462216E-01 0.14163910E+03</pdfrwt>
<pdfrwt beam="2">  1       -5 0.74426053E-02 0.14163910E+03</pdfrwt>
<totfact> 0.17028272E+02</totfact>
</mgrwt>
</event>
<event>
 8    1  0.3763376E-007  0.1289988E+03  0.7546771E-02  0.1228950E+00
          5   -1    0    0  501    0  0.00000000000E+00  0.00000000000E+00  0.44274675988E+02  0.44523442520E+02  0.47000000000E+01 0.  1.
         -5   -1    0    0    0  501 -0.00000000000E+00 -0.00000000000E+00 -0.37633005176E+03  0.37635939985E+03  0.47000000000E+01 0.  1.
         25    2    1    2    0    0 -0.24749634155E+02 -0.20088078330E+02 -0.18058060391E+03  0.22192348508E+03  0.12499841375E+03 0.  0.
         25    2    1    2    0    0  0.24749634155E+02  0.20088078330E+02 -0.15147477186E+03  0.19895935729E+03  0.12499657619E+03 0.  0.
          5    1    3    3  502    0 -0.58785316241E+02 -0.28179697042E+02 -0.39223686220E+02  0.76225955498E+02  0.47000000000E+01 0. -1.
         -5    1    3    3    0  502  0.34035682085E+02  0.80916187121E+01 -0.14135691769E+03  0.14569752959E+03  0.47000000000E+01 0. -1.
          5    1    4    4  503    0 -0.24694419897E+02 -0.98769803916E+00 -0.14196166038E+03  0.14417348209E+03  0.47000000000E+01 0.  1.
         -5    1    4    4    0  503  0.49444054053E+02  0.21075776369E+02 -0.95131114816E+01  0.54785875194E+02  0.47000000000E+01 0.  1.
<mgrwt>
<rscale>  0 0.12899831E+03</rscale>
<asrwt>0</asrwt>
<pdfrwt beam="1">  1        5 0.68328823E-02 0.12899875E+03</pdfrwt>
<pdfrwt beam="2">  1       -5 0.57918322E-01 0.12899875E+03</pdfrwt>
<totfact> 0.30385581E+02</totfact>
</mgrwt>
</event>
<event>
 8    1  0.3763376E-007  0.1295026E+03  0.7546771E-02  0.1228197E+00
          5   -1    0    0  501    0  0.00000000000E+00  0.00000000000E+00  0.35512622915E+02  0.35822288960E+02  0.47000000000E+01 0. -1.
         -5   -1    0    0    0  501 -0.00000000000E+00 -0.00000000000E+00 -0.83773468646E+03  0.83774787073E+03  0.47000000000E+01 0.  1.
         25    2    1    2    0    0  0.26476301539E+02 -0.21094318848E+02 -0.69050097296E+03  0.70254005255E+03  0.12499986780E+03 0.  0.
         25    2    1    2    0    0 -0.26476301539E+02  0.21094318848E+02 -0.11172109059E+03  0.17103010714E+03  0.12499492243E+03 0.  0.
          5    1    4    4  502    0 -0.25796153902E+02 -0.50922847771E+02 -0.51729666443E+02  0.77179183538E+02  0.47000000000E+01 0. -1.
         -5    1    4    4    0  502 -0.68014763693E+00  0.72017166620E+02 -0.59991424148E+02  0.93850923598E+02  0.47000000000E+01 0. -1.
          5    1    3    3  503    0  0.45922457435E+02 -0.64578102301E+02 -0.49113372281E+03  0.49750741409E+03  0.47000000000E+01 0. -1.
         -5    1    3    3    0  503 -0.19446155896E+02  0.43483783452E+02 -0.19936725015E+03  0.20503263846E+03  0.47000000000E+01 0. -1.
<mgrwt>
<rscale>  0 0.12950144E+03</rscale>
<asrwt>0</asrwt>
<pdfrwt beam="1">  1        5 0.54883157E-02 0.12950263E+03</pdfrwt>
<pdfrwt beam="2">  1       -5 0.12890708E+00 0.12950263E+03</pdfrwt>
<totfact> 0.66571887E+01</totfact>
</mgrwt>
</event>
<event>
 8    1  0.3763376E-007  0.1281160E+03  0.7546771E-02  0.1230279E+00
         -5   -1    0    0    0  501 -0.00000000000E+00  0.00000000000E+00  0.19967735587E+03  0.19973266244E+03  0.47000000000E+01 0.  1.
          5   -1    0    0  501    0  0.00000000000E+00 -0.00000000000E+00 -0.22381161466E+03  0.22386095876E+03  0.47000000000E+01 0.  1.
         25    2    1    2    0    0  0.27799377484E+02 -0.38414038710E+01  0.15642941181E+03  0.20219758647E+03  0.12500456521E+03 0.  0.
         25    2    1    2    0    0 -0.27799377484E+02  0.38414038710E+01 -0.18056367060E+03  0.22139603473E+03  0.12500161312E+03 0.  0.
          5    1    3    3  502    0  0.72012018496E+02  0.23055015626E+02  0.84917926912E+02  0.11379986320E+03  0.47000000000E+01 0. -1.
         -5    1    3    3    0  502 -0.44212641011E+02 -0.26896419497E+02  0.71511484898E+02  0.88397723270E+02  0.47000000000E+01 0. -1.
          5    1    4    4  503    0 -0.48690840827E+02  0.47470839747E+02 -0.57832508075E+02  0.89392212172E+02  0.47000000000E+01 0.  1.
         -5    1    4    4    0  503  0.20891463343E+02 -0.43629435876E+02 -0.12273116253E+03  0.13200382256E+03  0.47000000000E+01 0.  1.
<mgrwt>
<rscale>  0 0.12811526E+03</rscale>
<asrwt>0</asrwt>
<pdfrwt beam="2">  1        5 0.34440606E-01 0.12811598E+03</pdfrwt>
<pdfrwt beam="1">  1       -5 0.30727643E-01 0.12811598E+03</pdfrwt>
<totfact> 0.58711233E+01</totfact>
</mgrwt>
</event>
<event>
 8    1  0.3763376E-007  0.1710414E+03  0.7546771E-02  0.1176767E+00
          5   -1    0    0  501    0  0.00000000000E+00  0.00000000000E+00  0.92578904370E+02  0.92698131235E+02  0.47000000000E+01 0.  1.
         -5   -1    0    0    0  501 -0.00000000000E+00 -0.00000000000E+00 -0.36253850042E+03  0.36256896487E+03  0.47000000000E+01 0.  1.
         25    2    1    2    0    0 -0.11315883326E+03  0.28694602824E+02 -0.21682196240E+03  0.27616161179E+03  0.12500068268E+03 0.  0.
         25    2    1    2    0    0  0.11315883326E+03 -0.28694602824E+02 -0.53137633652E+02  0.17910548432E+03  0.12500745829E+03 0.  0.
          5    1    3    3  502    0 -0.39161808533E+02 -0.49176070698E+02 -0.90193319706E+02  0.11004025671E+03  0.47000000000E+01 0. -1.
         -5    1    3    3    0  502 -0.73997024725E+02  0.77870673521E+02 -0.12662864270E+03  0.16612135508E+03  0.47000000000E+01 0. -1.
          5    1    4    4  503    0  0.46812119221E+02  0.40710887623E+02  0.11492652356E+02  0.63268648912E+02  0.47000000000E+01 0. -1.
         -5    1    4    4    0  503  0.66346714037E+02 -0.69405490446E+02 -0.64630286008E+02  0.11583683541E+03  0.47000000000E+01 0. -1.
<mgrwt>
<rscale>  0 0.17104018E+03</rscale>
<asrwt>0</asrwt>
<pdfrwt beam="1">  1        5 0.14254423E-01 0.17104142E+03</pdfrwt>
<pdfrwt beam="2">  1       -5 0.55786668E-01 0.17104142E+03</pdfrwt>
<totfact> 0.99957517E+01</totfact>
</mgrwt>
</event>
<event>
 8    1  0.3763376E-007  0.1258689E+03  0.7546771E-02  0.1233727E+00
         -5   -1    0    0    0  501 -0.00000000000E+00  0.00000000000E+00  0.22892925605E+02  0.23370409554E+02  0.47000000000E+01 0. -1.
          5   -1    0    0  501    0  0.00000000000E+00 -0.00000000000E+00 -0.69325997432E+03  0.69327590611E+03  0.47000000000E+01 0. -1.
         25    2    1    2    0    0  0.64713319106E+01  0.13263364891E+02 -0.29439205884E+03  0.32016154176E+03  0.12497573176E+03 0.  0.
         25    2    1    2    0    0 -0.64713319106E+01 -0.13263364891E+02 -0.37597498987E+03  0.39648477390E+03  0.12500075176E+03 0.  0.
          5    1    4    4  502    0 -0.31591202525E+02 -0.23037486709E+01 -0.36529782624E+03  0.36669865448E+03  0.47000000000E+01 0.  1.
         -5    1    4    4    0  502  0.25119870615E+02 -0.10959616220E+02 -0.10677163630E+02  0.29786119428E+02  0.47000000000E+01 0.  1.
          5    1    3    3  503    0 -0.16940206368E+01 -0.41493595339E+02 -0.23556468321E+03  0.23924338682E+03  0.47000000000E+01 0. -1.
         -5    1    3    3    0  503  0.81653525473E+01  0.54756960230E+02 -0.58827375626E+02  0.80918154940E+02  0.47000000000E+01 0. -1.
<mgrwt>
<rscale>  0 0.12586270E+03</rscale>
<asrwt>0</asrwt>
<pdfrwt beam="2">  1        5 0.10669332E+00 0.12586891E+03</pdfrwt>
<pdfrwt beam="1">  1       -5 0.35599441E-02 0.12586891E+03</pdfrwt>
<totfact> 0.21686364E+02</totfact>
</mgrwt>
</event>
<event>
 8    1  0.3763376E-007  0.1301474E+03  0.7546771E-02  0.1227237E+00
          5   -1    0    0  501    0  0.00000000000E+00  0.00000000000E+00  0.27418135152E+03  0.27422163211E+03  0.47000000000E+01 0. -1.
         -5   -1    0    0    0  501 -0.00000000000E+00 -0.00000000000E+00 -0.10808531017E+03  0.10818744971E+03  0.47000000000E+01 0. -1.
         25    2    1    2    0    0 -0.27279685173E+02  0.23847478466E+02 -0.42181879154E+02  0.13681179045E+03  0.12500108649E+03 0.  0.
         25    2    1    2    0    0  0.27279685173E+02 -0.23847478466E+02  0.20827792050E+03  0.24559729137E+03  0.12500181562E+03 0.  0.
          5    1    4    4  502    0  0.73095615928E+02  0.82525105931E+01  0.12639922449E+03  0.14632131407E+03  0.47000000000E+01 0.  1.
         -5    1    4    4    0  502 -0.45815930755E+02 -0.32099989059E+02  0.81878696014E+02  0.99275977303E+02  0.47000000000E+01 0.  1.
          5    1    3    3  503    0  0.29729752526E+02  0.56128596922E+02 -0.28219239345E+02  0.69661273653E+02  0.47000000000E+01 0.  1.
         -5    1    3    3    0  503 -0.57009437700E+02 -0.32281118456E+02 -0.13962639809E+02  0.67150516797E+02  0.47000000000E+01 0.  1.
<mgrwt>
<rscale>  0 0.13014719E+03</rscale>
<asrwt>0</asrwt>
<pdfrwt beam="1">  1        5 0.42192702E-01 0.13014737E+03</pdfrwt>
<pdfrwt beam="2">  1       -5 0.16639465E-01 0.13014737E+03</pdfrwt>
<totfact> 0.12486577E+02</totfact>
</mgrwt>
</event>
<event>
 8    1  0.3763376E-007  0.1304134E+03  0.7546771E-02  0.1226849E+00
         -5   -1    0    0    0  501 -0.00000000000E+00  0.00000000000E+00  0.11481159210E+04  0.11481255411E+04  0.47000000000E+01 0.  1.
          5   -1    0    0  501    0  0.00000000000E+00 -0.00000000000E+00 -0.22079327696E+02  0.22574027366E+02  0.47000000000E+01 0.  1.
         25    2    1    2    0    0  0.18239473156E+02  0.32382871154E+02  0.90277895028E+03  0.91214992884E+03  0.12500532345E+03 0.  0.
         25    2    1    2    0    0 -0.18239473156E+02 -0.32382871154E+02  0.22325764302E+03  0.25854963959E+03  0.12499044859E+03 0.  0.
          5    1    4    4  502    0 -0.22632525012E+02 -0.78102565194E+02  0.16673850446E+03  0.18556955771E+03  0.47000000000E+01 0.  1.
         -5    1    4    4    0  502  0.43930518559E+01  0.45719694041E+02  0.56519138558E+02  0.72980081880E+02  0.47000000000E+01 0.  1.
          5    1    3    3  503    0  0.45097609492E+02  0.65171463129E+02  0.41611465517E+03  0.42362083310E+03  0.47000000000E+01 0. -1.
         -5    1    3    3    0  503 -0.26858136336E+02 -0.32788591975E+02  0.48666429511E+03  0.48852909575E+03  0.47000000000E+01 0. -1.
<mgrwt>
<rscale>  0 0.13040985E+03</rscale>
<asrwt>0</asrwt>
<pdfrwt beam="2">  1        5 0.34356130E-02 0.13041342E+03</pdfrwt>
<pdfrwt beam="1">  1       -5 0.17667204E+00 0.13041342E+03</pdfrwt>
<totfact> 0.60855904E+01</totfact>
</mgrwt>
</event>
<event>
 8    1  0.3763376E-007  0.1271015E+03  0.7546771E-02  0.1231821E+00
          5   -1    0    0  501    0  0.00000000000E+00  0.00000000000E+00  0.64589395477E+02  0.64760173009E+02  0.47000000000E+01 0. -1.
         -5   -1    0    0    0  501 -0.00000000000E+00 -0.00000000000E+00 -0.30594024168E+03  0.30597634137E+03  0.47000000000E+01 0. -1.
         25    2    1    2    0    0  0.22610962035E+02 -0.43414714895E+01 -0.20020122976E+03  0.23713981309E+03  0.12499861830E+03 0.  0.
         25    2    1    2    0    0 -0.22610962035E+02  0.43414714895E+01 -0.41149616442E+02  0.13359670129E+03  0.12499873473E+03 0.  0.
          5    1    3    3  502    0 -0.17027318392E+02 -0.52497756600E+01 -0.19614419671E+03  0.19700793289E+03  0.47000000000E+01 0. -1.
         -5    1    3    3    0  502  0.39638280427E+02  0.90830417055E+00 -0.40570330498E+01  0.40131880205E+02  0.47000000000E+01 0. -1.
          5    1    4    4  503    0 -0.16221523920E+02  0.64164452771E+02 -0.26866406461E+02  0.71582879474E+02  0.47000000000E+01 0.  1.
         -5    1    4    4    0  503 -0.63894381144E+01 -0.59822981282E+02 -0.14283209981E+02  0.62013821816E+02  0.47000000000E+01 0.  1.
<mgrwt>
<rscale>  0 0.12710146E+03</rscale>
<asrwt>0</asrwt>
<pdfrwt beam="1">  1        5 0.99527438E-02 0.12710149E+03</pdfrwt>
<pdfrwt beam="2">  1       -5 0.47083642E-01 0.12710149E+03</pdfrwt>
<totfact> 0.24644797E+02</totfact>
</mgrwt>
</event>
<event>
 8    1  0.3763376E-007  0.1269969E+03  0.7546771E-02  0.1231987E+00
         -5   -1    0    0    0  501 -0.00000000000E+00  0.00000000000E+00  0.19667288924E+02  0.20221084383E+02  0.47000000000E+01 0.  1.
          5   -1    0    0  501    0  0.00000000000E+00 -0.00000000000E+00 -0.92460695903E+03  0.92461890457E+03  0.47000000000E+01 0.  1.
         25    2    1    2    0    0  0.18318610369E+02  0.12741203471E+02 -0.28473559614E+03  0.31176708151E+03  0.12500577448E+03 0.  0.
         25    2    1    2    0    0 -0.18318610369E+02 -0.12741203471E+02 -0.62020407397E+03  0.63307290744E+03  0.12502121028E+03 0.  0.
          5    1    3    3  502    0 -0.26456631197E+01 -0.91944126465E+01 -0.28058034914E+03  0.28078276137E+03  0.47000000000E+01 0. -1.
         -5    1    3    3    0  502  0.20964273488E+02  0.21935616117E+02 -0.41552470030E+01  0.30984320147E+02  0.47000000000E+01 0. -1.
          5    1    4    4  503    0  0.30958432897E+02 -0.24025527815E+02 -0.68648778980E+02  0.79185828339E+02  0.47000000000E+01 0.  1.
         -5    1    4    4    0  503 -0.49277043266E+02  0.11284324344E+02 -0.55155529499E+03  0.55388707910E+03  0.47000000000E+01 0.  1.
<mgrwt>
<rscale>  0 0.12699310E+03</rscale>
<asrwt>0</asrwt>
<pdfrwt beam="2">  1        5 0.14229071E+00 0.12699690E+03</pdfrwt>
<pdfrwt beam="1">  1       -5 0.30692560E-02 0.12699690E+03</pdfrwt>
<totfact> 0.13233643E+02</totfact>
</mgrwt>
</event>
<event>
 8    1  0.3763376E-007  0.2025158E+03  0.7546771E-02  0.1147635E+00
          5   -1    0    0  501    0  0.00000000000E+00  0.00000000000E+00  0.93250048445E+02  0.93368418295E+02  0.47000000000E+01 0. -1.
         -5   -1    0    0    0  501 -0.00000000000E+00 -0.00000000000E+00 -0.49517717046E+03  0.49519947510E+03  0.47000000000E+01 0. -1.
         25    2    1    2    0    0  0.89178048630E+02  0.13203586719E+03 -0.29972052572E+03  0.36172245907E+03  0.12499819709E+03 0.  0.
         25    2    1    2    0    0 -0.89178048630E+02 -0.13203586719E+03 -0.10220659629E+03  0.22684543433E+03  0.12500587253E+03 0.  0.
          5    1    3    3  502    0  0.13669224298E+01 -0.19570468547E+02 -0.86303217255E+01  0.21941836048E+02  0.47000000000E+01 0. -1.
         -5    1    3    3    0  502  0.87811126201E+02  0.15160633574E+03 -0.29109020399E+03  0.33978062302E+03  0.47000000000E+01 0. -1.
          5    1    4    4  503    0 -0.37673736885E+02 -0.13337074624E+03 -0.36833909580E+02  0.14347784951E+03  0.47000000000E+01 0. -1.
         -5    1    4    4    0  503 -0.51504311746E+02  0.13348790504E+01 -0.65372686714E+02  0.83367584820E+02  0.47000000000E+01 0. -1.
<mgrwt>
<rscale>  0 0.20251465E+03</rscale>
<asrwt>0</asrwt>
<pdfrwt beam="1">  1        5 0.14356983E-01 0.20251583E+03</pdfrwt>
<pdfrwt beam="2">  1       -5 0.76191923E-01 0.20251583E+03</pdfrwt>
<totfact> 0.51493951E+01</totfact>
</mgrwt>
</event>
<event>
 8    1  0.3763376E-007  0.1323058E+03  0.7546771E-02  0.1224075E+00
          5   -1    0    0  501    0  0.00000000000E+00  0.00000000000E+00  0.77668527255E+03  0.77669949311E+03  0.47000000000E+01 0.  1.
         -5   -1    0    0    0  501 -0.00000000000E+00 -0.00000000000E+00 -0.27168069169E+02  0.27571615519E+02  0.47000000000E+01 0.  1.
         25    2    1    2    0    0 -0.38703222774E+02 -0.19528301282E+02  0.20556751701E+03  0.24446212834E+03  0.12499773653E+03 0.  0.
         25    2    1    2    0    0  0.38703222774E+02  0.19528301282E+02  0.54394968636E+03  0.55980898028E+03  0.12500215641E+03 0.  0.
          5    1    4    4  502    0 -0.27726476766E+02  0.14983264236E+02  0.38523618087E+02  0.49994148373E+02  0.47000000000E+01 0. -1.
         -5    1    4    4    0  502  0.66429699540E+02  0.45450370459E+01  0.50542606828E+03  0.50981483191E+03  0.47000000000E+01 0. -1.
          5    1    3    3  503    0 -0.45428785610E+02  0.46687637620E+02  0.93918189671E+02  0.11439504543E+03  0.47000000000E+01 0. -1.
         -5    1    3    3    0  503  0.67255628364E+01 -0.66215938902E+02  0.11164932734E+03  0.13006708291E+03  0.47000000000E+01 0. -1.
<mgrwt>
<rscale>  0 0.13230479E+03</rscale>
<asrwt>0</asrwt>
<pdfrwt beam="1">  1        5 0.11952216E+00 0.13230583E+03</pdfrwt>
<pdfrwt beam="2">  1       -5 0.42118393E-02 0.13230583E+03</pdfrwt>
<totfact> 0.12622378E+02</totfact>
</mgrwt>
</event>
<event>
 8    1  0.3763376E-007  0.1266743E+03  0.7546771E-02  0.1232476E+00
          5   -1    0    0  501    0  0.00000000000E+00  0.00000000000E+00  0.17661434728E+02  0.18276112186E+02  0.47000000000E+01 0.  1.
         -5   -1    0    0    0  501 -0.00000000000E+00 -0.00000000000E+00 -0.89322124574E+03  0.89323361101E+03  0.47000000000E+01 0.  1.
         25    2    1    2    0    0 -0.74348351502E+01  0.19106584869E+02 -0.45177444964E+03  0.46919775873E+03  0.12500418029E+03 0.  0.
         25    2    1    2    0    0  0.74348351502E+01 -0.19106584869E+02 -0.42378536137E+03  0.44231196446E+03  0.12500201214E+03 0.  0.
          5    1    4    4  502    0  0.60856213975E+02 -0.35434790067E+02 -0.23091982985E+03  0.24146461634E+03  0.47000000000E+01 0. -1.
         -5    1    4    4    0  502 -0.53421378825E+02  0.16328205198E+02 -0.19286553152E+03  0.20084734812E+03  0.47000000000E+01 0. -1.
          5    1    3    3  503    0 -0.62999280062E+02  0.17934439499E+02 -0.17630434232E+03  0.18813788702E+03  0.47000000000E+01 0.  1.
         -5    1    3    3    0  503  0.55564444912E+02  0.11721453694E+01 -0.27547010732E+03  0.28105987171E+03  0.47000000000E+01 0.  1.
<mgrwt>
<rscale>  0 0.12667379E+03</rscale>
<asrwt>0</asrwt>
<pdfrwt beam="1">  1        5 0.27653786E-02 0.12667432E+03</pdfrwt>
<pdfrwt beam="2">  1       -5 0.13746685E+00 0.12667432E+03</pdfrwt>
<totfact> 0.17144303E+02</totfact>
</mgrwt>
</event>
<event>
 8    1  0.3763376E-007  0.1358752E+03  0.7546771E-02  0.1218990E+00
         -5   -1    0    0    0  501 -0.00000000000E+00  0.00000000000E+00  0.79958936900E+03  0.79960318222E+03  0.47000000000E+01 0.  1.
          5   -1    0    0  501    0  0.00000000000E+00 -0.00000000000E+00 -0.31886219324E+02  0.32230745923E+02  0.47000000000E+01 0.  1.
         25    2    1    2    0    0  0.52609327546E+02  0.83523275547E+01  0.60396895284E+03  0.61906426246E+03  0.12499824934E+03 0.  0.
         25    2    1    2    0    0 -0.52609327546E+02 -0.83523275547E+01  0.16373419683E+03  0.21276966568E+03  0.12499816279E+03 0.  0.
          5    1    3    3  502    0 -0.23033954209E+02  0.23080280893E+02  0.39357643152E+03  0.39495285776E+03  0.47000000000E+01 0.  1.
         -5    1    3    3    0  502  0.75643281755E+02 -0.14727953339E+02  0.21039252133E+03  0.22411140469E+03  0.47000000000E+01 0.  1.
          5    1    4    4  503    0 -0.25532458606E+02 -0.60973963316E+02  0.12617578045E+03  0.14252069400E+03  0.47000000000E+01 0. -1.
         -5    1    4    4    0  503 -0.27076868940E+02  0.52621635761E+02  0.37558416381E+02  0.70248971685E+02  0.47000000000E+01 0. -1.
<mgrwt>
<rscale>  0 0.13587516E+03</rscale>
<asrwt>0</asrwt>
<pdfrwt beam="2">  1        5 0.49331369E-02 0.13587518E+03</pdfrwt>
<pdfrwt beam="1">  1       -5 0.12304131E+00 0.13587518E+03</pdfrwt>
<totfact> 0.91034277E+01</totfact>
</mgrwt>
</event>
<event>
 8    1  0.3763376E-007  0.1306249E+03  0.7546771E-02  0.1226534E+00
          5   -1    0    0  501    0  0.00000000000E+00  0.00000000000E+00  0.10560538848E+03  0.10570992420E+03  0.47000000000E+01 0. -1.
         -5   -1    0    0    0  501 -0.00000000000E+00 -0.00000000000E+00 -0.17343969047E+03  0.17350336087E+03  0.47000000000E+01 0. -1.
         25    2    1    2    0    0  0.34103401890E+02 -0.16531843383E+02 -0.70763343550E+02  0.14855551873E+03  0.12499978995E+03 0.  0.
         25    2    1    2    0    0 -0.34103401890E+02  0.16531843383E+02  0.29290415536E+01  0.13065776634E+03  0.12500611487E+03 0.  0.
          5    1    4    4  502    0 -0.10173492841E+02  0.25977291077E+02 -0.57901491056E+02  0.64443714006E+02  0.47000000000E+01 0.  1.
         -5    1    4    4    0  502 -0.23929909049E+02 -0.94454476939E+01  0.60830532610E+02  0.66214052337E+02  0.47000000000E+01 0.  1.
          5    1    3    3  503    0  0.50164363483E+02 -0.59847958430E+02 -0.65098463034E+02  0.10177495459E+03  0.47000000000E+01 0.  1.
         -5    1    3    3    0  503 -0.16060961593E+02  0.43316115047E+02 -0.56648805163E+01  0.46780564141E+02  0.47000000000E+01 0.  1.
<mgrwt>
<rscale>  0 0.13062342E+03</rscale>
<asrwt>0</asrwt>
<pdfrwt beam="1">  1        5 0.16259922E-01 0.13062493E+03</pdfrwt>
<pdfrwt beam="2">  1       -5 0.26695968E-01 0.13062493E+03</pdfrwt>
<totfact> 0.32459562E+02</totfact>
</mgrwt>
</event>
<event>
 8    1  0.3763376E-007  0.1441860E+03  0.7546771E-02  0.1207806E+00
         -5   -1    0    0    0  501 -0.00000000000E+00  0.00000000000E+00  0.28451519463E+03  0.28455401241E+03  0.47000000000E+01 0.  1.
          5   -1    0    0  501    0  0.00000000000E+00 -0.00000000000E+00 -0.74898579826E+02  0.75045901020E+02  0.47000000000E+01 0.  1.
         25    2    1    2    0    0  0.64477196669E+02  0.31717573231E+02  0.13377781641E+03  0.19668540286E+03  0.12500132076E+03 0.  0.
         25    2    1    2    0    0 -0.64477196669E+02 -0.31717573231E+02  0.75838798394E+02  0.16291451057E+03  0.12500520417E+03 0.  0.
          5    1    4    4  502    0 -0.41467470419E+02  0.46339949876E+02  0.38185235976E+02  0.73124170450E+02  0.47000000000E+01 0. -1.
         -5    1    4    4    0  502 -0.23009726250E+02 -0.78057523106E+02  0.37653562418E+02  0.89790340117E+02  0.47000000000E+01 0. -1.
          5    1    3    3  503    0  0.46822072982E+02 -0.44191371500E+02  0.46357974608E+02  0.79475377590E+02  0.47000000000E+01 0. -1.
         -5    1    3    3    0  503  0.17655123688E+02  0.75908944731E+02  0.87419841805E+02  0.11721002527E+03  0.47000000000E+01 0. -1.
<mgrwt>
<rscale>  0 0.14418520E+03</rscale>
<asrwt>0</asrwt>
<pdfrwt beam="2">  1        5 0.11537177E-01 0.14418604E+03</pdfrwt>
<pdfrwt beam="1">  1       -5 0.43785887E-01 0.14418604E+03</pdfrwt>
<totfact> 0.23110118E+02</totfact>
</mgrwt>
</event>
<event>
 8    1  0.3763376E-007  0.1431567E+03  0.7546771E-02  0.1209144E+00
          5   -1    0    0  501    0  0.00000000000E+00  0.00000000000E+00  0.36119472967E+02  0.36423980115E+02  0.47000000000E+01 0.  1.
         -5   -1    0    0    0  501 -0.00000000000E+00 -0.00000000000E+00 -0.59440474957E+03  0.59442333089E+03  0.47000000000E+01 0.  1.
         25    2    1    2    0    0  0.13238024952E+02  0.68500711013E+02 -0.34964909340E+03  0.37781986859E+03  0.12500308745E+03 0.  0.
         25    2    1    2    0    0 -0.13238024952E+02 -0.68500711013E+02 -0.20863618320E+03  0.25302744242E+03  0.12500494775E+03 0.  0.
          5    1    3    3  502    0  0.11483438288E+01 -0.35562665736E+02 -0.61836777882E+02  0.71497545319E+02  0.47000000000E+01 0.  1.
         -5    1    3    3    0  502  0.12089681123E+02  0.10406337675E+03 -0.28781231552E+03  0.30632232327E+03  0.47000000000E+01 0.  1.
          5    1    4    4  503    0 -0.65088690779E+01 -0.51277135390E+02 -0.22311752873E+03  0.22907472933E+03  0.47000000000E+01 0. -1.
         -5    1    4    4    0  503 -0.67291558742E+01 -0.17223575624E+02  0.14481345528E+02  0.23952713090E+02  0.47000000000E+01 0. -1.
<mgrwt>
<rscale>  0 0.14315626E+03</rscale>
<asrwt>0</asrwt>
<pdfrwt beam="1">  1        5 0.55816954E-02 0.14315666E+03</pdfrwt>
<pdfrwt beam="2">  1       -5 0.91471730E-01 0.14315666E+03</pdfrwt>
<totfact> 0.15667211E+02</totfact>
</mgrwt>
</event>
<event>
 8    1  0.3763376E-007  0.1363649E+03  0.7546771E-02  0.1218309E+00
         -5   -1    0    0    0  501 -0.00000000000E+00  0.00000000000E+00  0.47096071989E+02  0.47330011586E+02  0.47000000000E+01 0. -1.
          5   -1    0    0  501    0  0.00000000000E+00 -0.00000000000E+00 -0.51100496541E+03  0.51102657923E+03  0.47000000000E+01 0. -1.
         25    2    1    2    0    0  0.31121689872E+02  0.44731366770E+02 -0.98157545794E+02  0.16801130385E+03  0.12499375854E+03 0.  0.
         25    2    1    2    0    0 -0.31121689872E+02 -0.44731366770E+02 -0.36575134763E+03  0.39034528696E+03  0.12500375996E+03 0.  0.
          5    1    4    4  502    0 -0.17069511857E+02 -0.12700905355E+02 -0.35167588395E+03  0.35235024988E+03  0.47000000000E+01 0. -1.
         -5    1    4    4    0  502 -0.14052178015E+02 -0.32030461415E+02 -0.14075463677E+02  0.37995037085E+02  0.47000000000E+01 0. -1.
          5    1    3    3  503    0 -0.16224510938E+02 -0.32125807680E+02 -0.59506186163E+02  0.69702069309E+02  0.47000000000E+01 0.  1.
         -5    1    3    3    0  503  0.47346200810E+02  0.76857174450E+02 -0.38651359631E+02  0.98309234545E+02  0.47000000000E+01 0.  1.
<mgrwt>
<rscale>  0 0.13636264E+03</rscale>
<asrwt>0</asrwt>
<pdfrwt beam="2">  1        5 0.78635803E-01 0.13636493E+03</pdfrwt>
<pdfrwt beam="1">  1       -5 0.72652078E-02 0.13636493E+03</pdfrwt>
<totfact> 0.14085190E+02</totfact>
</mgrwt>
</event>
<event>
 8    1  0.3763376E-007  0.1454359E+03  0.7546771E-02  0.1206197E+00
          5   -1    0    0  501    0  0.00000000000E+00  0.00000000000E+00  0.16278724351E+03  0.16285507867E+03  0.47000000000E+01 0. -1.
         -5   -1    0    0    0  501 -0.00000000000E+00 -0.00000000000E+00 -0.13964885995E+03  0.13972792879E+03  0.47000000000E+01 0. -1.
         25    2    1    2    0    0 -0.21823576760E+02  0.71065961377E+02 -0.28601635055E+02  0.14821773121E+03  0.12499521171E+03 0.  0.
         25    2    1    2    0    0  0.21823576760E+02 -0.71065961377E+02  0.51740018622E+02  0.15436527625E+03  0.12499987847E+03 0.  0.
          5    1    3    3  502    0 -0.66140711888E+02  0.51132838061E+02 -0.47027890490E+02  0.96035792188E+02  0.47000000000E+01 0.  1.
         -5    1    3    3    0  502  0.44317135128E+02  0.19933123316E+02  0.18426255435E+02  0.52181939025E+02  0.47000000000E+01 0.  1.
          5    1    4    4  503    0 -0.13859748550E+02  0.32162791343E+02  0.59209137254E+01  0.35828550015E+02  0.47000000000E+01 0.  1.
         -5    1    4    4    0  503  0.35683325310E+02 -0.10322875272E+03  0.45819104896E+02  0.11853672624E+03  0.47000000000E+01 0.  1.
<mgrwt>
<rscale>  0 0.14543492E+03</rscale>
<asrwt>0</asrwt>
<pdfrwt beam="1">  1        5 0.25055492E-01 0.14543593E+03</pdfrwt>
<pdfrwt beam="2">  1       -5 0.21495740E-01 0.14543593E+03</pdfrwt>
<totfact> 0.22685214E+02</totfact>
</mgrwt>
</event>
<event>
 8    1  0.3763376E-007  0.1529347E+03  0.7546771E-02  0.1196915E+00
         -5   -1    0    0    0  501 -0.00000000000E+00  0.00000000000E+00  0.28413959216E+03  0.28417846124E+03  0.47000000000E+01 0. -1.
          5   -1    0    0  501    0  0.00000000000E+00 -0.00000000000E+00 -0.93269339944E+02  0.93387685342E+02  0.47000000000E+01 0. -1.
         25    2    1    2    0    0  0.83397035738E+02  0.28427145278E+02  0.16041509698E+03  0.22163486154E+03  0.12500336136E+03 0.  0.
         25    2    1    2    0    0 -0.83397035738E+02 -0.28427145278E+02  0.30455155238E+02  0.15593128504E+03  0.12499552399E+03 0.  0.
          5    1    3    3  502    0  0.17568960699E+02 -0.23165044866E+02  0.12875916290E+03  0.13208444161E+03  0.47000000000E+01 0.  1.
         -5    1    3    3    0  502  0.65828075039E+02  0.51592190144E+02  0.31655934077E+02  0.89550419930E+02  0.47000000000E+01 0.  1.
          5    1    4    4  503    0  0.16338400034E+02  0.11865880859E+02  0.42799116308E+02  0.47556248811E+02  0.47000000000E+01 0.  1.
         -5    1    4    4    0  503 -0.99735435772E+02 -0.40293026137E+02 -0.12343961070E+02  0.10837503623E+03  0.47000000000E+01 0.  1.
<mgrwt>
<rscale>  0 0.15293305E+03</rscale>
<asrwt>0</asrwt>
<pdfrwt beam="2">  1        5 0.14361223E-01 0.15293465E+03</pdfrwt>
<pdfrwt beam="1">  1       -5 0.43725876E-01 0.15293465E+03</pdfrwt>
<totfact> 0.15979888E+02</totfact>
</mgrwt>
</event>
<event>
 8    1  0.3763376E-007  0.1311811E+03  0.7546771E-02  0.1225717E+00
         -5   -1    0    0    0  501 -0.00000000000E+00  0.00000000000E+00  0.11442633465E+04  0.11442729990E+04  0.47000000000E+01 0. -1.
          5   -1    0    0  501    0  0.00000000000E+00 -0.00000000000E+00 -0.14912547368E+02  0.15635666567E+02  0.47000000000E+01 0. -1.
         25    2    1    2    0    0 -0.34558055545E+02 -0.19726873441E+02  0.63829068475E+03  0.65163139418E+03  0.12500026762E+03 0.  0.
         25    2    1    2    0    0  0.34558055545E+02  0.19726873441E+02  0.49106011442E+03  0.50827727138E+03  0.12498935911E+03 0.  0.
          5    1    4    4  502    0  0.37618023901E-01  0.62945889945E+02  0.36665412084E+03  0.37204773996E+03  0.47000000000E+01 0. -1.
         -5    1    4    4    0  502  0.34520437521E+02 -0.43219016503E+02  0.12440599357E+03  0.13622953142E+03  0.47000000000E+01 0. -1.
          5    1    3    3  503    0 -0.80636569832E+02 -0.23727385453E+02  0.38315288826E+03  0.39229258341E+03  0.47000000000E+01 0. -1.
         -5    1    3    3    0  503  0.46078514288E+02  0.40005120117E+01  0.25513779649E+03  0.25933881077E+03  0.47000000000E+01 0. -1.
<mgrwt>
<rscale>  0 0.13117848E+03</rscale>
<asrwt>0</asrwt>
<pdfrwt beam="2">  1        5 0.23506055E-02 0.13118108E+03</pdfrwt>
<pdfrwt beam="1">  1       -5 0.17609685E+00 0.13118108E+03</pdfrwt>
<totfact> 0.11337209E+02</totfact>
</mgrwt>
</event>
<event>
 8    1  0.3763376E-007  0.1644497E+03  0.7546771E-02  0.1183763E+00
         -5   -1    0    0    0  501 -0.00000000000E+00  0.00000000000E+00  0.11884670379E+04  0.11884763313E+04  0.47000000000E+01 0. -1.
          5   -1    0    0  501    0  0.00000000000E+00 -0.00000000000E+00 -0.78990449319E+02  0.79130152809E+02  0.47000000000E+01 0. -1.
         25    2    1    2    0    0  0.38946529692E+02 -0.99504853273E+02  0.10896231346E+04  0.11019627228E+04  0.12500087579E+03 0.  0.
         25    2    1    2    0    0 -0.38946529692E+02  0.99504853273E+02  0.19853453957E+02  0.16564376135E+03  0.12500259213E+03 0.  0.
          5    1    4    4  502    0 -0.69567995930E+02  0.20534635196E+02 -0.14504305754E+02  0.74120457269E+02  0.47000000000E+01 0.  1.
         -5    1    4    4    0  502  0.30621466238E+02  0.78970218077E+02  0.34357759711E+02  0.91523304082E+02  0.47000000000E+01 0.  1.
          5    1    3    3  503    0 -0.39132233526E+01 -0.76695809721E+02  0.26619263539E+03  0.27708873972E+03  0.47000000000E+01 0. -1.
         -5    1    3    3    0  503  0.42859753045E+02 -0.22809043552E+02  0.82343049922E+03  0.82487398307E+03  0.47000000000E+01 0. -1.
<mgrwt>
<rscale>  0 0.16444935E+03</rscale>
<asrwt>0</asrwt>
<pdfrwt beam="2">  1        5 0.12163839E-01 0.16444968E+03</pdfrwt>
<pdfrwt beam="1">  1       -5 0.18285253E+00 0.16444968E+03</pdfrwt>
<totfact> 0.68678034E+00</totfact>
</mgrwt>
</event>
<event>
 8    1  0.3763376E-007  0.1336791E+03  0.7546771E-02  0.1222099E+00
         -5   -1    0    0    0  501 -0.00000000000E+00  0.00000000000E+00  0.28483084387E+03  0.28486961864E+03  0.47000000000E+01 0.  1.
          5   -1    0    0  501    0  0.00000000000E+00 -0.00000000000E+00 -0.69285905991E+02  0.69445134955E+02  0.47000000000E+01 0.  1.
         25    2    1    2    0    0  0.17459727802E+02 -0.44049867045E+02  0.16269986205E+03  0.21056951468E+03  0.12499216985E+03 0.  0.
         25    2    1    2    0    0 -0.17459727802E+02  0.44049867045E+02  0.52845075836E+02  0.14374523891E+03  0.12499943514E+03 0.  0.
          5    1    3    3  502    0 -0.36842768418E+02  0.18317922242E+02  0.20990042703E+02  0.46428523050E+02  0.47000000000E+01 0.  1.
         -5    1    3    3    0  502  0.54302496220E+02 -0.62367789287E+02  0.14170981934E+03  0.16414099163E+03  0.47000000000E+01 0.  1.
          5    1    4    4  503    0 -0.43609010403E+02  0.68834539965E+02  0.66140442595E+02  0.10505516564E+03  0.47000000000E+01 0.  1.
         -5    1    4    4    0  503  0.26149282601E+02 -0.24784672920E+02 -0.13295366758E+02  0.38690073269E+02  0.47000000000E+01 0.  1.
<mgrwt>
<rscale>  0 0.13367736E+03</rscale>
<asrwt>0</asrwt>
<pdfrwt beam="2">  1        5 0.10674601E-01 0.13367906E+03</pdfrwt>
<pdfrwt beam="1">  1       -5 0.43835360E-01 0.13367906E+03</pdfrwt>
<totfact> 0.25769823E+02</totfact>
</mgrwt>
</event>
<event>
 8    1  0.3763376E-007  0.1619633E+03  0.7546771E-02  0.1186499E+00
         -5   -1    0    0    0  501 -0.00000000000E+00  0.00000000000E+00  0.10586191730E+03  0.10596619997E+03  0.47000000000E+01 0.  1.
          5   -1    0    0  501    0  0.00000000000E+00 -0.00000000000E+00 -0.26806222483E+03  0.26810342478E+03  0.47000000000E+01 0.  1.
         25    2    1    2    0    0  0.43505274629E+02  0.93344840945E+02 -0.29365092971E+02  0.16460055254E+03  0.12500025984E+03 0.  0.
         25    2    1    2    0    0 -0.43505274629E+02 -0.93344840945E+02 -0.13283521456E+03  0.20946907221E+03  0.12500451886E+03 0.  0.
          5    1    4    4  502    0  0.36133840006E+01  0.12572753097E+02 -0.81365267349E+02  0.82544093642E+02  0.47000000000E+01 0. -1.
         -5    1    4    4    0  502 -0.47118658630E+02 -0.10591759404E+03 -0.51469947206E+02  0.12692497857E+03  0.47000000000E+01 0. -1.
          5    1    3    3  503    0 -0.13519700139E+02 -0.19705505130E+02  0.16974554422E+02  0.29686945314E+02  0.47000000000E+01 0.  1.
         -5    1    3    3    0  503  0.57024974768E+02  0.11305034607E+03 -0.46339647392E+02  0.13491360723E+03  0.47000000000E+01 0.  1.
<mgrwt>
<rscale>  0 0.16196244E+03</rscale>
<asrwt>0</asrwt>
<pdfrwt beam="2">  1        5 0.41251533E-01 0.16196326E+03</pdfrwt>
<pdfrwt beam="1">  1       -5 0.16297640E-01 0.16196326E+03</pdfrwt>
<totfact> 0.14587205E+02</totfact>
</mgrwt>
</event>
<event>
 8    1  0.3763376E-007  0.1359383E+03  0.7546771E-02  0.1218909E+00
          5   -1    0    0  501    0  0.00000000000E+00  0.00000000000E+00  0.13774753385E+03  0.13782769345E+03  0.47000000000E+01 0. -1.
         -5   -1    0    0    0  501 -0.00000000000E+00 -0.00000000000E+00 -0.13726127345E+03  0.13734171685E+03  0.47000000000E+01 0. -1.
         25    2    1    2    0    0 -0.35851077115E+01  0.53238093827E+02  0.21531088966E+02  0.13763289995E+03  0.12502831569E+03 0.  0.
         25    2    1    2    0    0  0.35851077115E+01 -0.53238093827E+02 -0.21044828563E+02  0.13753651036E+03  0.12500503686E+03 0.  0.
          5    1    4    4  502    0  0.21182641332E+02 -0.69576975487E+02  0.31634966175E+02  0.79451374416E+02  0.47000000000E+01 0. -1.
         -5    1    4    4    0  502 -0.17597533620E+02  0.16338881660E+02 -0.52679794738E+02  0.58085135939E+02  0.47000000000E+01 0. -1.
          5    1    3    3  503    0 -0.55531188117E+02  0.45274260734E+02 -0.15136206619E+02  0.73380285428E+02  0.47000000000E+01 0. -1.
         -5    1    3    3    0  503  0.51946080405E+02  0.79638330931E+01  0.36667295584E+02  0.64252614518E+02  0.47000000000E+01 0. -1.
<mgrwt>
<rscale>  0 0.13593297E+03</rscale>
<asrwt>0</asrwt>
<pdfrwt beam="1">  1        5 0.21204282E-01 0.13593832E+03</pdfrwt>
<pdfrwt beam="2">  1       -5 0.21129473E-01 0.13593832E+03</pdfrwt>
<totfact> 0.31434734E+02</totfact>
</mgrwt>
</event>
<event>
 8    1  0.3763376E-007  0.1677992E+03  0.7546771E-02  0.1180164E+00
         -5   -1    0    0    0  501 -0.00000000000E+00  0.00000000000E+00  0.14575419922E+03  0.14582995779E+03  0.47000000000E+01 0.  1.
          5   -1    0    0  501    0  0.00000000000E+00 -0.00000000000E+00 -0.19388767878E+03  0.19394463638E+03  0.47000000000E+01 0.  1.
         25    2    1    2    0    0  0.48930504039E+02  0.10067841317E+03 -0.35437878415E+02  0.17149578350E+03  0.12499849370E+03 0.  0.
         25    2    1    2    0    0 -0.48930504039E+02 -0.10067841317E+03 -0.12695601144E+02  0.16827881068E+03  0.12500497083E+03 0.  0.
          5    1    3    3  502    0  0.30580983148E+02 -0.21930503009E+02 -0.28128839900E+02  0.47217212186E+02  0.47000000000E+01 0.  1.
         -5    1    3    3    0  502  0.18349520891E+02  0.12260891618E+03 -0.73090385148E+01  0.12427857131E+03  0.47000000000E+01 0.  1.
          5    1    4    4  503    0 -0.71668131973E+01  0.29143036531E+01  0.42604592101E+02  0.43555684420E+02  0.47000000000E+01 0.  1.
         -5    1    4    4    0  503 -0.41763690842E+02 -0.10359271682E+03 -0.55300193245E+02  0.12472312626E+03  0.47000000000E+01 0.  1.
<mgrwt>
<rscale>  0 0.16779802E+03</rscale>
<asrwt>0</asrwt>
<pdfrwt beam="2">  1        5 0.29839083E-01 0.16779922E+03</pdfrwt>
<pdfrwt beam="1">  1       -5 0.22433932E-01 0.16779922E+03</pdfrwt>
<totfact> 0.15601229E+02</totfact>
</mgrwt>
</event>
<event>
 8    1  0.3763376E-007  0.1259229E+03  0.7546771E-02  0.1233635E+00
          5   -1    0    0  501    0  0.00000000000E+00  0.00000000000E+00  0.95785330597E+02  0.95900571206E+02  0.47000000000E+01 0. -1.
         -5   -1    0    0    0  501 -0.00000000000E+00 -0.00000000000E+00 -0.21588093608E+03  0.21593209248E+03  0.47000000000E+01 0. -1.
         25    2    1    2    0    0  0.66006727851E+01 -0.13692035913E+02 -0.13549423601E+03  0.18497366702E+03  0.12500211506E+03 0.  0.
         25    2    1    2    0    0 -0.66006727851E+01  0.13692035913E+02  0.15398630530E+02  0.12685899667E+03  0.12500018594E+03 0.  0.
          5    1    3    3  502    0 -0.56228679259E+01 -0.12023300645E+02 -0.15813734190E+03  0.15876298468E+03  0.47000000000E+01 0. -1.
         -5    1    3    3    0  502  0.12223540711E+02 -0.16687352674E+01  0.22643105881E+02  0.26210682342E+02  0.47000000000E+01 0. -1.
          5    1    4    4  503    0  0.56397574983E+02 -0.78732548380E+01  0.18431534347E+02  0.60037372229E+02  0.47000000000E+01 0. -1.
         -5    1    4    4    0  503 -0.62998247768E+02  0.21565290751E+02 -0.30329038171E+01  0.66821624438E+02  0.47000000000E+01 0. -1.
<mgrwt>
<rscale>  0 0.12592239E+03</rscale>
<asrwt>0</asrwt>
<pdfrwt beam="1">  1        5 0.14749005E-01 0.12592287E+03</pdfrwt>
<pdfrwt beam="2">  1       -5 0.33225251E-01 0.12592287E+03</pdfrwt>
<totfact> 0.24906078E+02</totfact>
</mgrwt>
</event>
<event>
 8    1  0.3763376E-007  0.1331864E+03  0.7546771E-02  0.1222813E+00
          5   -1    0    0  501    0  0.00000000000E+00  0.00000000000E+00  0.14274089798E+02  0.15027961923E+02  0.47000000000E+01 0. -1.
         -5   -1    0    0    0  501 -0.00000000000E+00 -0.00000000000E+00 -0.14869069076E+04  0.14869143357E+04  0.47000000000E+01 0. -1.
         25    2    1    2    0    0  0.36747004392E+02  0.27591053678E+02 -0.10605279598E+04  0.10688583468E+04  0.12500801367E+03 0.  0.
         25    2    1    2    0    0 -0.36747004392E+02 -0.27591053678E+02 -0.41210485793E+03  0.43308395078E+03  0.12497874187E+03 0.  0.
          5    1    4    4  502    0 -0.26681752229E+02 -0.29918965292E+02 -0.28735780433E+02  0.49546901651E+02  0.47000000000E+01 0. -1.
         -5    1    4    4    0  502 -0.10065252163E+02  0.23279116142E+01 -0.38336907750E+03  0.38353704913E+03  0.47000000000E+01 0. -1.
          5    1    3    3  503    0  0.54582931974E+02 -0.24979199299E+02 -0.28286262858E+03  0.28919995420E+03  0.47000000000E+01 0. -1.
         -5    1    3    3    0  503 -0.17835927582E+02  0.52570252977E+02 -0.77766533125E+03  0.77965839265E+03  0.47000000000E+01 0. -1.
<mgrwt>
<rscale>  0 0.13317951E+03</rscale>
<asrwt>0</asrwt>
<pdfrwt beam="1">  1        5 0.22545765E-02 0.13318638E+03</pdfrwt>
<pdfrwt beam="2">  1       -5 0.22881335E+00 0.13318638E+03</pdfrwt>
<totfact> 0.53701481E+01</totfact>
</mgrwt>
</event>
<event>
 8    1  0.3763376E-007  0.1345840E+03  0.7546771E-02  0.1220818E+00
         -5   -1    0    0    0  501 -0.00000000000E+00  0.00000000000E+00  0.22203540192E+03  0.22208514066E+03  0.47000000000E+01 0.  1.
          5   -1    0    0  501    0  0.00000000000E+00 -0.00000000000E+00 -0.81484776361E+02  0.81620210602E+02  0.47000000000E+01 0.  1.
         25    2    1    2    0    0 -0.47952396272E+02  0.13644495089E+02  0.74113006141E+02  0.15361601001E+03  0.12497814328E+03 0.  0.
         25    2    1    2    0    0  0.47952396272E+02 -0.13644495089E+02  0.66437619414E+02  0.15008934125E+03  0.12500899380E+03 0.  0.
          5    1    3    3  502    0 -0.67138978922E+02 -0.39240858512E+02  0.38889503189E+02  0.87074513640E+02  0.47000000000E+01 0.  1.
         -5    1    3    3    0  502  0.19186582650E+02  0.52885353602E+02  0.35223502952E+02  0.66541496373E+02  0.47000000000E+01 0.  1.
          5    1    4    4  503    0 -0.34423580420E+02 -0.21606486532E+02 -0.42702623452E+01  0.41135730085E+02  0.47000000000E+01 0. -1.
         -5    1    4    4    0  503  0.82375976691E+02  0.79619914426E+01  0.70707881759E+02  0.10895361117E+03  0.47000000000E+01 0. -1.
<mgrwt>
<rscale>  0 0.13457684E+03</rscale>
<asrwt>0</asrwt>
<pdfrwt beam="2">  1        5 0.12550363E-01 0.13458400E+03</pdfrwt>
<pdfrwt beam="1">  1       -5 0.34173537E-01 0.13458400E+03</pdfrwt>
<totfact> 0.32205517E+02</totfact>
</mgrwt>
</event>
<event>
 8    1  0.3763376E-007  0.1483725E+03  0.7546771E-02  0.1202489E+00
          5   -1    0    0  501    0  0.00000000000E+00  0.00000000000E+00  0.47971849585E+03  0.47974151921E+03  0.47000000000E+01 0. -1.
         -5   -1    0    0    0  501 -0.00000000000E+00 -0.00000000000E+00 -0.66753390730E+02  0.66918645936E+02  0.47000000000E+01 0. -1.
         25    2    1    2    0    0 -0.35790979384E+02 -0.71461705518E+02  0.53403453962E+02  0.15769056240E+03  0.12500645989E+03 0.  0.
         25    2    1    2    0    0  0.35790979384E+02  0.71461705518E+02  0.35956165116E+03  0.38896960275E+03  0.12500000529E+03 0.  0.
          5    1    3    3  502    0  0.25273795814E+01 -0.86876535007E+02 -0.36296577744E+01  0.87115925054E+02  0.47000000000E+01 0. -1.
         -5    1    3    3    0  502 -0.38318358966E+02  0.15414829489E+02  0.57033111736E+02  0.70574637345E+02  0.47000000000E+01 0. -1.
          5    1    4    4  503    0  0.52084331608E+02 -0.11689657129E+02  0.21275682004E+03  0.21940141329E+03  0.47000000000E+01 0. -1.
         -5    1    4    4    0  503 -0.16293352223E+02  0.83151362647E+02  0.14680483112E+03  0.16956818946E+03  0.47000000000E+01 0. -1.
<mgrwt>
<rscale>  0 0.14837109E+03</rscale>
<asrwt>0</asrwt>
<pdfrwt beam="1">  1        5 0.73817330E-01 0.14837245E+03</pdfrwt>
<pdfrwt beam="2">  1       -5 0.10284235E-01 0.14837245E+03</pdfrwt>
<totfact> 0.91815139E+01</totfact>
</mgrwt>
</event>
<event>
 8    1  0.3763376E-007  0.1566827E+03  0.7546771E-02  0.1192494E+00
         -5   -1    0    0    0  501 -0.00000000000E+00  0.00000000000E+00  0.86857530378E+02  0.86984599691E+02  0.47000000000E+01 0. -1.
          5   -1    0    0  501    0  0.00000000000E+00 -0.00000000000E+00 -0.28495261627E+03  0.28499137447E+03  0.47000000000E+01 0. -1.
         25    2    1    2    0    0  0.34476233007E+02 -0.87951613664E+02 -0.11704387350E+03  0.19557284188E+03  0.12500148466E+03 0.  0.
         25    2    1    2    0    0 -0.34476233007E+02  0.87951613664E+02 -0.81051212391E+02  0.17640313228E+03  0.12499867623E+03 0.  0.
          5    1    3    3  502    0 -0.39349763563E+02 -0.59825535443E+02 -0.82152840433E+02  0.10908106057E+03  0.47000000000E+01 0. -1.
         -5    1    3    3    0  502  0.73825996569E+02 -0.28126078221E+02 -0.34891033070E+02  0.86491781310E+02  0.47000000000E+01 0. -1.
          5    1    4    4  503    0 -0.54809389469E+02  0.60892093977E+02 -0.10602917471E+03  0.13407532276E+03  0.47000000000E+01 0.  1.
         -5    1    4    4    0  503  0.20333156463E+02  0.27059519687E+02  0.24977962318E+02  0.42327809523E+02  0.47000000000E+01 0.  1.
<mgrwt>
<rscale>  0 0.15668214E+03</rscale>
<asrwt>0</asrwt>
<pdfrwt beam="2">  1        5 0.43851620E-01 0.15668270E+03</pdfrwt>
<pdfrwt beam="1">  1       -5 0.13375453E-01 0.15668270E+03</pdfrwt>
<totfact> 0.18196740E+02</totfact>
</mgrwt>
</event>
<event>
 8    1  0.3763376E-007  0.1943972E+03  0.7546771E-02  0.1154557E+00
          5   -1    0    0  501    0  0.00000000000E+00  0.00000000000E+00  0.76747242314E+02  0.76891021601E+02  0.47000000000E+01 0.  1.
         -5   -1    0    0    0  501 -0.00000000000E+00 -0.00000000000E+00 -0.49220490636E+03  0.49222734569E+03  0.47000000000E+01 0.  1.
         25    2    1    2    0    0  0.14877991881E+03  0.54898532935E+01 -0.21634379916E+03  0.29085207370E+03  0.12499874644E+03 0.  0.
         25    2    1    2    0    0 -0.14877991881E+03 -0.54898532935E+01 -0.19911386488E+03  0.27826629358E+03  0.12498078344E+03 0.  0.
          5    1    3    3  502    0  0.11848058046E+03 -0.32434338541E+02 -0.20765745429E+03  0.24131585647E+03  0.47000000000E+01 0. -1.
         -5    1    3    3    0  502  0.30299338345E+02  0.37924191834E+02 -0.86863448755E+01  0.49536217232E+02  0.47000000000E+01 0. -1.
          5    1    4    4  503    0 -0.38304679716E+02  0.33717422200E+02 -0.50485833305E+01  0.51494574876E+02  0.47000000000E+01 0. -1.
         -5    1    4    4    0  503 -0.11047523909E+03 -0.39207275493E+02 -0.19406528155E+03  0.22677171871E+03  0.47000000000E+01 0. -1.
<mgrwt>
<rscale>  0 0.19439436E+03</rscale>
<asrwt>0</asrwt>
<pdfrwt beam="1">  1        5 0.11820054E-01 0.19439725E+03</pdfrwt>
<pdfrwt beam="2">  1       -5 0.75736616E-01 0.19439725E+03</pdfrwt>
<totfact> 0.73269193E+01</totfact>
</mgrwt>
</event>
<event>
 8    1  0.3763376E-007  0.1422443E+03  0.7546771E-02  0.1210353E+00
          5   -1    0    0  501    0  0.00000000000E+00  0.00000000000E+00  0.28316572397E+03  0.28320472671E+03  0.47000000000E+01 0. -1.
         -5   -1    0    0    0  501 -0.00000000000E+00 -0.00000000000E+00 -0.76146001287E+02  0.76290913692E+02  0.47000000000E+01 0. -1.
         25    2    1    2    0    0  0.67790006399E+02 -0.33703443863E+01  0.58274890662E+02  0.15368389839E+03  0.12496372895E+03 0.  0.
         25    2    1    2    0    0 -0.67790006399E+02  0.33703443863E+01  0.14874483202E+03  0.20581174201E+03  0.12500641547E+03 0.  0.
          5    1    3    3  502    0 -0.30055224441E+02  0.18469275800E+02 -0.36167900189E+01  0.35771522679E+02  0.47000000000E+01 0. -1.
         -5    1    3    3    0  502  0.97845230840E+02 -0.21839620186E+02  0.61891680681E+02  0.11791237571E+03  0.47000000000E+01 0. -1.
          5    1    4    4  503    0 -0.81843707843E+02 -0.17894966974E+01  0.16435737478E+03  0.18367643141E+03  0.47000000000E+01 0. -1.
         -5    1    4    4    0  503  0.14053701444E+02  0.51598410837E+01 -0.15612542756E+02  0.22135310605E+02  0.47000000000E+01 0. -1.
<mgrwt>
<rscale>  0 0.14223495E+03</rscale>
<asrwt>0</asrwt>
<pdfrwt beam="1">  1        5 0.43578104E-01 0.14224433E+03</pdfrwt>
<pdfrwt beam="2">  1       -5 0.11728917E-01 0.14224433E+03</pdfrwt>
<totfact> 0.22566193E+02</totfact>
</mgrwt>
</event>
<event>
 8    1  0.3763376E-007  0.1277133E+03  0.7546771E-02  0.1230889E+00
         -5   -1    0    0    0  501 -0.00000000000E+00  0.00000000000E+00  0.11360628807E+02  0.12294465701E+02  0.47000000000E+01 0. -1.
          5   -1    0    0  501    0  0.00000000000E+00 -0.00000000000E+00 -0.13784019724E+04  0.13784099853E+04  0.47000000000E+01 0. -1.
         25    2    1    2    0    0 -0.24549935624E+02 -0.91251178010E+01 -0.67300019014E+03  0.68501091022E+03  0.12499889630E+03 0.  0.
         25    2    1    2    0    0  0.24549935624E+02  0.91251178010E+01 -0.69404115349E+03  0.70569354080E+03  0.12499713466E+03 0.  0.
          5    1    3    3  502    0  0.49363997647E+02 -0.18399233138E+02 -0.29723477051E+03  0.30190385033E+03  0.47000000000E+01 0.  1.
         -5    1    3    3    0  502 -0.73913933272E+02  0.92741153370E+01 -0.37576541964E+03  0.38310705990E+03  0.47000000000E+01 0.  1.
          5    1    4    4  503    0  0.20953489630E+02  0.22923933537E+02 -0.68920369114E+03  0.68991910637E+03  0.47000000000E+01 0. -1.
         -5    1    4    4    0  503  0.35964459946E+01 -0.13798815736E+02 -0.48374623515E+01  0.15774434428E+02  0.47000000000E+01 0. -1.
<mgrwt>
<rscale>  0 0.12771289E+03</rscale>
<asrwt>0</asrwt>
<pdfrwt beam="2">  1        5 0.21213416E+00 0.12771332E+03</pdfrwt>
<pdfrwt beam="1">  1       -5 0.18202401E-02 0.12771332E+03</pdfrwt>
<totfact> 0.95545057E+01</totfact>
</mgrwt>
</event>
<event>
 8    1  0.3763376E-007  0.1290797E+03  0.7546771E-02  0.1228828E+00
          5   -1    0    0  501    0  0.00000000000E+00  0.00000000000E+00  0.21611450737E+03  0.21616560850E+03  0.47000000000E+01 0. -1.
         -5   -1    0    0    0  501 -0.00000000000E+00 -0.00000000000E+00 -0.78627552864E+02  0.78767899994E+02  0.47000000000E+01 0. -1.
         25    2    1    2    0    0  0.31841419004E+02  0.46934409087E+01  0.47320396163E+02  0.13748016243E+03  0.12500268324E+03 0.  0.
         25    2    1    2    0    0 -0.31841419004E+02 -0.46934409087E+01  0.90166558348E+02  0.15745334606E+03  0.12500257434E+03 0.  0.
          5    1    3    3  502    0  0.19278795807E+02  0.55782553436E+02  0.58781053618E+02  0.83430614885E+02  0.47000000000E+01 0.  1.
         -5    1    3    3    0  502  0.12562623197E+02 -0.51089112528E+02 -0.11460657455E+02  0.54049547544E+02  0.47000000000E+01 0.  1.
          5    1    4    4  503    0 -0.16269565754E+02 -0.63965723186E+02  0.58453633121E+02  0.88290598240E+02  0.47000000000E+01 0.  1.
         -5    1    4    4    0  503 -0.15571853250E+02  0.59272282278E+02  0.31712925227E+02  0.69162747823E+02  0.47000000000E+01 0.  1.
<mgrwt>
<rscale>  0 0.12907970E+03</rscale>
<asrwt>0</asrwt>
<pdfrwt beam="1">  1        5 0.33263112E-01 0.12907972E+03</pdfrwt>
<pdfrwt beam="2">  1       -5 0.12111274E-01 0.12907972E+03</pdfrwt>
<totfact> 0.35665229E+02</totfact>
</mgrwt>
</event>
<event>
 8    1  0.3763376E-007  0.1372336E+03  0.7546771E-02  0.1217104E+00
          5   -1    0    0  501    0  0.00000000000E+00  0.00000000000E+00  0.10295613037E+02  0.11317669716E+02  0.47000000000E+01 0. -1.
         -5   -1    0    0    0  501 -0.00000000000E+00 -0.00000000000E+00 -0.17553640652E+04  0.17553703573E+04  0.47000000000E+01 0. -1.
         25    2    1    2    0    0 -0.17411972598E+02  0.53903045863E+02 -0.95083362939E+03  0.96068603461E+03  0.12499740467E+03 0.  0.
         25    2    1    2    0    0  0.17411972598E+02 -0.53903045863E+02 -0.79423482276E+03  0.80600199242E+03  0.12498617109E+03 0.  0.
          5    1    4    4  502    0 -0.10314821875E+02  0.31982163022E+02 -0.93555981164E+02  0.99519173597E+02  0.47000000000E+01 0. -1.
         -5    1    4    4    0  502  0.27726794473E+02 -0.85885208885E+02 -0.70067884160E+03  0.70648281883E+03  0.47000000000E+01 0. -1.
          5    1    3    3  503    0 -0.38299447913E+02  0.27678219784E+02 -0.11845172678E+03  0.12761595957E+03  0.47000000000E+01 0. -1.
         -5    1    3    3    0  503  0.20887475315E+02  0.26224826078E+02 -0.83238190262E+03  0.83307007504E+03  0.47000000000E+01 0. -1.
<mgrwt>
<rscale>  0 0.13723106E+03</rscale>
<asrwt>0</asrwt>
<pdfrwt beam="1">  1        5 0.16630456E-02 0.13723362E+03</pdfrwt>
<pdfrwt beam="2">  1       -5 0.27013489E+00 0.13723362E+03</pdfrwt>
<totfact> 0.47943736E+01</totfact>
</mgrwt>
</event>
<event>
 8    1  0.3763376E-007  0.1495811E+03  0.7546771E-02  0.1200989E+00
          5   -1    0    0  501    0  0.00000000000E+00  0.00000000000E+00  0.65682711705E+02  0.65850653884E+02  0.47000000000E+01 0. -1.
         -5   -1    0    0    0  501 -0.00000000000E+00 -0.00000000000E+00 -0.36052010524E+03  0.36055074024E+03  0.47000000000E+01 0. -1.
         25    2    1    2    0    0  0.22136771646E+01  0.82124388464E+02 -0.19823949436E+03  0.24834052128E+03  0.12499920734E+03 0.  0.
         25    2    1    2    0    0 -0.22136771646E+01 -0.82124388464E+02 -0.96597899174E+02  0.17806087284E+03  0.12500081906E+03 0.  0.
          5    1    4    4  502    0 -0.14207785674E+02  0.78440442617E+01  0.22567724613E+02  0.28191885328E+02  0.47000000000E+01 0.  1.
         -5    1    4    4    0  502  0.11994108509E+02 -0.89968432726E+02 -0.11916562379E+03  0.14986898751E+03  0.47000000000E+01 0.  1.
          5    1    3    3  503    0  0.37256203627E+02  0.47685272550E+02 -0.20794974987E+02  0.64159417949E+02  0.47000000000E+01 0. -1.
         -5    1    3    3    0  503 -0.35042526463E+02  0.34439115913E+02 -0.17744451938E+03  0.18418110333E+03  0.47000000000E+01 0. -1.
<mgrwt>
<rscale>  0 0.14958081E+03</rscale>
<asrwt>0</asrwt>
<pdfrwt beam="1">  1        5 0.10120308E-01 0.14958115E+03</pdfrwt>
<pdfrwt beam="2">  1       -5 0.55479906E-01 0.14958115E+03</pdfrwt>
<totfact> 0.17842309E+02</totfact>
</mgrwt>
</event>
<event>
 8    1  0.3763376E-007  0.1365086E+03  0.7546771E-02  0.1218106E+00
         -5   -1    0    0    0  501 -0.00000000000E+00  0.00000000000E+00  0.13370846114E+03  0.13379104074E+03  0.47000000000E+01 0.  1.
          5   -1    0    0  501    0  0.00000000000E+00 -0.00000000000E+00 -0.14127954117E+03  0.14135769790E+03  0.47000000000E+01 0.  1.
         25    2    1    2    0    0  0.54319713932E+02  0.77508519909E+01  0.12896333558E+02  0.13711641948E+03  0.12499556010E+03 0.  0.
         25    2    1    2    0    0 -0.54319713932E+02 -0.77508519909E+01 -0.20467413589E+02  0.13803231915E+03  0.12499319614E+03 0.  0.
          5    1    4    4  502    0 -0.77251418425E+02 -0.45191158415E+02 -0.62777273232E+00  0.89624251998E+02  0.47000000000E+01 0. -1.
         -5    1    4    4    0  502  0.22931704493E+02  0.37440306424E+02 -0.19839640856E+02  0.48408067151E+02  0.47000000000E+01 0. -1.
          5    1    3    3  503    0  0.84453188394E+02  0.17910089153E+02  0.39817157079E+02  0.95187227721E+02  0.47000000000E+01 0.  1.
         -5    1    3    3    0  503 -0.30133474462E+02 -0.10159237162E+02 -0.26920823521E+02  0.41929191763E+02  0.47000000000E+01 0.  1.
<mgrwt>
<rscale>  0 0.13650806E+03</rscale>
<asrwt>0</asrwt>
<pdfrwt beam="2">  1        5 0.21747679E-01 0.13650860E+03</pdfrwt>
<pdfrwt beam="1">  1       -5 0.20582897E-01 0.13650860E+03</pdfrwt>
<totfact> 0.31528457E+02</totfact>
</mgrwt>
</event>
<event>
 8    1  0.3763376E-007  0.1867369E+03  0.7546771E-02  0.1161438E+00
          5   -1    0    0  501    0  0.00000000000E+00  0.00000000000E+00  0.16483840874E+03  0.16490540014E+03  0.47000000000E+01 0.  1.
         -5   -1    0    0    0  501 -0.00000000000E+00 -0.00000000000E+00 -0.29333129086E+03  0.29336894211E+03  0.47000000000E+01 0.  1.
         25    2    1    2    0    0 -0.13731768227E+03 -0.19737790298E+02 -0.18531638734E+03  0.26308322395E+03  0.12499957231E+03 0.  0.
         25    2    1    2    0    0  0.13731768227E+03  0.19737790298E+02  0.56823505217E+02  0.19519111831E+03  0.12499974276E+03 0.  0.
          5    1    3    3  502    0 -0.14832771359E+03 -0.13745503378E+02 -0.10660039432E+03  0.18323696011E+03  0.47000000000E+01 0.  1.
         -5    1    3    3    0  502  0.11010031319E+02 -0.59922869203E+01 -0.78715993019E+02  0.79846263840E+02  0.47000000000E+01 0.  1.
          5    1    4    4  503    0  0.12876108786E+03 -0.31081604040E+02  0.26350095611E+02  0.13513660272E+03  0.47000000000E+01 0. -1.
         -5    1    4    4    0  503  0.85565944047E+01  0.50819394338E+02  0.30473409607E+02  0.60054515582E+02  0.47000000000E+01 0. -1.
<mgrwt>
<rscale>  0 0.18673685E+03</rscale>
<asrwt>0</asrwt>
<pdfrwt beam="1">  1        5 0.25367805E-01 0.18673688E+03</pdfrwt>
<pdfrwt beam="2">  1       -5 0.45135940E-01 0.18673688E+03</pdfrwt>
<totfact> 0.54919551E+01</totfact>
</mgrwt>
</event>
<event>
 8    1  0.3763376E-007  0.1363701E+03  0.7546771E-02  0.1218310E+00
          5   -1    0    0  501    0  0.00000000000E+00  0.00000000000E+00  0.13101112120E+03  0.13109539991E+03  0.47000000000E+01 0. -1.
         -5   -1    0    0    0  501 -0.00000000000E+00 -0.00000000000E+00 -0.17041344708E+03  0.17047824772E+03  0.47000000000E+01 0. -1.
         25    2    1    2    0    0  0.41902389333E+02  0.34837534441E+02 -0.81522778965E+02  0.15887975023E+03  0.12500938966E+03 0.  0.
         25    2    1    2    0    0 -0.41902389333E+02 -0.34837534441E+02  0.42120453082E+02  0.14269389740E+03  0.12497180382E+03 0.  0.
          5    1    4    4  502    0 -0.51957449897E+02 -0.72036250867E+02  0.51473334889E+02  0.10276376912E+03  0.47000000000E+01 0. -1.
         -5    1    4    4    0  502  0.10055060564E+02  0.37198716427E+02 -0.93528818064E+01  0.39930128285E+02  0.47000000000E+01 0. -1.
          5    1    3    3  503    0  0.41817068098E+02 -0.12386468458E+02  0.18933890178E+02  0.47777337540E+02  0.47000000000E+01 0. -1.
         -5    1    3    3    0  503  0.85321234840E-01  0.47224002898E+02 -0.10045666914E+03  0.11110241269E+03  0.47000000000E+01 0. -1.
<mgrwt>
<rscale>  0 0.13636151E+03</rscale>
<asrwt>0</asrwt>
<pdfrwt beam="1">  1        5 0.20167025E-01 0.13637013E+03</pdfrwt>
<pdfrwt beam="2">  1       -5 0.26228921E-01 0.13637013E+03</pdfrwt>
<totfact> 0.22914341E+02</totfact>
</mgrwt>
</event>
<event>
 8    1  0.3763376E-007  0.1449895E+03  0.7546771E-02  0.1206776E+00
          5   -1    0    0  501    0  0.00000000000E+00  0.00000000000E+00  0.29487504906E+02  0.29859721124E+02  0.47000000000E+01 0. -1.
         -5   -1    0    0    0  501 -0.00000000000E+00 -0.00000000000E+00 -0.10943335256E+04  0.10943436185E+04  0.47000000000E+01 0. -1.
         25    2    1    2    0    0  0.27299264679E+02  0.68137519095E+02 -0.86634098668E+03  0.87838591815E+03  0.12500857825E+03 0.  0.
         25    2    1    2    0    0 -0.27299264679E+02 -0.68137519095E+02 -0.19850503404E+03  0.24581742146E+03  0.12503593401E+03 0.  0.
          5    1    4    4  502    0 -0.14784749620E+02 -0.61506477397E+02 -0.19743884696E+02  0.66434528417E+02  0.47000000000E+01 0.  1.
         -5    1    4    4    0  502 -0.12514515059E+02 -0.66310416986E+01 -0.17876114935E+03  0.17938289304E+03  0.47000000000E+01 0.  1.
          5    1    3    3  503    0 -0.21756227825E+02  0.22604832034E+02 -0.49495628565E+02  0.58789617514E+02  0.47000000000E+01 0.  1.
         -5    1    3    3    0  503  0.49055492504E+02  0.45532687062E+02 -0.81684535811E+03  0.81959630063E+03  0.47000000000E+01 0.  1.
<mgrwt>
<rscale>  0 0.14498361E+03</rscale>
<asrwt>0</asrwt>
<pdfrwt beam="1">  1        5 0.45659484E-02 0.14498950E+03</pdfrwt>
<pdfrwt beam="2">  1       -5 0.16838838E+00 0.14498950E+03</pdfrwt>
<totfact> 0.45244035E+01</totfact>
</mgrwt>
</event>
<event>
 8    1  0.3763376E-007  0.1300219E+03  0.7546771E-02  0.1227424E+00
          5   -1    0    0  501    0  0.00000000000E+00  0.00000000000E+00  0.21808951885E+03  0.21814015731E+03  0.47000000000E+01 0.  1.
         -5   -1    0    0    0  501 -0.00000000000E+00 -0.00000000000E+00 -0.89895422777E+02  0.90018203916E+02  0.47000000000E+01 0.  1.
         25    2    1    2    0    0  0.28720880192E+02 -0.21326196220E+02  0.66741424331E+01  0.13018982932E+03  0.12500060750E+03 0.  0.
         25    2    1    2    0    0 -0.28720880192E+02  0.21326196220E+02  0.12151995364E+03  0.17796853191E+03  0.12500401439E+03 0.  0.
          5    1    3    3  502    0  0.10735318889E+02  0.26580568253E+02  0.53364722110E+02  0.60759009589E+02  0.47000000000E+01 0.  1.
         -5    1    3    3    0  502  0.17985561303E+02 -0.47906764473E+02 -0.46690579677E+02  0.69430819729E+02  0.47000000000E+01 0.  1.
          5    1    4    4  503    0  0.22449633092E+02  0.36330490704E+02  0.11653765813E+03  0.12420550046E+03  0.47000000000E+01 0.  1.
         -5    1    4    4    0  503 -0.51170513284E+02 -0.15004294485E+02  0.49822955095E+01  0.53763031455E+02  0.47000000000E+01 0.  1.
<mgrwt>
<rscale>  0 0.13002110E+03</rscale>
<asrwt>0</asrwt>
<pdfrwt beam="1">  1        5 0.33565573E-01 0.13002192E+03</pdfrwt>
<pdfrwt beam="2">  1       -5 0.13843405E-01 0.13002192E+03</pdfrwt>
<totfact> 0.27673905E+02</totfact>
</mgrwt>
</event>
<event>
 8    1  0.3763376E-007  0.1900075E+03  0.7546771E-02  0.1158455E+00
         -5   -1    0    0    0  501 -0.00000000000E+00  0.00000000000E+00  0.45889141233E+03  0.45891548057E+03  0.47000000000E+01 0.  1.
          5   -1    0    0  501    0  0.00000000000E+00 -0.00000000000E+00 -0.78683995516E+02  0.78824242149E+02  0.47000000000E+01 0.  1.
         25    2    1    2    0    0  0.64072605619E+02 -0.12795255316E+03  0.20003385213E+03  0.27588980343E+03  0.12499794793E+03 0.  0.
         25    2    1    2    0    0 -0.64072605619E+02  0.12795255316E+03  0.18017356468E+03  0.26184991929E+03  0.12500284865E+03 0.  0.
          5    1    4    4  502    0  0.13815896876E+01  0.11798458185E+03  0.83672667001E+02  0.14472551795E+03  0.47000000000E+01 0.  1.
         -5    1    4    4    0  502 -0.65454195307E+02  0.99679713134E+01  0.96500897684E+02  0.11712440134E+03  0.47000000000E+01 0.  1.
          5    1    3    3  503    0 -0.30428200842E+02 -0.69567132698E+02  0.10477313658E+03  0.12947957949E+03  0.47000000000E+01 0.  1.
         -5    1    3    3    0  503  0.94500806461E+02 -0.58385420464E+02  0.95260715551E+02  0.14641022393E+03  0.47000000000E+01 0.  1.
<mgrwt>
<rscale>  0 0.19000674E+03</rscale>
<asrwt>0</asrwt>
<pdfrwt beam="2">  1        5 0.12117870E-01 0.19000754E+03</pdfrwt>
<pdfrwt beam="1">  1       -5 0.70611319E-01 0.19000754E+03</pdfrwt>
<totfact> 0.81757745E+01</totfact>
</mgrwt>
</event>
<event>
 8    1  0.3763376E-007  0.1255806E+03  0.7546771E-02  0.1234167E+00
          5   -1    0    0  501    0  0.00000000000E+00  0.00000000000E+00  0.68213921227E+03  0.68215540379E+03  0.47000000000E+01 0.  1.
         -5   -1    0    0    0  501 -0.00000000000E+00 -0.00000000000E+00 -0.22976615102E+02  0.23452395220E+02  0.47000000000E+01 0.  1.
         25    2    1    2    0    0  0.11537700984E+02  0.32158536313E+01  0.35418555046E+03  0.37578970191E+03  0.12500814233E+03 0.  0.
         25    2    1    2    0    0 -0.11537700984E+02 -0.32158536313E+01  0.30497704671E+03  0.32981809710E+03  0.12500207156E+03 0.  0.
          5    1    3    3  502    0  0.43235962108E+02  0.20005029445E+02  0.32713246304E+03  0.33061652710E+03  0.47000000000E+01 0.  1.
         -5    1    3    3    0  502 -0.31698261125E+02 -0.16789175814E+02  0.27053087423E+02  0.45173174805E+02  0.47000000000E+01 0.  1.
          5    1    4    4  503    0  0.37445684525E+02  0.29613483396E+02  0.22660760328E+03  0.23162951788E+03  0.47000000000E+01 0. -1.
         -5    1    4    4    0  503 -0.48983385508E+02 -0.32829337028E+02  0.78369443424E+02  0.98188579214E+02  0.47000000000E+01 0. -1.
<mgrwt>
<rscale>  0 0.12557912E+03</rscale>
<asrwt>0</asrwt>
<pdfrwt beam="1">  1        5 0.10498232E+00 0.12558064E+03</pdfrwt>
<pdfrwt beam="2">  1       -5 0.35727084E-02 0.12558064E+03</pdfrwt>
<totfact> 0.22418643E+02</totfact>
</mgrwt>
</event>
<event>
 8    1  0.3763376E-007  0.1311937E+03  0.7546771E-02  0.1225695E+00
          5   -1    0    0  501    0  0.00000000000E+00  0.00000000000E+00  0.52637176333E+02  0.52846592438E+02  0.47000000000E+01 0. -1.
         -5   -1    0    0    0  501 -0.00000000000E+00 -0.00000000000E+00 -0.32683808083E+03  0.32687187258E+03  0.47000000000E+01 0. -1.
         25    2    1    2    0    0  0.38198152168E+02  0.11254884819E+02 -0.12815203070E+03  0.18339776360E+03  0.12500410177E+03 0.  0.
         25    2    1    2    0    0 -0.38198152168E+02 -0.11254884819E+02 -0.14604887380E+03  0.19632070141E+03  0.12500309198E+03 0.  0.
          5    1    3    3  502    0  0.85742931341E+01 -0.56094560554E+02 -0.47768928203E+02  0.74324146333E+02  0.47000000000E+01 0. -1.
         -5    1    3    3    0  502  0.29623859034E+02  0.67349445373E+02 -0.80383102500E+02  0.10907361727E+03  0.47000000000E+01 0. -1.
          5    1    4    4  503    0 -0.13625714999E+02  0.48581572234E+02 -0.11231183921E+03  0.12321472516E+03  0.47000000000E+01 0. -1.
         -5    1    4    4    0  503 -0.24572437169E+02 -0.59836457052E+02 -0.33737034584E+02  0.73105976250E+02  0.47000000000E+01 0. -1.
<mgrwt>
<rscale>  0 0.13119350E+03</rscale>
<asrwt>0</asrwt>
<pdfrwt beam="1">  1        5 0.81167357E-02 0.13119374E+03</pdfrwt>
<pdfrwt beam="2">  1       -5 0.50301489E-01 0.13119374E+03</pdfrwt>
<totfact> 0.30850221E+02</totfact>
</mgrwt>
</event>
<event>
 8    1  0.3763376E-007  0.1360076E+03  0.7546771E-02  0.1218814E+00
          5   -1    0    0  501    0  0.00000000000E+00  0.00000000000E+00  0.35959476496E+03  0.35962547877E+03  0.47000000000E+01 0. -1.
         -5   -1    0    0    0  501 -0.00000000000E+00 -0.00000000000E+00 -0.52816067230E+02  0.53024776828E+02  0.47000000000E+01 0. -1.
         25    2    1    2    0    0 -0.51075665521E+02 -0.16224242383E+02  0.11839369176E+03  0.18029928440E+03  0.12497526179E+03 0.  0.
         25    2    1    2    0    0  0.51075665521E+02  0.16224242383E+02  0.18838500597E+03  0.23235097120E+03  0.12500445470E+03 0.  0.
          5    1    3    3  502    0 -0.62955426627E+02 -0.61411733383E+02  0.87103828360E+02  0.12387071346E+03  0.47000000000E+01 0.  1.
         -5    1    3    3    0  502  0.11879761105E+02  0.45187491000E+02  0.31289863400E+02  0.56428570940E+02  0.47000000000E+01 0.  1.
          5    1    4    4  503    0  0.89850108728E+02  0.10393357356E+02  0.96535921783E+02  0.13237196875E+03  0.47000000000E+01 0.  1.
         -5    1    4    4    0  503 -0.38774443206E+02  0.58308850274E+01  0.91849084182E+02  0.99979002452E+02  0.47000000000E+01 0.  1.
<mgrwt>
<rscale>  0 0.13600088E+03</rscale>
<asrwt>0</asrwt>
<pdfrwt beam="1">  1        5 0.55340691E-01 0.13600759E+03</pdfrwt>
<pdfrwt beam="2">  1       -5 0.81439656E-02 0.13600759E+03</pdfrwt>
<totfact> 0.25325567E+02</totfact>
</mgrwt>
</event>
<event>
 8    1  0.3763376E-007  0.1371838E+03  0.7546771E-02  0.1217170E+00
          5   -1    0    0  501    0  0.00000000000E+00  0.00000000000E+00  0.39872560812E+03  0.39875330791E+03  0.47000000000E+01 0. -1.
         -5   -1    0    0    0  501 -0.00000000000E+00 -0.00000000000E+00 -0.55438351621E+02  0.55637225222E+02  0.47000000000E+01 0. -1.
         25    2    1    2    0    0  0.55321716944E+02  0.11571131684E+02  0.83473758388E+02  0.16058371594E+03  0.12499951212E+03 0.  0.
         25    2    1    2    0    0 -0.55321716944E+02 -0.11571131684E+02  0.25981349811E+03  0.29380681720E+03  0.12500003430E+03 0.  0.
          5    1    4    4  502    0 -0.56770758962E+02 -0.52205474149E+02  0.87655216210E+02  0.11684972201E+03  0.47000000000E+01 0.  1.
         -5    1    4    4    0  502  0.14490420181E+01  0.40634342465E+02  0.17215828190E+03  0.17695709519E+03  0.47000000000E+01 0.  1.
          5    1    3    3  503    0  0.76206144951E+02  0.33788373322E+02  0.14122108218E+02  0.84679127537E+02  0.47000000000E+01 0.  1.
         -5    1    3    3    0  503 -0.20884428007E+02 -0.22217241638E+02  0.69351650170E+02  0.75904588402E+02  0.47000000000E+01 0.  1.
<mgrwt>
<rscale>  0 0.13718367E+03</rscale>
<asrwt>0</asrwt>
<pdfrwt beam="1">  1        5 0.61359829E-01 0.13718379E+03</pdfrwt>
<pdfrwt beam="2">  1       -5 0.85464060E-02 0.13718379E+03</pdfrwt>
<totfact> 0.18672199E+02</totfact>
</mgrwt>
</event>
<event>
 8    1  0.3763376E-007  0.1589312E+03  0.7546771E-02  0.1189909E+00
          5   -1    0    0  501    0  0.00000000000E+00  0.00000000000E+00  0.18791195242E+03  0.18797072075E+03  0.47000000000E+01 0. -1.
         -5   -1    0    0    0  501 -0.00000000000E+00 -0.00000000000E+00 -0.16795470843E+03  0.16802045734E+03  0.47000000000E+01 0. -1.
         25    2    1    2    0    0  0.88222149081E+02 -0.43031400337E+02 -0.69669927665E+02  0.17352982619E+03  0.12499541093E+03 0.  0.
         25    2    1    2    0    0 -0.88222149081E+02  0.43031400337E+02  0.89627171646E+02  0.18246135191E+03  0.12499706412E+03 0.  0.
          5    1    3    3  502    0  0.73298909535E+02 -0.72399916536E+01  0.19364563919E+02  0.76303498962E+02  0.47000000000E+01 0. -1.
         -5    1    3    3    0  502  0.14923239546E+02 -0.35791408684E+02 -0.89034491584E+02  0.97226327225E+02  0.47000000000E+01 0. -1.
          5    1    4    4  503    0 -0.41283434683E+02 -0.43574777818E+02  0.30827187956E+02  0.67642359202E+02  0.47000000000E+01 0.  1.
         -5    1    4    4    0  503 -0.46938714398E+02  0.86606178155E+02  0.58799983690E+02  0.11481899271E+03  0.47000000000E+01 0.  1.
<mgrwt>
<rscale>  0 0.15893084E+03</rscale>
<asrwt>0</asrwt>
<pdfrwt beam="1">  1        5 0.28919109E-01 0.15893116E+03</pdfrwt>
<pdfrwt beam="2">  1       -5 0.25848764E-01 0.15893116E+03</pdfrwt>
<totfact> 0.12444070E+02</totfact>
</mgrwt>
</event>
<event>
 8    1  0.3763376E-007  0.1363152E+03  0.7546771E-02  0.1218375E+00
         -5   -1    0    0    0  501 -0.00000000000E+00  0.00000000000E+00  0.86461033448E+03  0.86462310893E+03  0.47000000000E+01 0.  1.
          5   -1    0    0  501    0  0.00000000000E+00 -0.00000000000E+00 -0.21646386091E+02  0.22150756890E+02  0.47000000000E+01 0.  1.
         25    2    1    2    0    0  0.36735777734E+02 -0.40086313677E+02  0.36008259658E+03  0.38502071255E+03  0.12500017127E+03 0.  0.
         25    2    1    2    0    0 -0.36735777734E+02  0.40086313677E+02  0.48288135181E+03  0.50175315327E+03  0.12500158792E+03 0.  0.
          5    1    3    3  502    0  0.74331395040E+01  0.37271443687E+02  0.21112863226E+03  0.21457353387E+03  0.47000000000E+01 0.  1.
         -5    1    3    3    0  502  0.29302638230E+02 -0.77357757364E+02  0.14895396432E+03  0.17044717868E+03  0.47000000000E+01 0.  1.
          5    1    4    4  503    0  0.20473244492E+02  0.29756327639E+02  0.39250426817E+03  0.39419066872E+03  0.47000000000E+01 0.  1.
         -5    1    4    4    0  503 -0.57209022226E+02  0.10329986037E+02  0.90377083636E+02  0.10756248455E+03  0.47000000000E+01 0.  1.
<mgrwt>
<rscale>  0 0.13631485E+03</rscale>
<asrwt>0</asrwt>
<pdfrwt beam="2">  1        5 0.33699936E-02 0.13631517E+03</pdfrwt>
<pdfrwt beam="1">  1       -5 0.13305676E+00 0.13631517E+03</pdfrwt>
<totfact> 0.13905617E+02</totfact>
</mgrwt>
</event>
<event>
 8    1  0.3763376E-007  0.1260703E+03  0.7546771E-02  0.1233408E+00
         -5   -1    0    0    0  501 -0.00000000000E+00  0.00000000000E+00  0.91222800363E+02  0.91343797305E+02  0.47000000000E+01 0. -1.
          5   -1    0    0  501    0  0.00000000000E+00 -0.00000000000E+00 -0.18979162902E+03  0.18984981551E+03  0.47000000000E+01 0. -1.
         25    2    1    2    0    0  0.49971216444E+00 -0.16378293513E+02 -0.86902760774E+01  0.12636508470E+03  0.12499646204E+03 0.  0.
         25    2    1    2    0    0 -0.49971216444E+00  0.16378293513E+02 -0.89878552583E+02  0.15482852811E+03  0.12500088276E+03 0.  0.
          5    1    4    4  502    0 -0.45999948643E+02  0.50644412249E+02 -0.54648567897E+02  0.87689268103E+02  0.47000000000E+01 0.  1.
         -5    1    4    4    0  502  0.45500236479E+02 -0.34266118737E+02 -0.35229984686E+02  0.67139260004E+02  0.47000000000E+01 0.  1.
          5    1    3    3  503    0 -0.10189213042E+01  0.32814698173E+02 -0.51306630163E+02  0.61092576599E+02  0.47000000000E+01 0.  1.
         -5    1    3    3    0  503  0.15186334687E+01 -0.49192991686E+02  0.42616354086E+02  0.65272508104E+02  0.47000000000E+01 0.  1.
<mgrwt>
<rscale>  0 0.12606920E+03</rscale>
<asrwt>0</asrwt>
<pdfrwt beam="2">  1        5 0.29212495E-01 0.12607029E+03</pdfrwt>
<pdfrwt beam="1">  1       -5 0.14048060E-01 0.12607029E+03</pdfrwt>
<totfact> 0.35045880E+02</totfact>
</mgrwt>
</event>
<event>
 8    1  0.3763376E-007  0.1352222E+03  0.7546771E-02  0.1219908E+00
         -5   -1    0    0    0  501 -0.00000000000E+00  0.00000000000E+00  0.15007501787E+04  0.15007575383E+04  0.47000000000E+01 0. -1.
          5   -1    0    0  501    0  0.00000000000E+00 -0.00000000000E+00 -0.11748466711E+02  0.12653713686E+02  0.47000000000E+01 0. -1.
         25    2    1    2    0    0 -0.50730779099E+02  0.93216723316E+01  0.77867884073E+03  0.79033269983E+03  0.12499813556E+03 0.  0.
         25    2    1    2    0    0  0.50730779099E+02 -0.93216723316E+01  0.71032287124E+03  0.72307855217E+03  0.12499402259E+03 0.  0.
          5    1    4    4  502    0  0.53638879370E+02  0.20923704220E+02  0.66942328256E+03  0.67191111913E+03  0.47000000000E+01 0. -1.
         -5    1    4    4    0  502 -0.29081002703E+01 -0.30245376551E+02  0.40899588680E+02  0.51167433042E+02  0.47000000000E+01 0. -1.
          5    1    3    3  503    0 -0.25735614602E+02 -0.46916667286E+02  0.57509060977E+03  0.57759397069E+03  0.47000000000E+01 0. -1.
         -5    1    3    3    0  503 -0.24995164498E+02  0.56238339618E+02  0.20358823096E+03  0.21273872914E+03  0.47000000000E+01 0. -1.
<mgrwt>
<rscale>  0 0.13522123E+03</rscale>
<asrwt>0</asrwt>
<pdfrwt beam="2">  1        5 0.18776567E-02 0.13522219E+03</pdfrwt>
<pdfrwt beam="1">  1       -5 0.23095488E+00 0.13522219E+03</pdfrwt>
<totfact> 0.69834321E+01</totfact>
</mgrwt>
</event>
<event>
 8    1  0.3763376E-007  0.1436987E+03  0.7546771E-02  0.1208440E+00
          5   -1    0    0  501    0  0.00000000000E+00  0.00000000000E+00  0.34719327551E+03  0.34722508631E+03  0.47000000000E+01 0.  1.
         -5   -1    0    0    0  501 -0.00000000000E+00 -0.00000000000E+00 -0.82518596923E+02  0.82652337161E+02  0.47000000000E+01 0.  1.
         25    2    1    2    0    0  0.10836374499E+02 -0.70049704544E+02  0.18561193599E+02  0.14488413924E+03  0.12499003071E+03 0.  0.
         25    2    1    2    0    0 -0.10836374499E+02  0.70049704544E+02  0.24611348499E+03  0.28499328423E+03  0.12499974577E+03 0.  0.
          5    1    3    3  502    0 -0.19892402391E+01  0.12362959976E+02  0.52900101667E+02  0.54564737812E+02  0.47000000000E+01 0. -1.
         -5    1    3    3    0  502  0.12825614739E+02 -0.82412664520E+02 -0.34338908068E+02  0.90319401426E+02  0.47000000000E+01 0. -1.
          5    1    4    4  503    0  0.48568909973E+02  0.50933829983E+01  0.13183172775E+03  0.14066476463E+03  0.47000000000E+01 0. -1.
         -5    1    4    4    0  503 -0.59405284473E+02  0.64956321546E+02  0.11428175724E+03  0.14432851960E+03  0.47000000000E+01 0. -1.
<mgrwt>
<rscale>  0 0.14369662E+03</rscale>
<asrwt>0</asrwt>
<pdfrwt beam="1">  1        5 0.53427083E-01 0.14369873E+03</pdfrwt>
<pdfrwt beam="2">  1       -5 0.12707904E-01 0.14369873E+03</pdfrwt>
<totfact> 0.12777372E+02</totfact>
</mgrwt>
</event>
<event>
 8    1  0.3763376E-007  0.1399089E+03  0.7546771E-02  0.1213452E+00
         -5   -1    0    0    0  501 -0.00000000000E+00  0.00000000000E+00  0.29229035000E+03  0.29232813533E+03  0.47000000000E+01 0. -1.
          5   -1    0    0  501    0  0.00000000000E+00 -0.00000000000E+00 -0.82345497855E+02  0.82479518773E+02  0.47000000000E+01 0. -1.
         25    2    1    2    0    0  0.16268205102E+01  0.62816627696E+02  0.18618924533E+03  0.23289629587E+03  0.12500269715E+03 0.  0.
         25    2    1    2    0    0 -0.16268205102E+01 -0.62816627696E+02  0.23755606817E+02  0.14191135823E+03  0.12500371786E+03 0.  0.
          5    1    3    3  502    0  0.60000837317E+02  0.53614044187E+02  0.10943699076E+03  0.13591582380E+03  0.47000000000E+01 0.  1.
         -5    1    3    3    0  502 -0.58374016807E+02  0.92025835095E+01  0.76752254572E+02  0.96980472072E+02  0.47000000000E+01 0.  1.
          5    1    4    4  503    0  0.51038869935E+02 -0.60445547091E+02 -0.88540078013E+01  0.79744052201E+02  0.47000000000E+01 0. -1.
         -5    1    4    4    0  503 -0.52665690445E+02 -0.23710806053E+01  0.32609614619E+02  0.62167306029E+02  0.47000000000E+01 0. -1.
<mgrwt>
<rscale>  0 0.13990869E+03</rscale>
<asrwt>0</asrwt>
<pdfrwt beam="2">  1        5 0.12681754E-01 0.13990892E+03</pdfrwt>
<pdfrwt beam="1">  1       -5 0.44980962E-01 0.13990892E+03</pdfrwt>
<totfact> 0.18290332E+02</totfact>
</mgrwt>
</event>
<event>
 8    1  0.3763376E-007  0.1843684E+03  0.7546771E-02  0.1163641E+00
          5   -1    0    0  501    0  0.00000000000E+00  0.00000000000E+00  0.33678906305E+03  0.33682185646E+03  0.47000000000E+01 0.  1.
         -5   -1    0    0    0  501 -0.00000000000E+00 -0.00000000000E+00 -0.10769650795E+03  0.10779901588E+03  0.47000000000E+01 0.  1.
         25    2    1    2    0    0 -0.13423461487E+03  0.18637282740E+02  0.58471859863E+02  0.19341837433E+03  0.12500171597E+03 0.  0.
         25    2    1    2    0    0  0.13423461487E+03 -0.18637282740E+02  0.17062069524E+03  0.25120249801E+03  0.12499997291E+03 0.  0.
          5    1    4    4  502    0  0.35235713682E+02 -0.36934963681E+02  0.13483777792E+03  0.14425346933E+03  0.47000000000E+01 0. -1.
         -5    1    4    4    0  502  0.98998901185E+02  0.18297680941E+02  0.35782917324E+02  0.10694902868E+03  0.47000000000E+01 0. -1.
          5    1    3    3  503    0 -0.22535253348E+02 -0.44534289285E+02 -0.46203148484E+01  0.50344591317E+02  0.47000000000E+01 0. -1.
         -5    1    3    3    0  503 -0.11169936152E+03  0.63171572025E+02  0.63092174711E+02  0.14307378301E+03  0.47000000000E+01 0. -1.
<mgrwt>
<rscale>  0 0.18436811E+03</rscale>
<asrwt>0</asrwt>
<pdfrwt beam="1">  1        5 0.51824109E-01 0.18436841E+03</pdfrwt>
<pdfrwt beam="2">  1       -5 0.16579102E-01 0.18436841E+03</pdfrwt>
<totfact> 0.90919272E+01</totfact>
</mgrwt>
</event>
<event>
 8    1  0.3763376E-007  0.1436564E+03  0.7546771E-02  0.1208495E+00
          5   -1    0    0  501    0  0.00000000000E+00  0.00000000000E+00  0.36525777485E+02  0.36826925216E+02  0.47000000000E+01 0. -1.
         -5   -1    0    0    0  501 -0.00000000000E+00 -0.00000000000E+00 -0.67471772525E+03  0.67473409486E+03  0.47000000000E+01 0. -1.
         25    2    1    2    0    0  0.66315131307E+02 -0.24744226265E+02 -0.46427553581E+03  0.48599271837E+03  0.12500870283E+03 0.  0.
         25    2    1    2    0    0 -0.66315131307E+02  0.24744226265E+02 -0.17391641195E+03  0.22556830171E+03  0.12499666801E+03 0.  0.
          5    1    3    3  502    0  0.13006505552E+02 -0.66824251151E+02 -0.30905576639E+03  0.31649993123E+03  0.47000000000E+01 0.  1.
         -5    1    3    3    0  502  0.53308625754E+02  0.42080024886E+02 -0.15521976942E+03  0.16949278714E+03  0.47000000000E+01 0.  1.
          5    1    4    4  503    0 -0.58110887935E+02  0.69549992489E+02 -0.14609070069E+03  0.17198447482E+03  0.47000000000E+01 0. -1.
         -5    1    4    4    0  503 -0.82042433721E+01 -0.44805766225E+02 -0.27825711269E+02  0.53583826888E+02  0.47000000000E+01 0. -1.
<mgrwt>
<rscale>  0 0.14365374E+03</rscale>
<asrwt>0</asrwt>
<pdfrwt beam="1">  1        5 0.56437753E-02 0.14365636E+03</pdfrwt>
<pdfrwt beam="2">  1       -5 0.10382714E+00 0.14365636E+03</pdfrwt>
<totfact> 0.11329854E+02</totfact>
</mgrwt>
</event>
<event>
 8    1  0.3763376E-007  0.1399128E+03  0.7546771E-02  0.1213455E+00
          5   -1    0    0  501    0  0.00000000000E+00  0.00000000000E+00  0.60844830436E+03  0.60846645682E+03  0.47000000000E+01 0. -1.
         -5   -1    0    0    0  501 -0.00000000000E+00 -0.00000000000E+00 -0.32429476639E+02  0.32768291916E+02  0.47000000000E+01 0. -1.
         25    2    1    2    0    0  0.55977631584E+02 -0.28589976893E+02  0.25034647324E+03  0.28679077891E+03  0.12499884877E+03 0.  0.
         25    2    1    2    0    0 -0.55977631584E+02  0.28589976893E+02  0.32567235449E+03  0.35444396982E+03  0.12496864908E+03 0.  0.
          5    1    4    4  502    0 -0.53198146910E+02  0.72557077464E+02  0.16759752716E+03  0.19027767456E+03  0.47000000000E+01 0.  1.
         -5    1    4    4    0  502 -0.27794846740E+01 -0.43967100571E+02  0.15807482732E+03  0.16416629526E+03  0.47000000000E+01 0.  1.
          5    1    3    3  503    0  0.31267359870E+02 -0.22278948453E+02  0.37792035451E+01  0.38863501088E+02  0.47000000000E+01 0. -1.
         -5    1    3    3    0  503  0.24710271714E+02 -0.63110284395E+01  0.24656726969E+03  0.24792727783E+03  0.47000000000E+01 0. -1.
<mgrwt>
<rscale>  0 0.13990606E+03</rscale>
<asrwt>0</asrwt>
<pdfrwt beam="1">  1        5 0.93634891E-01 0.13991281E+03</pdfrwt>
<pdfrwt beam="2">  1       -5 0.50166093E-02 0.13991281E+03</pdfrwt>
<totfact> 0.17572049E+02</totfact>
</mgrwt>
</event>
<event>
 8    1  0.3763376E-007  0.1347006E+03  0.7546771E-02  0.1220643E+00
          5   -1    0    0  501    0  0.00000000000E+00  0.00000000000E+00  0.77759992623E+02  0.77901902754E+02  0.47000000000E+01 0. -1.
         -5   -1    0    0    0  501 -0.00000000000E+00 -0.00000000000E+00 -0.23658960587E+03  0.23663628548E+03  0.47000000000E+01 0. -1.
         25    2    1    2    0    0 -0.30724451703E+02 -0.39688744368E+02 -0.98894297114E+02  0.16710517988E+03  0.12499948312E+03 0.  0.
         25    2    1    2    0    0  0.30724451703E+02  0.39688744368E+02 -0.59935316135E+02  0.14743300835E+03  0.12500024588E+03 0.  0.
          5    1    3    3  502    0  0.15239067793E+02 -0.95779320136E+01  0.25191768261E+02  0.31315829176E+02  0.47000000000E+01 0.  1.
         -5    1    3    3    0  502 -0.45963519496E+02 -0.30110812354E+02 -0.12408606538E+03  0.13578935071E+03  0.47000000000E+01 0.  1.
          5    1    4    4  503    0 -0.34540846358E+02  0.65043055203E+00  0.17315309082E+02  0.38928178170E+02  0.47000000000E+01 0.  1.
         -5    1    4    4    0  503  0.65265298061E+02  0.39038313816E+02 -0.77250625217E+02  0.10850483018E+03  0.47000000000E+01 0.  1.
<mgrwt>
<rscale>  0 0.13470042E+03</rscale>
<asrwt>0</asrwt>
<pdfrwt beam="1">  1        5 0.11977583E-01 0.13470059E+03</pdfrwt>
<pdfrwt beam="2">  1       -5 0.36412908E-01 0.13470059E+03</pdfrwt>
<totfact> 0.30815501E+02</totfact>
</mgrwt>
</event>
<event>
 8    1  0.3763376E-007  0.1290792E+03  0.7546771E-02  0.1228829E+00
         -5   -1    0    0    0  501 -0.00000000000E+00  0.00000000000E+00  0.26351176664E+03  0.26355367794E+03  0.47000000000E+01 0. -1.
          5   -1    0    0  501    0  0.00000000000E+00 -0.00000000000E+00 -0.63145918915E+02  0.63320589665E+02  0.47000000000E+01 0. -1.
         25    2    1    2    0    0  0.12440367047E+02 -0.29663865664E+02  0.95479709829E+02  0.16055368238E+03  0.12500560898E+03 0.  0.
         25    2    1    2    0    0 -0.12440367047E+02  0.29663865664E+02  0.10488613789E+03  0.16632058523E+03  0.12500690977E+03 0.  0.
          5    1    3    3  502    0  0.37792035155E+02  0.13569955863E+02  0.10207057652E+03  0.10978558291E+03  0.47000000000E+01 0.  1.
         -5    1    3    3    0  502 -0.25351668108E+02 -0.43233821527E+02 -0.65908666924E+01  0.50768099467E+02  0.47000000000E+01 0.  1.
          5    1    4    4  503    0 -0.16298845869E+02 -0.34592780295E+02  0.93035949751E+02  0.10069801771E+03  0.47000000000E+01 0.  1.
         -5    1    4    4    0  503  0.38584788216E+01  0.64256645959E+02  0.11850188143E+02  0.65622567518E+02  0.47000000000E+01 0.  1.
<mgrwt>
<rscale>  0 0.12907887E+03</rscale>
<asrwt>0</asrwt>
<pdfrwt beam="2">  1        5 0.97314170E-02 0.12907918E+03</pdfrwt>
<pdfrwt beam="1">  1       -5 0.40556932E-01 0.12907918E+03</pdfrwt>
<totfact> 0.35105176E+02</totfact>
</mgrwt>
</event>
<event>
 8    1  0.3763376E-007  0.2058970E+03  0.7546771E-02  0.1144858E+00
         -5   -1    0    0    0  501 -0.00000000000E+00  0.00000000000E+00  0.37133266952E+03  0.37136241254E+03  0.47000000000E+01 0. -1.
          5   -1    0    0  501    0  0.00000000000E+00 -0.00000000000E+00 -0.11718358559E+03  0.11727780153E+03  0.47000000000E+01 0. -1.
         25    2    1    2    0    0 -0.20912230935E+02 -0.16226418945E+03  0.16681425952E+03  0.26499160896E+03  0.12500626808E+03 0.  0.
         25    2    1    2    0    0  0.20912230935E+02  0.16226418945E+03  0.87334824407E+02  0.22364860511E+03  0.12499735369E+03 0.  0.
          5    1    3    3  502    0  0.18248019828E+02  0.14460427538E+02  0.28721154970E+02  0.37270483429E+02  0.47000000000E+01 0. -1.
         -5    1    3    3    0  502 -0.39160250764E+02 -0.17672461699E+03  0.13809310455E+03  0.22772112554E+03  0.47000000000E+01 0. -1.
          5    1    4    4  503    0  0.10283364091E+02  0.18231813985E+03  0.76006721530E+02  0.19785035611E+03  0.47000000000E+01 0. -1.
         -5    1    4    4    0  503  0.10628866844E+02 -0.20053950391E+02  0.11328102877E+02  0.25798249000E+02  0.47000000000E+01 0. -1.
<mgrwt>
<rscale>  0 0.20589560E+03</rscale>
<asrwt>0</asrwt>
<pdfrwt beam="2">  1        5 0.18037779E-01 0.20589695E+03</pdfrwt>
<pdfrwt beam="1">  1       -5 0.57137638E-01 0.20589695E+03</pdfrwt>
<totfact> 0.64910806E+01</totfact>
</mgrwt>
</event>
<event>
 8    1  0.3763376E-007  0.1379992E+03  0.7546771E-02  0.1216050E+00
         -5   -1    0    0    0  501 -0.00000000000E+00  0.00000000000E+00  0.57949131030E+02  0.58139416811E+02  0.47000000000E+01 0.  1.
          5   -1    0    0  501    0  0.00000000000E+00 -0.00000000000E+00 -0.37787524306E+03  0.37790447116E+03  0.47000000000E+01 0.  1.
         25    2    1    2    0    0  0.49281826422E+02  0.31400690649E+02 -0.80673874847E+02  0.15985012903E+03  0.12501635045E+03 0.  0.
         25    2    1    2    0    0 -0.49281826422E+02 -0.31400690649E+02 -0.23925223719E+03  0.27619375893E+03  0.12500663057E+03 0.  0.
          5    1    4    4  502    0 -0.86267070636E+02  0.36890324116E+00 -0.12570608138E+03  0.15253279143E+03  0.47000000000E+01 0. -1.
         -5    1    4    4    0  502  0.36985244213E+02 -0.31769593890E+02 -0.11354615581E+03  0.12366096750E+03  0.47000000000E+01 0. -1.
          5    1    3    3  503    0  0.44832552565E+02  0.38543126736E+02  0.17003168930E+02  0.61698688331E+02  0.47000000000E+01 0. -1.
         -5    1    3    3    0  503  0.44492738569E+01 -0.71424360877E+01 -0.97677043777E+02  0.98151440703E+02  0.47000000000E+01 0. -1.
<mgrwt>
<rscale>  0 0.13799704E+03</rscale>
<asrwt>0</asrwt>
<pdfrwt beam="2">  1        5 0.58151537E-01 0.13799924E+03</pdfrwt>
<pdfrwt beam="1">  1       -5 0.89321369E-02 0.13799924E+03</pdfrwt>
<totfact> 0.19496682E+02</totfact>
</mgrwt>
</event>
<event>
 8    1  0.3763376E-007  0.1831763E+03  0.7546771E-02  0.1164764E+00
         -5   -1    0    0    0  501 -0.00000000000E+00  0.00000000000E+00  0.69166779470E+03  0.69168376316E+03  0.47000000000E+01 0. -1.
          5   -1    0    0  501    0  0.00000000000E+00 -0.00000000000E+00 -0.48955651077E+02  0.49180745952E+02  0.47000000000E+01 0. -1.
         25    2    1    2    0    0  0.13034738745E+03 -0.30639596953E+02  0.36140869829E+03  0.40517871822E+03  0.12499728071E+03 0.  0.
         25    2    1    2    0    0 -0.13034738745E+03  0.30639596953E+02  0.28130344533E+03  0.33568579089E+03  0.12499638210E+03 0.  0.
          5    1    4    4  502    0 -0.31269748288E+02  0.30818854208E+02  0.20725142347E+03  0.21190290574E+03  0.47000000000E+01 0.  1.
         -5    1    4    4    0  502 -0.99077639158E+02 -0.17925725527E+00  0.74052021864E+02  0.12378288515E+03  0.47000000000E+01 0.  1.
          5    1    3    3  503    0  0.82274702992E+02  0.62188518020E+01  0.72458480750E+02  0.10990960969E+03  0.47000000000E+01 0.  1.
         -5    1    3    3    0  503  0.48072684455E+02 -0.36858448755E+02  0.28895021754E+03  0.29526910853E+03  0.47000000000E+01 0.  1.
<mgrwt>
<rscale>  0 0.18317612E+03</rscale>
<asrwt>0</asrwt>
<pdfrwt beam="2">  1        5 0.75501819E-02 0.18317627E+03</pdfrwt>
<pdfrwt beam="1">  1       -5 0.10642897E+00 0.18317627E+03</pdfrwt>
<totfact> 0.69912506E+01</totfact>
</mgrwt>
</event>
<event>
 8    1  0.3763376E-007  0.1551778E+03  0.7546771E-02  0.1194251E+00
         -5   -1    0    0    0  501 -0.00000000000E+00  0.00000000000E+00  0.30848663733E+02  0.31204647957E+02  0.47000000000E+01 0. -1.
          5   -1    0    0  501    0  0.00000000000E+00 -0.00000000000E+00 -0.82436241230E+03  0.82437581043E+03  0.47000000000E+01 0. -1.
         25    2    1    2    0    0 -0.52550089020E+02  0.75456676235E+02 -0.29289236738E+03  0.33146052999E+03  0.12499968892E+03 0.  0.
         25    2    1    2    0    0  0.52550089020E+02 -0.75456676235E+02 -0.50062138119E+03  0.52411992839E+03  0.12499884074E+03 0.  0.
          5    1    4    4  502    0  0.63764386887E+02 -0.10199862784E+03 -0.33563767809E+03  0.35657307536E+03  0.47000000000E+01 0.  1.
         -5    1    4    4    0  502 -0.11214297867E+02  0.26541951608E+02 -0.16498370311E+03  0.16754685304E+03  0.47000000000E+01 0.  1.
          5    1    3    3  503    0 -0.32238470334E+02  0.31902324454E+02 -0.27684774344E+03  0.28057769035E+03  0.47000000000E+01 0.  1.
         -5    1    3    3    0  503 -0.20311618686E+02  0.43554351781E+02 -0.16044623939E+02  0.50882839642E+02  0.47000000000E+01 0.  1.
<mgrwt>
<rscale>  0 0.15517761E+03</rscale>
<asrwt>0</asrwt>
<pdfrwt beam="2">  1        5 0.12685338E+00 0.15517778E+03</pdfrwt>
<pdfrwt beam="1">  1       -5 0.47743629E-02 0.15517778E+03</pdfrwt>
<totfact> 0.92540199E+01</totfact>
</mgrwt>
</event>
<event>
 8    1  0.3763376E-007  0.1341047E+03  0.7546771E-02  0.1221492E+00
         -5   -1    0    0    0  501 -0.00000000000E+00  0.00000000000E+00  0.61604486041E+02  0.61783514795E+02  0.47000000000E+01 0. -1.
          5   -1    0    0  501    0  0.00000000000E+00 -0.00000000000E+00 -0.42454746678E+03  0.42457348192E+03  0.47000000000E+01 0. -1.
         25    2    1    2    0    0  0.10781324867E+02 -0.47346999747E+02 -0.45266679246E+02  0.14153850933E+03  0.12500440802E+03 0.  0.
         25    2    1    2    0    0 -0.10781324867E+02  0.47346999747E+02 -0.31767630149E+03  0.34481848738E+03  0.12499432531E+03 0.  0.
          5    1    3    3  502    0 -0.56771806497E+02 -0.15658059645E+02 -0.15603215230E+02  0.61104526594E+02  0.47000000000E+01 0. -1.
         -5    1    3    3    0  502  0.67553131364E+02 -0.31688940102E+02 -0.29663464016E+02  0.80433982739E+02  0.47000000000E+01 0. -1.
          5    1    4    4  503    0  0.29076781010E+02  0.26488521457E+02 -0.21233684923E+02  0.44945081358E+02  0.47000000000E+01 0. -1.
         -5    1    4    4    0  503 -0.39858105878E+02  0.20858478290E+02 -0.29644261657E+03  0.29987340602E+03  0.47000000000E+01 0. -1.
<mgrwt>
<rscale>  0 0.13410238E+03</rscale>
<asrwt>0</asrwt>
<pdfrwt beam="2">  1        5 0.65330766E-01 0.13410473E+03</pdfrwt>
<pdfrwt beam="1">  1       -5 0.94933861E-02 0.13410473E+03</pdfrwt>
<totfact> 0.13452927E+02</totfact>
</mgrwt>
</event>
<event>
 8    1  0.3763376E-007  0.2465829E+03  0.7546771E-02  0.1115484E+00
         -5   -1    0    0    0  501 -0.00000000000E+00  0.00000000000E+00  0.11094906413E+03  0.11104856970E+03  0.47000000000E+01 0.  1.
          5   -1    0    0  501    0  0.00000000000E+00 -0.00000000000E+00 -0.57319945164E+03  0.57321872035E+03  0.47000000000E+01 0.  1.
         25    2    1    2    0    0  0.30039257551E+02 -0.21041807249E+03 -0.15891366953E+03  0.29335005863E+03  0.12499032087E+03 0.  0.
         25    2    1    2    0    0 -0.30039257551E+02  0.21041807249E+03 -0.30333671797E+03  0.39091723142E+03  0.12499998051E+03 0.  0.
          5    1    3    3  502    0  0.77626175581E+01 -0.20724289957E+03 -0.16964941564E+03  0.26797927510E+03  0.47000000000E+01 0. -1.
         -5    1    3    3    0  502  0.22276639993E+02 -0.31751729114E+01  0.10735746108E+02  0.25370783529E+02  0.47000000000E+01 0. -1.
          5    1    4    4  503    0 -0.70167396080E+02  0.73456702763E+02 -0.15166259955E+03  0.18260061543E+03  0.47000000000E+01 0.  1.
         -5    1    4    4    0  503  0.40128138528E+02  0.13696136972E+03 -0.15167411842E+03  0.20831661599E+03  0.47000000000E+01 0.  1.
<mgrwt>
<rscale>  0 0.24658166E+03</rscale>
<asrwt>0</asrwt>
<pdfrwt beam="2">  1        5 0.88193666E-01 0.24658288E+03</pdfrwt>
<pdfrwt beam="1">  1       -5 0.17078224E-01 0.24658288E+03</pdfrwt>
<totfact> 0.27867040E+01</totfact>
</mgrwt>
</event>
<event>
 8    1  0.3763376E-007  0.1295422E+03  0.7546771E-02  0.1228137E+00
         -5   -1    0    0    0  501 -0.00000000000E+00  0.00000000000E+00  0.15855049999E+03  0.15862014704E+03  0.47000000000E+01 0. -1.
          5   -1    0    0  501    0  0.00000000000E+00 -0.00000000000E+00 -0.20509259617E+03  0.20514644282E+03  0.47000000000E+01 0. -1.
         25    2    1    2    0    0 -0.75164517045E+01 -0.33159057922E+02  0.10330432599E+03  0.16568935184E+03  0.12500062951E+03 0.  0.
         25    2    1    2    0    0  0.75164517045E+01  0.33159057922E+02 -0.14984642217E+03  0.19807723802E+03  0.12499848724E+03 0.  0.
          5    1    3    3  502    0 -0.41409459065E+02 -0.67234214861E+02  0.49137924740E+02  0.93122546120E+02  0.47000000000E+01 0.  1.
         -5    1    3    3    0  502  0.33893007361E+02  0.34075156939E+02  0.54166401253E+02  0.72566805724E+02  0.47000000000E+01 0.  1.
          5    1    4    4  503    0 -0.42806962934E+02  0.54696140880E+02 -0.56047262004E+02  0.89372755810E+02  0.47000000000E+01 0.  1.
         -5    1    4    4    0  503  0.50323414639E+02 -0.21537082959E+02 -0.93799160169E+02  0.10870448221E+03  0.47000000000E+01 0.  1.
<mgrwt>
<rscale>  0 0.12954167E+03</rscale>
<asrwt>0</asrwt>
<pdfrwt beam="2">  1        5 0.31562207E-01 0.12954218E+03</pdfrwt>
<pdfrwt beam="1">  1       -5 0.24401884E-01 0.12954218E+03</pdfrwt>
<totfact> 0.10951268E+02</totfact>
</mgrwt>
</event>
<event>
 8    1  0.3763376E-007  0.1467798E+03  0.7546771E-02  0.1204487E+00
         -5   -1    0    0    0  501 -0.00000000000E+00  0.00000000000E+00  0.85398876829E+02  0.85528113294E+02  0.47000000000E+01 0. -1.
          5   -1    0    0  501    0  0.00000000000E+00 -0.00000000000E+00 -0.27871842198E+03  0.27875804697E+03  0.47000000000E+01 0. -1.
         25    2    1    2    0    0 -0.76648255002E+02  0.67014156817E+01 -0.40215715643E+02  0.15218929654E+03  0.12499765690E+03 0.  0.
         25    2    1    2    0    0  0.76648255002E+02 -0.67014156817E+01 -0.15310382951E+03  0.21209686372E+03  0.12499773207E+03 0.  0.
          5    1    4    4  502    0 -0.63797803590E+01  0.38969763705E+02 -0.11052149747E+02  0.41274496904E+02  0.47000000000E+01 0. -1.
         -5    1    4    4    0  502  0.83028035361E+02 -0.45671179386E+02 -0.14205167976E+03  0.17082236682E+03  0.47000000000E+01 0. -1.
          5    1    3    3  503    0 -0.82881107302E+02  0.53717809088E+02 -0.23027424639E+02  0.10152454504E+03  0.47000000000E+01 0.  1.
         -5    1    3    3    0  503  0.62328522997E+01 -0.47016393407E+02 -0.17188291004E+02  0.50664751499E+02  0.47000000000E+01 0.  1.
<mgrwt>
<rscale>  0 0.14677974E+03</rscale>
<asrwt>0</asrwt>
<pdfrwt beam="2">  1        5 0.42892746E-01 0.14677976E+03</pdfrwt>
<pdfrwt beam="1">  1       -5 0.13151278E-01 0.14677976E+03</pdfrwt>
<totfact> 0.19221706E+02</totfact>
</mgrwt>
</event>
<event>
 8    1  0.3763376E-007  0.1359334E+03  0.7546771E-02  0.1218910E+00
         -5   -1    0    0    0  501 -0.00000000000E+00  0.00000000000E+00  0.22643552803E+03  0.22648430046E+03  0.47000000000E+01 0.  1.
          5   -1    0    0  501    0  0.00000000000E+00 -0.00000000000E+00 -0.89825111217E+02  0.89947988333E+02  0.47000000000E+01 0.  1.
         25    2    1    2    0    0 -0.42785297172E+02  0.31965796005E+02  0.11649702404E+03  0.17902360470E+03  0.12500200262E+03 0.  0.
         25    2    1    2    0    0  0.42785297172E+02 -0.31965796005E+02  0.20113392774E+02  0.13740868410E+03  0.12499681647E+03 0.  0.
          5    1    3    3  502    0 -0.67337052198E+01 -0.45163259921E+02  0.19494270625E+02  0.49871629409E+02  0.47000000000E+01 0. -1.
         -5    1    3    3    0  502 -0.36051591952E+02  0.77129055927E+02  0.97002753419E+02  0.12915197529E+03  0.47000000000E+01 0. -1.
          5    1    4    4  503    0  0.67842231640E+02 -0.61446605976E+02 -0.37114013531E+01  0.91728503093E+02  0.47000000000E+01 0. -1.
         -5    1    4    4    0  503 -0.25056934467E+02  0.29480809970E+02  0.23824794127E+02  0.45680181004E+02  0.47000000000E+01 0. -1.
<mgrwt>
<rscale>  0 0.13593223E+03</rscale>
<asrwt>0</asrwt>
<pdfrwt beam="2">  1        5 0.13832452E-01 0.13593342E+03</pdfrwt>
<pdfrwt beam="1">  1       -5 0.34849438E-01 0.13593342E+03</pdfrwt>
<totfact> 0.26115691E+02</totfact>
</mgrwt>
</event>
<event>
 8    1  0.3763376E-007  0.1403525E+03  0.7546771E-02  0.1212859E+00
         -5   -1    0    0    0  501 -0.00000000000E+00  0.00000000000E+00  0.11920805100E+03  0.11930066816E+03  0.47000000000E+01 0.  1.
          5   -1    0    0  501    0  0.00000000000E+00 -0.00000000000E+00 -0.17067881203E+03  0.17074351196E+03  0.47000000000E+01 0.  1.
         25    2    1    2    0    0  0.63827374106E+02  0.76110456202E+00  0.60262852157E+00  0.14034295108E+03  0.12498507027E+03 0.  0.
         25    2    1    2    0    0 -0.63827374106E+02 -0.76110456202E+00 -0.52073389553E+02  0.14970122904E+03  0.12499722841E+03 0.  0.
          5    1    4    4  502    0 -0.27763281965E+02  0.52724483677E+02  0.93547040391E+01  0.60500177621E+02  0.47000000000E+01 0.  1.
         -5    1    4    4    0  502 -0.36064092141E+02 -0.53485588239E+02 -0.61428093592E+02  0.89201051415E+02  0.47000000000E+01 0.  1.
          5    1    3    3  503    0  0.65707852332E+01 -0.25764666427E+02  0.52150901305E+02  0.58726482626E+02  0.47000000000E+01 0.  1.
         -5    1    3    3    0  503  0.57256588873E+02  0.26525770989E+02 -0.51548272784E+02  0.81616468454E+02  0.47000000000E+01 0.  1.
<mgrwt>
<rscale>  0 0.14034978E+03</rscale>
<asrwt>0</asrwt>
<pdfrwt beam="2">  1        5 0.26270380E-01 0.14035249E+03</pdfrwt>
<pdfrwt beam="1">  1       -5 0.18351801E-01 0.14035249E+03</pdfrwt>
<totfact> 0.27488319E+02</totfact>
</mgrwt>
</event>
<event>
 8    1  0.3763376E-007  0.1635435E+03  0.7546771E-02  0.1184757E+00
          5   -1    0    0  501    0  0.00000000000E+00  0.00000000000E+00  0.32890360472E+03  0.32893718427E+03  0.47000000000E+01 0.  1.
         -5   -1    0    0    0  501 -0.00000000000E+00 -0.00000000000E+00 -0.10703845301E+03  0.10714159054E+03  0.47000000000E+01 0.  1.
         25    2    1    2    0    0 -0.89621478778E+02 -0.55572836859E+02  0.38928407632E+01  0.16357480133E+03  0.12498484615E+03 0.  0.
         25    2    1    2    0    0  0.89621478778E+02  0.55572836859E+02  0.21797231094E+03  0.27250397348E+03  0.12500455019E+03 0.  0.
          5    1    4    4  502    0  0.97580663213E+01  0.55866764208E+02  0.16988301075E+03  0.17916094034E+03  0.47000000000E+01 0. -1.
         -5    1    4    4    0  502  0.79863412457E+02 -0.29392734891E+00  0.48089300187E+02  0.93343033136E+02  0.47000000000E+01 0. -1.
          5    1    3    3  503    0 -0.50740073186E+02 -0.47530703901E+02  0.61844416799E+02  0.93169440964E+02  0.47000000000E+01 0.  1.
         -5    1    3    3    0  503 -0.38881405592E+02 -0.80421329575E+01 -0.57951576036E+02  0.70405360367E+02  0.47000000000E+01 0.  1.
<mgrwt>
<rscale>  0 0.16353977E+03</rscale>
<asrwt>0</asrwt>
<pdfrwt beam="1">  1        5 0.50611070E-01 0.16354353E+03</pdfrwt>
<pdfrwt beam="2">  1       -5 0.16477971E-01 0.16354353E+03</pdfrwt>
<totfact> 0.93409892E+01</totfact>
</mgrwt>
</event>
<event>
 8    1  0.3763376E-007  0.1404440E+03  0.7546771E-02  0.1212733E+00
          5   -1    0    0  501    0  0.00000000000E+00  0.00000000000E+00  0.40614258180E+03  0.40616977577E+03  0.47000000000E+01 0.  1.
         -5   -1    0    0    0  501 -0.00000000000E+00 -0.00000000000E+00 -0.50668867869E+02  0.50886384928E+02  0.47000000000E+01 0.  1.
         25    2    1    2    0    0  0.51615865143E+02 -0.37894549947E+02  0.12973759181E+03  0.19119715793E+03  0.12499726405E+03 0.  0.
         25    2    1    2    0    0 -0.51615865143E+02  0.37894549947E+02  0.22573612212E+03  0.26585900277E+03  0.12499607224E+03 0.  0.
          5    1    4    4  502    0 -0.22027655489E+02  0.14934025543E+02  0.22649907064E+03  0.22810559337E+03  0.47000000000E+01 0.  1.
         -5    1    4    4    0  502 -0.29588209654E+02  0.22960524404E+02 -0.76294851534E+00  0.37753409407E+02  0.47000000000E+01 0.  1.
          5    1    3    3  503    0 -0.38850183031E+02 -0.91580846747E+01  0.16714219220E+02  0.43527719451E+02  0.47000000000E+01 0.  1.
         -5    1    3    3    0  503  0.90466048174E+02 -0.28736465272E+02  0.11302337259E+03  0.14766943847E+03  0.47000000000E+01 0.  1.
<mgrwt>
<rscale>  0 0.14044371E+03</rscale>
<asrwt>0</asrwt>
<pdfrwt beam="1">  1        5 0.62502300E-01 0.14044398E+03</pdfrwt>
<pdfrwt beam="2">  1       -5 0.78140341E-02 0.14044398E+03</pdfrwt>
<totfact> 0.21075488E+02</totfact>
</mgrwt>
</event>
<event>
 8    1  0.3763376E-007  0.1284610E+03  0.7546771E-02  0.1229757E+00
         -5   -1    0    0    0  501 -0.00000000000E+00  0.00000000000E+00  0.12063784820E+03  0.12072936850E+03  0.47000000000E+01 0. -1.
          5   -1    0    0  501    0  0.00000000000E+00 -0.00000000000E+00 -0.13681312397E+03  0.13689383073E+03  0.47000000000E+01 0. -1.
         25    2    1    2    0    0  0.28329603285E+02 -0.86090705882E+01 -0.30959515994E+01  0.12849807276E+03  0.12500194906E+03 0.  0.
         25    2    1    2    0    0 -0.28329603285E+02  0.86090705882E+01 -0.13079324169E+02  0.12912512647E+03  0.12500218817E+03 0.  0.
          5    1    4    4  502    0  0.31277807083E+02 -0.10957572714E+01 -0.49272795547E+02  0.58561081624E+02  0.47000000000E+01 0.  1.
         -5    1    4    4    0  502 -0.59607410368E+02  0.97048278596E+01  0.36193471378E+02  0.70564044846E+02  0.47000000000E+01 0.  1.
          5    1    3    3  503    0 -0.11596821399E+02  0.22812190307E+02  0.49060986112E+02  0.55533347202E+02  0.47000000000E+01 0.  1.
         -5    1    3    3    0  503  0.39926424685E+02 -0.31421260895E+02 -0.52156937711E+02  0.72964725558E+02  0.47000000000E+01 0.  1.
<mgrwt>
<rscale>  0 0.12846095E+03</rscale>
<asrwt>0</asrwt>
<pdfrwt beam="2">  1        5 0.21061421E-01 0.12846100E+03</pdfrwt>
<pdfrwt beam="1">  1       -5 0.18572917E-01 0.12846100E+03</pdfrwt>
<totfact> 0.39669991E+02</totfact>
</mgrwt>
</event>
<event>
 8    1  0.3763376E-007  0.1414826E+03  0.7546771E-02  0.1211349E+00
         -5   -1    0    0    0  501 -0.00000000000E+00  0.00000000000E+00  0.26063974730E+03  0.26068212035E+03  0.47000000000E+01 0. -1.
          5   -1    0    0  501    0  0.00000000000E+00 -0.00000000000E+00 -0.77420123863E+02  0.77562655828E+02  0.47000000000E+01 0. -1.
         25    2    1    2    0    0  0.20103153388E+02 -0.63150622478E+02  0.75077836616E+02  0.16016868740E+03  0.12500075590E+03 0.  0.
         25    2    1    2    0    0 -0.20103153388E+02  0.63150622478E+02  0.10814178682E+03  0.17807608879E+03  0.12499723775E+03 0.  0.
          5    1    4    4  502    0  0.50972547419E+02  0.43384221509E+02  0.44334833299E+02  0.80424242054E+02  0.47000000000E+01 0. -1.
         -5    1    4    4    0  502 -0.71075700807E+02  0.19766400969E+02  0.63806953521E+02  0.97651846732E+02  0.47000000000E+01 0. -1.
          5    1    3    3  503    0  0.41134849105E+02  0.21715963095E+02  0.51362286301E+02  0.69453821479E+02  0.47000000000E+01 0.  1.
         -5    1    3    3    0  503 -0.21031695716E+02 -0.84866585572E+02  0.23715550315E+02  0.90714865916E+02  0.47000000000E+01 0.  1.
<mgrwt>
<rscale>  0 0.14148183E+03</rscale>
<asrwt>0</asrwt>
<pdfrwt beam="2">  1        5 0.11925012E-01 0.14148260E+03</pdfrwt>
<pdfrwt beam="1">  1       -5 0.40112646E-01 0.14148260E+03</pdfrwt>
<totfact> 0.25946192E+02</totfact>
</mgrwt>
</event>
<event>
 8    1  0.3763376E-007  0.1358579E+03  0.7546771E-02  0.1219037E+00
         -5   -1    0    0    0  501 -0.00000000000E+00  0.00000000000E+00  0.58091336220E+02  0.58281157708E+02  0.47000000000E+01 0. -1.
          5   -1    0    0  501    0  0.00000000000E+00 -0.00000000000E+00 -0.33953458976E+03  0.33956711803E+03  0.47000000000E+01 0. -1.
         25    2    1    2    0    0 -0.52836348526E+02  0.45075151121E+01 -0.89351242478E+02  0.16260691759E+03  0.12508144426E+03 0.  0.
         25    2    1    2    0    0  0.52836348526E+02 -0.45075151121E+01 -0.19209201107E+03  0.23524135815E+03  0.12500863350E+03 0.  0.
          5    1    3    3  502    0 -0.37289264454E+02  0.54455188987E+02 -0.87958240783E+02  0.11006633896E+03  0.47000000000E+01 0. -1.
         -5    1    3    3    0  502 -0.15547084072E+02 -0.49947673874E+02 -0.13930016951E+01  0.52540578626E+02  0.47000000000E+01 0. -1.
          5    1    4    4  503    0  0.77106737252E+02  0.21850348855E+02 -0.65555937830E+02  0.10364631040E+03  0.47000000000E+01 0. -1.
         -5    1    4    4    0  503 -0.24270388726E+02 -0.26357863967E+02 -0.12653607324E+03  0.13159504775E+03  0.47000000000E+01 0. -1.
<mgrwt>
<rscale>  0 0.13584112E+03</rscale>
<asrwt>0</asrwt>
<pdfrwt beam="2">  1        5 0.52253193E-01 0.13585789E+03</pdfrwt>
<pdfrwt beam="1">  1       -5 0.89542327E-02 0.13585789E+03</pdfrwt>
<totfact> 0.24317843E+02</totfact>
</mgrwt>
</event>
<event>
 8    1  0.3763376E-007  0.1338467E+03  0.7546771E-02  0.1221867E+00
         -5   -1    0    0    0  501 -0.00000000000E+00  0.00000000000E+00  0.54779797447E+02  0.54981053176E+02  0.47000000000E+01 0. -1.
          5   -1    0    0  501    0  0.00000000000E+00 -0.00000000000E+00 -0.33632452586E+03  0.33635736456E+03  0.47000000000E+01 0. -1.
         25    2    1    2    0    0 -0.40433907390E+02  0.25443676434E+02 -0.17477741317E+03  0.22012455074E+03  0.12500156858E+03 0.  0.
         25    2    1    2    0    0  0.40433907390E+02 -0.25443676434E+02 -0.10676731525E+03  0.17121386700E+03  0.12503058470E+03 0.  0.
          5    1    3    3  502    0 -0.30370379957E+01  0.17111037854E+02  0.16843856933E+02  0.24653939495E+02  0.47000000000E+01 0.  1.
         -5    1    3    3    0  502 -0.37396869395E+02  0.83326385797E+01 -0.19162127010E+03  0.19547061125E+03  0.47000000000E+01 0.  1.
          5    1    4    4  503    0  0.65010678318E+02 -0.23136799372E+02 -0.12313123033E+03  0.14122708544E+03  0.47000000000E+01 0. -1.
         -5    1    4    4    0  503 -0.24576770928E+02 -0.23068770620E+01  0.16363915084E+02  0.29986781553E+02  0.47000000000E+01 0. -1.
<mgrwt>
<rscale>  0 0.13383988E+03</rscale>
<asrwt>0</asrwt>
<pdfrwt beam="2">  1        5 0.51760241E-01 0.13384666E+03</pdfrwt>
<pdfrwt beam="1">  1       -5 0.84456686E-02 0.13384666E+03</pdfrwt>
<totfact> 0.27308794E+02</totfact>
</mgrwt>
</event>
<event>
 8    1  0.3763376E-007  0.1298678E+03  0.7546771E-02  0.1227658E+00
         -5   -1    0    0    0  501 -0.00000000000E+00  0.00000000000E+00  0.10452394606E+03  0.10462956227E+03  0.47000000000E+01 0.  1.
          5   -1    0    0  501    0  0.00000000000E+00 -0.00000000000E+00 -0.26351007100E+03  0.26355198257E+03  0.47000000000E+01 0.  1.
         25    2    1    2    0    0 -0.35113295179E+02 -0.19739371593E+01  0.35229754168E+02  0.13454626200E+03  0.12499888445E+03 0.  0.
         25    2    1    2    0    0  0.35113295179E+02  0.19739371593E+01 -0.19421587911E+03  0.23363528284E+03  0.12501519013E+03 0.  0.
          5    1    3    3  502    0 -0.58843786435E+02 -0.13069496620E+01 -0.29091251336E+02  0.65823173911E+02  0.47000000000E+01 0. -1.
         -5    1    3    3    0  502  0.23730491256E+02 -0.66698749722E+00  0.64321005504E+02  0.68723088090E+02  0.47000000000E+01 0. -1.
          5    1    4    4  503    0  0.44920192793E+00 -0.57822170447E+02 -0.11192016774E+03  0.12606275868E+03  0.47000000000E+01 0.  1.
         -5    1    4    4    0  503  0.34664093251E+02  0.59796107606E+02 -0.82295711363E+02  0.10757252416E+03  0.47000000000E+01 0.  1.
<mgrwt>
<rscale>  0 0.12986385E+03</rscale>
<asrwt>0</asrwt>
<pdfrwt beam="2">  1        5 0.40551359E-01 0.12986777E+03</pdfrwt>
<pdfrwt beam="1">  1       -5 0.16091955E-01 0.12986777E+03</pdfrwt>
<totfact> 0.14388358E+02</totfact>
</mgrwt>
</event>
<event>
 8    1  0.3763376E-007  0.1332001E+03  0.7546771E-02  0.1222786E+00
         -5   -1    0    0    0  501 -0.00000000000E+00  0.00000000000E+00  0.92821905440E+02  0.92940820577E+02  0.47000000000E+01 0. -1.
          5   -1    0    0  501    0  0.00000000000E+00 -0.00000000000E+00 -0.22161445735E+03  0.22166429056E+03  0.47000000000E+01 0. -1.
         25    2    1    2    0    0 -0.71975265077E+01 -0.45431903936E+02 -0.58244977939E+01  0.13332740937E+03  0.12500564400E+03 0.  0.
         25    2    1    2    0    0  0.71975265077E+01  0.45431903936E+02 -0.12296805412E+03  0.18127770177E+03  0.12499840215E+03 0.  0.
          5    1    4    4  502    0  0.45880598009E+02 -0.25026046521E+02 -0.53466849795E+02  0.74914126206E+02  0.47000000000E+01 0. -1.
         -5    1    4    4    0  502 -0.38683071502E+02  0.70457950457E+02 -0.69501204324E+02  0.10636357556E+03  0.47000000000E+01 0. -1.
          5    1    3    3  503    0 -0.55643570281E+02 -0.58093086736E+02 -0.15644386448E+02  0.82084410624E+02  0.47000000000E+01 0. -1.
         -5    1    3    3    0  503  0.48446043773E+02  0.12661182800E+02  0.98198886544E+01  0.51242998745E+02  0.47000000000E+01 0. -1.
<mgrwt>
<rscale>  0 0.13319843E+03</rscale>
<asrwt>0</asrwt>
<pdfrwt beam="2">  1        5 0.34107512E-01 0.13320013E+03</pdfrwt>
<pdfrwt beam="1">  1       -5 0.14293274E-01 0.13320013E+03</pdfrwt>
<totfact> 0.25526221E+02</totfact>
</mgrwt>
</event>
<event>
 8    1  0.3763376E-007  0.1339479E+03  0.7546771E-02  0.1221721E+00
          5   -1    0    0  501    0  0.00000000000E+00  0.00000000000E+00  0.31352646794E+03  0.31356169425E+03  0.47000000000E+01 0.  1.
         -5   -1    0    0    0  501 -0.00000000000E+00 -0.00000000000E+00 -0.58236568383E+02  0.58425918025E+02  0.47000000000E+01 0.  1.
         25    2    1    2    0    0  0.47681596918E+02  0.65388970471E+01  0.10149325084E+03  0.16803798665E+03  0.12497837066E+03 0.  0.
         25    2    1    2    0    0 -0.47681596918E+02 -0.65388970471E+01  0.15379664872E+03  0.20394962562E+03  0.12500299506E+03 0.  0.
          5    1    4    4  502    0  0.15425827212E+01 -0.16718390568E+02  0.15245307807E+03  0.15344678282E+03  0.47000000000E+01 0.  1.
         -5    1    4    4    0  502 -0.49224179639E+02  0.10179493521E+02  0.13435706560E+01  0.50502842807E+02  0.47000000000E+01 0.  1.
          5    1    3    3  503    0  0.47240181172E+02  0.47822877024E+02  0.10666204092E+03  0.12616474649E+03  0.47000000000E+01 0. -1.
         -5    1    3    3    0  503  0.44141574529E+00 -0.41283979977E+02 -0.51687900828E+01  0.41873240160E+02  0.47000000000E+01 0. -1.
<mgrwt>
<rscale>  0 0.13394216E+03</rscale>
<asrwt>0</asrwt>
<pdfrwt beam="1">  1        5 0.48252116E-01 0.13394790E+03</pdfrwt>
<pdfrwt beam="2">  1       -5 0.89767472E-02 0.13394790E+03</pdfrwt>
<totfact> 0.28529753E+02</totfact>
</mgrwt>
</event>
<event>
 8    1  0.3763376E-007  0.1326777E+03  0.7546771E-02  0.1223553E+00
          5   -1    0    0  501    0  0.00000000000E+00  0.00000000000E+00  0.27046789370E+03  0.27050872726E+03  0.47000000000E+01 0. -1.
         -5   -1    0    0    0  501 -0.00000000000E+00 -0.00000000000E+00 -0.79958852961E+02  0.80096867398E+02  0.47000000000E+01 0. -1.
         25    2    1    2    0    0 -0.44462459840E+02  0.91959425260E+00  0.19335964926E+02  0.13403322146E+03  0.12495306690E+03 0.  0.
         25    2    1    2    0    0  0.44462459840E+02 -0.91959425260E+00  0.17117307582E+03  0.21657237320E+03  0.12500245981E+03 0.  0.
          5    1    3    3  502    0 -0.36145004358E+02 -0.11486739502E+02 -0.50010541233E+02  0.62940851272E+02  0.47000000000E+01 0.  1.
         -5    1    3    3    0  502 -0.83174554821E+01  0.12406333755E+02  0.69346506159E+02  0.71092370191E+02  0.47000000000E+01 0.  1.
          5    1    4    4  503    0 -0.10078774273E+02 -0.30228013078E+02 -0.23294004739E+01  0.32292887329E+02  0.47000000000E+01 0.  1.
         -5    1    4    4    0  503  0.54541234113E+02  0.29308418825E+02  0.17350247629E+03  0.18427948587E+03  0.47000000000E+01 0.  1.
<mgrwt>
<rscale>  0 0.13266606E+03</rscale>
<asrwt>0</asrwt>
<pdfrwt beam="1">  1        5 0.41624204E-01 0.13267770E+03</pdfrwt>
<pdfrwt beam="2">  1       -5 0.12315119E-01 0.13267770E+03</pdfrwt>
<totfact> 0.22226771E+02</totfact>
</mgrwt>
</event>
<event>
 8    1  0.3763376E-007  0.1298496E+03  0.7546771E-02  0.1227679E+00
         -5   -1    0    0    0  501 -0.00000000000E+00  0.00000000000E+00  0.34562380634E+02  0.34880483871E+02  0.47000000000E+01 0.  1.
          5   -1    0    0  501    0  0.00000000000E+00 -0.00000000000E+00 -0.50831040733E+03  0.50833213572E+03  0.47000000000E+01 0.  1.
         25    2    1    2    0    0 -0.13072631298E+02 -0.32625041820E+02 -0.17907224905E+03  0.22119624311E+03  0.12500248214E+03 0.  0.
         25    2    1    2    0    0  0.13072631298E+02  0.32625041820E+02 -0.29467577765E+03  0.32201637648E+03  0.12500178297E+03 0.  0.
          5    1    4    4  502    0  0.17793298914E+02 -0.24317308346E+02 -0.24277438124E+03  0.24468229024E+03  0.47000000000E+01 0.  1.
         -5    1    4    4    0  502 -0.47206676157E+01  0.56942350166E+02 -0.51901396406E+02  0.77334086237E+02  0.47000000000E+01 0.  1.
          5    1    3    3  503    0 -0.56729431341E+02 -0.46409571884E+02 -0.64576054953E+02  0.97796899828E+02  0.47000000000E+01 0.  1.
         -5    1    3    3    0  503  0.43656800043E+02  0.13784530064E+02 -0.11449619410E+03  0.12339934328E+03  0.47000000000E+01 0.  1.
<mgrwt>
<rscale>  0 0.12984939E+03</rscale>
<asrwt>0</asrwt>
<pdfrwt beam="2">  1        5 0.78227737E-01 0.12984956E+03</pdfrwt>
<pdfrwt beam="1">  1       -5 0.53434306E-02 0.12984956E+03</pdfrwt>
<totfact> 0.23518638E+02</totfact>
</mgrwt>
</event>
<event>
 8    1  0.3763376E-007  0.1263784E+03  0.7546771E-02  0.1232942E+00
         -5   -1    0    0    0  501 -0.00000000000E+00  0.00000000000E+00  0.45313565619E+02  0.45556659547E+02  0.47000000000E+01 0. -1.
          5   -1    0    0  501    0  0.00000000000E+00 -0.00000000000E+00 -0.39757921792E+03  0.39760699758E+03  0.47000000000E+01 0. -1.
         25    2    1    2    0    0  0.17580293178E+02 -0.62806907045E+01 -0.10048240110E+03  0.16145652342E+03  0.12499192870E+03 0.  0.
         25    2    1    2    0    0 -0.17580293178E+02  0.62806907045E+01 -0.25178325121E+03  0.28170713371E+03  0.12496235357E+03 0.  0.
          5    1    4    4  502    0  0.23181727451E+02  0.45743519674E+02 -0.48999480474E+02  0.71083761623E+02  0.47000000000E+01 0. -1.
         -5    1    4    4    0  502 -0.40762020628E+02 -0.39462828970E+02 -0.20278377073E+03  0.21062337209E+03  0.47000000000E+01 0. -1.
          5    1    3    3  503    0  0.24702208234E+02 -0.57111613515E+02 -0.19344289319E+02  0.65331669344E+02  0.47000000000E+01 0. -1.
         -5    1    3    3    0  503 -0.71219150567E+01  0.50830922811E+02 -0.81138111777E+02  0.96124854073E+02  0.47000000000E+01 0. -1.
<mgrwt>
<rscale>  0 0.12637107E+03</rscale>
<asrwt>0</asrwt>
<pdfrwt beam="2">  1        5 0.61186868E-01 0.12637838E+03</pdfrwt>
<pdfrwt beam="1">  1       -5 0.69921545E-02 0.12637838E+03</pdfrwt>
<totfact> 0.25730942E+02</totfact>
</mgrwt>
</event>
<event>
 8    1  0.3763376E-007  0.1305523E+03  0.7546771E-02  0.1226658E+00
         -5   -1    0    0    0  501 -0.00000000000E+00  0.00000000000E+00  0.12994166805E+03  0.13002663994E+03  0.47000000000E+01 0. -1.
          5   -1    0    0  501    0  0.00000000000E+00 -0.00000000000E+00 -0.13108749500E+03  0.13117172465E+03  0.47000000000E+01 0. -1.
         25    2    1    2    0    0  0.23712581691E+02  0.28993752474E+02  0.37480489952E+01  0.13060608179E+03  0.12506388973E+03 0.  0.
         25    2    1    2    0    0 -0.23712581691E+02 -0.28993752474E+02 -0.48938759534E+01  0.13059228280E+03  0.12500987998E+03 0.  0.
          5    1    3    3  502    0  0.42837767527E+02  0.56961446477E+01  0.55521031059E+02  0.70513794965E+02  0.47000000000E+01 0.  1.
         -5    1    3    3    0  502 -0.19125185837E+02  0.23297607827E+02 -0.51772982064E+02  0.60092286822E+02  0.47000000000E+01 0.  1.
          5    1    4    4  503    0 -0.46052136291E+02  0.35508590583E+02  0.13202283968E+02  0.59816800016E+02  0.47000000000E+01 0. -1.
         -5    1    4    4    0  503  0.22339554600E+02 -0.64502343057E+02 -0.18096159921E+02  0.70775482785E+02  0.47000000000E+01 0. -1.
<mgrwt>
<rscale>  0 0.13053935E+03</rscale>
<asrwt>0</asrwt>
<pdfrwt beam="2">  1        5 0.20180323E-01 0.13055229E+03</pdfrwt>
<pdfrwt beam="1">  1       -5 0.20004041E-01 0.13055229E+03</pdfrwt>
<totfact> 0.37663358E+02</totfact>
</mgrwt>
</event>
<event>
 8    1  0.3763376E-007  0.1494302E+03  0.7546771E-02  0.1201176E+00
         -5   -1    0    0    0  501 -0.00000000000E+00  0.00000000000E+00  0.93397975640E+03  0.93399158206E+03  0.47000000000E+01 0.  1.
          5   -1    0    0  501    0  0.00000000000E+00 -0.00000000000E+00 -0.36910343344E+02  0.37208378704E+02  0.47000000000E+01 0.  1.
         25    2    1    2    0    0 -0.73941236968E+02  0.35164743538E+02  0.73790191511E+03  0.75287981110E+03  0.12499963174E+03 0.  0.
         25    2    1    2    0    0  0.73941236968E+02 -0.35164743538E+02  0.15916749795E+03  0.21832014966E+03  0.12500211852E+03 0.  0.
          5    1    4    4  502    0  0.98297375880E+02 -0.55802595447E+02  0.10030655232E+03  0.15119457067E+03  0.47000000000E+01 0. -1.
         -5    1    4    4    0  502 -0.24356138912E+02  0.20637851909E+02  0.58860945630E+02  0.67125578989E+02  0.47000000000E+01 0. -1.
          5    1    3    3  503    0 -0.10852461571E+03  0.36159434526E+02  0.55943308792E+03  0.57102764100E+03  0.47000000000E+01 0. -1.
         -5    1    3    3    0  503  0.34583378742E+02 -0.99469098868E+00  0.17846882719E+03  0.18185217011E+03  0.47000000000E+01 0. -1.
<mgrwt>
<rscale>  0 0.14942972E+03</rscale>
<asrwt>0</asrwt>
<pdfrwt beam="2">  1        5 0.57023500E-02 0.14943024E+03</pdfrwt>
<pdfrwt beam="1">  1       -5 0.14371302E+00 0.14943024E+03</pdfrwt>
<totfact> 0.48928111E+01</totfact>
</mgrwt>
</event>
<event>
 8    1  0.3763376E-007  0.1272568E+03  0.7546771E-02  0.1231589E+00
         -5   -1    0    0    0  501 -0.00000000000E+00  0.00000000000E+00  0.11987914136E+04  0.11988006270E+04  0.47000000000E+01 0. -1.
          5   -1    0    0  501    0  0.00000000000E+00 -0.00000000000E+00 -0.13167980348E+02  0.13981620309E+02  0.47000000000E+01 0. -1.
         25    2    1    2    0    0  0.14801511519E+02 -0.18646860253E+02  0.63836750306E+03  0.65092518989E+03  0.12499497479E+03 0.  0.
         25    2    1    2    0    0 -0.14801511519E+02  0.18646860253E+02  0.54725593021E+03  0.56185705745E+03  0.12501003847E+03 0.  0.
          5    1    3    3  502    0 -0.25635073086E+02  0.42996583177E+02  0.33150155317E+03  0.33529275699E+03  0.47000000000E+01 0. -1.
         -5    1    3    3    0  502  0.40436584605E+02 -0.61643443430E+02  0.30686594989E+03  0.31563243289E+03  0.47000000000E+01 0. -1.
          5    1    4    4  503    0 -0.14856996548E+02  0.57272189747E+01  0.23379340518E+01  0.16765658927E+02  0.47000000000E+01 0. -1.
         -5    1    4    4    0  503  0.55485029587E-01  0.12919641278E+02  0.54491799616E+03  0.54509139852E+03  0.47000000000E+01 0. -1.
<mgrwt>
<rscale>  0 0.12725313E+03</rscale>
<asrwt>0</asrwt>
<pdfrwt beam="2">  1        5 0.20891389E-02 0.12725683E+03</pdfrwt>
<pdfrwt beam="1">  1       -5 0.18449280E+00 0.12725683E+03</pdfrwt>
<totfact> 0.11808177E+02</totfact>
</mgrwt>
</event>
<event>
 8    1  0.3763376E-007  0.1649679E+03  0.7546771E-02  0.1183204E+00
          5   -1    0    0  501    0  0.00000000000E+00  0.00000000000E+00  0.79023515442E+03  0.79024913115E+03  0.47000000000E+01 0.  1.
         -5   -1    0    0    0  501 -0.00000000000E+00 -0.00000000000E+00 -0.80563439235E+02  0.80700419710E+02  0.47000000000E+01 0.  1.
         25    2    1    2    0    0  0.66823659255E+01 -0.10743786686E+03  0.25182456611E+02  0.16686151473E+03  0.12498423792E+03 0.  0.
         25    2    1    2    0    0 -0.66823659255E+01  0.10743786686E+03  0.68448925858E+03  0.70408803613E+03  0.12500747281E+03 0.  0.
          5    1    3    3  502    0 -0.34814379649E+02 -0.42213351721E+02 -0.38104752837E+02  0.66843625595E+02  0.47000000000E+01 0. -1.
         -5    1    3    3    0  502  0.41496745575E+02 -0.65224515138E+02  0.63287209448E+02  0.10001788914E+03  0.47000000000E+01 0. -1.
          5    1    4    4  503    0 -0.14214830951E+02  0.58038558838E+02  0.61739698084E+03  0.62029965152E+03  0.47000000000E+01 0. -1.
         -5    1    4    4    0  503  0.75324650251E+01  0.49399308021E+02  0.67092277741E+02  0.83788384605E+02  0.47000000000E+01 0. -1.
<mgrwt>
<rscale>  0 0.16496353E+03</rscale>
<asrwt>0</asrwt>
<pdfrwt beam="1">  1        5 0.12158625E+00 0.16496793E+03</pdfrwt>
<pdfrwt beam="2">  1       -5 0.12405987E-01 0.16496793E+03</pdfrwt>
<totfact> 0.20391371E+01</totfact>
</mgrwt>
</event>
<event>
 8    1  0.3763376E-007  0.1421735E+03  0.7546771E-02  0.1210458E+00
          5   -1    0    0  501    0  0.00000000000E+00  0.00000000000E+00  0.38639081985E+02  0.38923882856E+02  0.47000000000E+01 0.  1.
         -5   -1    0    0    0  501 -0.00000000000E+00 -0.00000000000E+00 -0.54889257095E+03  0.54891269292E+03  0.47000000000E+01 0.  1.
         25    2    1    2    0    0  0.67664200032E+02  0.28399513747E+01 -0.32184068957E+03  0.35184476146E+03  0.12500718943E+03 0.  0.
         25    2    1    2    0    0 -0.67664200032E+02 -0.28399513747E+01 -0.18841279939E+03  0.23599181431E+03  0.12492495411E+03 0.  0.
          5    1    3    3  502    0  0.72332361611E+02  0.52746461355E+02 -0.17519896969E+03  0.19680174975E+03  0.47000000000E+01 0.  1.
         -5    1    3    3    0  502 -0.46681615786E+01 -0.49906509981E+02 -0.14664171988E+03  0.15504301171E+03  0.47000000000E+01 0.  1.
          5    1    4    4  503    0 -0.13184394492E+02  0.51658303182E+02 -0.34146994278E+02  0.63486343130E+02  0.47000000000E+01 0.  1.
         -5    1    4    4    0  503 -0.54479805540E+02 -0.54498254556E+02 -0.15426580511E+03  0.17250547118E+03  0.47000000000E+01 0.  1.
<mgrwt>
<rscale>  0 0.14215543E+03</rscale>
<asrwt>0</asrwt>
<pdfrwt beam="1">  1        5 0.59679302E-02 0.14217351E+03</pdfrwt>
<pdfrwt beam="2">  1       -5 0.84468461E-01 0.14217351E+03</pdfrwt>
<totfact> 0.16864796E+02</totfact>
</mgrwt>
</event>
<event>
 8    1  0.3763376E-007  0.1266164E+03  0.7546771E-02  0.1232568E+00
         -5   -1    0    0    0  501 -0.00000000000E+00  0.00000000000E+00  0.13796922422E+03  0.13804925509E+03  0.47000000000E+01 0.  1.
          5   -1    0    0  501    0  0.00000000000E+00 -0.00000000000E+00 -0.11843092107E+03  0.11852414550E+03  0.47000000000E+01 0.  1.
         25    2    1    2    0    0  0.24535216648E+01 -0.19998112863E+02  0.28026085579E+02  0.12967286867E+03  0.12499458832E+03 0.  0.
         25    2    1    2    0    0 -0.24535216648E+01  0.19998112863E+02 -0.84877824336E+01  0.12690053192E+03  0.12500303302E+03 0.  0.
          5    1    4    4  502    0  0.42791933530E+02 -0.26591141017E+02  0.21789285536E+02  0.55091753647E+02  0.47000000000E+01 0. -1.
         -5    1    4    4    0  502 -0.45245455194E+02  0.46589253879E+02 -0.30277067969E+02  0.71808778277E+02  0.47000000000E+01 0. -1.
          5    1    3    3  503    0  0.15057020584E+02 -0.67210233899E+02  0.39111807603E+02  0.79345780629E+02  0.47000000000E+01 0. -1.
         -5    1    3    3    0  503 -0.12603498920E+02  0.47212121036E+02 -0.11085722024E+02  0.50327088039E+02  0.47000000000E+01 0. -1.
<mgrwt>
<rscale>  0 0.12661428E+03</rscale>
<asrwt>0</asrwt>
<pdfrwt beam="2">  1        5 0.18233469E-01 0.12661636E+03</pdfrwt>
<pdfrwt beam="1">  1       -5 0.21239362E-01 0.12661636E+03</pdfrwt>
<totfact> 0.40185257E+02</totfact>
</mgrwt>
</event>
<event>
 8    1  0.3763376E-007  0.1335586E+03  0.7546771E-02  0.1222272E+00
          5   -1    0    0  501    0  0.00000000000E+00  0.00000000000E+00  0.32140699360E+03  0.32144135630E+03  0.47000000000E+01 0. -1.
         -5   -1    0    0    0  501 -0.00000000000E+00 -0.00000000000E+00 -0.55800892122E+02  0.55998478208E+02  0.47000000000E+01 0. -1.
         25    2    1    2    0    0  0.46756416702E+02 -0.49274367153E+01  0.14956641779E+03  0.20051932905E+03  0.12500978304E+03 0.  0.
         25    2    1    2    0    0 -0.46756416702E+02  0.49274367153E+01  0.11603968369E+03  0.17692050545E+03  0.12500085969E+03 0.  0.
          5    1    3    3  502    0 -0.16976453716E+02  0.23705094581E+02 -0.58028535886E+01  0.30098082989E+02  0.47000000000E+01 0. -1.
         -5    1    3    3    0  502  0.63732870418E+02 -0.28632531296E+02  0.15536927138E+03  0.17042124606E+03  0.47000000000E+01 0. -1.
          5    1    4    4  503    0  0.22556371597E+02 -0.43066969592E+02  0.37179021525E+02  0.61383413159E+02  0.47000000000E+01 0. -1.
         -5    1    4    4    0  503 -0.69312788299E+02  0.47994406307E+02  0.78860662166E+02  0.11553709229E+03  0.47000000000E+01 0. -1.
<mgrwt>
<rscale>  0 0.13355647E+03</rscale>
<asrwt>0</asrwt>
<pdfrwt beam="1">  1        5 0.49465072E-01 0.13355856E+03</pdfrwt>
<pdfrwt beam="2">  1       -5 0.86025949E-02 0.13355856E+03</pdfrwt>
<totfact> 0.29108826E+02</totfact>
</mgrwt>
</event>
<event>
 8    1  0.3763376E-007  0.1278683E+03  0.7546771E-02  0.1230675E+00
          5   -1    0    0  501    0  0.00000000000E+00  0.00000000000E+00  0.21296150192E+03  0.21301335944E+03  0.47000000000E+01 0. -1.
         -5   -1    0    0    0  501 -0.00000000000E+00 -0.00000000000E+00 -0.76683310313E+02  0.76827209247E+02  0.47000000000E+01 0. -1.
         25    2    1    2    0    0 -0.12006177649E+02  0.24102443041E+02  0.63643945982E+02  0.14283153876E+03  0.12500088216E+03 0.  0.
         25    2    1    2    0    0  0.12006177649E+02 -0.24102443041E+02  0.72634245622E+02  0.14700902993E+03  0.12494336789E+03 0.  0.
          5    1    4    4  502    0 -0.20993099646E+02 -0.68291069416E+02  0.49357203937E+02  0.86963233467E+02  0.47000000000E+01 0.  1.
         -5    1    4    4    0  502  0.32999277295E+02  0.44188626375E+02  0.23277041685E+02  0.60045796460E+02  0.47000000000E+01 0.  1.
          5    1    3    3  503    0 -0.13949543994E+00  0.10004528051E+02 -0.37922081168E+02  0.39500433930E+02  0.47000000000E+01 0.  1.
         -5    1    3    3    0  503 -0.11866682209E+02  0.14097914990E+02  0.10156602715E+03  0.10333110483E+03  0.47000000000E+01 0.  1.
<mgrwt>
<rscale>  0 0.12785422E+03</rscale>
<asrwt>0</asrwt>
<pdfrwt beam="1">  1        5 0.32778366E-01 0.12786828E+03</pdfrwt>
<pdfrwt beam="2">  1       -5 0.11812491E-01 0.12786828E+03</pdfrwt>
<totfact> 0.38246584E+02</totfact>
</mgrwt>
</event>
<event>
 8    1  0.3763376E-007  0.1327122E+03  0.7546771E-02  0.1223486E+00
          5   -1    0    0  501    0  0.00000000000E+00  0.00000000000E+00  0.12846162876E+03  0.12854757899E+03  0.47000000000E+01 0.  1.
         -5   -1    0    0    0  501 -0.00000000000E+00 -0.00000000000E+00 -0.17705431951E+03  0.17711669051E+03  0.47000000000E+01 0.  1.
         25    2    1    2    0    0 -0.37678974104E+02 -0.23830105534E+02 -0.97018777944E+02  0.16439332732E+03  0.12499977510E+03 0.  0.
         25    2    1    2    0    0  0.37678974104E+02  0.23830105534E+02  0.48426087195E+02  0.14127094218E+03  0.12499925665E+03 0.  0.
          5    1    4    4  502    0 -0.27061069964E+02  0.52652589409E+02  0.90727018590E+01  0.60074958161E+02  0.47000000000E+01 0. -1.
         -5    1    4    4    0  502  0.64740044068E+02 -0.28822483876E+02  0.39353385336E+02  0.81195984014E+02  0.47000000000E+01 0. -1.
          5    1    3    3  503    0 -0.42967132432E+02 -0.57773731792E+02 -0.10632281157E+03  0.12849361390E+03  0.47000000000E+01 0. -1.
         -5    1    3    3    0  503  0.52881583276E+01  0.33943626259E+02  0.93040336210E+01  0.35899713421E+02  0.47000000000E+01 0. -1.
<mgrwt>
<rscale>  0 0.13271206E+03</rscale>
<asrwt>0</asrwt>
<pdfrwt beam="1">  1        5 0.19774737E-01 0.13271218E+03</pdfrwt>
<pdfrwt beam="2">  1       -5 0.27250535E-01 0.13271218E+03</pdfrwt>
<totfact> 0.21876198E+02</totfact>
</mgrwt>
</event>
<event>
 8    1  0.3763376E-007  0.1353332E+03  0.7546771E-02  0.1219764E+00
         -5   -1    0    0    0  501 -0.00000000000E+00  0.00000000000E+00  0.45708316689E+03  0.45710733035E+03  0.47000000000E+01 0. -1.
          5   -1    0    0  501    0  0.00000000000E+00 -0.00000000000E+00 -0.40595110036E+02  0.40866281441E+02  0.47000000000E+01 0. -1.
         25    2    1    2    0    0  0.24121825913E+02 -0.45800543959E+02  0.17568891169E+03  0.22176938097E+03  0.12504204226E+03 0.  0.
         25    2    1    2    0    0 -0.24121825913E+02  0.45800543959E+02  0.24079914517E+03  0.27620423082E+03  0.12499998598E+03 0.  0.
          5    1    3    3  502    0  0.37507576654E+02 -0.84150486643E+02  0.10225145497E+03  0.13771555015E+03  0.47000000000E+01 0.  1.
         -5    1    3    3    0  502 -0.13385750741E+02  0.38349942684E+02  0.73437456714E+02  0.84053830819E+02  0.47000000000E+01 0.  1.
          5    1    4    4  503    0 -0.44821998446E+02  0.72181829848E+02  0.22137631737E+03  0.23716827780E+03  0.47000000000E+01 0. -1.
         -5    1    4    4    0  503  0.20700172533E+02 -0.26381285888E+02  0.19422827800E+02  0.39035953015E+02  0.47000000000E+01 0. -1.
<mgrwt>
<rscale>  0 0.13532345E+03</rscale>
<asrwt>0</asrwt>
<pdfrwt beam="2">  1        5 0.62681197E-02 0.13533316E+03</pdfrwt>
<pdfrwt beam="1">  1       -5 0.70343204E-01 0.13533316E+03</pdfrwt>
<totfact> 0.23257105E+02</totfact>
</mgrwt>
</event>
<event>
 8    1  0.3763376E-007  0.1294398E+03  0.7546771E-02  0.1228290E+00
         -5   -1    0    0    0  501 -0.00000000000E+00  0.00000000000E+00  0.69732442933E+01  0.84092886723E+01  0.47000000000E+01 0.  1.
          5   -1    0    0  501    0  0.00000000000E+00 -0.00000000000E+00 -0.22646852928E+04  0.22646901699E+04  0.47000000000E+01 0.  1.
         25    2    1    2    0    0 -0.93504292677E+01  0.32274089403E+02 -0.90522632176E+03  0.91443390202E+03  0.12500248071E+03 0.  0.
         25    2    1    2    0    0  0.93504292677E+01 -0.32274089403E+02 -0.13524857268E+04  0.13586655565E+04  0.12500162400E+03 0.  0.
          5    1    3    3  502    0 -0.28705587422E+01  0.47369932659E+01  0.13631140891E+01  0.73910278523E+01  0.47000000000E+01 0.  1.
         -5    1    3    3    0  502 -0.64798705255E+01  0.27537096137E+02 -0.90658943585E+03  0.90704287417E+03  0.47000000000E+01 0.  1.
          5    1    4    4  503    0 -0.35102021246E+02 -0.46939425550E+02 -0.11158825519E+04  0.11174307232E+04  0.47000000000E+01 0.  1.
         -5    1    4    4    0  503  0.44452450514E+02  0.14665336147E+02 -0.23660317485E+03  0.24123483328E+03  0.47000000000E+01 0.  1.
<mgrwt>
<rscale>  0 0.12943962E+03</rscale>
<asrwt>0</asrwt>
<pdfrwt beam="2">  1        5 0.34852343E+00 0.12943982E+03</pdfrwt>
<pdfrwt beam="1">  1       -5 0.11836487E-02 0.12943982E+03</pdfrwt>
<totfact> 0.25441125E+01</totfact>
</mgrwt>
</event>
<event>
 8    1  0.3763376E-007  0.1259887E+03  0.7546771E-02  0.1233534E+00
          5   -1    0    0  501    0  0.00000000000E+00  0.00000000000E+00  0.73316832928E+02  0.73467326006E+02  0.47000000000E+01 0. -1.
         -5   -1    0    0    0  501 -0.00000000000E+00 -0.00000000000E+00 -0.22130101019E+03  0.22135091396E+03  0.47000000000E+01 0. -1.
         25    2    1    2    0    0  0.16971355810E-01 -0.15763555040E+02 -0.96591509419E+02  0.15875072025E+03  0.12499352596E+03 0.  0.
         25    2    1    2    0    0 -0.16971355810E-01  0.15763555040E+02 -0.51392667847E+02  0.13606751972E+03  0.12499869463E+03 0.  0.
          5    1    4    4  502    0  0.31150806173E+02 -0.46170095498E+02 -0.29537679761E+02  0.63218786521E+02  0.47000000000E+01 0.  1.
         -5    1    4    4    0  502 -0.31167777529E+02  0.61933650539E+02 -0.21854988085E+02  0.72848733203E+02  0.47000000000E+01 0.  1.
          5    1    3    3  503    0 -0.71978152739E+01 -0.48124291361E+02  0.74522809737E+01  0.49450808440E+02  0.47000000000E+01 0. -1.
         -5    1    3    3    0  503  0.72147866297E+01  0.32360736320E+02 -0.10404379039E+03  0.10929991181E+03  0.47000000000E+01 0. -1.
<mgrwt>
<rscale>  0 0.12598746E+03</rscale>
<asrwt>0</asrwt>
<pdfrwt beam="1">  1        5 0.11294928E-01 0.12598874E+03</pdfrwt>
<pdfrwt beam="2">  1       -5 0.34061724E-01 0.12598874E+03</pdfrwt>
<totfact> 0.38138642E+02</totfact>
</mgrwt>
</event>
<event>
 8    1  0.3763376E-007  0.1539445E+03  0.7546771E-02  0.1195710E+00
         -5   -1    0    0    0  501 -0.00000000000E+00  0.00000000000E+00  0.20802384321E+02  0.21326724864E+02  0.47000000000E+01 0. -1.
          5   -1    0    0  501    0  0.00000000000E+00 -0.00000000000E+00 -0.11552682979E+04  0.11552778584E+04  0.47000000000E+01 0. -1.
         25    2    1    2    0    0 -0.68056371945E+02  0.58675645213E+02 -0.47123987099E+03  0.49574783448E+03  0.12499759309E+03 0.  0.
         25    2    1    2    0    0  0.68056371945E+02 -0.58675645213E+02 -0.66322604257E+03  0.68085674878E+03  0.12499051047E+03 0.  0.
          5    1    4    4  502    0  0.10425879637E+03 -0.34999077059E+02 -0.49536576820E+03  0.50744868343E+03  0.47000000000E+01 0. -1.
         -5    1    4    4    0  502 -0.36202424424E+02 -0.23676568154E+02 -0.16786027437E+03  0.17340806534E+03  0.47000000000E+01 0. -1.
          5    1    3    3  503    0  0.29752660126E+02 -0.60669016528E+01 -0.52161809658E+02  0.60539016073E+02  0.47000000000E+01 0.  1.
         -5    1    3    3    0  503 -0.97809032071E+02  0.64742546865E+02 -0.41907806133E+03  0.43520881840E+03  0.47000000000E+01 0.  1.
<mgrwt>
<rscale>  0 0.15394303E+03</rscale>
<asrwt>0</asrwt>
<pdfrwt beam="2">  1        5 0.17777460E+00 0.15394447E+03</pdfrwt>
<pdfrwt beam="1">  1       -5 0.32414370E-02 0.15394447E+03</pdfrwt>
<totfact> 0.68949158E+01</totfact>
</mgrwt>
</event>
<event>
 8    1  0.3763376E-007  0.1336973E+03  0.7546771E-02  0.1222071E+00
          5   -1    0    0  501    0  0.00000000000E+00  0.00000000000E+00  0.87767209766E+02  0.87892963939E+02  0.47000000000E+01 0. -1.
         -5   -1    0    0    0  501 -0.00000000000E+00 -0.00000000000E+00 -0.25404012224E+03  0.25408359590E+03  0.47000000000E+01 0. -1.
         25    2    1    2    0    0 -0.31565461595E+02 -0.35405656222E+02 -0.15948096957E+03  0.20810847915E+03  0.12500008232E+03 0.  0.
         25    2    1    2    0    0  0.31565461595E+02  0.35405656222E+02 -0.67919429044E+01  0.13386808069E+03  0.12499837472E+03 0.  0.
          5    1    3    3  502    0 -0.70140313014E+02 -0.22391124746E+02 -0.44774620344E+02  0.86301115891E+02  0.47000000000E+01 0.  1.
         -5    1    3    3    0  502  0.38574851418E+02 -0.13014531475E+02 -0.11470634923E+03  0.12180736326E+03  0.47000000000E+01 0.  1.
          5    1    4    4  503    0  0.56473287163E+02 -0.26710852744E+02  0.12871368334E+02  0.63956734908E+02  0.47000000000E+01 0. -1.
         -5    1    4    4    0  503 -0.24907825567E+02  0.62116508966E+02 -0.19663311239E+02  0.69911345785E+02  0.47000000000E+01 0. -1.
<mgrwt>
<rscale>  0 0.13369687E+03</rscale>
<asrwt>0</asrwt>
<pdfrwt beam="1">  1        5 0.13515665E-01 0.13369727E+03</pdfrwt>
<pdfrwt beam="2">  1       -5 0.39096113E-01 0.13369727E+03</pdfrwt>
<totfact> 0.21461194E+02</totfact>
</mgrwt>
</event>
<event>
 8    1  0.3763376E-007  0.1328393E+03  0.7546771E-02  0.1223304E+00
         -5   -1    0    0    0  501 -0.00000000000E+00  0.00000000000E+00  0.36479164948E+02  0.36780694329E+02  0.47000000000E+01 0. -1.
          5   -1    0    0  501    0  0.00000000000E+00 -0.00000000000E+00 -0.70068907216E+03  0.70070483504E+03  0.47000000000E+01 0. -1.
         25    2    1    2    0    0 -0.44241623904E+02 -0.81090639905E+01 -0.12587001849E+03  0.18299828142E+03  0.12498812440E+03 0.  0.
         25    2    1    2    0    0  0.44241623904E+02  0.81090639905E+01 -0.53833988872E+03  0.55448724795E+03  0.12499277639E+03 0.  0.
          5    1    3    3  502    0  0.19014713732E+02  0.21480864286E+02  0.95172990946E+01  0.30588492131E+02  0.47000000000E+01 0.  1.
         -5    1    3    3    0  502 -0.63256337636E+02 -0.29589928277E+02 -0.13538731759E+03  0.15240978929E+03  0.47000000000E+01 0.  1.
          5    1    4    4  503    0  0.28227566388E+02  0.46949340056E+02 -0.47600271125E+03  0.47916772340E+03  0.47000000000E+01 0.  1.
         -5    1    4    4    0  503  0.16014057516E+02 -0.38840276066E+02 -0.62337177474E+02  0.75319524549E+02  0.47000000000E+01 0.  1.
<mgrwt>
<rscale>  0 0.13283818E+03</rscale>
<asrwt>0</asrwt>
<pdfrwt beam="2">  1        5 0.10782272E+00 0.13283927E+03</pdfrwt>
<pdfrwt beam="1">  1       -5 0.56365868E-02 0.13283927E+03</pdfrwt>
<totfact> 0.10089599E+02</totfact>
</mgrwt>
</event>
<event>
 8    1  0.3763376E-007  0.1538015E+03  0.7546771E-02  0.1195879E+00
          5   -1    0    0  501    0  0.00000000000E+00  0.00000000000E+00  0.63252353597E+02  0.63426731238E+02  0.47000000000E+01 0.  1.
         -5   -1    0    0    0  501 -0.00000000000E+00 -0.00000000000E+00 -0.38048865025E+03  0.38051767760E+03  0.47000000000E+01 0.  1.
         25    2    1    2    0    0 -0.10073319378E+02  0.89038457960E+02 -0.18919613559E+03  0.24382384648E+03  0.12500228650E+03 0.  0.
         25    2    1    2    0    0  0.10073319378E+02 -0.89038457960E+02 -0.12804016106E+03  0.20012056236E+03  0.12499855149E+03 0.  0.
          5    1    4    4  502    0  0.47640867566E+02 -0.82646998707E+01 -0.59947010080E+01  0.48948789225E+02  0.47000000000E+01 0.  1.
         -5    1    4    4    0  502 -0.37567548189E+02 -0.80773758089E+02 -0.12204546005E+03  0.15117177313E+03  0.47000000000E+01 0.  1.
          5    1    3    3  503    0 -0.21266675279E+02  0.63008520244E+02 -0.16396288502E+02  0.68653283806E+02  0.47000000000E+01 0. -1.
         -5    1    3    3    0  503  0.11193355902E+02  0.26029937716E+02 -0.17279984709E+03  0.17517056268E+03  0.47000000000E+01 0. -1.
<mgrwt>
<rscale>  0 0.15380071E+03</rscale>
<asrwt>0</asrwt>
<pdfrwt beam="1">  1        5 0.97467781E-02 0.15380146E+03</pdfrwt>
<pdfrwt beam="2">  1       -5 0.58552361E-01 0.15380146E+03</pdfrwt>
<totfact> 0.17102878E+02</totfact>
</mgrwt>
</event>
<event>
 8    1  0.3763376E-007  0.1297876E+03  0.7546771E-02  0.1227774E+00
          5   -1    0    0  501    0  0.00000000000E+00  0.00000000000E+00  0.62122835609E+02  0.62300374831E+02  0.47000000000E+01 0.  1.
         -5   -1    0    0    0  501 -0.00000000000E+00 -0.00000000000E+00 -0.28523634650E+03  0.28527506615E+03  0.47000000000E+01 0.  1.
         25    2    1    2    0    0  0.16470871182E+02  0.30735580466E+02 -0.15096740493E+03  0.19908339809E+03  0.12500830588E+03 0.  0.
         25    2    1    2    0    0 -0.16470871182E+02 -0.30735580466E+02 -0.72146105959E+02  0.14849204289E+03  0.12501544182E+03 0.  0.
          5    1    3    3  502    0 -0.48007877021E+02  0.39623095386E+02 -0.91685365001E+02  0.11091907906E+03  0.47000000000E+01 0.  1.
         -5    1    3    3    0  502  0.64478748202E+02 -0.88875149199E+01 -0.59282039933E+02  0.88164319029E+02  0.47000000000E+01 0.  1.
          5    1    4    4  503    0 -0.36478568185E+02 -0.72635490893E+02 -0.57150563879E+02  0.99472998476E+02  0.47000000000E+01 0. -1.
         -5    1    4    4    0  503  0.20007697004E+02  0.41899910426E+02 -0.14995542081E+02  0.49019044416E+02  0.47000000000E+01 0. -1.
<mgrwt>
<rscale>  0 0.12978590E+03</rscale>
<asrwt>0</asrwt>
<pdfrwt beam="1">  1        5 0.95739948E-02 0.12978762E+03</pdfrwt>
<pdfrwt beam="2">  1       -5 0.43899149E-01 0.12978762E+03</pdfrwt>
<totfact> 0.30740590E+02</totfact>
</mgrwt>
</event>
<event>
 8    1  0.3763376E-007  0.1373828E+03  0.7546771E-02  0.1216898E+00
         -5   -1    0    0    0  501 -0.00000000000E+00  0.00000000000E+00  0.83216823061E+02  0.83349442951E+02  0.47000000000E+01 0. -1.
          5   -1    0    0  501    0  0.00000000000E+00 -0.00000000000E+00 -0.23243197020E+03  0.23247948462E+03  0.47000000000E+01 0. -1.
         25    2    1    2    0    0 -0.53526480547E+02  0.19529135156E+02 -0.49287738912E+02  0.14595650704E+03  0.12501019759E+03 0.  0.
         25    2    1    2    0    0  0.53526480547E+02 -0.19529135156E+02 -0.99927408224E+02  0.16987242053E+03  0.12499872440E+03 0.  0.
          5    1    3    3  502    0  0.39416997483E+02 -0.85572994456E+00 -0.27294732104E+02  0.48182199669E+02  0.47000000000E+01 0.  1.
         -5    1    3    3    0  502 -0.92943478031E+02  0.20384865101E+02 -0.21993006808E+02  0.97774307372E+02  0.47000000000E+01 0.  1.
          5    1    4    4  503    0  0.64960492308E+02  0.83035490192E+01 -0.11758128164E+03  0.13467094073E+03  0.47000000000E+01 0.  1.
         -5    1    4    4    0  503 -0.11434011761E+02 -0.27832684176E+02  0.17653873412E+02  0.35201479796E+02  0.47000000000E+01 0.  1.
<mgrwt>
<rscale>  0 0.13738014E+03</rscale>
<asrwt>0</asrwt>
<pdfrwt beam="2">  1        5 0.35772621E-01 0.13738275E+03</pdfrwt>
<pdfrwt beam="1">  1       -5 0.12816445E-01 0.13738275E+03</pdfrwt>
<totfact> 0.28508395E+02</totfact>
</mgrwt>
</event>
<event>
 8    1  0.3763376E-007  0.1700094E+03  0.7546771E-02  0.1177844E+00
         -5   -1    0    0    0  501 -0.00000000000E+00  0.00000000000E+00  0.15018319193E+03  0.15025671744E+03  0.47000000000E+01 0.  1.
          5   -1    0    0  501    0  0.00000000000E+00 -0.00000000000E+00 -0.20611414174E+03  0.20616772158E+03  0.47000000000E+01 0.  1.
         25    2    1    2    0    0 -0.24671263935E+02  0.11253292626E+03  0.18190114977E+02  0.17097971690E+03  0.12502340802E+03 0.  0.
         25    2    1    2    0    0  0.24671263935E+02 -0.11253292626E+03 -0.74121064787E+02  0.18544472212E+03  0.12499392770E+03 0.  0.
          5    1    4    4  502    0 -0.77082099652E+01 -0.55452318731E+02  0.28920999049E+02  0.63189321404E+02  0.47000000000E+01 0. -1.
         -5    1    4    4    0  502  0.32379473901E+02 -0.57080607524E+02 -0.10304206384E+03  0.12225540072E+03  0.47000000000E+01 0. -1.
          5    1    3    3  503    0  0.80234292301E+01  0.13084574590E+03  0.22047379932E+02  0.13301564419E+03  0.47000000000E+01 0.  1.
         -5    1    3    3    0  503 -0.32694693165E+02 -0.18312819643E+02 -0.38572649554E+01  0.37964072719E+02  0.47000000000E+01 0.  1.
<mgrwt>
<rscale>  0 0.17000394E+03</rscale>
<asrwt>0</asrwt>
<pdfrwt beam="2">  1        5 0.31719645E-01 0.17000936E+03</pdfrwt>
<pdfrwt beam="1">  1       -5 0.23114884E-01 0.17000936E+03</pdfrwt>
<totfact> 0.13113283E+02</totfact>
</mgrwt>
</event>
<event>
 8    1  0.3763376E-007  0.1526146E+03  0.7546771E-02  0.1197307E+00
          5   -1    0    0  501    0  0.00000000000E+00  0.00000000000E+00  0.43430659754E+03  0.43433202814E+03  0.47000000000E+01 0.  1.
         -5   -1    0    0    0  501 -0.00000000000E+00 -0.00000000000E+00 -0.53622669387E+02  0.53828251618E+02  0.47000000000E+01 0.  1.
         25    2    1    2    0    0  0.93052747924E+01  0.87014087256E+02  0.17806630515E+03  0.23451827945E+03  0.12503269511E+03 0.  0.
         25    2    1    2    0    0 -0.93052747924E+01 -0.87014087256E+02  0.20261762300E+03  0.25364200031E+03  0.12498929413E+03 0.  0.
          5    1    3    3  502    0 -0.15726320665E+02  0.22795195701E+01 -0.14867779948E+02  0.22263293820E+02  0.47000000000E+01 0. -1.
         -5    1    3    3    0  502  0.25031595457E+02  0.84734567686E+02  0.19293408510E+03  0.21225498563E+03  0.47000000000E+01 0. -1.
          5    1    4    4  503    0 -0.40091414083E+02  0.11788111133E+02  0.96886483453E+02  0.10561894585E+03  0.47000000000E+01 0.  1.
         -5    1    4    4    0  503  0.30786139290E+02 -0.98802198390E+02  0.10573113955E+03  0.14802305445E+03  0.47000000000E+01 0.  1.
<mgrwt>
<rscale>  0 0.15260570E+03</rscale>
<asrwt>0</asrwt>
<pdfrwt beam="1">  1        5 0.66834169E-01 0.15261459E+03</pdfrwt>
<pdfrwt beam="2">  1       -5 0.82674118E-02 0.15261459E+03</pdfrwt>
<totfact> 0.16940034E+02</totfact>
</mgrwt>
</event>
<event>
 8    1  0.3763376E-007  0.1827926E+03  0.7546771E-02  0.1165134E+00
          5   -1    0    0  501    0  0.00000000000E+00  0.00000000000E+00  0.72337233743E+02  0.72489760557E+02  0.47000000000E+01 0. -1.
         -5   -1    0    0    0  501 -0.00000000000E+00 -0.00000000000E+00 -0.60508463281E+03  0.60510288618E+03  0.47000000000E+01 0. -1.
         25    2    1    2    0    0 -0.68684305923E+02 -0.11431461930E+03 -0.43158459641E+03  0.46869862325E+03  0.12501107756E+03 0.  0.
         25    2    1    2    0    0  0.68684305923E+02  0.11431461930E+03 -0.10116280265E+03  0.20889402348E+03  0.12496973370E+03 0.  0.
          5    1    4    4  502    0 -0.28377086248E+02 -0.22940272176E+01 -0.28684501523E+02  0.40686757212E+02  0.47000000000E+01 0. -1.
         -5    1    4    4    0  502  0.97061392171E+02  0.11660864651E+03 -0.72478301130E+02  0.16820726627E+03  0.47000000000E+01 0. -1.
          5    1    3    3  503    0 -0.66915034171E+02 -0.14520766503E+02 -0.27107642800E+03  0.27963010259E+03  0.47000000000E+01 0. -1.
         -5    1    3    3    0  503 -0.17692717524E+01 -0.99793852792E+02 -0.16050816841E+03  0.18906852066E+03  0.47000000000E+01 0. -1.
<mgrwt>
<rscale>  0 0.18278553E+03</rscale>
<asrwt>0</asrwt>
<pdfrwt beam="1">  1        5 0.11141943E-01 0.18279260E+03</pdfrwt>
<pdfrwt beam="2">  1       -5 0.93103077E-01 0.18279260E+03</pdfrwt>
<totfact> 0.49218859E+01</totfact>
</mgrwt>
</event>
<event>
 8    1  0.3763376E-007  0.2208191E+03  0.7546771E-02  0.1133276E+00
          5   -1    0    0  501    0  0.00000000000E+00  0.00000000000E+00  0.19668698848E+03  0.19674313568E+03  0.47000000000E+01 0. -1.
         -5   -1    0    0    0  501 -0.00000000000E+00 -0.00000000000E+00 -0.25291921175E+03  0.25296287805E+03  0.47000000000E+01 0. -1.
         25    2    1    2    0    0  0.13629953296E+03  0.12063701424E+03  0.39051438210E+01  0.22085364227E+03  0.12502091532E+03 0.  0.
         25    2    1    2    0    0 -0.13629953296E+03 -0.12063701424E+03 -0.60137367092E+02  0.22885237145E+03  0.12500421236E+03 0.  0.
          5    1    4    4  502    0 -0.95068364699E+02 -0.10531317986E+02 -0.56373441156E+02  0.11112586329E+03  0.47000000000E+01 0. -1.
         -5    1    4    4    0  502 -0.41231168256E+02 -0.11010569626E+03 -0.37639259364E+01  0.11772650816E+03  0.47000000000E+01 0. -1.
          5    1    3    3  503    0  0.13593768286E+03  0.83267264778E+02  0.44402061848E+02  0.16554795106E+03  0.47000000000E+01 0. -1.
         -5    1    3    3    0  503  0.36185009487E+00  0.37369749465E+02 -0.40496918027E+02  0.55305691210E+02  0.47000000000E+01 0. -1.
<mgrwt>
<rscale>  0 0.22081675E+03</rscale>
<asrwt>0</asrwt>
<pdfrwt beam="1">  1        5 0.30267215E-01 0.22081911E+03</pdfrwt>
<pdfrwt beam="2">  1       -5 0.38918326E-01 0.22081911E+03</pdfrwt>
<totfact> 0.55266343E+01</totfact>
</mgrwt>
</event>
<event>
 8    1  0.3763376E-007  0.1707550E+03  0.7546771E-02  0.1177063E+00
          5   -1    0    0  501    0  0.00000000000E+00  0.00000000000E+00  0.44664645625E+03  0.44667118429E+03  0.47000000000E+01 0.  1.
         -5   -1    0    0    0  501 -0.00000000000E+00 -0.00000000000E+00 -0.91619555434E+02  0.91740029093E+02  0.47000000000E+01 0.  1.
         25    2    1    2    0    0  0.16420082843E+02  0.11516346379E+03  0.32998810952E+02  0.17391243999E+03  0.12499749096E+03 0.  0.
         25    2    1    2    0    0 -0.16420082843E+02 -0.11516346379E+03  0.32202808986E+03  0.36449877339E+03  0.12500009053E+03 0.  0.
          5    1    3    3  502    0 -0.27416008512E+02  0.12249824656E+03  0.18785820272E+02  0.12701360154E+03  0.47000000000E+01 0.  1.
         -5    1    3    3    0  502  0.43836091355E+02 -0.73347827703E+01  0.14212990681E+02  0.46898838447E+02  0.47000000000E+01 0.  1.
          5    1    4    4  503    0 -0.27019085388E+02 -0.12053135796E+03  0.16107621903E+03  0.20304058108E+03  0.47000000000E+01 0. -1.
         -5    1    4    4    0  503  0.10599002545E+02  0.53678941679E+01  0.16095187083E+03  0.16145819232E+03  0.47000000000E+01 0. -1.
<mgrwt>
<rscale>  0 0.17075451E+03</rscale>
<asrwt>0</asrwt>
<pdfrwt beam="1">  1        5 0.68726009E-01 0.17075499E+03</pdfrwt>
<pdfrwt beam="2">  1       -5 0.14106486E-01 0.17075499E+03</pdfrwt>
<totfact> 0.64196122E+01</totfact>
</mgrwt>
</event>
<event>
 8    1  0.3763376E-007  0.1251598E+03  0.7546771E-02  0.1234823E+00
          5   -1    0    0  501    0  0.00000000000E+00  0.00000000000E+00  0.72849932952E+03  0.72851449067E+03  0.47000000000E+01 0.  1.
         -5   -1    0    0    0  501 -0.00000000000E+00 -0.00000000000E+00 -0.21384705770E+02  0.21895105409E+02  0.47000000000E+01 0.  1.
         25    2    1    2    0    0  0.32195521972E+01  0.54939896355E+01  0.32193960238E+03  0.34540987974E+03  0.12498931155E+03 0.  0.
         25    2    1    2    0    0 -0.32195521972E+01 -0.54939896355E+01  0.38517502137E+03  0.40499971633E+03  0.12499769481E+03 0.  0.
          5    1    3    3  502    0  0.12070993597E+02  0.47330745486E+02  0.28350756033E+03  0.28772301805E+03  0.47000000000E+01 0. -1.
         -5    1    3    3    0  502 -0.88514413998E+01 -0.41836755851E+02  0.38432042055E+02  0.57686861689E+02  0.47000000000E+01 0. -1.
          5    1    4    4  503    0  0.23093199169E+02  0.28097173186E+02  0.30391597681E+02  0.47628627930E+02  0.47000000000E+01 0.  1.
         -5    1    4    4    0  503 -0.26312751366E+02 -0.33591162822E+02  0.35478342369E+03  0.35737108840E+03  0.47000000000E+01 0.  1.
<mgrwt>
<rscale>  0 0.12515770E+03</rscale>
<asrwt>0</asrwt>
<pdfrwt beam="1">  1        5 0.11211724E+00 0.12515979E+03</pdfrwt>
<pdfrwt beam="2">  1       -5 0.33303827E-02 0.12515979E+03</pdfrwt>
<totfact> 0.21327579E+02</totfact>
</mgrwt>
</event>
<event>
 8    1  0.3763376E-007  0.1458272E+03  0.7546771E-02  0.1205696E+00
         -5   -1    0    0    0  501 -0.00000000000E+00  0.00000000000E+00  0.98348005656E+02  0.98460246884E+02  0.47000000000E+01 0. -1.
          5   -1    0    0  501    0  0.00000000000E+00 -0.00000000000E+00 -0.21627506969E+03  0.21632613289E+03  0.47000000000E+01 0. -1.
         25    2    1    2    0    0  0.25631834316E+02 -0.70597881322E+02 -0.53015579090E+02  0.15516470105E+03  0.12499752417E+03 0.  0.
         25    2    1    2    0    0 -0.25631834316E+02  0.70597881322E+02 -0.64911484945E+02  0.15962167872E+03  0.12499811063E+03 0.  0.
          5    1    4    4  502    0 -0.16765689275E+02  0.13853213732E+01  0.34151633257E+02  0.38359242775E+02  0.47000000000E+01 0. -1.
         -5    1    4    4    0  502 -0.88661450407E+01  0.69212559949E+02 -0.99063118202E+02  0.12126243594E+03  0.47000000000E+01 0. -1.
          5    1    3    3  503    0  0.13018732153E+00  0.30448681536E+02 -0.39313660951E+02  0.49947903794E+02  0.47000000000E+01 0. -1.
         -5    1    3    3    0  503  0.25501646994E+02 -0.10104656286E+03 -0.13701918138E+02  0.10521679726E+03  0.47000000000E+01 0. -1.
<mgrwt>
<rscale>  0 0.14582710E+03</rscale>
<asrwt>0</asrwt>
<pdfrwt beam="2">  1        5 0.33285649E-01 0.14582722E+03</pdfrwt>
<pdfrwt beam="1">  1       -5 0.15143024E-01 0.14582722E+03</pdfrwt>
<totfact> 0.24893865E+02</totfact>
</mgrwt>
</event>
<event>
 8    1  0.3763376E-007  0.1519558E+03  0.7546771E-02  0.1198091E+00
          5   -1    0    0  501    0  0.00000000000E+00  0.00000000000E+00  0.10218666913E+04  0.10218774999E+04  0.47000000000E+01 0. -1.
         -5   -1    0    0    0  501 -0.00000000000E+00 -0.00000000000E+00 -0.22429074084E+02  0.22916224913E+02  0.47000000000E+01 0. -1.
         25    2    1    2    0    0 -0.71579744121E+02 -0.48398660469E+02  0.46725461569E+03  0.49134250239E+03  0.12499795466E+03 0.  0.
         25    2    1    2    0    0  0.71579744121E+02  0.48398660469E+02  0.53218300156E+03  0.55345122245E+03  0.12499367334E+03 0.  0.
          5    1    4    4  502    0  0.96374906777E+02  0.12635908464E+02  0.25696361524E+03  0.27477295791E+03  0.47000000000E+01 0.  1.
         -5    1    4    4    0  502 -0.24795162655E+02  0.35762752005E+02  0.27521938632E+03  0.27867826454E+03  0.47000000000E+01 0.  1.
          5    1    3    3  503    0 -0.65563301027E+02 -0.14642128619E+02  0.44528646167E+03  0.45034993208E+03  0.47000000000E+01 0. -1.
         -5    1    3    3    0  503 -0.60164430939E+01 -0.33756531850E+02  0.21968154014E+02  0.40992570313E+02  0.47000000000E+01 0. -1.
<mgrwt>
<rscale>  0 0.15195496E+03</rscale>
<asrwt>0</asrwt>
<pdfrwt beam="1">  1        5 0.15724856E+00 0.15195584E+03</pdfrwt>
<pdfrwt beam="2">  1       -5 0.34889315E-02 0.15195584E+03</pdfrwt>
<totfact> 0.86556078E+01</totfact>
</mgrwt>
</event>
<event>
 8    1  0.3763376E-007  0.1268394E+03  0.7546771E-02  0.1232224E+00
         -5   -1    0    0    0  501 -0.00000000000E+00  0.00000000000E+00  0.57446404078E+03  0.57448326707E+03  0.47000000000E+01 0. -1.
          5   -1    0    0  501    0  0.00000000000E+00 -0.00000000000E+00 -0.28329466119E+02  0.28716696374E+02  0.47000000000E+01 0. -1.
         25    2    1    2    0    0  0.11784537354E+02 -0.17981354855E+02  0.31448265368E+03  0.33909816680E+03  0.12500409120E+03 0.  0.
         25    2    1    2    0    0 -0.11784537354E+02  0.17981354855E+02  0.23165192098E+03  0.26410179665E+03  0.12499976823E+03 0.  0.
          5    1    4    4  502    0 -0.46897099227E+01 -0.51387556990E+02  0.63187063058E+02  0.81715171972E+02  0.47000000000E+01 0. -1.
         -5    1    4    4    0  502 -0.70948274312E+01  0.69368911845E+02  0.16846485792E+03  0.18238662468E+03  0.47000000000E+01 0. -1.
          5    1    3    3  503    0  0.29100375483E+02  0.46264783468E+02  0.94979814007E+02  0.10968371398E+03  0.47000000000E+01 0. -1.
         -5    1    3    3    0  503 -0.17315838129E+02 -0.64246138323E+02  0.21950283967E+03  0.22941445282E+03  0.47000000000E+01 0. -1.
<mgrwt>
<rscale>  0 0.12683831E+03</rscale>
<asrwt>0</asrwt>
<pdfrwt beam="2">  1        5 0.43896457E-02 0.12683938E+03</pdfrwt>
<pdfrwt beam="1">  1       -5 0.88410342E-01 0.12683938E+03</pdfrwt>
<totfact> 0.24290329E+02</totfact>
</mgrwt>
</event>
<event>
 8    1  0.3763376E-007  0.1329289E+03  0.7546771E-02  0.1223181E+00
          5   -1    0    0  501    0  0.00000000000E+00  0.00000000000E+00  0.73592566045E+02  0.73742496412E+02  0.47000000000E+01 0.  1.
         -5   -1    0    0    0  501 -0.00000000000E+00 -0.00000000000E+00 -0.28401513979E+03  0.28405402590E+03  0.47000000000E+01 0.  1.
         25    2    1    2    0    0  0.45146114440E+02 -0.24869416627E+01 -0.17590050731E+03  0.22047923514E+03  0.12500299247E+03 0.  0.
         25    2    1    2    0    0 -0.45146114440E+02  0.24869416627E+01 -0.34522066431E+02  0.13731728717E+03  0.12497962937E+03 0.  0.
          5    1    3    3  502    0  0.22914301139E+02 -0.62090300694E+02 -0.11207605785E+03  0.13024363086E+03  0.47000000000E+01 0.  1.
         -5    1    3    3    0  502  0.22231813301E+02  0.59603359031E+02 -0.63824449466E+02  0.90235604281E+02  0.47000000000E+01 0.  1.
          5    1    4    4  503    0  0.20069031979E+02 -0.17990949134E+02  0.31806950071E+02  0.41954884914E+02  0.47000000000E+01 0.  1.
         -5    1    4    4    0  503 -0.65215146419E+02  0.20477890797E+02 -0.66329016501E+02  0.95362402256E+02  0.47000000000E+01 0.  1.
<mgrwt>
<rscale>  0 0.13292345E+03</rscale>
<asrwt>0</asrwt>
<pdfrwt beam="1">  1        5 0.11336458E-01 0.13292895E+03</pdfrwt>
<pdfrwt beam="2">  1       -5 0.43709160E-01 0.13292895E+03</pdfrwt>
<totfact> 0.23277989E+02</totfact>
</mgrwt>
</event>
<event>
 8    1  0.3763376E-007  0.1259323E+03  0.7546771E-02  0.1233625E+00
         -5   -1    0    0    0  501 -0.00000000000E+00  0.00000000000E+00  0.17527716555E+02  0.18146923917E+02  0.47000000000E+01 0. -1.
          5   -1    0    0  501    0  0.00000000000E+00 -0.00000000000E+00 -0.89876401800E+03  0.89877630701E+03  0.47000000000E+01 0. -1.
         25    2    1    2    0    0  0.14877939196E+02 -0.35595490635E+01 -0.39134662135E+03  0.41110962264E+03  0.12499968129E+03 0.  0.
         25    2    1    2    0    0 -0.14877939196E+02  0.35595490635E+01 -0.48988968009E+03  0.50581360829E+03  0.12498593602E+03 0.  0.
          5    1    4    4  502    0 -0.54584089733E+02  0.51150798316E+01 -0.43170864334E+03  0.43520113698E+03  0.47000000000E+01 0. -1.
         -5    1    4    4    0  502  0.39706150537E+02 -0.15555307681E+01 -0.58181036750E+02  0.70612471305E+02  0.47000000000E+01 0. -1.
          5    1    3    3  503    0  0.47998735738E+02 -0.49386205298E+02 -0.20424788729E+03  0.21559722950E+03  0.47000000000E+01 0. -1.
         -5    1    3    3    0  503 -0.33120796542E+02  0.45826656235E+02 -0.18709873406E+03  0.19551239314E+03  0.47000000000E+01 0. -1.
<mgrwt>
<rscale>  0 0.12592889E+03</rscale>
<asrwt>0</asrwt>
<pdfrwt beam="2">  1        5 0.13831993E+00 0.12593230E+03</pdfrwt>
<pdfrwt beam="1">  1       -5 0.27451491E-02 0.12593230E+03</pdfrwt>
<totfact> 0.17030957E+02</totfact>
</mgrwt>
</event>
<event>
 8    1  0.3763376E-007  0.1386325E+03  0.7546771E-02  0.1215200E+00
         -5   -1    0    0    0  501 -0.00000000000E+00  0.00000000000E+00  0.31362842727E+02  0.31713055733E+02  0.47000000000E+01 0.  1.
          5   -1    0    0  501    0  0.00000000000E+00 -0.00000000000E+00 -0.61377217564E+03  0.61379017066E+03  0.47000000000E+01 0.  1.
         25    2    1    2    0    0  0.31132430646E+02 -0.51242734060E+02 -0.32022184012E+03  0.34892059362E+03  0.12493401353E+03 0.  0.
         25    2    1    2    0    0 -0.31132430646E+02  0.51242734060E+02 -0.26218749280E+03  0.29658263276E+03  0.12499572251E+03 0.  0.
          5    1    4    4  502    0 -0.78825253903E+02  0.37330231177E+02 -0.14600929073E+03  0.17014044138E+03  0.47000000000E+01 0.  1.
         -5    1    4    4    0  502  0.47692823257E+02  0.13912502883E+02 -0.11617820207E+03  0.12644219139E+03  0.47000000000E+01 0.  1.
          5    1    3    3  503    0  0.65355738804E+02 -0.21328645851E+02 -0.27898313608E+03  0.28736729797E+03  0.47000000000E+01 0. -1.
         -5    1    3    3    0  503 -0.34223308158E+02 -0.29914088210E+02 -0.41238704037E+02  0.61553295650E+02  0.47000000000E+01 0. -1.
<mgrwt>
<rscale>  0 0.13861861E+03</rscale>
<asrwt>0</asrwt>
<pdfrwt beam="2">  1        5 0.94454803E-01 0.13863252E+03</pdfrwt>
<pdfrwt beam="1">  1       -5 0.48533769E-02 0.13863252E+03</pdfrwt>
<totfact> 0.18125683E+02</totfact>
</mgrwt>
</event>
<event>
 8    1  0.3763376E-007  0.1792973E+03  0.7546771E-02  0.1168485E+00
          5   -1    0    0  501    0  0.00000000000E+00  0.00000000000E+00  0.11129448354E+04  0.11129547595E+04  0.47000000000E+01 0. -1.
         -5   -1    0    0    0  501 -0.00000000000E+00 -0.00000000000E+00 -0.31806441588E+02  0.32151823067E+02  0.47000000000E+01 0. -1.
         25    2    1    2    0    0 -0.69617639944E+02  0.10805403956E+03  0.36220488201E+03  0.40415252368E+03  0.12499837835E+03 0.  0.
         25    2    1    2    0    0  0.69617639944E+02 -0.10805403956E+03  0.71893351181E+03  0.74095405887E+03  0.12500092678E+03 0.  0.
          5    1    4    4  502    0  0.10142711642E+03 -0.84667898572E+02  0.44737748010E+03  0.46650274672E+03  0.47000000000E+01 0.  1.
         -5    1    4    4    0  502 -0.31809476478E+02 -0.23386140989E+02  0.27155603171E+03  0.27445131215E+03  0.47000000000E+01 0.  1.
          5    1    3    3  503    0  0.12986032199E+02 -0.21184832567E+02  0.63131483805E+02  0.68008149589E+02  0.47000000000E+01 0.  1.
         -5    1    3    3    0  503 -0.82603672143E+02  0.12923887213E+03  0.29907339820E+03  0.33614437409E+03  0.47000000000E+01 0.  1.
<mgrwt>
<rscale>  0 0.17929686E+03</rscale>
<asrwt>0</asrwt>
<pdfrwt beam="1">  1        5 0.17124962E+00 0.17929730E+03</pdfrwt>
<pdfrwt beam="2">  1       -5 0.49206296E-02 0.17929730E+03</pdfrwt>
<totfact> 0.40316110E+01</totfact>
</mgrwt>
</event>
<event>
 8    1  0.3763376E-007  0.1401333E+03  0.7546771E-02  0.1213151E+00
          5   -1    0    0  501    0  0.00000000000E+00  0.00000000000E+00  0.70162269668E+02  0.70319514255E+02  0.47000000000E+01 0. -1.
         -5   -1    0    0    0  501 -0.00000000000E+00 -0.00000000000E+00 -0.28218047573E+03  0.28221961463E+03  0.47000000000E+01 0. -1.
         25    2    1    2    0    0 -0.69738061229E+01  0.62950780836E+02 -0.12353617844E+03  0.18680921673E+03  0.12500024517E+03 0.  0.
         25    2    1    2    0    0  0.69738061229E+01 -0.62950780836E+02 -0.88482027622E+02  0.16572991216E+03  0.12500359912E+03 0.  0.
          5    1    4    4  502    0  0.42557795338E+02  0.10548021294E+02  0.15068587562E+01  0.44122412905E+02  0.47000000000E+01 0.  1.
         -5    1    4    4    0  502 -0.35583989215E+02 -0.73498802130E+02 -0.89988886378E+02  0.12160749925E+03  0.47000000000E+01 0.  1.
          5    1    3    3  503    0 -0.44983493268E+02  0.48395660654E+01 -0.54250920315E+00  0.45489783276E+02  0.47000000000E+01 0. -1.
         -5    1    3    3    0  503  0.38009687145E+02  0.58111214771E+02 -0.12299366924E+03  0.14131943345E+03  0.47000000000E+01 0. -1.
<mgrwt>
<rscale>  0 0.14013253E+03</rscale>
<asrwt>0</asrwt>
<pdfrwt beam="1">  1        5 0.10809302E-01 0.14013327E+03</pdfrwt>
<pdfrwt beam="2">  1       -5 0.43427487E-01 0.14013327E+03</pdfrwt>
<totfact> 0.26116888E+02</totfact>
</mgrwt>
</event>
<event>
 8    1  0.3763376E-007  0.1322676E+03  0.7546771E-02  0.1224132E+00
         -5   -1    0    0    0  501 -0.00000000000E+00  0.00000000000E+00  0.16587975729E+03  0.16594632831E+03  0.47000000000E+01 0. -1.
          5   -1    0    0  501    0  0.00000000000E+00 -0.00000000000E+00 -0.10532053172E+03  0.10542534990E+03  0.47000000000E+01 0. -1.
         25    2    1    2    0    0  0.92512251946E+01 -0.42213592801E+02  0.30363582292E+02  0.13570801343E+03  0.12500858048E+03 0.  0.
         25    2    1    2    0    0 -0.92512251946E+01  0.42213592801E+02  0.30195643278E+02  0.13566366479E+03  0.12500112194E+03 0.  0.
          5    1    3    3  502    0 -0.52312504450E+01 -0.84383532478E+02  0.32801236282E+02  0.90807255416E+02  0.47000000000E+01 0. -1.
         -5    1    3    3    0  502  0.14482475640E+02  0.42169939677E+02 -0.24376539901E+01  0.44900758011E+02  0.47000000000E+01 0. -1.
          5    1    4    4  503    0  0.23164094933E+02  0.67774357709E+02  0.52102543572E+02  0.88694441222E+02  0.47000000000E+01 0. -1.
         -5    1    4    4    0  503 -0.32415320128E+02 -0.25560764908E+02 -0.21906900295E+02  0.46969223564E+02  0.47000000000E+01 0. -1.
<mgrwt>
<rscale>  0 0.13226584E+03</rscale>
<asrwt>0</asrwt>
<pdfrwt beam="2">  1        5 0.16216342E-01 0.13226760E+03</pdfrwt>
<pdfrwt beam="1">  1       -5 0.25533146E-01 0.13226760E+03</pdfrwt>
<totfact> 0.35700924E+02</totfact>
</mgrwt>
</event>
<event>
 8    1  0.3763376E-007  0.1308304E+03  0.7546771E-02  0.1226233E+00
         -5   -1    0    0    0  501 -0.00000000000E+00  0.00000000000E+00  0.86372272397E+02  0.86500054561E+02  0.47000000000E+01 0. -1.
          5   -1    0    0  501    0  0.00000000000E+00 -0.00000000000E+00 -0.19895415221E+03  0.19900965977E+03  0.47000000000E+01 0. -1.
         25    2    1    2    0    0 -0.20499330018E+02 -0.32705091818E+02 -0.45661847994E+02  0.13855771866E+03  0.12499356574E+03 0.  0.
         25    2    1    2    0    0  0.20499330018E+02  0.32705091818E+02 -0.66920031824E+02  0.14695199567E+03  0.12500701105E+03 0.  0.
          5    1    3    3  502    0  0.17829043235E+02  0.42225962076E+02 -0.21647144360E+02  0.50907715671E+02  0.47000000000E+01 0.  1.
         -5    1    3    3    0  502 -0.38328373253E+02 -0.74931053894E+02 -0.24014703634E+02  0.87650002992E+02  0.47000000000E+01 0.  1.
          5    1    4    4  503    0  0.54506686961E+02 -0.85861277166E+01  0.67497656163E+01  0.55788438304E+02  0.47000000000E+01 0. -1.
         -5    1    4    4    0  503 -0.34007356943E+02  0.41291219535E+02 -0.73669797440E+02  0.91163557367E+02  0.47000000000E+01 0. -1.
<mgrwt>
<rscale>  0 0.13082721E+03</rscale>
<asrwt>0</asrwt>
<pdfrwt beam="2">  1        5 0.30622430E-01 0.13083042E+03</pdfrwt>
<pdfrwt beam="1">  1       -5 0.13302141E-01 0.13083042E+03</pdfrwt>
<totfact> 0.35720629E+02</totfact>
</mgrwt>
</event>
<event>
 8    1  0.3763376E-007  0.1444599E+03  0.7546771E-02  0.1207454E+00
         -5   -1    0    0    0  501 -0.00000000000E+00  0.00000000000E+00  0.11008875888E+03  0.11018904134E+03  0.47000000000E+01 0.  1.
          5   -1    0    0  501    0  0.00000000000E+00 -0.00000000000E+00 -0.20163219848E+03  0.20168696900E+03  0.47000000000E+01 0.  1.
         25    2    1    2    0    0 -0.81323711584E+01  0.71927387679E+02 -0.72691088093E+01  0.14463120809E+03  0.12500264738E+03 0.  0.
         25    2    1    2    0    0  0.81323711584E+01 -0.71927387679E+02 -0.84274330799E+02  0.16724480225E+03  0.12501590495E+03 0.  0.
          5    1    4    4  502    0  0.45810940292E+02  0.56335514636E+01 -0.63117234925E+02  0.78334248558E+02  0.47000000000E+01 0. -1.
         -5    1    4    4    0  502 -0.37678569134E+02 -0.77560939142E+02 -0.21157095874E+02  0.88910553695E+02  0.47000000000E+01 0. -1.
          5    1    3    3  503    0  0.27944050758E+02  0.36643380941E+02 -0.57120179382E+02  0.73541908000E+02  0.47000000000E+01 0. -1.
         -5    1    3    3    0  503 -0.36076421917E+02  0.35284006738E+02  0.49851070573E+02  0.71089300089E+02  0.47000000000E+01 0. -1.
<mgrwt>
<rscale>  0 0.14445703E+03</rscale>
<asrwt>0</asrwt>
<pdfrwt beam="2">  1        5 0.31032265E-01 0.14445989E+03</pdfrwt>
<pdfrwt beam="1">  1       -5 0.16948659E-01 0.14445989E+03</pdfrwt>
<totfact> 0.23219471E+02</totfact>
</mgrwt>
</event>
<event>
 8    1  0.3763376E-007  0.1441122E+03  0.7546771E-02  0.1207903E+00
          5   -1    0    0  501    0  0.00000000000E+00  0.00000000000E+00  0.17961116457E+03  0.17967264800E+03  0.47000000000E+01 0. -1.
         -5   -1    0    0    0  501 -0.00000000000E+00 -0.00000000000E+00 -0.14177605828E+03  0.14185394143E+03  0.47000000000E+01 0. -1.
         25    2    1    2    0    0 -0.36848644811E+02  0.61520197819E+02 -0.50264495359E+02  0.15262647339E+03  0.12500305405E+03 0.  0.
         25    2    1    2    0    0  0.36848644811E+02 -0.61520197819E+02  0.88099601658E+02  0.16890011604E+03  0.12499260788E+03 0.  0.
          5    1    3    3  502    0  0.29425542385E+02  0.45834562057E+02  0.16533944580E+02  0.57115067600E+02  0.47000000000E+01 0. -1.
         -5    1    3    3    0  502 -0.66274187196E+02  0.15685635761E+02 -0.66798439939E+02  0.95511405790E+02  0.47000000000E+01 0. -1.
          5    1    4    4  503    0 -0.13149007798E+02 -0.11055972861E+02  0.95662307204E+02  0.97306207210E+02  0.47000000000E+01 0.  1.
         -5    1    4    4    0  503  0.49997652609E+02 -0.50464224957E+02 -0.75627055467E+01  0.71593908834E+02  0.47000000000E+01 0.  1.
<mgrwt>
<rscale>  0 0.14410992E+03</rscale>
<asrwt>0</asrwt>
<pdfrwt beam="1">  1        5 0.27643207E-01 0.14411218E+03</pdfrwt>
<pdfrwt beam="2">  1       -5 0.21822422E-01 0.14411218E+03</pdfrwt>
<totfact> 0.18183556E+02</totfact>
</mgrwt>
</event>
<event>
 8    1  0.3763376E-007  0.1250605E+03  0.7546771E-02  0.1234976E+00
          5   -1    0    0  501    0  0.00000000000E+00  0.00000000000E+00  0.19997298988E+02  0.20542199659E+02  0.47000000000E+01 0. -1.
         -5   -1    0    0    0  501 -0.00000000000E+00 -0.00000000000E+00 -0.80943138201E+03  0.80944502728E+03  0.47000000000E+01 0. -1.
         25    2    1    2    0    0 -0.28054444269E+01  0.27065939881E+01 -0.48507549804E+03  0.50093666395E+03  0.12499642521E+03 0.  0.
         25    2    1    2    0    0  0.28054444269E+01 -0.27065939881E+01 -0.30435858498E+03  0.32905056299E+03  0.12499971433E+03 0.  0.
          5    1    4    4  502    0  0.49496980521E+02 -0.10864830215E+02 -0.25660503705E+03  0.26160319313E+03  0.47000000000E+01 0.  1.
         -5    1    4    4    0  502 -0.46691536094E+02  0.81582362273E+01 -0.47753547931E+02  0.67447369861E+02  0.47000000000E+01 0.  1.
          5    1    3    3  503    0  0.41795436917E+02 -0.13717379253E+02 -0.40710070269E+03  0.40949737139E+03  0.47000000000E+01 0. -1.
         -5    1    3    3    0  503 -0.44600881344E+02  0.16423973241E+02 -0.77974795351E+02  0.91439292559E+02  0.47000000000E+01 0. -1.
<mgrwt>
<rscale>  0 0.12505966E+03</rscale>
<asrwt>0</asrwt>
<pdfrwt beam="1">  1        5 0.31194732E-02 0.12506048E+03</pdfrwt>
<pdfrwt beam="2">  1       -5 0.12457084E+00 0.12506048E+03</pdfrwt>
<totfact> 0.18162639E+02</totfact>
</mgrwt>
</event>
<event>
 8    1  0.3763376E-007  0.1835444E+03  0.7546771E-02  0.1164419E+00
          5   -1    0    0  501    0  0.00000000000E+00  0.00000000000E+00  0.23914584788E+02  0.24372061168E+02  0.47000000000E+01 0. -1.
         -5   -1    0    0    0  501 -0.00000000000E+00 -0.00000000000E+00 -0.13948663072E+04  0.13948742255E+04  0.47000000000E+01 0. -1.
         25    2    1    2    0    0  0.13163224310E+03  0.27144027529E+02 -0.69072031576E+03  0.71468732622E+03  0.12497829416E+03 0.  0.
         25    2    1    2    0    0 -0.13163224310E+03 -0.27144027529E+02 -0.68023140663E+03  0.70455896041E+03  0.12499886593E+03 0.  0.
          5    1    3    3  502    0  0.73766061849E+02  0.76215670958E+02 -0.35914060012E+03  0.37450543525E+03  0.47000000000E+01 0.  1.
         -5    1    3    3    0  502  0.57866181255E+02 -0.49071643430E+02 -0.33157971564E+03  0.34018189097E+03  0.47000000000E+01 0.  1.
          5    1    4    4  503    0 -0.19017396932E+02  0.25530035547E+01 -0.64672425750E+01  0.20786881434E+02  0.47000000000E+01 0. -1.
         -5    1    4    4    0  503 -0.11261484617E+03 -0.29697031083E+02 -0.67376416405E+03  0.68377207898E+03  0.47000000000E+01 0. -1.
<mgrwt>
<rscale>  0 0.18354094E+03</rscale>
<asrwt>0</asrwt>
<pdfrwt beam="1">  1        5 0.37149676E-02 0.18354444E+03</pdfrwt>
<pdfrwt beam="2">  1       -5 0.21463055E+00 0.18354444E+03</pdfrwt>
<totfact> 0.32223214E+01</totfact>
</mgrwt>
</event>
<event>
 8    1  0.3763376E-007  0.1308067E+03  0.7546771E-02  0.1226264E+00
         -5   -1    0    0    0  501 -0.00000000000E+00  0.00000000000E+00  0.48559521525E+02  0.48786444129E+02  0.47000000000E+01 0. -1.
          5   -1    0    0  501    0  0.00000000000E+00 -0.00000000000E+00 -0.35839461959E+03  0.35842543625E+03  0.47000000000E+01 0. -1.
         25    2    1    2    0    0 -0.50381996037E+01  0.38214242867E+02 -0.12626444625E+03  0.18180513650E+03  0.12499874182E+03 0.  0.
         25    2    1    2    0    0  0.50381996037E+01 -0.38214242867E+02 -0.18357065181E+03  0.22540674387E+03  0.12499721663E+03 0.  0.
          5    1    3    3  502    0 -0.30426652674E+02  0.70452830629E+02 -0.11613153215E+03  0.13927672202E+03  0.47000000000E+01 0. -1.
         -5    1    3    3    0  502  0.25388453070E+02 -0.32238587762E+02 -0.10132914100E+02  0.42528414482E+02  0.47000000000E+01 0. -1.
          5    1    4    4  503    0  0.14726606020E+02 -0.58125209174E+02 -0.24845095593E+02  0.65075199895E+02  0.47000000000E+01 0.  1.
         -5    1    4    4    0  503 -0.96884064162E+01  0.19910966306E+02 -0.15872555622E+03  0.16033154398E+03  0.47000000000E+01 0.  1.
<mgrwt>
<rscale>  0 0.13080635E+03</rscale>
<asrwt>0</asrwt>
<pdfrwt beam="2">  1        5 0.55157458E-01 0.13080672E+03</pdfrwt>
<pdfrwt beam="1">  1       -5 0.74905220E-02 0.13080672E+03</pdfrwt>
<totfact> 0.29034549E+02</totfact>
</mgrwt>
</event>
<event>
 8    1  0.3763376E-007  0.1345547E+03  0.7546771E-02  0.1220853E+00
          5   -1    0    0  501    0  0.00000000000E+00  0.00000000000E+00  0.20651761271E+03  0.20657108791E+03  0.47000000000E+01 0. -1.
         -5   -1    0    0    0  501 -0.00000000000E+00 -0.00000000000E+00 -0.87594116203E+02  0.87720118521E+02  0.47000000000E+01 0. -1.
         25    2    1    2    0    0  0.23568910582E+02 -0.43872277524E+02  0.55626478732E+02  0.14559194937E+03  0.12498976080E+03 0.  0.
         25    2    1    2    0    0 -0.23568910582E+02  0.43872277524E+02  0.63297017780E+02  0.14869925706E+03  0.12499874523E+03 0.  0.
          5    1    4    4  502    0  0.33168501100E+01  0.55956498559E+02  0.91646672293E+02  0.10753294271E+03  0.47000000000E+01 0.  1.
         -5    1    4    4    0  502 -0.26885760692E+02 -0.12084221035E+02 -0.28349654514E+02  0.41166314349E+02  0.47000000000E+01 0.  1.
          5    1    3    3  503    0 -0.11577555129E+02  0.31469319405E+01 -0.35121082364E+02  0.37410204354E+02  0.47000000000E+01 0.  1.
         -5    1    3    3    0  503  0.35146465712E+02 -0.47019209464E+02  0.90747561096E+02  0.10818174502E+03  0.47000000000E+01 0.  1.
<mgrwt>
<rscale>  0 0.13455257E+03</rscale>
<asrwt>0</asrwt>
<pdfrwt beam="1">  1        5 0.31785746E-01 0.13455466E+03</pdfrwt>
<pdfrwt beam="2">  1       -5 0.13489824E-01 0.13455466E+03</pdfrwt>
<totfact> 0.32692042E+02</totfact>
</mgrwt>
</event>
<event>
 8    1  0.3763376E-007  0.1312646E+03  0.7546771E-02  0.1225594E+00
         -5   -1    0    0    0  501 -0.00000000000E+00  0.00000000000E+00  0.12373752233E+03  0.12382675168E+03  0.47000000000E+01 0.  1.
          5   -1    0    0  501    0  0.00000000000E+00 -0.00000000000E+00 -0.13918375147E+03  0.13926308438E+03  0.47000000000E+01 0.  1.
         25    2    1    2    0    0 -0.17073842213E+02 -0.36256291159E+02 -0.38435544803E+01  0.13132087933E+03  0.12499746278E+03 0.  0.
         25    2    1    2    0    0  0.17073842213E+02  0.36256291159E+02 -0.11602674657E+02  0.13176895673E+03  0.12498960422E+03 0.  0.
          5    1    4    4  502    0 -0.38538823654E+02 -0.26701696695E+02 -0.45735119897E+01  0.47341615382E+02  0.47000000000E+01 0. -1.
         -5    1    4    4    0  502  0.55612665868E+02  0.62957987854E+02 -0.70291626677E+01  0.84427341350E+02  0.47000000000E+01 0. -1.
          5    1    3    3  503    0  0.49303894876E+02 -0.17855693644E+02  0.22726502702E+02  0.57343559102E+02  0.47000000000E+01 0. -1.
         -5    1    3    3    0  503 -0.66377737089E+02 -0.18400597515E+02 -0.26570057182E+02  0.73977320231E+02  0.47000000000E+01 0. -1.
<mgrwt>
<rscale>  0 0.13126275E+03</rscale>
<asrwt>0</asrwt>
<pdfrwt beam="2">  1        5 0.21425851E-01 0.13126462E+03</pdfrwt>
<pdfrwt beam="1">  1       -5 0.19049508E-01 0.13126462E+03</pdfrwt>
<totfact> 0.36945520E+02</totfact>
</mgrwt>
</event>
<event>
 8    1  0.3763376E-007  0.2070513E+03  0.7546771E-02  0.1143923E+00
          5   -1    0    0  501    0  0.00000000000E+00  0.00000000000E+00  0.67017410112E+02  0.67182015883E+02  0.47000000000E+01 0. -1.
         -5   -1    0    0    0  501 -0.00000000000E+00 -0.00000000000E+00 -0.82626134982E+03  0.82627471715E+03  0.47000000000E+01 0. -1.
         25    2    1    2    0    0  0.89842695099E+02  0.13846611761E+03 -0.59242592135E+03  0.62756570938E+03  0.12500268682E+03 0.  0.
         25    2    1    2    0    0 -0.89842695099E+02 -0.13846611761E+03 -0.16681801836E+03  0.26589102365E+03  0.12500083849E+03 0.  0.
          5    1    4    4  502    0 -0.47347516566E+02  0.12885719150E+02 -0.47741297812E+02  0.68623251160E+02  0.47000000000E+01 0. -1.
         -5    1    4    4    0  502 -0.42495178532E+02 -0.15135183676E+03 -0.11907672054E+03  0.19726777249E+03  0.47000000000E+01 0. -1.
          5    1    3    3  503    0  0.85424866457E+02  0.14399300115E+03 -0.38365813942E+03  0.41862519052E+03  0.47000000000E+01 0. -1.
         -5    1    3    3    0  503  0.44178286420E+01 -0.55268835398E+01 -0.20876778192E+03  0.20894051886E+03  0.47000000000E+01 0. -1.
<mgrwt>
<rscale>  0 0.20705104E+03</rscale>
<asrwt>0</asrwt>
<pdfrwt beam="1">  1        5 0.10324062E-01 0.20705132E+03</pdfrwt>
<pdfrwt beam="2">  1       -5 0.12713081E+00 0.20705132E+03</pdfrwt>
<totfact> 0.26631005E+01</totfact>
</mgrwt>
</event>
<event>
 8    1  0.3763376E-007  0.1323359E+03  0.7546771E-02  0.1224031E+00
          5   -1    0    0  501    0  0.00000000000E+00  0.00000000000E+00  0.27055145121E+03  0.27059227216E+03  0.47000000000E+01 0.  1.
         -5   -1    0    0    0  501 -0.00000000000E+00 -0.00000000000E+00 -0.73267217559E+02  0.73417812341E+02  0.47000000000E+01 0.  1.
         25    2    1    2    0    0  0.41943916651E+02  0.11337247127E+02  0.39558059015E+02  0.13812094027E+03  0.12499891517E+03 0.  0.
         25    2    1    2    0    0 -0.41943916651E+02 -0.11337247127E+02  0.15772617463E+03  0.20588914422E+03  0.12499987291E+03 0.  0.
          5    1    4    4  502    0 -0.35831283312E+02 -0.63456476664E+02  0.12215650501E+03  0.14231973514E+03  0.47000000000E+01 0.  1.
         -5    1    4    4    0  502 -0.61126333391E+01  0.52119229537E+02  0.35569669622E+02  0.63569409081E+02  0.47000000000E+01 0.  1.
          5    1    3    3  503    0  0.12640793161E+02 -0.43463143593E+02  0.57443311088E+02  0.73284776669E+02  0.47000000000E+01 0.  1.
         -5    1    3    3    0  503  0.29303123490E+02  0.54800390720E+02 -0.17885252073E+02  0.64836163605E+02  0.47000000000E+01 0.  1.
<mgrwt>
<rscale>  0 0.13233569E+03</rscale>
<asrwt>0</asrwt>
<pdfrwt beam="1">  1        5 0.41638024E-01 0.13233591E+03</pdfrwt>
<pdfrwt beam="2">  1       -5 0.11286604E-01 0.13233591E+03</pdfrwt>
<totfact> 0.25891855E+02</totfact>
</mgrwt>
</event>
<event>
 8    1  0.3763376E-007  0.1416058E+03  0.7546771E-02  0.1211187E+00
          5   -1    0    0  501    0  0.00000000000E+00  0.00000000000E+00  0.18225176181E+03  0.18231235472E+03  0.47000000000E+01 0. -1.
         -5   -1    0    0    0  501 -0.00000000000E+00 -0.00000000000E+00 -0.13086083445E+03  0.13094520989E+03  0.47000000000E+01 0. -1.
         25    2    1    2    0    0  0.44598526230E+02  0.49360775955E+02 -0.36970553770E+02  0.14635243533E+03  0.12500679476E+03 0.  0.
         25    2    1    2    0    0 -0.44598526230E+02 -0.49360775955E+02  0.88361481132E+02  0.16690512928E+03  0.12499622429E+03 0.  0.
          5    1    3    3  502    0  0.84898957860E+01  0.54183917789E+02 -0.75293359170E+02  0.93269261885E+02  0.47000000000E+01 0.  1.
         -5    1    3    3    0  502  0.36108630444E+02 -0.48231418334E+01  0.38322805400E+02  0.53083173449E+02  0.47000000000E+01 0.  1.
          5    1    4    4  503    0  0.16093667534E+02  0.12466929563E+02  0.76536865722E+02  0.79337332208E+02  0.47000000000E+01 0.  1.
         -5    1    4    4    0  503 -0.60692193764E+02 -0.61827705518E+02  0.11824615410E+02  0.87567797067E+02  0.47000000000E+01 0.  1.
<mgrwt>
<rscale>  0 0.14160351E+03</rscale>
<asrwt>0</asrwt>
<pdfrwt beam="1">  1        5 0.28049884E-01 0.14160584E+03</pdfrwt>
<pdfrwt beam="2">  1       -5 0.20143587E-01 0.14160584E+03</pdfrwt>
<totfact> 0.20421939E+02</totfact>
</mgrwt>
</event>
<event>
 8    1  0.3763376E-007  0.1377860E+03  0.7546771E-02  0.1216343E+00
         -5   -1    0    0    0  501 -0.00000000000E+00  0.00000000000E+00  0.85697533536E+02  0.85826320288E+02  0.47000000000E+01 0.  1.
          5   -1    0    0  501    0  0.00000000000E+00 -0.00000000000E+00 -0.22122899659E+03  0.22127891660E+03  0.47000000000E+01 0.  1.
         25    2    1    2    0    0  0.56851917852E+02  0.11257076621E+02 -0.66003017630E+02  0.15277058985E+03  0.12499436967E+03 0.  0.
         25    2    1    2    0    0 -0.56851917852E+02 -0.11257076621E+02 -0.69528445419E+02  0.15433464704E+03  0.12500446479E+03 0.  0.
          5    1    3    3  502    0  0.38250571954E+02 -0.30798808928E+02 -0.88530501003E+02  0.10134797726E+03  0.47000000000E+01 0.  1.
         -5    1    3    3    0  502  0.18601345898E+02  0.42055885549E+02  0.22527483373E+02  0.51422612591E+02  0.47000000000E+01 0.  1.
          5    1    4    4  503    0 -0.70122696536E+02 -0.28320191740E+02 -0.94400367503E+02  0.12104852421E+03  0.47000000000E+01 0.  1.
         -5    1    4    4    0  503  0.13270778684E+02  0.17063115119E+02  0.24871922084E+02  0.33286122823E+02  0.47000000000E+01 0.  1.
<mgrwt>
<rscale>  0 0.13778370E+03</rscale>
<asrwt>0</asrwt>
<pdfrwt beam="2">  1        5 0.34048977E-01 0.13778599E+03</pdfrwt>
<pdfrwt beam="1">  1       -5 0.13197983E-01 0.13778599E+03</pdfrwt>
<totfact> 0.29897500E+02</totfact>
</mgrwt>
</event>
<event>
 8    1  0.3763376E-007  0.1319405E+03  0.7546771E-02  0.1224627E+00
         -5   -1    0    0    0  501 -0.00000000000E+00  0.00000000000E+00  0.12184135514E+03  0.12193197211E+03  0.47000000000E+01 0. -1.
          5   -1    0    0  501    0  0.00000000000E+00 -0.00000000000E+00 -0.14486213477E+03  0.14493835962E+03  0.47000000000E+01 0. -1.
         25    2    1    2    0    0  0.36668196351E+01 -0.41909758272E+02  0.50586701069E+01  0.13197500956E+03  0.12498775780E+03 0.  0.
         25    2    1    2    0    0 -0.36668196351E+01  0.41909758272E+02 -0.28079449732E+02  0.13489532217E+03  0.12505366465E+03 0.  0.
          5    1    3    3  502    0 -0.11582880562E+02 -0.23827942314E+02  0.63384846309E+02  0.68859732055E+02  0.47000000000E+01 0.  1.
         -5    1    3    3    0  502  0.15249700197E+02 -0.18081815958E+02 -0.58326176202E+02  0.63115277507E+02  0.47000000000E+01 0.  1.
          5    1    4    4  503    0  0.46973267070E+02  0.55871472940E+02  0.38453532103E+01  0.73246065076E+02  0.47000000000E+01 0. -1.
         -5    1    4    4    0  503 -0.50640086705E+02 -0.13961714669E+02 -0.31924802942E+02  0.61649257099E+02  0.47000000000E+01 0. -1.
<mgrwt>
<rscale>  0 0.13192487E+03</rscale>
<asrwt>0</asrwt>
<pdfrwt beam="2">  1        5 0.22299316E-01 0.13194049E+03</pdfrwt>
<pdfrwt beam="1">  1       -5 0.18757658E-01 0.13194049E+03</pdfrwt>
<totfact> 0.35327644E+02</totfact>
</mgrwt>
</event>
<event>
 8    1  0.3763376E-007  0.1902782E+03  0.7546771E-02  0.1158211E+00
         -5   -1    0    0    0  501 -0.00000000000E+00  0.00000000000E+00  0.15785515028E+03  0.15792510399E+03  0.47000000000E+01 0. -1.
          5   -1    0    0  501    0  0.00000000000E+00 -0.00000000000E+00 -0.23722176613E+03  0.23726832137E+03  0.47000000000E+01 0. -1.
         25    2    1    2    0    0 -0.14337370671E+03 -0.48762349886E+01 -0.33920043719E+01  0.19030824804E+03  0.12500370448E+03 0.  0.
         25    2    1    2    0    0  0.14337370671E+03  0.48762349886E+01 -0.75974611480E+02  0.20488517733E+03  0.12500398736E+03 0.  0.
          5    1    4    4  502    0  0.12484872268E+03  0.46887530054E+02 -0.84501183182E+02  0.15794994140E+03  0.47000000000E+01 0.  1.
         -5    1    4    4    0  502  0.18524984026E+02 -0.42011295066E+02  0.85265717012E+01  0.46935235924E+02  0.47000000000E+01 0.  1.
          5    1    3    3  503    0 -0.75575162919E+02 -0.27171193920E+02 -0.58954690668E+02  0.99737779106E+02  0.47000000000E+01 0.  1.
         -5    1    3    3    0  503 -0.67798543789E+02  0.22294958932E+02  0.55562686296E+02  0.90570468929E+02  0.47000000000E+01 0.  1.
<mgrwt>
<rscale>  0 0.19027816E+03</rscale>
<asrwt>0</asrwt>
<pdfrwt beam="2">  1        5 0.36504618E-01 0.19027820E+03</pdfrwt>
<pdfrwt beam="1">  1       -5 0.24294370E-01 0.19027820E+03</pdfrwt>
<totfact> 0.92949221E+01</totfact>
</mgrwt>
</event>
<event>
 8    1  0.3763376E-007  0.1401083E+03  0.7546771E-02  0.1213186E+00
         -5   -1    0    0    0  501 -0.00000000000E+00  0.00000000000E+00  0.15533333738E+03  0.15540442626E+03  0.47000000000E+01 0.  1.
          5   -1    0    0  501    0  0.00000000000E+00 -0.00000000000E+00 -0.12766534806E+03  0.12775183401E+03  0.47000000000E+01 0.  1.
         25    2    1    2    0    0  0.46492488213E+01  0.63108033952E+02  0.28867791080E+02  0.14304283352E+03  0.12499465347E+03 0.  0.
         25    2    1    2    0    0 -0.46492488213E+01 -0.63108033952E+02 -0.11998017584E+01  0.14011342675E+03  0.12500437340E+03 0.  0.
          5    1    4    4  502    0  0.37532341465E+02 -0.82523788271E+02  0.12100484984E+02  0.91582553051E+02  0.47000000000E+01 0.  1.
         -5    1    4    4    0  502 -0.42181590287E+02  0.19415754319E+02 -0.13300286743E+02  0.48530873703E+02  0.47000000000E+01 0.  1.
          5    1    3    3  503    0 -0.38428331920E+02 -0.17335318503E+02  0.29500434743E+02  0.51668323098E+02  0.47000000000E+01 0.  1.
         -5    1    3    3    0  503  0.43077580742E+02  0.80443352455E+02 -0.63264366282E+00  0.91374510421E+02  0.47000000000E+01 0.  1.
<mgrwt>
<rscale>  0 0.14010612E+03</rscale>
<asrwt>0</asrwt>
<pdfrwt beam="2">  1        5 0.19652944E-01 0.14010829E+03</pdfrwt>
<pdfrwt beam="1">  1       -5 0.23909558E-01 0.14010829E+03</pdfrwt>
<totfact> 0.28978713E+02</totfact>
</mgrwt>
</event>
<event>
 8    1  0.3763376E-007  0.1510015E+03  0.7546771E-02  0.1199248E+00
         -5   -1    0    0    0  501 -0.00000000000E+00  0.00000000000E+00  0.18175899968E+03  0.18181975681E+03  0.47000000000E+01 0.  1.
          5   -1    0    0  501    0  0.00000000000E+00 -0.00000000000E+00 -0.16086270441E+03  0.16093135080E+03  0.47000000000E+01 0.  1.
         25    2    1    2    0    0 -0.78157204407E+02 -0.32679187231E+02  0.90966698143E+02  0.17628494490E+03  0.12499985499E+03 0.  0.
         25    2    1    2    0    0  0.78157204407E+02  0.32679187231E+02 -0.70070402871E+02  0.16646616271E+03  0.12499857635E+03 0.  0.
          5    1    3    3  502    0 -0.37302526196E+02 -0.34076285868E+01  0.11452029316E+03  0.12058224554E+03  0.47000000000E+01 0. -1.
         -5    1    3    3    0  502 -0.40854678211E+02 -0.29271558644E+02 -0.23553595021E+02  0.55702699357E+02  0.47000000000E+01 0. -1.
          5    1    4    4  503    0  0.30985525150E+02 -0.43340692422E+02 -0.52938112808E+02  0.75253253592E+02  0.47000000000E+01 0.  1.
         -5    1    4    4    0  503  0.47171679258E+02  0.76019879653E+02 -0.17132290063E+02  0.91212909115E+02  0.47000000000E+01 0.  1.
<mgrwt>
<rscale>  0 0.15100120E+03</rscale>
<asrwt>0</asrwt>
<pdfrwt beam="2">  1        5 0.24758062E-01 0.15100146E+03</pdfrwt>
<pdfrwt beam="1">  1       -5 0.27972877E-01 0.15100146E+03</pdfrwt>
<totfact> 0.14192371E+02</totfact>
</mgrwt>
</event>
<event>
 8    1  0.3763376E-007  0.1277331E+03  0.7546771E-02  0.1230860E+00
         -5   -1    0    0    0  501 -0.00000000000E+00  0.00000000000E+00  0.76596251848E+03  0.76597693811E+03  0.47000000000E+01 0. -1.
          5   -1    0    0  501    0  0.00000000000E+00 -0.00000000000E+00 -0.21751869509E+02  0.22253849715E+02  0.47000000000E+01 0. -1.
         25    2    1    2    0    0  0.19394249163E+02  0.17721591238E+02  0.44323797916E+03  0.46127611923E+03  0.12500224118E+03 0.  0.
         25    2    1    2    0    0 -0.19394249163E+02 -0.17721591238E+02  0.30097266981E+03  0.32695466860E+03  0.12499846259E+03 0.  0.
          5    1    3    3  502    0 -0.32132898909E+02  0.70995850387E+01  0.36714759912E+03  0.36864939555E+03  0.47000000000E+01 0.  1.
         -5    1    3    3    0  502  0.51527148071E+02  0.10622006199E+02  0.76090380041E+02  0.92626723676E+02  0.47000000000E+01 0.  1.
          5    1    4    4  503    0 -0.50181805213E+02 -0.50698387845E+02  0.24327995775E+03  0.25356610173E+03  0.47000000000E+01 0.  1.
         -5    1    4    4    0  503  0.30787556050E+02  0.32976796607E+02  0.57692712057E+02  0.73388566865E+02  0.47000000000E+01 0.  1.
<mgrwt>
<rscale>  0 0.12773220E+03</rscale>
<asrwt>0</asrwt>
<pdfrwt beam="2">  1        5 0.33861651E-02 0.12773313E+03</pdfrwt>
<pdfrwt beam="1">  1       -5 0.11788009E+00 0.12773313E+03</pdfrwt>
<totfact> 0.18444725E+02</totfact>
</mgrwt>
</event>
<event>
 8    1  0.3763376E-007  0.1460526E+03  0.7546771E-02  0.1205410E+00
          5   -1    0    0  501    0  0.00000000000E+00  0.00000000000E+00  0.25321406589E+03  0.25325768135E+03  0.47000000000E+01 0.  1.
         -5   -1    0    0    0  501 -0.00000000000E+00 -0.00000000000E+00 -0.11600410034E+03  0.11609927345E+03  0.47000000000E+01 0.  1.
         25    2    1    2    0    0 -0.70443277256E+02 -0.27263485926E+02 -0.28144284164E+02  0.14873645866E+03  0.12499952171E+03 0.  0.
         25    2    1    2    0    0  0.70443277256E+02  0.27263485926E+02  0.16535424971E+03  0.22062049614E+03  0.12500328974E+03 0.  0.
          5    1    3    3  502    0 -0.97285065413E+01 -0.70059728541E+02 -0.63031850365E+01  0.71167615840E+02  0.47000000000E+01 0. -1.
         -5    1    3    3    0  502 -0.60714770715E+02  0.42796242615E+02 -0.21841099127E+02  0.77568842817E+02  0.47000000000E+01 0. -1.
          5    1    4    4  503    0  0.99861113239E+01  0.60982414270E+02  0.30742478076E+02  0.69179239862E+02  0.47000000000E+01 0.  1.
         -5    1    4    4    0  503  0.60457165932E+02 -0.33718928344E+02  0.13461177164E+03  0.15144125628E+03  0.47000000000E+01 0.  1.
<mgrwt>
<rscale>  0 0.14605184E+03</rscale>
<asrwt>0</asrwt>
<pdfrwt beam="1">  1        5 0.38966685E-01 0.14605265E+03</pdfrwt>
<pdfrwt beam="2">  1       -5 0.17857461E-01 0.14605265E+03</pdfrwt>
<totfact> 0.13409525E+02</totfact>
</mgrwt>
</event>
<event>
 8    1  0.3763376E-007  0.1274620E+03  0.7546771E-02  0.1231280E+00
         -5   -1    0    0    0  501 -0.00000000000E+00  0.00000000000E+00  0.40795294796E+03  0.40798002126E+03  0.47000000000E+01 0. -1.
          5   -1    0    0  501    0  0.00000000000E+00 -0.00000000000E+00 -0.40117598825E+02  0.40391976127E+02  0.47000000000E+01 0. -1.
         25    2    1    2    0    0 -0.37030567795E+01 -0.24636378408E+02  0.20802136677E+03  0.24395314920E+03  0.12497834291E+03 0.  0.
         25    2    1    2    0    0  0.37030567795E+01  0.24636378408E+02  0.15981398236E+03  0.20441884819E+03  0.12500357102E+03 0.  0.
          5    1    4    4  502    0  0.28866444841E+02 -0.23471168503E+02  0.21035861307E+01  0.37559053013E+02  0.47000000000E+01 0. -1.
         -5    1    4    4    0  502 -0.25163388061E+02  0.48107546912E+02  0.15771039622E+03  0.16685979518E+03  0.47000000000E+01 0. -1.
          5    1    3    3  503    0  0.13313784632E+01  0.46955976120E+02  0.12764551865E+03  0.13609593930E+03  0.47000000000E+01 0. -1.
         -5    1    3    3    0  503 -0.50344352427E+01 -0.71592354528E+02  0.80375848121E+02  0.10785720989E+03  0.47000000000E+01 0. -1.
<mgrwt>
<rscale>  0 0.12745579E+03</rscale>
<asrwt>0</asrwt>
<pdfrwt beam="2">  1        5 0.61951267E-02 0.12746198E+03</pdfrwt>
<pdfrwt beam="1">  1       -5 0.62785181E-01 0.12746198E+03</pdfrwt>
<totfact> 0.29918786E+02</totfact>
</mgrwt>
</event>
<event>
 8    1  0.3763376E-007  0.1446883E+03  0.7546771E-02  0.1207163E+00
          5   -1    0    0  501    0  0.00000000000E+00  0.00000000000E+00  0.24774012857E+03  0.24778470756E+03  0.47000000000E+01 0. -1.
         -5   -1    0    0    0  501 -0.00000000000E+00 -0.00000000000E+00 -0.84391737297E+02  0.84522513711E+02  0.47000000000E+01 0. -1.
         25    2    1    2    0    0  0.18956891319E+02  0.70337190352E+02  0.79206124294E+02  0.16494942460E+03  0.12501207332E+03 0.  0.
         25    2    1    2    0    0 -0.18956891319E+02 -0.70337190352E+02  0.84142266977E+02  0.16735779667E+03  0.12498810719E+03 0.  0.
          5    1    4    4  502    0 -0.16659108670E+02 -0.10261903245E+03  0.37973981028E+02  0.11078043581E+03  0.47000000000E+01 0. -1.
         -5    1    4    4    0  502 -0.22977826494E+01  0.32281842101E+02  0.46168285948E+02  0.56577360861E+02  0.47000000000E+01 0. -1.
          5    1    3    3  503    0  0.58487857123E+00  0.92512778161E+02  0.94223792316E+02  0.13213314968E+03  0.47000000000E+01 0.  1.
         -5    1    3    3    0  503  0.18372012748E+02 -0.22175587809E+02 -0.15017668021E+02  0.32816274924E+02  0.47000000000E+01 0.  1.
<mgrwt>
<rscale>  0 0.14468312E+03</rscale>
<asrwt>0</asrwt>
<pdfrwt beam="1">  1        5 0.38127354E-01 0.14468829E+03</pdfrwt>
<pdfrwt beam="2">  1       -5 0.12996833E-01 0.14468829E+03</pdfrwt>
<totfact> 0.24876602E+02</totfact>
</mgrwt>
</event>
<event>
 8    1  0.3763376E-007  0.1415133E+03  0.7546771E-02  0.1211310E+00
          5   -1    0    0  501    0  0.00000000000E+00  0.00000000000E+00  0.89233515513E+02  0.89357206149E+02  0.47000000000E+01 0. -1.
         -5   -1    0    0    0  501 -0.00000000000E+00 -0.00000000000E+00 -0.26544163772E+03  0.26548324435E+03  0.47000000000E+01 0. -1.
         25    2    1    2    0    0 -0.44782870273E+02 -0.48931129743E+02 -0.15809972971E+03  0.21218278410E+03  0.12500499353E+03 0.  0.
         25    2    1    2    0    0  0.44782870273E+02  0.48931129743E+02 -0.18108392489E+02  0.14265766640E+03  0.12499413977E+03 0.  0.
          5    1    3    3  502    0 -0.83424483030E+01 -0.78594489827E+02 -0.14146878471E+03  0.16211785010E+03  0.47000000000E+01 0. -1.
         -5    1    3    3    0  502 -0.36440421970E+02  0.29663360084E+02 -0.16630945004E+02  0.50064934001E+02  0.47000000000E+01 0. -1.
          5    1    4    4  503    0  0.88453635950E+02  0.32923794232E+02 -0.80707400915E+01  0.94843285398E+02  0.47000000000E+01 0.  1.
         -5    1    4    4    0  503 -0.43670765677E+02  0.16007335511E+02 -0.10037652398E+02  0.47814381002E+02  0.47000000000E+01 0.  1.
<mgrwt>
<rscale>  0 0.14151089E+03</rscale>
<asrwt>0</asrwt>
<pdfrwt beam="1">  1        5 0.13740948E-01 0.14151328E+03</pdfrwt>
<pdfrwt beam="2">  1       -5 0.40849890E-01 0.14151328E+03</pdfrwt>
<totfact> 0.19412192E+02</totfact>
</mgrwt>
</event>
<event>
 8    1  0.3763376E-007  0.2578239E+03  0.7546771E-02  0.1108458E+00
         -5   -1    0    0    0  501 -0.00000000000E+00  0.00000000000E+00  0.18552109881E+03  0.18558062427E+03  0.47000000000E+01 0.  1.
          5   -1    0    0  501    0  0.00000000000E+00 -0.00000000000E+00 -0.82548169239E+03  0.82549507235E+03  0.47000000000E+01 0.  1.
         25    2    1    2    0    0  0.20466583445E+03  0.94656698350E+02  0.60367366242E+02  0.26479684977E+03  0.12500063364E+03 0.  0.
         25    2    1    2    0    0 -0.20466583445E+03 -0.94656698350E+02 -0.70032795982E+03  0.74627884685E+03  0.12499948648E+03 0.  0.
          5    1    3    3  502    0  0.33830213318E+02  0.52808657783E+02 -0.26890537379E+02  0.68399039982E+02  0.47000000000E+01 0. -1.
         -5    1    3    3    0  502  0.17083562113E+03  0.41848040568E+02  0.87257903621E+02  0.19639780979E+03  0.47000000000E+01 0. -1.
          5    1    4    4  503    0 -0.16825746703E+03 -0.12473583710E+03 -0.54582103459E+03  0.58464715519E+03  0.47000000000E+01 0.  1.
         -5    1    4    4    0  503 -0.36408367420E+02  0.30079138752E+02 -0.15450692523E+03  0.16163169166E+03  0.47000000000E+01 0.  1.
<mgrwt>
<rscale>  0 0.25782374E+03</rscale>
<asrwt>0</asrwt>
<pdfrwt beam="2">  1        5 0.12700279E+00 0.25782388E+03</pdfrwt>
<pdfrwt beam="1">  1       -5 0.28547316E-01 0.25782388E+03</pdfrwt>
<totfact> 0.42328783E+00</totfact>
</mgrwt>
</event>
<event>
 8    1  0.3763376E-007  0.1310909E+03  0.7546771E-02  0.1225849E+00
         -5   -1    0    0    0  501 -0.00000000000E+00  0.00000000000E+00  0.69032158822E+02  0.69191971728E+02  0.47000000000E+01 0.  1.
          5   -1    0    0  501    0  0.00000000000E+00 -0.00000000000E+00 -0.63242756070E+03  0.63244502491E+03  0.47000000000E+01 0.  1.
         25    2    1    2    0    0 -0.21649755651E+02  0.33006975201E+02 -0.83871213425E+01  0.13135891061E+03  0.12500658887E+03 0.  0.
         25    2    1    2    0    0  0.21649755651E+02 -0.33006975201E+02 -0.55500828053E+03  0.57027808602E+03  0.12499892643E+03 0.  0.
          5    1    4    4  502    0 -0.26143580760E+02  0.18797827740E+02 -0.38229051419E+03  0.38367300190E+03  0.47000000000E+01 0.  1.
         -5    1    4    4    0  502  0.47793336411E+02 -0.51804802941E+02 -0.17271776634E+03  0.18660508413E+03  0.47000000000E+01 0.  1.
          5    1    3    3  503    0  0.37799544854E+02  0.12061496100E+02  0.36275244746E+02  0.53965439503E+02  0.47000000000E+01 0. -1.
         -5    1    3    3    0  503 -0.59449300505E+02  0.20945479100E+02 -0.44662366088E+02  0.77393471107E+02  0.47000000000E+01 0. -1.
<mgrwt>
<rscale>  0 0.13108906E+03</rscale>
<asrwt>0</asrwt>
<pdfrwt beam="2">  1        5 0.97310180E-01 0.13109088E+03</pdfrwt>
<pdfrwt beam="1">  1       -5 0.10633969E-01 0.13109088E+03</pdfrwt>
<totfact> 0.43605802E+01</totfact>
</mgrwt>
</event>
<event>
 8    1  0.3763376E-007  0.1437574E+03  0.7546771E-02  0.1208361E+00
         -5   -1    0    0    0  501 -0.00000000000E+00  0.00000000000E+00  0.27860195893E+03  0.27864160049E+03  0.47000000000E+01 0. -1.
          5   -1    0    0  501    0  0.00000000000E+00 -0.00000000000E+00 -0.74201121384E+02  0.74349824577E+02  0.47000000000E+01 0. -1.
         25    2    1    2    0    0 -0.37640133536E+02  0.60206812514E+02  0.10992251926E+03  0.18096727886E+03  0.12499822340E+03 0.  0.
         25    2    1    2    0    0  0.37640133536E+02 -0.60206812514E+02  0.94478318292E+02  0.17202414620E+03  0.12499805728E+03 0.  0.
          5    1    3    3  502    0  0.27013292947E+02  0.11230387195E+02 -0.14012123504E+02  0.32776046093E+02  0.47000000000E+01 0.  1.
         -5    1    3    3    0  502 -0.64653426483E+02  0.48976425319E+02  0.12393464276E+03  0.14819123277E+03  0.47000000000E+01 0.  1.
          5    1    4    4  503    0  0.83088985012E+02 -0.28453454555E+02  0.61851066242E+02  0.10752219725E+03  0.47000000000E+01 0. -1.
         -5    1    4    4    0  503 -0.45448851476E+02 -0.31753357960E+02  0.32627252051E+02  0.64501948952E+02  0.47000000000E+01 0. -1.
<mgrwt>
<rscale>  0 0.14375738E+03</rscale>
<asrwt>0</asrwt>
<pdfrwt beam="2">  1        5 0.11430045E-01 0.14375742E+03</pdfrwt>
<pdfrwt beam="1">  1       -5 0.42876328E-01 0.14375742E+03</pdfrwt>
<totfact> 0.24514523E+02</totfact>
</mgrwt>
</event>
<event>
 8    1  0.3763376E-007  0.1370654E+03  0.7546771E-02  0.1217333E+00
          5   -1    0    0  501    0  0.00000000000E+00  0.00000000000E+00  0.12210585901E+04  0.12210676354E+04  0.47000000000E+01 0. -1.
         -5   -1    0    0    0  501 -0.00000000000E+00 -0.00000000000E+00 -0.15814055398E+02  0.16497707360E+02  0.47000000000E+01 0. -1.
         25    2    1    2    0    0  0.54427877356E+02  0.14125048807E+02  0.46675866502E+03  0.48646727313E+03  0.12499938249E+03 0.  0.
         25    2    1    2    0    0 -0.54427877356E+02 -0.14125048807E+02  0.73848586964E+03  0.75109806968E+03  0.12500007913E+03 0.  0.
          5    1    4    4  502    0 -0.46085574684E+02  0.46545426633E+02  0.23927710781E+03  0.24812493075E+03  0.47000000000E+01 0. -1.
         -5    1    4    4    0  502 -0.83423026719E+01 -0.60670475440E+02  0.49920876182E+03  0.50297313893E+03  0.47000000000E+01 0. -1.
          5    1    3    3  503    0  0.77391650413E+02  0.48753311758E+02  0.26383588438E+03  0.27928089237E+03  0.47000000000E+01 0. -1.
         -5    1    3    3    0  503 -0.22963773057E+02 -0.34628262951E+02  0.20292278064E+03  0.20718638076E+03  0.47000000000E+01 0. -1.
<mgrwt>
<rscale>  0 0.13706527E+03</rscale>
<asrwt>0</asrwt>
<pdfrwt beam="1">  1        5 0.18790844E+00 0.13706542E+03</pdfrwt>
<pdfrwt beam="2">  1       -5 0.24862161E-02 0.13706542E+03</pdfrwt>
<totfact> 0.86694124E+01</totfact>
</mgrwt>
</event>
<event>
 8    1  0.3763376E-007  0.1305731E+03  0.7546771E-02  0.1226611E+00
         -5   -1    0    0    0  501 -0.00000000000E+00  0.00000000000E+00  0.34851081662E+03  0.34854250716E+03  0.47000000000E+01 0.  1.
          5   -1    0    0  501    0  0.00000000000E+00 -0.00000000000E+00 -0.56227369326E+02  0.56423461976E+02  0.47000000000E+01 0.  1.
         25    2    1    2    0    0 -0.25825349645E+02 -0.27505014877E+02  0.21971720297E+03  0.25558326096E+03  0.12499471778E+03 0.  0.
         25    2    1    2    0    0  0.25825349645E+02  0.27505014877E+02  0.72566244318E+02  0.14938270818E+03  0.12500343660E+03 0.  0.
          5    1    4    4  502    0  0.15537409442E+02 -0.45815560221E+02  0.54501263731E+02  0.73027079901E+02  0.47000000000E+01 0.  1.
         -5    1    4    4    0  502  0.10287940203E+02  0.73320575098E+02  0.18064980588E+02  0.76355628280E+02  0.47000000000E+01 0.  1.
          5    1    3    3  503    0 -0.24042873928E+02 -0.29439729829E+02  0.23566169943E+03  0.23875360533E+03  0.47000000000E+01 0. -1.
         -5    1    3    3    0  503 -0.17824757170E+01  0.19347149520E+01 -0.15944496453E+02  0.16829655634E+02  0.47000000000E+01 0. -1.
<mgrwt>
<rscale>  0 0.13057101E+03</rscale>
<asrwt>0</asrwt>
<pdfrwt beam="2">  1        5 0.86678866E-02 0.13057310E+03</pdfrwt>
<pdfrwt beam="1">  1       -5 0.53634569E-01 0.13057310E+03</pdfrwt>
<totfact> 0.23993112E+02</totfact>
</mgrwt>
</event>
<event>
 8    1  0.3763376E-007  0.1591757E+03  0.7546771E-02  0.1189632E+00
         -5   -1    0    0    0  501 -0.00000000000E+00  0.00000000000E+00  0.69682282834E+02  0.69840608108E+02  0.47000000000E+01 0.  1.
          5   -1    0    0  501    0  0.00000000000E+00 -0.00000000000E+00 -0.71382089034E+03  0.71383636324E+03  0.47000000000E+01 0.  1.
         25    2    1    2    0    0 -0.98448199295E+02  0.42645094705E+01 -0.47412559281E+02  0.16608690823E+03  0.12500670511E+03 0.  0.
         25    2    1    2    0    0  0.98448199295E+02 -0.42645094705E+01 -0.59672604823E+03  0.61759006313E+03  0.12500110180E+03 0.  0.
          5    1    3    3  502    0 -0.21793049584E+02 -0.53156219078E+02 -0.39482840649E+02  0.69867770413E+02  0.47000000000E+01 0. -1.
         -5    1    3    3    0  502 -0.76655149711E+02  0.57420728548E+02 -0.79297186320E+01  0.96219137814E+02  0.47000000000E+01 0. -1.
          5    1    4    4  503    0  0.23701564828E+02  0.76261985365E+01 -0.46428293414E+03  0.46497382293E+03  0.47000000000E+01 0.  1.
         -5    1    4    4    0  503  0.74746634467E+02 -0.11890708007E+02 -0.13244311409E+03  0.15261624019E+03  0.47000000000E+01 0.  1.
<mgrwt>
<rscale>  0 0.15917462E+03</rscale>
<asrwt>0</asrwt>
<pdfrwt beam="2">  1        5 0.10983196E+00 0.15917572E+03</pdfrwt>
<pdfrwt beam="1">  1       -5 0.10733721E-01 0.15917572E+03</pdfrwt>
<totfact> 0.33749692E+01</totfact>
</mgrwt>
</event>
<event>
 8    1  0.3763376E-007  0.1641087E+03  0.7546771E-02  0.1184142E+00
          5   -1    0    0  501    0  0.00000000000E+00  0.00000000000E+00  0.80461981579E+02  0.80599134484E+02  0.47000000000E+01 0.  1.
         -5   -1    0    0    0  501 -0.00000000000E+00 -0.00000000000E+00 -0.41013170169E+03  0.41015863118E+03  0.47000000000E+01 0.  1.
         25    2    1    2    0    0  0.60623469054E+02  0.87302816236E+02 -0.27039382824E+03  0.31629811256E+03  0.12503874175E+03 0.  0.
         25    2    1    2    0    0 -0.60623469054E+02 -0.87302816236E+02 -0.59275891872E+02  0.17445965310E+03  0.12500220990E+03 0.  0.
          5    1    4    4  502    0 -0.61660538619E+02  0.97944140248E+01 -0.42584898082E+01  0.62754898648E+02  0.47000000000E+01 0.  1.
         -5    1    4    4    0  502  0.10370695649E+01 -0.97097230260E+02 -0.55017402063E+02  0.11170475445E+03  0.47000000000E+01 0.  1.
          5    1    3    3  503    0  0.16719013426E+02 -0.22834673907E+02 -0.10415584653E+02  0.30520847728E+02  0.47000000000E+01 0. -1.
         -5    1    3    3    0  503  0.43904455628E+02  0.11013749014E+03 -0.25997824358E+03  0.28577726483E+03  0.47000000000E+01 0. -1.
<mgrwt>
<rscale>  0 0.16410177E+03</rscale>
<asrwt>0</asrwt>
<pdfrwt beam="1">  1        5 0.12391388E-01 0.16410873E+03</pdfrwt>
<pdfrwt beam="2">  1       -5 0.63109805E-01 0.16410873E+03</pdfrwt>
<totfact> 0.96902150E+01</totfact>
</mgrwt>
</event>
<event>
 8    1  0.3763376E-007  0.1422027E+03  0.7546771E-02  0.1210403E+00
          5   -1    0    0  501    0  0.00000000000E+00  0.00000000000E+00  0.16317792497E+02  0.16981176402E+02  0.47000000000E+01 0.  1.
         -5   -1    0    0    0  501 -0.00000000000E+00 -0.00000000000E+00 -0.16469841359E+04  0.16469908421E+04  0.47000000000E+01 0.  1.
         25    2    1    2    0    0 -0.20680497066E+02 -0.64561612303E+02 -0.12420336193E+04  0.12501476363E+04  0.12500286505E+03 0.  0.
         25    2    1    2    0    0  0.20680497066E+02  0.64561612303E+02 -0.38863272405E+03  0.41382438216E+03  0.12497735924E+03 0.  0.
          5    1    3    3  502    0 -0.96569933814E+01 -0.71887436925E+02 -0.32593179055E+03  0.33393814277E+03  0.47000000000E+01 0.  1.
         -5    1    3    3    0  502 -0.11023503685E+02  0.73258246219E+01 -0.91610182880E+03  0.91620949355E+03  0.47000000000E+01 0.  1.
          5    1    4    4  503    0  0.59849008482E+02  0.70336066425E+02 -0.19097091728E+03  0.21218163752E+03  0.47000000000E+01 0. -1.
         -5    1    4    4    0  503 -0.39168511416E+02 -0.57744541226E+01 -0.19766180677E+03  0.20164274463E+03  0.47000000000E+01 0. -1.
<mgrwt>
<rscale>  0 0.14219707E+03</rscale>
<asrwt>0</asrwt>
<pdfrwt beam="1">  1        5 0.25619763E-02 0.14220268E+03</pdfrwt>
<pdfrwt beam="2">  1       -5 0.25343359E+00 0.14220268E+03</pdfrwt>
<totfact> 0.31043627E+01</totfact>
</mgrwt>
</event>
<event>
 8    1  0.3763376E-007  0.1273570E+03  0.7546771E-02  0.1231432E+00
          5   -1    0    0  501    0  0.00000000000E+00  0.00000000000E+00  0.25149288816E+03  0.25153680207E+03  0.47000000000E+01 0. -1.
         -5   -1    0    0    0  501 -0.00000000000E+00 -0.00000000000E+00 -0.64412951635E+02  0.64584195731E+02  0.47000000000E+01 0. -1.
         25    2    1    2    0    0 -0.90634336551E+01 -0.22603565272E+02  0.88917922492E+02  0.15532423866E+03  0.12500462064E+03 0.  0.
         25    2    1    2    0    0  0.90634336551E+01  0.22603565272E+02  0.98162014037E+02  0.16079675915E+03  0.12500699884E+03 0.  0.
          5    1    3    3  502    0  0.94206413663E+01 -0.37809622109E+02  0.11386173298E+03  0.12043629123E+03  0.47000000000E+01 0.  1.
         -5    1    3    3    0  502 -0.18484075021E+02  0.15206056836E+02 -0.24943810489E+02  0.34887947426E+02  0.47000000000E+01 0.  1.
          5    1    4    4  503    0  0.76872654327E+01  0.66742687376E+02  0.94762241957E+02  0.11625684009E+03  0.47000000000E+01 0.  1.
         -5    1    4    4    0  503  0.13761682224E+01 -0.44139122104E+02  0.33997720796E+01  0.44539919053E+02  0.47000000000E+01 0.  1.
<mgrwt>
<rscale>  0 0.12735646E+03</rscale>
<asrwt>0</asrwt>
<pdfrwt beam="1">  1        5 0.38707764E-01 0.12735704E+03</pdfrwt>
<pdfrwt beam="2">  1       -5 0.99262354E-02 0.12735704E+03</pdfrwt>
<totfact> 0.37116941E+02</totfact>
</mgrwt>
</event>
<event>
 8    1  0.3763376E-007  0.1554592E+03  0.7546771E-02  0.1193922E+00
          5   -1    0    0  501    0  0.00000000000E+00  0.00000000000E+00  0.53495765573E+03  0.53497830182E+03  0.47000000000E+01 0. -1.
         -5   -1    0    0    0  501 -0.00000000000E+00 -0.00000000000E+00 -0.46413425084E+02  0.46650788075E+02  0.47000000000E+01 0. -1.
         25    2    1    2    0    0  0.90318919295E+02  0.19559212216E+02  0.19422238620E+03  0.24877339621E+03  0.12500318955E+03 0.  0.
         25    2    1    2    0    0 -0.90318919295E+02 -0.19559212216E+02  0.29432184444E+03  0.33285569369E+03  0.12500997855E+03 0.  0.
          5    1    4    4  502    0 -0.39368107723E+02 -0.71916583600E+02  0.16238638295E+03  0.18197052033E+03  0.47000000000E+01 0. -1.
         -5    1    4    4    0  502 -0.50950811572E+02  0.52357371384E+02  0.13193546149E+03  0.15088517335E+03  0.47000000000E+01 0. -1.
          5    1    3    3  503    0  0.56119063344E+02 -0.44008244997E+02  0.49374631762E+02  0.86867825804E+02  0.47000000000E+01 0.  1.
         -5    1    3    3    0  503  0.34199855952E+02  0.63567457214E+02  0.14484775444E+03  0.16190557041E+03  0.47000000000E+01 0.  1.
<mgrwt>
<rscale>  0 0.15545784E+03</rscale>
<asrwt>0</asrwt>
<pdfrwt beam="1">  1        5 0.82321027E-01 0.15545921E+03</pdfrwt>
<pdfrwt beam="2">  1       -5 0.71603736E-02 0.15545921E+03</pdfrwt>
<totfact> 0.13542122E+02</totfact>
</mgrwt>
</event>
<event>
 8    1  0.3763376E-007  0.1329624E+03  0.7546771E-02  0.1223127E+00
          5   -1    0    0  501    0  0.00000000000E+00  0.00000000000E+00  0.64904362746E+03  0.64906064458E+03  0.47000000000E+01 0. -1.
         -5   -1    0    0    0  501 -0.00000000000E+00 -0.00000000000E+00 -0.27095940341E+02  0.27500545139E+02  0.47000000000E+01 0. -1.
         25    2    1    2    0    0  0.41818543460E+02 -0.17416409150E+02  0.29289787298E+03  0.32166469170E+03  0.12500755181E+03 0.  0.
         25    2    1    2    0    0 -0.41818543460E+02  0.17416409150E+02  0.32904981414E+03  0.35489649802E+03  0.12500248892E+03 0.  0.
          5    1    4    4  502    0 -0.19254544613E+02  0.68887425723E+02  0.23006373395E+03  0.24097225274E+03  0.47000000000E+01 0.  1.
         -5    1    4    4    0  502 -0.22563998847E+02 -0.51471016572E+02  0.98986080183E+02  0.11392424527E+03  0.47000000000E+01 0.  1.
          5    1    3    3  503    0  0.98691416718E+01  0.10580162378E+02 -0.83814939921E+01  0.17368915764E+02  0.47000000000E+01 0. -1.
         -5    1    3    3    0  503  0.31949401788E+02 -0.27996571529E+02  0.30127936697E+03  0.30429577594E+03  0.47000000000E+01 0. -1.
<mgrwt>
<rscale>  0 0.13296125E+03</rscale>
<asrwt>0</asrwt>
<pdfrwt beam="1">  1        5 0.99885290E-01 0.13296244E+03</pdfrwt>
<pdfrwt beam="2">  1       -5 0.42010390E-02 0.13296244E+03</pdfrwt>
<totfact> 0.19825718E+02</totfact>
</mgrwt>
</event>
<event>
 8    1  0.3763376E-007  0.1406392E+03  0.7546771E-02  0.1212472E+00
         -5   -1    0    0    0  501 -0.00000000000E+00  0.00000000000E+00  0.48233981907E+02  0.48462428856E+02  0.47000000000E+01 0. -1.
          5   -1    0    0  501    0  0.00000000000E+00 -0.00000000000E+00 -0.48498195345E+03  0.48500472696E+03  0.47000000000E+01 0. -1.
         25    2    1    2    0    0 -0.42473282661E+00  0.64447010781E+02 -0.11272388093E+03  0.18023891635E+03  0.12500318412E+03 0.  0.
         25    2    1    2    0    0  0.42473282661E+00 -0.64447010781E+02 -0.32402409062E+03  0.35322823947E+03  0.12499992104E+03 0.  0.
          5    1    4    4  502    0  0.22833052862E+02  0.22721275507E+02 -0.18294775038E+03  0.18582134978E+03  0.47000000000E+01 0.  1.
         -5    1    4    4    0  502 -0.22408320036E+02 -0.87168286287E+02 -0.14107634023E+03  0.16740688969E+03  0.47000000000E+01 0.  1.
          5    1    3    3  503    0 -0.50217196415E+02  0.59075935610E+02 -0.29692337465E+02  0.83159232128E+02  0.47000000000E+01 0.  1.
         -5    1    3    3    0  503  0.49792463588E+02  0.53710751708E+01 -0.83031543466E+02  0.97079684224E+02  0.47000000000E+01 0.  1.
<mgrwt>
<rscale>  0 0.14063851E+03</rscale>
<asrwt>0</asrwt>
<pdfrwt beam="2">  1        5 0.74631929E-01 0.14063923E+03</pdfrwt>
<pdfrwt beam="1">  1       -5 0.74399376E-02 0.14063923E+03</pdfrwt>
<totfact> 0.15402665E+02</totfact>
</mgrwt>
</event>
<event>
 8    1  0.3763376E-007  0.1257688E+03  0.7546771E-02  0.1233873E+00
         -5   -1    0    0    0  501 -0.00000000000E+00  0.00000000000E+00  0.57991225257E+03  0.57993129824E+03  0.47000000000E+01 0. -1.
          5   -1    0    0  501    0  0.00000000000E+00 -0.00000000000E+00 -0.33912386888E+02  0.34236529971E+02  0.47000000000E+01 0. -1.
         25    2    1    2    0    0 -0.56756562332E+01 -0.12703508081E+02  0.41032961946E+03  0.42917152559E+03  0.12499683828E+03 0.  0.
         25    2    1    2    0    0  0.56756562332E+01  0.12703508081E+02  0.13567024622E+03  0.18499630262E+03  0.12499449621E+03 0.  0.
          5    1    4    4  502    0 -0.29777240045E+01 -0.33638002478E+02  0.13326683404E+03  0.13755915494E+03  0.47000000000E+01 0.  1.
         -5    1    4    4    0  502  0.86533802377E+01  0.46341510559E+02  0.24034121765E+01  0.47437147685E+02  0.47000000000E+01 0.  1.
          5    1    3    3  503    0  0.31831103290E+01 -0.85283021124E+01 -0.65440001282E+01  0.12156400206E+02  0.47000000000E+01 0.  1.
         -5    1    3    3    0  503 -0.88587665621E+01 -0.41752059683E+01  0.41687361959E+03  0.41701512539E+03  0.47000000000E+01 0.  1.
<mgrwt>
<rscale>  0 0.12576826E+03</rscale>
<asrwt>0</asrwt>
<pdfrwt beam="2">  1        5 0.52436897E-02 0.12576884E+03</pdfrwt>
<pdfrwt beam="1">  1       -5 0.89243664E-01 0.12576884E+03</pdfrwt>
<totfact> 0.17650892E+02</totfact>
</mgrwt>
</event>
<event>
 8    1  0.3763376E-007  0.1501629E+03  0.7546771E-02  0.1200273E+00
         -5   -1    0    0    0  501 -0.00000000000E+00  0.00000000000E+00  0.18413150236E+04  0.18413210220E+04  0.47000000000E+01 0. -1.
          5   -1    0    0  501    0  0.00000000000E+00 -0.00000000000E+00 -0.11994709895E+02  0.12882665309E+02  0.47000000000E+01 0. -1.
         25    2    1    2    0    0  0.33641618002E+02 -0.76104017375E+02  0.10317968238E+04  0.10426665031E+04  0.12500068446E+03 0.  0.
         25    2    1    2    0    0 -0.33641618002E+02  0.76104017375E+02  0.79752348985E+03  0.81153718420E+03  0.12500121819E+03 0.  0.
          5    1    3    3  502    0  0.78678625764E+02 -0.26951445604E+02  0.58313982730E+03  0.58905929646E+03  0.47000000000E+01 0. -1.
         -5    1    3    3    0  502 -0.45037007762E+02 -0.49152571772E+02  0.44865699652E+03  0.45360720663E+03  0.47000000000E+01 0. -1.
          5    1    4    4  503    0 -0.43157284523E+02  0.85710625203E+02  0.32766179998E+03  0.34145747560E+03  0.47000000000E+01 0.  1.
         -5    1    4    4    0  503  0.95156665212E+01 -0.96066078278E+01  0.46986168987E+03  0.47007970859E+03  0.47000000000E+01 0.  1.
<mgrwt>
<rscale>  0 0.15016275E+03</rscale>
<asrwt>0</asrwt>
<pdfrwt beam="2">  1        5 0.19141070E-02 0.15016286E+03</pdfrwt>
<pdfrwt beam="1">  1       -5 0.28334780E+00 0.15016286E+03</pdfrwt>
<totfact> 0.32431983E+01</totfact>
</mgrwt>
</event>
<event>
 8    1  0.3763376E-007  0.1808807E+03  0.7546771E-02  0.1166954E+00
         -5   -1    0    0    0  501 -0.00000000000E+00  0.00000000000E+00  0.14019952856E+03  0.14027828702E+03  0.47000000000E+01 0.  1.
          5   -1    0    0  501    0  0.00000000000E+00 -0.00000000000E+00 -0.27780392318E+03  0.27784367859E+03  0.47000000000E+01 0.  1.
         25    2    1    2    0    0  0.35198904797E+02  0.12591844070E+03  0.14956115309E+02  0.18149453697E+03  0.12498865932E+03 0.  0.
         25    2    1    2    0    0 -0.35198904797E+02 -0.12591844070E+03 -0.15256050992E+03  0.23662742863E+03  0.12499365658E+03 0.  0.
          5    1    4    4  502    0 -0.58265549748E+02 -0.13544872638E+03 -0.99911205638E+02  0.17817286768E+03  0.47000000000E+01 0.  1.
         -5    1    4    4    0  502  0.23066644951E+02  0.95302856786E+01 -0.52649304287E+02  0.58454560954E+02  0.47000000000E+01 0.  1.
          5    1    3    3  503    0 -0.78893966785E+00  0.11859380648E+03 -0.30813524202E+02  0.12262412746E+03  0.47000000000E+01 0.  1.
         -5    1    3    3    0  503  0.35987844465E+02  0.73246342234E+01  0.45769639511E+02  0.58870409517E+02  0.47000000000E+01 0.  1.
<mgrwt>
<rscale>  0 0.18087985E+03</rscale>
<asrwt>0</asrwt>
<pdfrwt beam="2">  1        5 0.42748181E-01 0.18088071E+03</pdfrwt>
<pdfrwt beam="1">  1       -5 0.21578275E-01 0.18088071E+03</pdfrwt>
<totfact> 0.83046122E+01</totfact>
</mgrwt>
</event>
<event>
 8    1  0.3763376E-007  0.1413702E+03  0.7546771E-02  0.1211497E+00
         -5   -1    0    0    0  501 -0.00000000000E+00  0.00000000000E+00  0.18193759557E+02  0.18791032085E+02  0.47000000000E+01 0. -1.
          5   -1    0    0  501    0  0.00000000000E+00 -0.00000000000E+00 -0.11955809527E+04  0.11955901908E+04  0.47000000000E+01 0. -1.
         25    2    1    2    0    0  0.42683767398E+02 -0.50388184763E+02 -0.40006333155E+03  0.42430673508E+03  0.12499865208E+03 0.  0.
         25    2    1    2    0    0 -0.42683767398E+02  0.50388184763E+02 -0.77732386156E+03  0.79007448782E+03  0.12499774954E+03 0.  0.
          5    1    3    3  502    0 -0.44327260992E+02 -0.15456505118E+02 -0.12080478048E+03  0.12969076530E+03  0.47000000000E+01 0. -1.
         -5    1    3    3    0  502  0.87011028390E+02 -0.34931679645E+02 -0.27925855107E+03  0.29461596978E+03  0.47000000000E+01 0. -1.
          5    1    4    4  503    0  0.20388609600E+02 -0.28687373432E+02 -0.12525729933E+03  0.13019271036E+03  0.47000000000E+01 0. -1.
         -5    1    4    4    0  503 -0.63072376998E+02  0.79075558194E+02 -0.65206656223E+03  0.65988177746E+03  0.47000000000E+01 0. -1.
<mgrwt>
<rscale>  0 0.14137001E+03</rscale>
<asrwt>0</asrwt>
<pdfrwt beam="2">  1        5 0.18398212E+00 0.14137021E+03</pdfrwt>
<pdfrwt beam="1">  1       -5 0.28456955E-02 0.14137021E+03</pdfrwt>
<totfact> 0.75022274E+01</totfact>
</mgrwt>
</event>
<event>
 8    1  0.3763376E-007  0.1499008E+03  0.7546771E-02  0.1200595E+00
          5   -1    0    0  501    0  0.00000000000E+00  0.00000000000E+00  0.39931661370E+03  0.39934427250E+03  0.47000000000E+01 0.  1.
         -5   -1    0    0    0  501 -0.00000000000E+00 -0.00000000000E+00 -0.58082128397E+02  0.58271979880E+02  0.47000000000E+01 0.  1.
         25    2    1    2    0    0  0.66059457259E+02 -0.49805688993E+02  0.12889316218E+03  0.19769494594E+03  0.12500154336E+03 0.  0.
         25    2    1    2    0    0 -0.66059457259E+02  0.49805688993E+02  0.21234132312E+03  0.25992130644E+03  0.12500315790E+03 0.  0.
          5    1    3    3  502    0  0.29329920970E+02  0.37600822363E+02  0.73643039569E+02  0.87860419891E+02  0.47000000000E+01 0. -1.
         -5    1    3    3    0  502  0.36729536290E+02 -0.87406511356E+02  0.55250122612E+02  0.10983452605E+03  0.47000000000E+01 0. -1.
          5    1    4    4  503    0 -0.84897372491E+01 -0.28261259773E+02  0.12754349908E+03  0.13099697935E+03  0.47000000000E+01 0.  1.
         -5    1    4    4    0  503 -0.57569720010E+02  0.78066948766E+02  0.84797824044E+02  0.12892432709E+03  0.47000000000E+01 0.  1.
<mgrwt>
<rscale>  0 0.14990046E+03</rscale>
<asrwt>0</asrwt>
<pdfrwt beam="1">  1        5 0.61450057E-01 0.14990079E+03</pdfrwt>
<pdfrwt beam="2">  1       -5 0.89524437E-02 0.14990079E+03</pdfrwt>
<totfact> 0.17686363E+02</totfact>
</mgrwt>
</event>
<event>
 8    1  0.3763376E-007  0.1311741E+03  0.7546771E-02  0.1225724E+00
          5   -1    0    0  501    0  0.00000000000E+00  0.00000000000E+00  0.41103888706E+02  0.41371725450E+02  0.47000000000E+01 0. -1.
         -5   -1    0    0    0  501 -0.00000000000E+00 -0.00000000000E+00 -0.56597469189E+03  0.56599420656E+03  0.47000000000E+01 0. -1.
         25    2    1    2    0    0  0.19437061010E+02  0.34683093561E+02 -0.41821644896E+03  0.43830542755E+03  0.12500373323E+03 0.  0.
         25    2    1    2    0    0 -0.19437061010E+02 -0.34683093561E+02 -0.10665435423E+03  0.16906050446E+03  0.12500234627E+03 0.  0.
          5    1    4    4  502    0 -0.46231572263E+02  0.29434785186E+02 -0.21525853434E+02  0.59069596401E+02  0.47000000000E+01 0.  1.
         -5    1    4    4    0  502  0.26794511253E+02 -0.64117878747E+02 -0.85128500791E+02  0.10999090806E+03  0.47000000000E+01 0.  1.
          5    1    3    3  503    0  0.41525790684E+02  0.66460698951E+02 -0.17262279353E+03  0.18963684938E+03  0.47000000000E+01 0. -1.
         -5    1    3    3    0  503 -0.22088729674E+02 -0.31777605390E+02 -0.24559365543E+03  0.24866857817E+03  0.47000000000E+01 0. -1.
<mgrwt>
<rscale>  0 0.13117379E+03</rscale>
<asrwt>0</asrwt>
<pdfrwt beam="1">  1        5 0.63457795E-02 0.13117412E+03</pdfrwt>
<pdfrwt beam="2">  1       -5 0.87095128E-01 0.13117412E+03</pdfrwt>
<totfact> 0.13784662E+02</totfact>
</mgrwt>
</event>
<event>
 8    1  0.3763376E-007  0.1301015E+03  0.7546771E-02  0.1227306E+00
          5   -1    0    0  501    0  0.00000000000E+00  0.00000000000E+00  0.22149233427E+03  0.22154219494E+03  0.47000000000E+01 0.  1.
         -5   -1    0    0    0  501 -0.00000000000E+00 -0.00000000000E+00 -0.76371178160E+02  0.76515664106E+02  0.47000000000E+01 0.  1.
         25    2    1    2    0    0  0.33766478275E+02 -0.12617724475E+02  0.77475580451E+02  0.15142111201E+03  0.12500602214E+03 0.  0.
         25    2    1    2    0    0 -0.33766478275E+02  0.12617724475E+02  0.67645575660E+02  0.14663674704E+03  0.12500811834E+03 0.  0.
          5    1    3    3  502    0  0.15181262391E+00 -0.46283331197E+02 -0.13679192888E+02  0.48491031251E+02  0.47000000000E+01 0.  1.
         -5    1    3    3    0  502  0.33614665652E+02  0.33665606722E+02  0.91154773338E+02  0.10293008076E+03  0.47000000000E+01 0.  1.
          5    1    4    4  503    0 -0.57855350954E+02  0.52404721579E+02  0.61497380007E+02  0.99486251440E+02  0.47000000000E+01 0.  1.
         -5    1    4    4    0  503  0.24088872679E+02 -0.39786997104E+02  0.61481956527E+01  0.47150495599E+02  0.47000000000E+01 0.  1.
<mgrwt>
<rscale>  0 0.13010104E+03</rscale>
<asrwt>0</asrwt>
<pdfrwt beam="1">  1        5 0.34090693E-01 0.13010154E+03</pdfrwt>
<pdfrwt beam="2">  1       -5 0.11764362E-01 0.13010154E+03</pdfrwt>
<totfact> 0.35857731E+02</totfact>
</mgrwt>
</event>
<event>
 8    1  0.3763376E-007  0.2075789E+03  0.7546771E-02  0.1143498E+00
         -5   -1    0    0    0  501 -0.00000000000E+00  0.00000000000E+00  0.21090818016E+03  0.21096054242E+03  0.47000000000E+01 0.  1.
          5   -1    0    0  501    0  0.00000000000E+00 -0.00000000000E+00 -0.23052448795E+03  0.23057239545E+03  0.47000000000E+01 0.  1.
         25    2    1    2    0    0  0.16499972605E+03 -0.15454512812E+02  0.64785362275E+02  0.21745117478E+03  0.12499647468E+03 0.  0.
         25    2    1    2    0    0 -0.16499972605E+03  0.15454512812E+02 -0.84401670058E+02  0.22408176310E+03  0.12500097232E+03 0.  0.
          5    1    3    3  502    0  0.11254375819E+03  0.42270872929E+02  0.74695724907E+01  0.12054380415E+03  0.47000000000E+01 0.  1.
         -5    1    3    3    0  502  0.52455967863E+02 -0.57725385741E+02  0.57315789784E+02  0.96907370628E+02  0.47000000000E+01 0.  1.
          5    1    4    4  503    0 -0.14350836180E+03  0.54191315208E+02 -0.91936027090E+02  0.17890129018E+03  0.47000000000E+01 0.  1.
         -5    1    4    4    0  503 -0.21491364250E+02 -0.38736802395E+02  0.75343570316E+01  0.45180472917E+02  0.47000000000E+01 0.  1.
<mgrwt>
<rscale>  0 0.20757821E+03</rscale>
<asrwt>0</asrwt>
<pdfrwt beam="2">  1        5 0.35473019E-01 0.20757889E+03</pdfrwt>
<pdfrwt beam="1">  1       -5 0.32455125E-01 0.20757889E+03</pdfrwt>
<totfact> 0.57185339E+01</totfact>
</mgrwt>
</event>
<event>
 8    1  0.3763376E-007  0.1469320E+03  0.7546771E-02  0.1204299E+00
         -5   -1    0    0    0  501 -0.00000000000E+00  0.00000000000E+00  0.56020539959E+03  0.56022511523E+03  0.47000000000E+01 0. -1.
          5   -1    0    0  501    0  0.00000000000E+00 -0.00000000000E+00 -0.40296792042E+02  0.40569957467E+02  0.47000000000E+01 0. -1.
         25    2    1    2    0    0  0.64555653866E+02  0.42347935978E+02  0.32541419276E+03  0.35704817721E+03  0.12501289484E+03 0.  0.
         25    2    1    2    0    0 -0.64555653866E+02 -0.42347935978E+02  0.19449441479E+03  0.24374689548E+03  0.12499476607E+03 0.  0.
          5    1    4    4  502    0  0.34972592585E+02 -0.13792849151E+02  0.84531885579E+02  0.92633981882E+02  0.47000000000E+01 0. -1.
         -5    1    4    4    0  502 -0.99528246452E+02 -0.28555086826E+02  0.10996252921E+03  0.15111291360E+03  0.47000000000E+01 0. -1.
          5    1    3    3  503    0 -0.30579149839E+02  0.58538952869E+01  0.15720948001E+03  0.16033172830E+03  0.47000000000E+01 0. -1.
         -5    1    3    3    0  503  0.95134803705E+02  0.36494040691E+02  0.16820471275E+03  0.19671644891E+03  0.47000000000E+01 0. -1.
<mgrwt>
<rscale>  0 0.14692811E+03</rscale>
<asrwt>0</asrwt>
<pdfrwt beam="2">  1        5 0.62220357E-02 0.14693197E+03</pdfrwt>
<pdfrwt beam="1">  1       -5 0.86207976E-01 0.14693197E+03</pdfrwt>
<totfact> 0.15147755E+02</totfact>
</mgrwt>
</event>
<event>
 8    1  0.3763376E-007  0.1410542E+03  0.7546771E-02  0.1211919E+00
         -5   -1    0    0    0  501 -0.00000000000E+00  0.00000000000E+00  0.54153156605E+03  0.54155196153E+03  0.47000000000E+01 0. -1.
          5   -1    0    0  501    0  0.00000000000E+00 -0.00000000000E+00 -0.59689731464E+02  0.59874485737E+02  0.47000000000E+01 0. -1.
         25    2    1    2    0    0  0.65309361430E+02 -0.21346843824E+01  0.42766639830E+03  0.45032623007E+03  0.12500118277E+03 0.  0.
         25    2    1    2    0    0 -0.65309361430E+02  0.21346843824E+01  0.54175436294E+02  0.15110021719E+03  0.12500571255E+03 0.  0.
          5    1    3    3  502    0 -0.10162273200E+02  0.36407534909E+02  0.47938858389E+02  0.61229115120E+02  0.47000000000E+01 0.  1.
         -5    1    3    3    0  502  0.75471634631E+02 -0.38542219291E+02  0.37972753991E+03  0.38909711495E+03  0.47000000000E+01 0.  1.
          5    1    4    4  503    0 -0.79337789905E+01 -0.26986832439E+02  0.77435958239E+02  0.82520613198E+02  0.47000000000E+01 0. -1.
         -5    1    4    4    0  503 -0.57375582440E+02  0.29121516822E+02 -0.23260521946E+02  0.68579603991E+02  0.47000000000E+01 0. -1.
<mgrwt>
<rscale>  0 0.14105323E+03</rscale>
<asrwt>0</asrwt>
<pdfrwt beam="2">  1        5 0.91988161E-02 0.14105424E+03</pdfrwt>
<pdfrwt beam="1">  1       -5 0.83328332E-01 0.14105424E+03</pdfrwt>
<totfact> 0.82990042E+01</totfact>
</mgrwt>
</event>
<event>
 8    1  0.3763376E-007  0.2148444E+03  0.7546771E-02  0.1137787E+00
          5   -1    0    0  501    0  0.00000000000E+00  0.00000000000E+00  0.68980920815E+02  0.69140852154E+02  0.47000000000E+01 0.  1.
         -5   -1    0    0    0  501 -0.00000000000E+00 -0.00000000000E+00 -0.77536121335E+03  0.77537545819E+03  0.47000000000E+01 0.  1.
         25    2    1    2    0    0 -0.15040255590E+03  0.88948116774E+02 -0.51015860916E+03  0.55355210889E+03  0.12500173783E+03 0.  0.
         25    2    1    2    0    0  0.15040255590E+03 -0.88948116774E+02 -0.19622168338E+03  0.29096420146E+03  0.12499808481E+03 0.  0.
          5    1    4    4  502    0  0.15810476369E+03 -0.75376030888E+02 -0.20717013092E+03  0.27133045439E+03  0.47000000000E+01 0. -1.
         -5    1    4    4    0  502 -0.77022077986E+01 -0.13572085886E+02  0.10948447543E+02  0.19633747066E+02  0.47000000000E+01 0. -1.
          5    1    3    3  503    0  0.15446659686E+02 -0.11720445708E+02 -0.63350253702E+02  0.66417714408E+02  0.47000000000E+01 0.  1.
         -5    1    3    3    0  503 -0.16584921558E+03  0.10066856248E+03 -0.44680835545E+03  0.48713439448E+03  0.47000000000E+01 0.  1.
<mgrwt>
<rscale>  0 0.21484390E+03</rscale>
<asrwt>0</asrwt>
<pdfrwt beam="1">  1        5 0.10625848E-01 0.21484443E+03</pdfrwt>
<pdfrwt beam="2">  1       -5 0.11929973E+00 0.21484443E+03</pdfrwt>
<totfact> 0.30120872E+01</totfact>
</mgrwt>
</event>
<event>
 8    1  0.3763376E-007  0.1550176E+03  0.7546771E-02  0.1194440E+00
          5   -1    0    0  501    0  0.00000000000E+00  0.00000000000E+00  0.12572042893E+04  0.12572130746E+04  0.47000000000E+01 0. -1.
         -5   -1    0    0    0  501 -0.00000000000E+00 -0.00000000000E+00 -0.38566091594E+02  0.38851427527E+02  0.47000000000E+01 0. -1.
         25    2    1    2    0    0 -0.91646490583E+02 -0.26432394719E+01  0.14820354661E+03  0.21446389344E+03  0.12499761762E+03 0.  0.
         25    2    1    2    0    0  0.91646490583E+02  0.26432394719E+01  0.10704346511E+04  0.10816006087E+04  0.12499387414E+03 0.  0.
          5    1    3    3  502    0 -0.10175513350E+03  0.34914013673E+02  0.74326678371E+02  0.13084204470E+03  0.47000000000E+01 0. -1.
         -5    1    3    3    0  502  0.10108642916E+02 -0.37557253145E+02  0.73876868243E+02  0.83621848741E+02  0.47000000000E+01 0. -1.
          5    1    4    4  503    0 -0.24446618624E+02  0.92937695882E+01  0.78789350876E+02  0.83149642975E+02  0.47000000000E+01 0. -1.
         -5    1    4    4    0  503  0.11609310921E+03 -0.66505301163E+01  0.99164530019E+03  0.99845096572E+03  0.47000000000E+01 0. -1.
<mgrwt>
<rscale>  0 0.15501689E+03</rscale>
<asrwt>0</asrwt>
<pdfrwt beam="1">  1        5 0.19343867E+00 0.15501765E+03</pdfrwt>
<pdfrwt beam="2">  1       -5 0.59558697E-02 0.15501765E+03</pdfrwt>
<totfact> 0.19623471E+01</totfact>
</mgrwt>
</event>
<event>
 8    1  0.3763376E-007  0.1666770E+03  0.7546771E-02  0.1181359E+00
         -5   -1    0    0    0  501 -0.00000000000E+00  0.00000000000E+00  0.22146703126E+02  0.22639930640E+02  0.47000000000E+01 0.  1.
          5   -1    0    0  501    0  0.00000000000E+00 -0.00000000000E+00 -0.13687707062E+04  0.13687787754E+04  0.47000000000E+01 0.  1.
         25    2    1    2    0    0 -0.58323178328E+02  0.93565267899E+02 -0.46004380315E+03  0.48930717177E+03  0.12500062018E+03 0.  0.
         25    2    1    2    0    0  0.58323178328E+02 -0.93565267899E+02 -0.88658019991E+03  0.90211153431E+03  0.12499886791E+03 0.  0.
          5    1    3    3  502    0  0.24769085004E+01 -0.18072563191E+02 -0.93979949786E+01  0.21051482742E+02  0.47000000000E+01 0. -1.
         -5    1    3    3    0  502 -0.60800086828E+02  0.11163783109E+03 -0.45064580817E+03  0.46825568903E+03  0.47000000000E+01 0. -1.
          5    1    4    4  503    0  0.82886558824E+02 -0.37372024579E+02 -0.33634533792E+03  0.34844960353E+03  0.47000000000E+01 0. -1.
         -5    1    4    4    0  503 -0.24563380496E+02 -0.56193243320E+02 -0.55023486199E+03  0.55366193079E+03  0.47000000000E+01 0. -1.
<mgrwt>
<rscale>  0 0.16667663E+03</rscale>
<asrwt>0</asrwt>
<pdfrwt beam="2">  1        5 0.21061860E+00 0.16667696E+03</pdfrwt>
<pdfrwt beam="1">  1       -5 0.34457475E-02 0.16667696E+03</pdfrwt>
<totfact> 0.37855915E+01</totfact>
</mgrwt>
</event>
<event>
 8    1  0.3763376E-007  0.1353304E+03  0.7546771E-02  0.1219756E+00
          5   -1    0    0  501    0  0.00000000000E+00  0.00000000000E+00  0.26526716626E+03  0.26530880026E+03  0.47000000000E+01 0. -1.
         -5   -1    0    0    0  501 -0.00000000000E+00 -0.00000000000E+00 -0.70140627498E+02  0.70297920495E+02  0.47000000000E+01 0. -1.
         25    2    1    2    0    0 -0.12570924119E+02  0.50300797011E+02  0.75380143306E+02  0.15490386692E+03  0.12499937468E+03 0.  0.
         25    2    1    2    0    0  0.12570924119E+02 -0.50300797011E+02  0.11974639545E+03  0.18070285383E+03  0.12500449530E+03 0.  0.
          5    1    4    4  502    0  0.89140094391E+01  0.13412661631E+02  0.11534702464E+03  0.11656065009E+03  0.47000000000E+01 0.  1.
         -5    1    4    4    0  502  0.36569146803E+01 -0.63713458642E+02  0.43993708145E+01  0.64142203741E+02  0.47000000000E+01 0.  1.
          5    1    3    3  503    0 -0.35568104480E+02 -0.29693024769E+02  0.70274650547E+01  0.47098206349E+02  0.47000000000E+01 0. -1.
         -5    1    3    3    0  503  0.22997180360E+02  0.79993821780E+02  0.68352678251E+02  0.10780566057E+03  0.47000000000E+01 0. -1.
<mgrwt>
<rscale>  0 0.13532924E+03</rscale>
<asrwt>0</asrwt>
<pdfrwt beam="1">  1        5 0.40825635E-01 0.13533042E+03</pdfrwt>
<pdfrwt beam="2">  1       -5 0.10806168E-01 0.13533042E+03</pdfrwt>
<totfact> 0.29329361E+02</totfact>
</mgrwt>
</event>
<event>
 8    1  0.3763376E-007  0.1261925E+03  0.7546771E-02  0.1233221E+00
          5   -1    0    0  501    0  0.00000000000E+00  0.00000000000E+00  0.95697579053E+01  0.10661625878E+02  0.47000000000E+01 0. -1.
         -5   -1    0    0    0  501 -0.00000000000E+00 -0.00000000000E+00 -0.16236080483E+04  0.16236148510E+04  0.47000000000E+01 0. -1.
         25    2    1    2    0    0 -0.36214306417E+00 -0.17294690059E+02 -0.95115133142E+03  0.95948489471E+03  0.12499268159E+03 0.  0.
         25    2    1    2    0    0  0.36214306417E+00  0.17294690059E+02 -0.66288695898E+03  0.67479158221E+03  0.12500128636E+03 0.  0.
          5    1    4    4  502    0 -0.55034485725E+02 -0.86915292866E+01 -0.19372191897E+03  0.20162988169E+03  0.47000000000E+01 0.  1.
         -5    1    4    4    0  502  0.55396628790E+02  0.25986219345E+02 -0.46916504001E+03  0.47316170052E+03  0.47000000000E+01 0.  1.
          5    1    3    3  503    0  0.56347204206E+02 -0.31835078538E+02 -0.40222256244E+03  0.40742307174E+03  0.47000000000E+01 0.  1.
         -5    1    3    3    0  503 -0.56709347270E+02  0.14540388479E+02 -0.54892876898E+03  0.55206182297E+03  0.47000000000E+01 0.  1.
<mgrwt>
<rscale>  0 0.12619042E+03</rscale>
<asrwt>0</asrwt>
<pdfrwt beam="1">  1        5 0.15567849E-02 0.12619255E+03</pdfrwt>
<pdfrwt beam="2">  1       -5 0.24987016E+00 0.12619255E+03</pdfrwt>
<totfact> 0.69683541E+01</totfact>
</mgrwt>
</event>
<event>
 8    1  0.3763376E-007  0.1264080E+03  0.7546771E-02  0.1232886E+00
         -5   -1    0    0    0  501 -0.00000000000E+00  0.00000000000E+00  0.66415318154E+02  0.66581412463E+02  0.47000000000E+01 0. -1.
          5   -1    0    0  501    0  0.00000000000E+00 -0.00000000000E+00 -0.24079209866E+03  0.24083796373E+03  0.47000000000E+01 0. -1.
         25    2    1    2    0    0 -0.12412093007E+02 -0.14111418319E+02 -0.95439850788E+02  0.15838910348E+03  0.12500060321E+03 0.  0.
         25    2    1    2    0    0  0.12412093007E+02  0.14111418319E+02 -0.78936929714E+02  0.14903027272E+03  0.12500316450E+03 0.  0.
          5    1    4    4  502    0  0.14884992735E+02 -0.18697905407E+02 -0.10437311454E+03  0.10717747765E+03  0.47000000000E+01 0. -1.
         -5    1    4    4    0  502 -0.24728997284E+01  0.32809323726E+02  0.25436184831E+02  0.41852795070E+02  0.47000000000E+01 0. -1.
          5    1    3    3  503    0  0.54923844181E+02 -0.18296963784E+02 -0.52400372236E+02  0.78225932745E+02  0.47000000000E+01 0.  1.
         -5    1    3    3    0  503 -0.67335937188E+02  0.41855454655E+01 -0.43039478552E+02  0.80163170732E+02  0.47000000000E+01 0.  1.
<mgrwt>
<rscale>  0 0.12640737E+03</rscale>
<asrwt>0</asrwt>
<pdfrwt beam="2">  1        5 0.37061243E-01 0.12640800E+03</pdfrwt>
<pdfrwt beam="1">  1       -5 0.10234046E-01 0.12640800E+03</pdfrwt>
<totfact> 0.38323838E+02</totfact>
</mgrwt>
</event>
<event>
 8    1  0.3763376E-007  0.1356784E+03  0.7546771E-02  0.1219266E+00
         -5   -1    0    0    0  501 -0.00000000000E+00  0.00000000000E+00  0.39067106939E+03  0.39069934023E+03  0.47000000000E+01 0.  1.
          5   -1    0    0  501    0  0.00000000000E+00 -0.00000000000E+00 -0.47396380514E+02  0.47628845103E+02  0.47000000000E+01 0.  1.
         25    2    1    2    0    0  0.45167547773E+02 -0.27266943586E+02  0.19230888540E+03  0.23535210500E+03  0.12499724932E+03 0.  0.
         25    2    1    2    0    0 -0.45167547773E+02  0.27266943586E+02  0.15096580347E+03  0.20297608034E+03  0.12500008715E+03 0.  0.
          5    1    4    4  502    0 -0.23200497957E+02  0.77292206380E+02  0.90786377859E+02  0.12155905839E+03  0.47000000000E+01 0. -1.
         -5    1    4    4    0  502 -0.21967049816E+02 -0.50025262794E+02  0.60179425616E+02  0.81417021947E+02  0.47000000000E+01 0. -1.
          5    1    3    3  503    0  0.58453621152E+02 -0.47480513794E+02  0.49064121579E+02  0.90003350172E+02  0.47000000000E+01 0. -1.
         -5    1    3    3    0  503 -0.13286073379E+02  0.20213570208E+02  0.14324476382E+03  0.14534875483E+03  0.47000000000E+01 0. -1.
<mgrwt>
<rscale>  0 0.13567770E+03</rscale>
<asrwt>0</asrwt>
<pdfrwt beam="2">  1        5 0.73118073E-02 0.13567835E+03</pdfrwt>
<pdfrwt beam="1">  1       -5 0.60123299E-01 0.13567835E+03</pdfrwt>
<totfact> 0.25411946E+02</totfact>
</mgrwt>
</event>
<event>
 8    1  0.3763376E-007  0.1516722E+03  0.7546771E-02  0.1198435E+00
          5   -1    0    0  501    0  0.00000000000E+00  0.00000000000E+00  0.10548777575E+03  0.10559242792E+03  0.47000000000E+01 0. -1.
         -5   -1    0    0    0  501 -0.00000000000E+00 -0.00000000000E+00 -0.21820943556E+03  0.21826004621E+03  0.47000000000E+01 0. -1.
         25    2    1    2    0    0  0.39451871884E+02  0.76299205042E+02 -0.63099463520E+02  0.16426921138E+03  0.12499925050E+03 0.  0.
         25    2    1    2    0    0 -0.39451871884E+02 -0.76299205042E+02 -0.49622196293E+02  0.15958326274E+03  0.12500574586E+03 0.  0.
          5    1    4    4  502    0  0.44856290892E+02 -0.37433880649E+02 -0.22091064541E+02  0.62637747290E+02  0.47000000000E+01 0. -1.
         -5    1    4    4    0  502 -0.84308162776E+02 -0.38865324393E+02 -0.27531131752E+02  0.96945515453E+02  0.47000000000E+01 0. -1.
          5    1    3    3  503    0 -0.29466361641E+01 -0.10564055732E+02 -0.66377130190E+02  0.67441050929E+02  0.47000000000E+01 0.  1.
         -5    1    3    3    0  503  0.42398508048E+02  0.86863260773E+02  0.32776666699E+01  0.96828160448E+02  0.47000000000E+01 0.  1.
<mgrwt>
<rscale>  0 0.15167086E+03</rscale>
<asrwt>0</asrwt>
<pdfrwt beam="1">  1        5 0.16240832E-01 0.15167220E+03</pdfrwt>
<pdfrwt beam="2">  1       -5 0.33582626E-01 0.15167220E+03</pdfrwt>
<totfact> 0.21813863E+02</totfact>
</mgrwt>
</event>
<event>
 8    1  0.3763376E-007  0.1384059E+03  0.7546771E-02  0.1215491E+00
          5   -1    0    0  501    0  0.00000000000E+00  0.00000000000E+00  0.20302239856E+02  0.20839168486E+02  0.47000000000E+01 0.  1.
         -5   -1    0    0    0  501 -0.00000000000E+00 -0.00000000000E+00 -0.10434998977E+04  0.10435104823E+04  0.47000000000E+01 0.  1.
         25    2    1    2    0    0  0.41283537967E+02 -0.42741902933E+02 -0.68653246548E+03  0.70034464867E+03  0.12499839994E+03 0.  0.
         25    2    1    2    0    0 -0.41283537967E+02  0.42741902933E+02 -0.33666519240E+03  0.36400500207E+03  0.12499995595E+03 0.  0.
          5    1    4    4  502    0  0.23382914564E+02  0.30494508658E+01 -0.23916178314E+03  0.24036744446E+03  0.47000000000E+01 0.  1.
         -5    1    4    4    0  502 -0.64666452531E+02  0.39692452068E+02 -0.97503409265E+02  0.12363755761E+03  0.47000000000E+01 0.  1.
          5    1    3    3  503    0  0.11655959035E+02  0.59364756003E+00 -0.81885616565E+00  0.12608502047E+02  0.47000000000E+01 0.  1.
         -5    1    3    3    0  503  0.29627578932E+02 -0.43335550493E+02 -0.68571360931E+03  0.68773614662E+03  0.47000000000E+01 0.  1.
<mgrwt>
<rscale>  0 0.13840554E+03</rscale>
<asrwt>0</asrwt>
<pdfrwt beam="1">  1        5 0.31655387E-02 0.13840589E+03</pdfrwt>
<pdfrwt beam="2">  1       -5 0.16058052E+00 0.13840589E+03</pdfrwt>
<totfact> 0.92957010E+01</totfact>
</mgrwt>
</event>
<event>
 8    1  0.3763376E-007  0.1813361E+03  0.7546771E-02  0.1166517E+00
          5   -1    0    0  501    0  0.00000000000E+00  0.00000000000E+00  0.30013920699E+03  0.30017600433E+03  0.47000000000E+01 0.  1.
         -5   -1    0    0    0  501 -0.00000000000E+00 -0.00000000000E+00 -0.11068060535E+03  0.11078035205E+03  0.47000000000E+01 0.  1.
         25    2    1    2    0    0  0.15489802088E+02 -0.13044584091E+03  0.73178127898E+02  0.19554060424E+03  0.12500015250E+03 0.  0.
         25    2    1    2    0    0 -0.15489802088E+02  0.13044584091E+03  0.11628047375E+03  0.21541575213E+03  0.12500698505E+03 0.  0.
          5    1    3    3  502    0 -0.99478016877E+01  0.10300380012E+02 -0.19800586145E+02  0.24883926509E+02  0.47000000000E+01 0. -1.
         -5    1    3    3    0  502  0.25437603775E+02 -0.14074622093E+03  0.92978714044E+02  0.17065667774E+03  0.47000000000E+01 0. -1.
          5    1    4    4  503    0 -0.27705319393E+02  0.34124283254E+02 -0.19590939111E+02  0.48352314582E+02  0.47000000000E+01 0. -1.
         -5    1    4    4    0  503  0.12215517305E+02  0.96321557660E+02  0.13587141286E+03  0.16706343755E+03  0.47000000000E+01 0. -1.
<mgrwt>
<rscale>  0 0.18133497E+03</rscale>
<asrwt>0</asrwt>
<pdfrwt beam="1">  1        5 0.46185766E-01 0.18133615E+03</pdfrwt>
<pdfrwt beam="2">  1       -5 0.17038289E-01 0.18133615E+03</pdfrwt>
<totfact> 0.10988821E+02</totfact>
</mgrwt>
</event>
<event>
 8    1  0.3763376E-007  0.1488870E+03  0.7546771E-02  0.1201848E+00
          5   -1    0    0  501    0  0.00000000000E+00  0.00000000000E+00  0.17992665582E+03  0.17998803148E+03  0.47000000000E+01 0. -1.
         -5   -1    0    0    0  501 -0.00000000000E+00 -0.00000000000E+00 -0.14853503494E+03  0.14860937589E+03  0.47000000000E+01 0. -1.
         25    2    1    2    0    0  0.68213806197E+02 -0.43452069413E+02 -0.52295003186E+02  0.15780398578E+03  0.12500449943E+03 0.  0.
         25    2    1    2    0    0 -0.68213806197E+02  0.43452069413E+02  0.83686624070E+02  0.17079342159E+03  0.12500294444E+03 0.  0.
          5    1    3    3  502    0  0.37496501597E+02 -0.97326861599E+01  0.39293134075E+02  0.55378273694E+02  0.47000000000E+01 0.  1.
         -5    1    3    3    0  502  0.30717304601E+02 -0.33719383253E+02 -0.91588137261E+02  0.10242571208E+03  0.47000000000E+01 0.  1.
          5    1    4    4  503    0 -0.20251309134E+02  0.38963832014E+02  0.10796243767E+03  0.11664593296E+03  0.47000000000E+01 0.  1.
         -5    1    4    4    0  503 -0.47962497063E+02  0.44882373988E+01 -0.24275813604E+02  0.54147488636E+02  0.47000000000E+01 0.  1.
<mgrwt>
<rscale>  0 0.14888665E+03</rscale>
<asrwt>0</asrwt>
<pdfrwt beam="1">  1        5 0.27691464E-01 0.14888697E+03</pdfrwt>
<pdfrwt beam="2">  1       -5 0.22861984E-01 0.14888697E+03</pdfrwt>
<totfact> 0.16773089E+02</totfact>
</mgrwt>
</event>
<event>
 8    1  0.3763376E-007  0.2017391E+03  0.7546771E-02  0.1148281E+00
         -5   -1    0    0    0  501 -0.00000000000E+00  0.00000000000E+00  0.25252997307E+03  0.25257370667E+03  0.47000000000E+01 0.  1.
          5   -1    0    0  501    0  0.00000000000E+00 -0.00000000000E+00 -0.29901654128E+03  0.29905347676E+03  0.47000000000E+01 0.  1.
         25    2    1    2    0    0 -0.12803658692E+02 -0.15782523834E+03  0.16406402975E+03  0.26002774057E+03  0.12499872190E+03 0.  0.
         25    2    1    2    0    0  0.12803658692E+02  0.15782523834E+03 -0.21055059797E+03  0.29159944285E+03  0.12500376488E+03 0.  0.
          5    1    3    3  502    0 -0.28565140635E+02 -0.13445365933E+03  0.56425029405E+02  0.14865943533E+03  0.47000000000E+01 0. -1.
         -5    1    3    3    0  502  0.15761481943E+02 -0.23371579002E+02  0.10763900035E+03  0.11136830525E+03  0.47000000000E+01 0. -1.
          5    1    4    4  503    0  0.59171901242E-01  0.17167294526E+03 -0.15001228819E+03  0.22802934075E+03  0.47000000000E+01 0. -1.
         -5    1    4    4    0  503  0.12744486791E+02 -0.13847706919E+02 -0.60538309779E+02  0.63570102103E+02  0.47000000000E+01 0. -1.
<mgrwt>
<rscale>  0 0.20173836E+03</rscale>
<asrwt>0</asrwt>
<pdfrwt beam="2">  1        5 0.46008750E-01 0.20173914E+03</pdfrwt>
<pdfrwt beam="1">  1       -5 0.38856971E-01 0.20173914E+03</pdfrwt>
<totfact> 0.23060519E+01</totfact>
</mgrwt>
</event>
<event>
 8    1  0.3763376E-007  0.1373635E+03  0.7546771E-02  0.1216923E+00
         -5   -1    0    0    0  501 -0.00000000000E+00  0.00000000000E+00  0.12632450342E+03  0.12641190673E+03  0.47000000000E+01 0. -1.
          5   -1    0    0  501    0  0.00000000000E+00 -0.00000000000E+00 -0.15994531438E+03  0.16001435433E+03  0.47000000000E+01 0. -1.
         25    2    1    2    0    0 -0.54329858782E+02  0.17086165613E+02  0.20318378306E+02  0.13885808262E+03  0.12500024000E+03 0.  0.
         25    2    1    2    0    0  0.54329858782E+02 -0.17086165613E+02 -0.53939189273E+02  0.14756817845E+03  0.12499304197E+03 0.  0.
          5    1    4    4  502    0  0.54664912408E+02  0.29248818865E+02 -0.74175712374E+02  0.96787769681E+02  0.47000000000E+01 0.  1.
         -5    1    4    4    0  502 -0.33505362594E+00 -0.46334984478E+02  0.20236523101E+02  0.50780408769E+02  0.47000000000E+01 0.  1.
          5    1    3    3  503    0 -0.64898059873E+02  0.62579383774E+02  0.16392560919E+02  0.91753711109E+02  0.47000000000E+01 0.  1.
         -5    1    3    3    0  503  0.10568201091E+02 -0.45493218161E+02  0.39258173876E+01  0.47104371507E+02  0.47000000000E+01 0.  1.
<mgrwt>
<rscale>  0 0.13736186E+03</rscale>
<asrwt>0</asrwt>
<pdfrwt beam="2">  1        5 0.24619006E-01 0.13736350E+03</pdfrwt>
<pdfrwt beam="1">  1       -5 0.19446573E-01 0.13736350E+03</pdfrwt>
<totfact> 0.27761293E+02</totfact>
</mgrwt>
</event>
<event>
 8    1  0.3763376E-007  0.1287712E+03  0.7546771E-02  0.1229294E+00
          5   -1    0    0  501    0  0.00000000000E+00  0.00000000000E+00  0.49316107468E+02  0.49539564550E+02  0.47000000000E+01 0. -1.
         -5   -1    0    0    0  501 -0.00000000000E+00 -0.00000000000E+00 -0.33743286374E+03  0.33746559459E+03  0.47000000000E+01 0. -1.
         25    2    1    2    0    0 -0.25023249367E+01  0.30815860769E+02 -0.15974896403E+03  0.20518713623E+03  0.12500460176E+03 0.  0.
         25    2    1    2    0    0  0.25023249367E+01 -0.30815860769E+02 -0.12836779224E+03  0.18181802291E+03  0.12499449774E+03 0.  0.
          5    1    4    4  502    0 -0.18720920692E+02  0.34833775766E+02 -0.46637794609E+01  0.40096204864E+02  0.47000000000E+01 0. -1.
         -5    1    4    4    0  502  0.21223245628E+02 -0.65649636535E+02 -0.12370401278E+03  0.14172181804E+03  0.47000000000E+01 0. -1.
          5    1    3    3  503    0  0.11769045106E+02  0.12299547726E+02 -0.17564385677E+03  0.17652944150E+03  0.47000000000E+01 0.  1.
         -5    1    3    3    0  503 -0.14271370043E+02  0.18516313043E+02  0.15894892741E+02  0.28657694723E+02  0.47000000000E+01 0.  1.
<mgrwt>
<rscale>  0 0.12876878E+03</rscale>
<asrwt>0</asrwt>
<pdfrwt beam="1">  1        5 0.76068004E-02 0.12877123E+03</pdfrwt>
<pdfrwt beam="2">  1       -5 0.51932454E-01 0.12877123E+03</pdfrwt>
<totfact> 0.31994022E+02</totfact>
</mgrwt>
</event>
<event>
 8    1  0.3763376E-007  0.1462543E+03  0.7546771E-02  0.1205153E+00
         -5   -1    0    0    0  501 -0.00000000000E+00  0.00000000000E+00  0.23748603519E+03  0.23753253864E+03  0.47000000000E+01 0.  1.
          5   -1    0    0  501    0  0.00000000000E+00 -0.00000000000E+00 -0.90501607658E+02  0.90623567512E+02  0.47000000000E+01 0.  1.
         25    2    1    2    0    0 -0.48281469437E+02 -0.58604363556E+02  0.60717201705E+02  0.15835517306E+03  0.12499684209E+03 0.  0.
         25    2    1    2    0    0  0.48281469437E+02  0.58604363556E+02  0.86267225830E+02  0.16980093309E+03  0.12499900363E+03 0.  0.
          5    1    4    4  502    0  0.28162301989E+02  0.26543585623E+02 -0.28870227718E+02  0.48510382801E+02  0.47000000000E+01 0.  1.
         -5    1    4    4    0  502  0.20119167448E+02  0.32060777933E+02  0.11513745355E+03  0.12129055029E+03  0.47000000000E+01 0.  1.
          5    1    3    3  503    0 -0.74911470034E+02 -0.44164803071E+02 -0.35400393152E+01  0.87160082902E+02  0.47000000000E+01 0.  1.
         -5    1    3    3    0  503  0.26630000598E+02 -0.14439560484E+02  0.64257241020E+02  0.71195090156E+02  0.47000000000E+01 0.  1.
<mgrwt>
<rscale>  0 0.14625385E+03</rscale>
<asrwt>0</asrwt>
<pdfrwt beam="2">  1        5 0.13936283E-01 0.14625431E+03</pdfrwt>
<pdfrwt beam="1">  1       -5 0.36549271E-01 0.14625431E+03</pdfrwt>
<totfact> 0.23998667E+02</totfact>
</mgrwt>
</event>
<event>
 8    1  0.3763376E-007  0.1493109E+03  0.7546771E-02  0.1201323E+00
          5   -1    0    0  501    0  0.00000000000E+00  0.00000000000E+00  0.26740478112E+03  0.26744608235E+03  0.47000000000E+01 0. -1.
         -5   -1    0    0    0  501 -0.00000000000E+00 -0.00000000000E+00 -0.12295701391E+03  0.12304680927E+03  0.47000000000E+01 0. -1.
         25    2    1    2    0    0  0.68682563962E+01  0.81367771722E+02 -0.38653142815E+02  0.15423097185E+03  0.12500096002E+03 0.  0.
         25    2    1    2    0    0 -0.68682563962E+01 -0.81367771722E+02  0.18310091002E+03  0.23626191977E+03  0.12500345701E+03 0.  0.
          5    1    4    4  502    0  0.40233182863E+02 -0.48191589939E+02  0.24669930768E+02  0.67615337226E+02  0.47000000000E+01 0.  1.
         -5    1    4    4    0  502 -0.47101439259E+02 -0.33176181782E+02  0.15843097925E+03  0.16864658255E+03  0.47000000000E+01 0.  1.
          5    1    3    3  503    0 -0.46984515386E+02  0.79714535348E+02 -0.38011328220E+02  0.10014441025E+03  0.47000000000E+01 0.  1.
         -5    1    3    3    0  503  0.53852771782E+02  0.16532363739E+01 -0.64181459485E+00  0.54086561594E+02  0.47000000000E+01 0.  1.
<mgrwt>
<rscale>  0 0.14931040E+03</rscale>
<asrwt>0</asrwt>
<pdfrwt beam="1">  1        5 0.41149281E-01 0.14931092E+03</pdfrwt>
<pdfrwt beam="2">  1       -5 0.18926548E-01 0.14931092E+03</pdfrwt>
<totfact> 0.10846059E+02</totfact>
</mgrwt>
</event>
<event>
 8    1  0.3763376E-007  0.1538080E+03  0.7546771E-02  0.1195875E+00
          5   -1    0    0  501    0  0.00000000000E+00  0.00000000000E+00  0.12641052244E+03  0.12649786632E+03  0.47000000000E+01 0. -1.
         -5   -1    0    0    0  501 -0.00000000000E+00 -0.00000000000E+00 -0.22371991044E+03  0.22376927477E+03  0.47000000000E+01 0. -1.
         25    2    1    2    0    0 -0.58956955880E+02  0.67480489439E+02 -0.11964001706E+03  0.19486052377E+03  0.12500940341E+03 0.  0.
         25    2    1    2    0    0  0.58956955880E+02 -0.67480489439E+02  0.22330629064E+02  0.15540661732E+03  0.12499208219E+03 0.  0.
          5    1    3    3  502    0 -0.45700402251E+02 -0.29381953353E+02 -0.55681635355E+02  0.77938183611E+02  0.47000000000E+01 0. -1.
         -5    1    3    3    0  502 -0.13256553629E+02  0.96862442792E+02 -0.63958381710E+02  0.11692234016E+03  0.47000000000E+01 0. -1.
          5    1    4    4  503    0  0.36347364035E+02 -0.71930177766E+01 -0.47421364568E+02  0.60363450816E+02  0.47000000000E+01 0.  1.
         -5    1    4    4    0  503  0.22609591845E+02 -0.60287471662E+02  0.69751993632E+02  0.95043166500E+02  0.47000000000E+01 0.  1.
<mgrwt>
<rscale>  0 0.15380445E+03</rscale>
<asrwt>0</asrwt>
<pdfrwt beam="1">  1        5 0.19458289E-01 0.15380796E+03</pdfrwt>
<pdfrwt beam="2">  1       -5 0.34428964E-01 0.15380796E+03</pdfrwt>
<totfact> 0.14935471E+02</totfact>
</mgrwt>
</event>
<event>
 8    1  0.3763376E-007  0.1360557E+03  0.7546771E-02  0.1218741E+00
         -5   -1    0    0    0  501 -0.00000000000E+00  0.00000000000E+00  0.32806629986E+02  0.33141589748E+02  0.47000000000E+01 0. -1.
          5   -1    0    0  501    0  0.00000000000E+00 -0.00000000000E+00 -0.66856884140E+03  0.66858536156E+03  0.47000000000E+01 0. -1.
         25    2    1    2    0    0  0.45765610020E+02 -0.28102272995E+02 -0.17718808934E+03  0.22339826097E+03  0.12500774053E+03 0.  0.
         25    2    1    2    0    0 -0.45765610020E+02  0.28102272995E+02 -0.45857412207E+03  0.47832869034E+03  0.12499552695E+03 0.  0.
          5    1    4    4  502    0 -0.28750847687E+02 -0.31912956023E+02 -0.55044242481E+02  0.69978615556E+02  0.47000000000E+01 0. -1.
         -5    1    4    4    0  502 -0.17014762333E+02  0.60015229018E+02 -0.40352987959E+03  0.40835007478E+03  0.47000000000E+01 0. -1.
          5    1    3    3  503    0 -0.21370467589E+02  0.36057527657E+02 -0.43860707612E+02  0.60849764650E+02  0.47000000000E+01 0.  1.
         -5    1    3    3    0  503  0.67136077610E+02 -0.64159800652E+02 -0.13332738173E+03  0.16254849632E+03  0.47000000000E+01 0.  1.
<mgrwt>
<rscale>  0 0.13605293E+03</rscale>
<asrwt>0</asrwt>
<pdfrwt beam="2">  1        5 0.10288377E+00 0.13605574E+03</pdfrwt>
<pdfrwt beam="1">  1       -5 0.50742113E-02 0.13605574E+03</pdfrwt>
<totfact> 0.13599648E+02</totfact>
</mgrwt>
</event>
<event>
 8    1  0.3763376E-007  0.2724776E+03  0.7546771E-02  0.1099870E+00
          5   -1    0    0  501    0  0.00000000000E+00  0.00000000000E+00  0.42974690563E+03  0.42977260603E+03  0.47000000000E+01 0. -1.
         -5   -1    0    0    0  501 -0.00000000000E+00 -0.00000000000E+00 -0.17354903863E+03  0.17361266892E+03  0.47000000000E+01 0. -1.
         25    2    1    2    0    0 -0.92628113672E+02  0.22369222633E+03  0.14921111695E+03  0.31065633174E+03  0.12500087788E+03 0.  0.
         25    2    1    2    0    0  0.92628113672E+02 -0.22369222633E+03  0.10698675005E+03  0.29272894322E+03  0.12500355975E+03 0.  0.
          5    1    3    3  502    0 -0.11617632032E+03  0.12550695433E+03  0.86597466540E+02  0.19175542809E+03  0.47000000000E+01 0. -1.
         -5    1    3    3    0  502  0.23548206650E+02  0.98185271994E+02  0.62613650407E+02  0.11890090366E+03  0.47000000000E+01 0. -1.
          5    1    4    4  503    0  0.10872873536E+03 -0.20583957725E+03  0.61114196474E+02  0.24072578688E+03  0.47000000000E+01 0.  1.
         -5    1    4    4    0  503 -0.16100621693E+02 -0.17852649077E+02  0.45872553574E+02  0.52003156341E+02  0.47000000000E+01 0.  1.
<mgrwt>
<rscale>  0 0.27247734E+03</rscale>
<asrwt>0</asrwt>
<pdfrwt beam="1">  1        5 0.66121780E-01 0.27247765E+03</pdfrwt>
<pdfrwt beam="2">  1       -5 0.26706724E-01 0.27247765E+03</pdfrwt>
<totfact> 0.23761458E+01</totfact>
</mgrwt>
</event>
<event>
 8    1  0.3763376E-007  0.1342266E+03  0.7546771E-02  0.1221318E+00
         -5   -1    0    0    0  501 -0.00000000000E+00  0.00000000000E+00  0.45095369966E+02  0.45339633792E+02  0.47000000000E+01 0.  1.
          5   -1    0    0  501    0  0.00000000000E+00 -0.00000000000E+00 -0.40165863994E+03  0.40168613748E+03  0.47000000000E+01 0.  1.
         25    2    1    2    0    0 -0.22667577247E+02 -0.43308921777E+02 -0.19910909423E+03  0.24012338239E+03  0.12500130241E+03 0.  0.
         25    2    1    2    0    0  0.22667577247E+02  0.43308921777E+02 -0.15745417575E+03  0.20690238888E+03  0.12500919685E+03 0.  0.
          5    1    4    4  502    0  0.15463664770E+02 -0.18772363862E+02 -0.13953500339E+03  0.14171673770E+03  0.47000000000E+01 0. -1.
         -5    1    4    4    0  502  0.72039124770E+01  0.62081285639E+02 -0.17919172364E+02  0.65185651180E+02  0.47000000000E+01 0. -1.
          5    1    3    3  503    0 -0.24996435402E+02 -0.55425895549E+02 -0.25642424265E+02  0.66154936342E+02  0.47000000000E+01 0. -1.
         -5    1    3    3    0  503  0.23288581553E+01  0.12116973772E+02 -0.17346666996E+03  0.17396844605E+03  0.47000000000E+01 0. -1.
<mgrwt>
<rscale>  0 0.13422477E+03</rscale>
<asrwt>0</asrwt>
<pdfrwt beam="2">  1        5 0.61814539E-01 0.13422660E+03</pdfrwt>
<pdfrwt beam="1">  1       -5 0.69586542E-02 0.13422660E+03</pdfrwt>
<totfact> 0.25916018E+02</totfact>
</mgrwt>
</event>
<event>
 8    1  0.3763376E-007  0.1356573E+03  0.7546771E-02  0.1219296E+00
         -5   -1    0    0    0  501 -0.00000000000E+00  0.00000000000E+00  0.17589169494E+04  0.17589232288E+04  0.47000000000E+01 0.  1.
          5   -1    0    0  501    0  0.00000000000E+00 -0.00000000000E+00 -0.18421535503E+02  0.19011653539E+02  0.47000000000E+01 0.  1.
         25    2    1    2    0    0 -0.25020223825E+02  0.46303416258E+02  0.14607319830E+04  0.14670176675E+04  0.12503156644E+03 0.  0.
         25    2    1    2    0    0  0.25020223825E+02 -0.46303416258E+02  0.27976343093E+03  0.31091721490E+03  0.12502767406E+03 0.  0.
          5    1    3    3  502    0 -0.67330826752E+02  0.60032986228E+02  0.10395501540E+04  0.10434673029E+04  0.47000000000E+01 0.  1.
         -5    1    3    3    0  502  0.42310602927E+02 -0.13729569970E+02  0.42118182901E+03  0.42355036454E+03  0.47000000000E+01 0.  1.
          5    1    4    4  503    0  0.60903777368E+02 -0.41385025113E+02  0.25813008053E+03  0.26846828281E+03  0.47000000000E+01 0.  1.
         -5    1    4    4    0  503 -0.35883553543E+02 -0.49183911446E+01  0.21633350403E+02  0.42448932095E+02  0.47000000000E+01 0.  1.
<mgrwt>
<rscale>  0 0.13565643E+03</rscale>
<asrwt>0</asrwt>
<pdfrwt beam="2">  1        5 0.28799583E-02 0.13565733E+03</pdfrwt>
<pdfrwt beam="1">  1       -5 0.27064856E+00 0.13565733E+03</pdfrwt>
<totfact> 0.19803422E+01</totfact>
</mgrwt>
</event>
<event>
 8    1  0.3763376E-007  0.1516981E+03  0.7546771E-02  0.1198402E+00
          5   -1    0    0  501    0  0.00000000000E+00  0.00000000000E+00  0.20207517240E+02  0.20746897431E+02  0.47000000000E+01 0. -1.
         -5   -1    0    0    0  501 -0.00000000000E+00 -0.00000000000E+00 -0.11294985304E+04  0.11295083090E+04  0.47000000000E+01 0. -1.
         25    2    1    2    0    0 -0.35222610176E+02  0.78397323917E+02 -0.51187692146E+03  0.53388200700E+03  0.12500096804E+03 0.  0.
         25    2    1    2    0    0  0.35222610176E+02 -0.78397323917E+02 -0.59741409165E+03  0.61637319942E+03  0.12500220553E+03 0.  0.
          5    1    3    3  502    0  0.18239212519E+02 -0.25474555618E+02 -0.15947167234E+03  0.16258821032E+03  0.47000000000E+01 0. -1.
         -5    1    3    3    0  502 -0.53461822695E+02  0.10387187954E+03 -0.35240524912E+03  0.37129379668E+03  0.47000000000E+01 0. -1.
          5    1    4    4  503    0 -0.44342953943E+02 -0.16409178629E+02 -0.13664037550E+03  0.14466596325E+03  0.47000000000E+01 0. -1.
         -5    1    4    4    0  503  0.79565564119E+02 -0.61988145288E+02 -0.46077371616E+03  0.47170723616E+03  0.47000000000E+01 0. -1.
<mgrwt>
<rscale>  0 0.15169788E+03</rscale>
<asrwt>0</asrwt>
<pdfrwt beam="1">  1        5 0.31510927E-02 0.15169813E+03</pdfrwt>
<pdfrwt beam="2">  1       -5 0.17381120E+00 0.15169813E+03</pdfrwt>
<totfact> 0.76783255E+01</totfact>
</mgrwt>
</event>
<event>
 8    1  0.3763376E-007  0.1370905E+03  0.7546771E-02  0.1217301E+00
          5   -1    0    0  501    0  0.00000000000E+00  0.00000000000E+00  0.12505309675E+03  0.12514138807E+03  0.47000000000E+01 0.  1.
         -5   -1    0    0    0  501 -0.00000000000E+00 -0.00000000000E+00 -0.15013962192E+03  0.15021316877E+03  0.47000000000E+01 0.  1.
         25    2    1    2    0    0 -0.55843175302E+02  0.72077176574E+01 -0.14736562743E+02  0.13788030871E+03  0.12499360714E+03 0.  0.
         25    2    1    2    0    0  0.55843175302E+02 -0.72077176574E+01 -0.10349962428E+02  0.13747424813E+03  0.12498654230E+03 0.  0.
          5    1    3    3  502    0 -0.84631149799E+02  0.14697342229E+01  0.24880301916E+02  0.88349935248E+02  0.47000000000E+01 0. -1.
         -5    1    3    3    0  502  0.28787974497E+02  0.57379834344E+01 -0.39616864660E+02  0.49530373459E+02  0.47000000000E+01 0. -1.
          5    1    4    4  503    0 -0.63696682335E+01  0.15606761147E+02 -0.54811783168E+02  0.57537511598E+02  0.47000000000E+01 0.  1.
         -5    1    4    4    0  503  0.62212843536E+02 -0.22814478804E+02  0.44461820740E+02  0.79936736532E+02  0.47000000000E+01 0.  1.
<mgrwt>
<rscale>  0 0.13708892E+03</rscale>
<asrwt>0</asrwt>
<pdfrwt beam="1">  1        5 0.19251387E-01 0.13709053E+03</pdfrwt>
<pdfrwt beam="2">  1       -5 0.23110852E-01 0.13709053E+03</pdfrwt>
<totfact> 0.31885223E+02</totfact>
</mgrwt>
</event>
<event>
 8    1  0.3763376E-007  0.1676020E+03  0.7546771E-02  0.1180381E+00
         -5   -1    0    0    0  501 -0.00000000000E+00  0.00000000000E+00  0.89669711167E+02  0.89792800941E+02  0.47000000000E+01 0. -1.
          5   -1    0    0  501    0  0.00000000000E+00 -0.00000000000E+00 -0.31510808482E+03  0.31514313434E+03  0.47000000000E+01 0. -1.
         25    2    1    2    0    0  0.10892449811E+02  0.11111757258E+03 -0.95567922622E+02  0.19293430376E+03  0.12499862933E+03 0.  0.
         25    2    1    2    0    0 -0.10892449811E+02 -0.11111757258E+03 -0.12987045103E+03  0.21200163152E+03  0.12495037942E+03 0.  0.
          5    1    4    4  502    0  0.41583440081E+02 -0.10087632348E+03 -0.62381733192E+02  0.12577275446E+03  0.47000000000E+01 0.  1.
         -5    1    4    4    0  502 -0.52475889891E+02 -0.10241249096E+02 -0.67488717842E+02  0.86228877059E+02  0.47000000000E+01 0.  1.
          5    1    3    3  503    0  0.48575005005E+02  0.26410020293E+01 -0.10611862071E+02  0.50012074738E+02  0.47000000000E+01 0.  1.
         -5    1    3    3    0  503 -0.37682555195E+02  0.10847657055E+03 -0.84956060550E+02  0.14292222902E+03  0.47000000000E+01 0.  1.
<mgrwt>
<rscale>  0 0.16759297E+03</rscale>
<asrwt>0</asrwt>
<pdfrwt beam="2">  1        5 0.48490331E-01 0.16760196E+03</pdfrwt>
<pdfrwt beam="1">  1       -5 0.13807505E-01 0.16760196E+03</pdfrwt>
<totfact> 0.14209875E+02</totfact>
</mgrwt>
</event>
<event>
 8    1  0.3763376E-007  0.1350916E+03  0.7546771E-02  0.1220092E+00
          5   -1    0    0  501    0  0.00000000000E+00  0.00000000000E+00  0.15791434583E+03  0.15798427333E+03  0.47000000000E+01 0.  1.
         -5   -1    0    0    0  501 -0.00000000000E+00 -0.00000000000E+00 -0.15691836263E+03  0.15698873377E+03  0.47000000000E+01 0.  1.
         25    2    1    2    0    0 -0.31371509934E+02  0.40511592265E+02 -0.80451049791E+02  0.15723264442E+03  0.12499748923E+03 0.  0.
         25    2    1    2    0    0  0.31371509934E+02 -0.40511592265E+02  0.81447032993E+02  0.15774036268E+03  0.12499216812E+03 0.  0.
          5    1    4    4  502    0  0.67175120940E+02 -0.55219187941E+02  0.80722074861E+02  0.11874257434E+03  0.47000000000E+01 0. -1.
         -5    1    4    4    0  502 -0.35803611005E+02  0.14707595676E+02  0.72495813237E+00  0.38997788346E+02  0.47000000000E+01 0. -1.
          5    1    3    3  503    0  0.22298129491E+02 -0.24279368962E+02  0.88476282720E+01  0.34453807656E+02  0.47000000000E+01 0.  1.
         -5    1    3    3    0  503 -0.53669639425E+02  0.64790961226E+02 -0.89298678063E+02  0.12277883676E+03  0.47000000000E+01 0.  1.
<mgrwt>
<rscale>  0 0.13509034E+03</rscale>
<asrwt>0</asrwt>
<pdfrwt beam="1">  1        5 0.24305307E-01 0.13509157E+03</pdfrwt>
<pdfrwt beam="2">  1       -5 0.24152079E-01 0.13509157E+03</pdfrwt>
<totfact> 0.18809575E+02</totfact>
</mgrwt>
</event>
<event>
 8    1  0.3763376E-007  0.1397130E+03  0.7546771E-02  0.1213716E+00
          5   -1    0    0  501    0  0.00000000000E+00  0.00000000000E+00  0.49387156419E+02  0.49610293479E+02  0.47000000000E+01 0. -1.
         -5   -1    0    0    0  501 -0.00000000000E+00 -0.00000000000E+00 -0.41075484881E+03  0.41078173745E+03  0.47000000000E+01 0. -1.
         25    2    1    2    0    0 -0.49710101805E+02 -0.37745555080E+02 -0.22701206611E+03  0.26655921850E+03  0.12499407049E+03 0.  0.
         25    2    1    2    0    0  0.49710101805E+02  0.37745555080E+02 -0.13435562628E+03  0.19383281243E+03  0.12499561477E+03 0.  0.
          5    1    3    3  502    0  0.19479653253E+02  0.33709793922E+02 -0.78567641086E+02  0.87810997733E+02  0.47000000000E+01 0. -1.
         -5    1    3    3    0  502 -0.69189755058E+02 -0.71455349002E+02 -0.14844442503E+03  0.17874822077E+03  0.47000000000E+01 0. -1.
          5    1    4    4  503    0  0.87967527470E+02  0.35318722586E+01 -0.83669448746E+02  0.12154598580E+03  0.47000000000E+01 0.  1.
         -5    1    4    4    0  503 -0.38257425666E+02  0.34213682822E+02 -0.50686177534E+02  0.72286826627E+02  0.47000000000E+01 0.  1.
<mgrwt>
<rscale>  0 0.13971266E+03</rscale>
<asrwt>0</asrwt>
<pdfrwt beam="1">  1        5 0.76172571E-02 0.13971301E+03</pdfrwt>
<pdfrwt beam="2">  1       -5 0.63212284E-01 0.13971301E+03</pdfrwt>
<totfact> 0.21435763E+02</totfact>
</mgrwt>
</event>
<event>
 8    1  0.3763376E-007  0.2261419E+03  0.7546771E-02  0.1129385E+00
          5   -1    0    0  501    0  0.00000000000E+00  0.00000000000E+00  0.66716006045E+03  0.66717661550E+03  0.47000000000E+01 0.  1.
         -5   -1    0    0    0  501 -0.00000000000E+00 -0.00000000000E+00 -0.99952542684E+02  0.10006298411E+03  0.47000000000E+01 0.  1.
         25    2    1    2    0    0  0.33679477206E+02  0.18542072203E+03  0.98167805568E+02  0.24653010141E+03  0.12500008602E+03 0.  0.
         25    2    1    2    0    0 -0.33679477206E+02 -0.18542072203E+03  0.46903971220E+03  0.52070949820E+03  0.12499991420E+03 0.  0.
          5    1    3    3  502    0  0.31220393934E+02  0.14601194238E+03  0.98941919775E+01  0.14971367790E+03  0.47000000000E+01 0. -1.
         -5    1    3    3    0  502  0.24590832717E+01  0.39408779652E+02  0.88273613591E+02  0.96816423506E+02  0.47000000000E+01 0. -1.
          5    1    4    4  503    0 -0.44696106159E+02 -0.17091719101E+03  0.28250654360E+03  0.33323034865E+03  0.47000000000E+01 0.  1.
         -5    1    4    4    0  503  0.11016628953E+02 -0.14503531025E+02  0.18653316860E+03  0.18747914955E+03  0.47000000000E+01 0.  1.
<mgrwt>
<rscale>  0 0.22614191E+03</rscale>
<asrwt>0</asrwt>
<pdfrwt beam="1">  1        5 0.10264978E+00 0.22614193E+03</pdfrwt>
<pdfrwt beam="2">  1       -5 0.15387084E-01 0.22614193E+03</pdfrwt>
<totfact> 0.22884563E+01</totfact>
</mgrwt>
</event>
<event>
 8    1  0.3763376E-007  0.1597767E+03  0.7546771E-02  0.1188951E+00
          5   -1    0    0  501    0  0.00000000000E+00  0.00000000000E+00  0.10891351953E+03  0.10901488310E+03  0.47000000000E+01 0.  1.
         -5   -1    0    0    0  501 -0.00000000000E+00 -0.00000000000E+00 -0.23505460303E+03  0.23510158741E+03  0.47000000000E+01 0.  1.
         25    2    1    2    0    0 -0.89129715283E+02 -0.44236800898E+02 -0.52404826108E+02  0.16815130992E+03  0.12501038568E+03 0.  0.
         25    2    1    2    0    0  0.89129715283E+02  0.44236800898E+02 -0.73736257388E+02  0.17596516059E+03  0.12500280552E+03 0.  0.
          5    1    3    3  502    0 -0.60160262321E+02 -0.14033558335E+02  0.34980678044E+02  0.71147282158E+02  0.47000000000E+01 0.  1.
         -5    1    3    3    0  502 -0.28969452962E+02 -0.30203242563E+02 -0.87385504152E+02  0.97004027762E+02  0.47000000000E+01 0.  1.
          5    1    4    4  503    0  0.20010988709E+02  0.64175710614E+02  0.69735904389E+01  0.67747195260E+02  0.47000000000E+01 0. -1.
         -5    1    4    4    0  503  0.69118726574E+02 -0.19938909716E+02 -0.80709847826E+02  0.10821796533E+03  0.47000000000E+01 0. -1.
<mgrwt>
<rscale>  0 0.15977523E+03</rscale>
<asrwt>0</asrwt>
<pdfrwt beam="1">  1        5 0.16767338E-01 0.15977671E+03</pdfrwt>
<pdfrwt beam="2">  1       -5 0.36173658E-01 0.15977671E+03</pdfrwt>
<totfact> 0.18027291E+02</totfact>
</mgrwt>
</event>
<event>
 8    1  0.3763376E-007  0.1514555E+03  0.7546771E-02  0.1198718E+00
         -5   -1    0    0    0  501 -0.00000000000E+00  0.00000000000E+00  0.14950767850E+04  0.14950841726E+04  0.47000000000E+01 0. -1.
          5   -1    0    0  501    0  0.00000000000E+00 -0.00000000000E+00 -0.18136599303E+02  0.18735694124E+02  0.47000000000E+01 0. -1.
         25    2    1    2    0    0  0.39152332908E+02 -0.75883324685E+02  0.10490459293E+04  0.10599121111E+04  0.12500054921E+03 0.  0.
         25    2    1    2    0    0 -0.39152332908E+02  0.75883324685E+02  0.42789425644E+03  0.45390775565E+03  0.12509025463E+03 0.  0.
          5    1    3    3  502    0  0.23106768088E+02 -0.99919639054E+02  0.97337346126E+03  0.97877262022E+03  0.47000000000E+01 0. -1.
         -5    1    3    3    0  502  0.16045564820E+02  0.24036314369E+02  0.75672468046E+02  0.81139490873E+02  0.47000000000E+01 0. -1.
          5    1    4    4  503    0 -0.82826976256E+02  0.55166553660E+02  0.32861969912E+03  0.34338994349E+03  0.47000000000E+01 0.  1.
         -5    1    4    4    0  503  0.43674643349E+02  0.20716771025E+02  0.99274557319E+02  0.11051781216E+03  0.47000000000E+01 0.  1.
<mgrwt>
<rscale>  0 0.15143693E+03</rscale>
<asrwt>0</asrwt>
<pdfrwt beam="2">  1        5 0.28368977E-02 0.15145546E+03</pdfrwt>
<pdfrwt beam="1">  1       -5 0.23005854E+00 0.15145546E+03</pdfrwt>
<totfact> 0.37764179E+01</totfact>
</mgrwt>
</event>
<event>
 8    1  0.3763376E-007  0.1250939E+03  0.7546771E-02  0.1234924E+00
          5   -1    0    0  501    0  0.00000000000E+00  0.00000000000E+00  0.18303999473E+03  0.18310032679E+03  0.47000000000E+01 0. -1.
         -5   -1    0    0    0  501 -0.00000000000E+00 -0.00000000000E+00 -0.85557755454E+02  0.85686752292E+02  0.47000000000E+01 0. -1.
         25    2    1    2    0    0 -0.24622513066E+01 -0.41190590190E+01  0.42131038839E+02  0.13199436240E+03  0.12499783175E+03 0.  0.
         25    2    1    2    0    0  0.24622513066E+01  0.41190590190E+01  0.55351200440E+02  0.13679271668E+03  0.12500185046E+03 0.  0.
          5    1    4    4  502    0  0.93673117848E+01  0.44330152801E+02 -0.20951432500E+02  0.50139420631E+02  0.47000000000E+01 0.  1.
         -5    1    4    4    0  502 -0.69050604782E+01 -0.40211093782E+02  0.76302632941E+02  0.86653296054E+02  0.47000000000E+01 0.  1.
          5    1    3    3  503    0  0.16401005508E+02 -0.93777816246E+01 -0.41570873064E+02  0.45903847956E+02  0.47000000000E+01 0.  1.
         -5    1    3    3    0  503 -0.18863256815E+02  0.52587226056E+01  0.83701911903E+02  0.86090514444E+02  0.47000000000E+01 0.  1.
<mgrwt>
<rscale>  0 0.12509293E+03</rscale>
<asrwt>0</asrwt>
<pdfrwt beam="1">  1        5 0.28174563E-01 0.12509393E+03</pdfrwt>
<pdfrwt beam="2">  1       -5 0.13177296E-01 0.12509393E+03</pdfrwt>
<totfact> 0.42047089E+02</totfact>
</mgrwt>
</event>
<event>
 8    1  0.3763376E-007  0.1434730E+03  0.7546771E-02  0.1208731E+00
         -5   -1    0    0    0  501 -0.00000000000E+00  0.00000000000E+00  0.65142255614E+02  0.65311587536E+02  0.47000000000E+01 0. -1.
          5   -1    0    0  501    0  0.00000000000E+00 -0.00000000000E+00 -0.31539735607E+03  0.31543237344E+03  0.47000000000E+01 0. -1.
         25    2    1    2    0    0  0.70310302850E+02 -0.39222340064E+01 -0.12436132485E+03  0.18986903660E+03  0.12500235733E+03 0.  0.
         25    2    1    2    0    0 -0.70310302850E+02  0.39222340064E+01 -0.12589377561E+03  0.19087492437E+03  0.12500028564E+03 0.  0.
          5    1    4    4  502    0  0.19940729100E+02  0.26219654090E+01  0.13549501863E+02  0.24701950943E+02  0.47000000000E+01 0.  1.
         -5    1    4    4    0  502 -0.90251031950E+02  0.13002685974E+01 -0.13944327747E+03  0.16617297343E+03  0.47000000000E+01 0.  1.
          5    1    3    3  503    0 -0.34372597198E+02 -0.76662625499E+01 -0.15629080526E+02  0.38815012272E+02  0.47000000000E+01 0.  1.
         -5    1    3    3    0  503  0.10468290005E+03  0.37440285435E+01 -0.10873224432E+03  0.15105402433E+03  0.47000000000E+01 0.  1.
<mgrwt>
<rscale>  0 0.14347258E+03</rscale>
<asrwt>0</asrwt>
<pdfrwt beam="2">  1        5 0.48538388E-01 0.14347304E+03</pdfrwt>
<pdfrwt beam="1">  1       -5 0.10037605E-01 0.14347304E+03</pdfrwt>
<totfact> 0.23750112E+02</totfact>
</mgrwt>
</event>
<event>
 8    1  0.3763376E-007  0.1507469E+03  0.7546771E-02  0.1199559E+00
         -5   -1    0    0    0  501 -0.00000000000E+00  0.00000000000E+00  0.46356793082E+02  0.46594444570E+02  0.47000000000E+01 0. -1.
          5   -1    0    0  501    0  0.00000000000E+00 -0.00000000000E+00 -0.58049192992E+03  0.58051095657E+03  0.47000000000E+01 0. -1.
         25    2    1    2    0    0  0.84168057855E+02 -0.38868639767E+01 -0.14241094039E+03  0.20737770877E+03  0.12500107391E+03 0.  0.
         25    2    1    2    0    0 -0.84168057855E+02  0.38868639767E+01 -0.39172419645E+03  0.41972769237E+03  0.12499647989E+03 0.  0.
          5    1    3    3  502    0 -0.22779927436E+02 -0.30651059169E+02 -0.52205013323E+02  0.64852647889E+02  0.47000000000E+01 0.  1.
         -5    1    3    3    0  502  0.10694798529E+03  0.26764195192E+02 -0.90205927064E+02  0.14252506088E+03  0.47000000000E+01 0.  1.
          5    1    4    4  503    0 -0.46203962916E+02 -0.96345644313E+00 -0.37471395477E+03  0.37758227228E+03  0.47000000000E+01 0. -1.
         -5    1    4    4    0  503 -0.37964094940E+02  0.48503204198E+01 -0.17010241675E+02  0.42145420090E+02  0.47000000000E+01 0. -1.
<mgrwt>
<rscale>  0 0.15074598E+03</rscale>
<asrwt>0</asrwt>
<pdfrwt beam="2">  1        5 0.89326190E-01 0.15074693E+03</pdfrwt>
<pdfrwt beam="1">  1       -5 0.71515592E-02 0.15074693E+03</pdfrwt>
<totfact> 0.11090056E+02</totfact>
</mgrwt>
</event>
<event>
 8    1  0.3763376E-007  0.1509267E+03  0.7546771E-02  0.1199339E+00
          5   -1    0    0  501    0  0.00000000000E+00  0.00000000000E+00  0.25201759553E+03  0.25206141802E+03  0.47000000000E+01 0.  1.
         -5   -1    0    0    0  501 -0.00000000000E+00 -0.00000000000E+00 -0.92012298238E+02  0.92132258341E+02  0.47000000000E+01 0.  1.
         25    2    1    2    0    0  0.75690990007E+02  0.37743537669E+02  0.10364581495E+03  0.18308827070E+03  0.12500063723E+03 0.  0.
         25    2    1    2    0    0 -0.75690990007E+02 -0.37743537669E+02  0.56359482334E+02  0.16110540566E+03  0.12499943952E+03 0.  0.
          5    1    4    4  502    0 -0.70215065936E+02  0.33696054759E+02  0.39027860805E+02  0.87240148497E+02  0.47000000000E+01 0.  1.
         -5    1    4    4    0  502 -0.54759240714E+01 -0.71439592428E+02  0.17331621529E+02  0.73865257162E+02  0.47000000000E+01 0.  1.
          5    1    3    3  503    0  0.95187145549E+02 -0.38961114980E+01  0.97614846241E+02  0.13647901146E+03  0.47000000000E+01 0.  1.
         -5    1    3    3    0  503 -0.19496155541E+02  0.41639649167E+02  0.60309687132E+01  0.46609259244E+02  0.47000000000E+01 0.  1.
<mgrwt>
<rscale>  0 0.15092642E+03</rscale>
<asrwt>0</asrwt>
<pdfrwt beam="1">  1        5 0.38784536E-01 0.15092667E+03</pdfrwt>
<pdfrwt beam="2">  1       -5 0.14168337E-01 0.15092667E+03</pdfrwt>
<totfact> 0.20868580E+02</totfact>
</mgrwt>
</event>
<event>
 8    1  0.3763376E-007  0.1267426E+03  0.7546771E-02  0.1232375E+00
          5   -1    0    0  501    0  0.00000000000E+00  0.00000000000E+00  0.31248304411E+03  0.31251838802E+03  0.47000000000E+01 0.  1.
         -5   -1    0    0    0  501 -0.00000000000E+00 -0.00000000000E+00 -0.51545147227E+02  0.51758981855E+02  0.47000000000E+01 0.  1.
         25    2    1    2    0    0  0.19890660996E+02 -0.63967339336E+01  0.11686959068E+03  0.17239362617E+03  0.12499801805E+03 0.  0.
         25    2    1    2    0    0 -0.19890660996E+02  0.63967339336E+01  0.14406830619E+03  0.19188374371E+03  0.12500855031E+03 0.  0.
          5    1    3    3  502    0  0.37710686996E+02 -0.53308852453E+02  0.99453283805E+02  0.11906710429E+03  0.47000000000E+01 0.  1.
         -5    1    3    3    0  502 -0.17820025999E+02  0.46912118519E+02  0.17416306880E+02  0.53326521881E+02  0.47000000000E+01 0.  1.
          5    1    4    4  503    0 -0.59942358072E+02  0.25329805582E+02  0.12950925820E+03  0.14501525196E+03  0.47000000000E+01 0. -1.
         -5    1    4    4    0  503  0.40051697075E+02 -0.18933071649E+02  0.14559047997E+02  0.46868491754E+02  0.47000000000E+01 0. -1.
<mgrwt>
<rscale>  0 0.12674003E+03</rscale>
<asrwt>0</asrwt>
<pdfrwt beam="1">  1        5 0.48093482E-01 0.12674263E+03</pdfrwt>
<pdfrwt beam="2">  1       -5 0.79491903E-02 0.12674263E+03</pdfrwt>
<totfact> 0.34710003E+02</totfact>
</mgrwt>
</event>
<event>
 8    1  0.3763376E-007  0.1841939E+03  0.7546771E-02  0.1163807E+00
          5   -1    0    0  501    0  0.00000000000E+00  0.00000000000E+00  0.17589616964E+03  0.17595895116E+03  0.47000000000E+01 0. -1.
         -5   -1    0    0    0  501 -0.00000000000E+00 -0.00000000000E+00 -0.20451678756E+03  0.20457078577E+03  0.47000000000E+01 0. -1.
         25    2    1    2    0    0  0.99664068231E+02  0.91465848683E+02 -0.59941409478E+02  0.19370177573E+03  0.12501390874E+03 0.  0.
         25    2    1    2    0    0 -0.99664068231E+02 -0.91465848683E+02  0.31320791565E+02  0.18682796121E+03  0.12499906853E+03 0.  0.
          5    1    4    4  502    0 -0.49857816349E+02 -0.93260774786E+02 -0.27716226101E+02  0.10942418907E+03  0.47000000000E+01 0. -1.
         -5    1    4    4    0  502 -0.49806251882E+02  0.17949261025E+01  0.59037017666E+02  0.77403772138E+02  0.47000000000E+01 0. -1.
          5    1    3    3  503    0  0.12043294121E+03  0.39460508555E+02 -0.51488464760E+02  0.13687358060E+03  0.47000000000E+01 0.  1.
         -5    1    3    3    0  503 -0.20768872979E+02  0.52005340128E+02 -0.84529447180E+01  0.56828195124E+02  0.47000000000E+01 0.  1.
<mgrwt>
<rscale>  0 0.18419142E+03</rscale>
<asrwt>0</asrwt>
<pdfrwt beam="1">  1        5 0.27069932E-01 0.18419393E+03</pdfrwt>
<pdfrwt beam="2">  1       -5 0.31473104E-01 0.18419393E+03</pdfrwt>
<totfact> 0.10060886E+02</totfact>
</mgrwt>
</event>
<event>
 8    1  0.3763376E-007  0.1333186E+03  0.7546771E-02  0.1222613E+00
          5   -1    0    0  501    0  0.00000000000E+00  0.00000000000E+00  0.17575703759E+02  0.18193277952E+02  0.47000000000E+01 0.  1.
         -5   -1    0    0    0  501 -0.00000000000E+00 -0.00000000000E+00 -0.11461167553E+04  0.11461263922E+04  0.47000000000E+01 0.  1.
         25    2    1    2    0    0  0.45100687226E+02  0.10730572585E+02 -0.77686521930E+03  0.78822162094E+03  0.12499815035E+03 0.  0.
         25    2    1    2    0    0 -0.45100687226E+02 -0.10730572585E+02 -0.35167583226E+03  0.37609804917E+03  0.12499853768E+03 0.  0.
          5    1    4    4  502    0 -0.66587661480E+02  0.32616763144E+02 -0.13557327675E+03  0.15459616188E+03  0.47000000000E+01 0.  1.
         -5    1    4    4    0  502  0.21486974254E+02 -0.43347335728E+02 -0.21610255550E+03  0.22150188729E+03  0.47000000000E+01 0.  1.
          5    1    3    3  503    0  0.47454943497E+02  0.56924151756E+02 -0.62508796981E+03  0.62948343164E+03  0.47000000000E+01 0. -1.
         -5    1    3    3    0  503 -0.23542562706E+01 -0.46193579172E+02 -0.15177724949E+03  0.15873818930E+03  0.47000000000E+01 0. -1.
<mgrwt>
<rscale>  0 0.13331852E+03</rscale>
<asrwt>0</asrwt>
<pdfrwt beam="1">  1        5 0.27522023E-02 0.13331861E+03</pdfrwt>
<pdfrwt beam="2">  1       -5 0.17637384E+00 0.13331861E+03</pdfrwt>
<totfact> 0.88116016E+01</totfact>
</mgrwt>
</event>
<event>
 8    1  0.3763376E-007  0.1603698E+03  0.7546771E-02  0.1188282E+00
         -5   -1    0    0    0  501 -0.00000000000E+00  0.00000000000E+00  0.96165927022E+02  0.96280712088E+02  0.47000000000E+01 0. -1.
          5   -1    0    0  501    0  0.00000000000E+00 -0.00000000000E+00 -0.26861632981E+03  0.26865744479E+03  0.47000000000E+01 0. -1.
         25    2    1    2    0    0  0.54541413762E+02 -0.84369705463E+02 -0.72669158691E+02  0.17606052769E+03  0.12499395893E+03 0.  0.
         25    2    1    2    0    0 -0.54541413762E+02  0.84369705463E+02 -0.99781244099E+02  0.18887762919E+03  0.12500179647E+03 0.  0.
          5    1    3    3  502    0  0.40891529640E+02 -0.59934658847E+01 -0.85744033623E+02  0.95300409924E+02  0.47000000000E+01 0. -1.
         -5    1    3    3    0  502  0.13649884123E+02 -0.78376239578E+02  0.13074874933E+02  0.80760117765E+02  0.47000000000E+01 0. -1.
          5    1    4    4  503    0 -0.90418769843E+02  0.81843112069E+02 -0.88948907906E+02  0.15102267098E+03  0.47000000000E+01 0.  1.
         -5    1    4    4    0  503  0.35877356080E+02  0.25265933932E+01 -0.10832336193E+02  0.37854958208E+02  0.47000000000E+01 0.  1.
<mgrwt>
<rscale>  0 0.16036824E+03</rscale>
<asrwt>0</asrwt>
<pdfrwt beam="2">  1        5 0.41337581E-01 0.16036977E+03</pdfrwt>
<pdfrwt beam="1">  1       -5 0.14806750E-01 0.16036977E+03</pdfrwt>
<totfact> 0.17246528E+02</totfact>
</mgrwt>
</event>
<event>
 8    1  0.3763376E-007  0.1381879E+03  0.7546771E-02  0.1215789E+00
         -5   -1    0    0    0  501 -0.00000000000E+00  0.00000000000E+00  0.76930387899E+02  0.77073825533E+02  0.47000000000E+01 0.  1.
          5   -1    0    0  501    0  0.00000000000E+00 -0.00000000000E+00 -0.26976649512E+03  0.26980743483E+03  0.47000000000E+01 0.  1.
         25    2    1    2    0    0 -0.48527489550E+02  0.33405893322E+02 -0.46968679391E+02  0.14595184419E+03  0.12500005211E+03 0.  0.
         25    2    1    2    0    0  0.48527489550E+02 -0.33405893322E+02 -0.14586742783E+03  0.20092941617E+03  0.12499781130E+03 0.  0.
          5    1    4    4  502    0  0.20794635289E+02  0.26693250718E+02  0.64684082557E+01  0.34768905592E+02  0.47000000000E+01 0. -1.
         -5    1    4    4    0  502  0.27732854261E+02 -0.60099144039E+02 -0.15233583609E+03  0.16616051058E+03  0.47000000000E+01 0. -1.
          5    1    3    3  503    0 -0.90108454017E+02  0.14848438145E+02 -0.39326285189E+02  0.99542233788E+02  0.47000000000E+01 0. -1.
         -5    1    3    3    0  503  0.41580964467E+02  0.18557455176E+02 -0.76423942018E+01  0.46409610403E+02  0.47000000000E+01 0. -1.
<mgrwt>
<rscale>  0 0.13818735E+03</rscale>
<asrwt>0</asrwt>
<pdfrwt beam="2">  1        5 0.41516720E-01 0.13818786E+03</pdfrwt>
<pdfrwt beam="1">  1       -5 0.11849627E-01 0.13818786E+03</pdfrwt>
<totfact> 0.24256742E+02</totfact>
</mgrwt>
</event>
<event>
 8    1  0.3763376E-007  0.1418063E+03  0.7546771E-02  0.1210921E+00
         -5   -1    0    0    0  501 -0.00000000000E+00  0.00000000000E+00  0.31244514277E+02  0.31596038872E+02  0.47000000000E+01 0.  1.
          5   -1    0    0  501    0  0.00000000000E+00 -0.00000000000E+00 -0.64085777219E+03  0.64087500667E+03  0.47000000000E+01 0.  1.
         25    2    1    2    0    0  0.26670484416E+02 -0.61407529756E+02 -0.28997941128E+03  0.32279288653E+03  0.12499995672E+03 0.  0.
         25    2    1    2    0    0 -0.26670484416E+02  0.61407529756E+02 -0.31963384663E+03  0.34967815901E+03  0.12500727789E+03 0.  0.
          5    1    4    4  502    0  0.22733451228E+02 -0.23839138971E+02 -0.14822146124E+03  0.15191051946E+03  0.47000000000E+01 0.  1.
         -5    1    4    4    0  502 -0.49403935644E+02  0.85246668727E+02 -0.17141238540E+03  0.19776763955E+03  0.47000000000E+01 0.  1.
          5    1    3    3  503    0 -0.26816655102E+02  0.12738612672E+02 -0.16587857727E+03  0.16857994437E+03  0.47000000000E+01 0.  1.
         -5    1    3    3    0  503  0.53487139518E+02 -0.74146142428E+02 -0.12410083400E+03  0.15421294217E+03  0.47000000000E+01 0.  1.
<mgrwt>
<rscale>  0 0.14180466E+03</rscale>
<asrwt>0</asrwt>
<pdfrwt beam="2">  1        5 0.98621860E-01 0.14180627E+03</pdfrwt>
<pdfrwt beam="1">  1       -5 0.48352149E-02 0.14180627E+03</pdfrwt>
<totfact> 0.16557593E+02</totfact>
</mgrwt>
</event>
<event>
 8    1  0.3763376E-007  0.1409123E+03  0.7546771E-02  0.1212115E+00
         -5   -1    0    0    0  501 -0.00000000000E+00  0.00000000000E+00  0.14974271914E+03  0.14981646083E+03  0.47000000000E+01 0.  1.
          5   -1    0    0  501    0  0.00000000000E+00 -0.00000000000E+00 -0.13371317384E+03  0.13379575053E+03  0.47000000000E+01 0.  1.
         25    2    1    2    0    0 -0.46715206575E+02  0.45267745740E+02  0.21896296471E+02  0.14260342170E+03  0.12499923500E+03 0.  0.
         25    2    1    2    0    0  0.46715206575E+02 -0.45267745740E+02 -0.58667511727E+01  0.14100878966E+03  0.12497031913E+03 0.  0.
          5    1    3    3  502    0 -0.48021863066E+02  0.12037204524E+02  0.68814259164E+02  0.84902802600E+02  0.47000000000E+01 0. -1.
         -5    1    3    3    0  502  0.13066564913E+01  0.33230541216E+02 -0.46917962693E+02  0.57700619095E+02  0.47000000000E+01 0. -1.
          5    1    4    4  503    0  0.88560809422E+02 -0.38887125055E+02  0.52945380715E+01  0.96981171337E+02  0.47000000000E+01 0. -1.
         -5    1    4    4    0  503 -0.41845602847E+02 -0.63806206853E+01 -0.11161289244E+02  0.44027618327E+02  0.47000000000E+01 0. -1.
<mgrwt>
<rscale>  0 0.14090593E+03</rscale>
<asrwt>0</asrwt>
<pdfrwt beam="2">  1        5 0.20583282E-01 0.14091234E+03</pdfrwt>
<pdfrwt beam="1">  1       -5 0.23049366E-01 0.14091234E+03</pdfrwt>
<totfact> 0.28553803E+02</totfact>
</mgrwt>
</event>
<event>
 8    1  0.3763376E-007  0.1356758E+03  0.7546771E-02  0.1219274E+00
         -5   -1    0    0    0  501 -0.00000000000E+00  0.00000000000E+00  0.94069278224E+02  0.94186618506E+02  0.47000000000E+01 0.  1.
          5   -1    0    0  501    0  0.00000000000E+00 -0.00000000000E+00 -0.19820158811E+03  0.19825730637E+03  0.47000000000E+01 0.  1.
         25    2    1    2    0    0 -0.10025068106E+02  0.51769623572E+02 -0.34674550446E+02  0.14002242884E+03  0.12499344069E+03 0.  0.
         25    2    1    2    0    0  0.10025068106E+02 -0.51769623572E+02 -0.69457759444E+02  0.15242149604E+03  0.12500934442E+03 0.  0.
          5    1    4    4  502    0  0.31592011015E+02 -0.69432924738E+02 -0.89556544438E+02  0.11773466290E+03  0.47000000000E+01 0. -1.
         -5    1    4    4    0  502 -0.21566942910E+02  0.17663301166E+02  0.20098784994E+02  0.34686833133E+02  0.47000000000E+01 0. -1.
          5    1    3    3  503    0  0.22851500585E+02  0.68297523966E+02 -0.61029904938E+02  0.94517099806E+02  0.47000000000E+01 0.  1.
         -5    1    3    3    0  503 -0.32876568690E+02 -0.16527900394E+02  0.26355354493E+02  0.45505329036E+02  0.47000000000E+01 0.  1.
<mgrwt>
<rscale>  0 0.13567217E+03</rscale>
<asrwt>0</asrwt>
<pdfrwt beam="2">  1        5 0.30505864E-01 0.13567583E+03</pdfrwt>
<pdfrwt beam="1">  1       -5 0.14485509E-01 0.13567583E+03</pdfrwt>
<totfact> 0.31281351E+02</totfact>
</mgrwt>
</event>
<event>
 8    1  0.3763376E-007  0.1582790E+03  0.7546771E-02  0.1190655E+00
         -5   -1    0    0    0  501 -0.00000000000E+00  0.00000000000E+00  0.43437693067E+02  0.43691225423E+02  0.47000000000E+01 0. -1.
          5   -1    0    0  501    0  0.00000000000E+00 -0.00000000000E+00 -0.59684850166E+03  0.59686700691E+03  0.47000000000E+01 0. -1.
         25    2    1    2    0    0  0.96739408291E+02  0.82411593666E+01 -0.21513260895E+03  0.26708475903E+03  0.12500319696E+03 0.  0.
         25    2    1    2    0    0 -0.96739408291E+02 -0.82411593666E+01 -0.33827819964E+03  0.37347347330E+03  0.12499546023E+03 0.  0.
          5    1    4    4  502    0 -0.21267022806E+02  0.35444779603E+02 -0.23301704205E+03  0.23670160656E+03  0.47000000000E+01 0. -1.
         -5    1    4    4    0  502 -0.75472385484E+02 -0.43685938969E+02 -0.10526115759E+03  0.13677186674E+03  0.47000000000E+01 0. -1.
          5    1    3    3  503    0  0.26772174087E+02 -0.56163149105E+02 -0.73337602392E+02  0.96288849548E+02  0.47000000000E+01 0. -1.
         -5    1    3    3    0  503  0.69967234203E+02  0.64404308472E+02 -0.14179500656E+03  0.17079590948E+03  0.47000000000E+01 0. -1.
<mgrwt>
<rscale>  0 0.15827743E+03</rscale>
<asrwt>0</asrwt>
<pdfrwt beam="2">  1        5 0.91843766E-01 0.15827896E+03</pdfrwt>
<pdfrwt beam="1">  1       -5 0.67036484E-02 0.15827896E+03</pdfrwt>
<totfact> 0.11764924E+02</totfact>
</mgrwt>
</event>
<event>
 8    1  0.3763376E-007  0.1315324E+03  0.7546771E-02  0.1225201E+00
         -5   -1    0    0    0  501 -0.00000000000E+00  0.00000000000E+00  0.48084150933E+02  0.48313306355E+02  0.47000000000E+01 0.  1.
          5   -1    0    0  501    0  0.00000000000E+00 -0.00000000000E+00 -0.38001383607E+03  0.38004289969E+03  0.47000000000E+01 0.  1.
         25    2    1    2    0    0  0.39874873257E+02  0.92749282035E+01 -0.11524864541E+03  0.17487752433E+03  0.12499547366E+03 0.  0.
         25    2    1    2    0    0 -0.39874873257E+02 -0.92749282035E+01 -0.21668103973E+03  0.25347868172E+03  0.12499895720E+03 0.  0.
          5    1    3    3  502    0  0.24955700706E+01  0.19781177088E+02  0.23235822604E+02  0.30976059934E+02  0.47000000000E+01 0. -1.
         -5    1    3    3    0  502  0.37379303186E+02 -0.10506248884E+02 -0.13848446802E+03  0.14390146439E+03  0.47000000000E+01 0. -1.
          5    1    4    4  503    0 -0.22043461027E+02 -0.15268759364E+02 -0.22893046076E+03  0.23054347757E+03  0.47000000000E+01 0. -1.
         -5    1    4    4    0  503 -0.17831412230E+02  0.59938311605E+01  0.12249421029E+02  0.22935204155E+02  0.47000000000E+01 0. -1.
<mgrwt>
<rscale>  0 0.13153156E+03</rscale>
<asrwt>0</asrwt>
<pdfrwt beam="2">  1        5 0.58483528E-01 0.13153239E+03</pdfrwt>
<pdfrwt beam="1">  1       -5 0.74174249E-02 0.13153239E+03</pdfrwt>
<totfact> 0.26061215E+02</totfact>
</mgrwt>
</event>
<event>
 8    1  0.3763376E-007  0.1690107E+03  0.7546771E-02  0.1178897E+00
          5   -1    0    0  501    0  0.00000000000E+00  0.00000000000E+00  0.47698782881E+03  0.47701098398E+03  0.47000000000E+01 0. -1.
         -5   -1    0    0    0  501 -0.00000000000E+00 -0.00000000000E+00 -0.64780832937E+02  0.64951107119E+02  0.47000000000E+01 0. -1.
         25    2    1    2    0    0  0.76825989110E+02 -0.83794098108E+02  0.13073729112E+03  0.21367461391E+03  0.12506365523E+03 0.  0.
         25    2    1    2    0    0 -0.76825989110E+02  0.83794098108E+02  0.28146970476E+03  0.32828747719E+03  0.12499515791E+03 0.  0.
          5    1    3    3  502    0  0.71448009715E+02 -0.61161359525E+02  0.14788905830E+02  0.95322252003E+02  0.47000000000E+01 0.  1.
         -5    1    3    3    0  502  0.53779793955E+01 -0.22632738582E+02  0.11594838529E+03  0.11835236191E+03  0.47000000000E+01 0.  1.
          5    1    4    4  503    0 -0.15058677600E+02  0.31584101611E+02  0.22913778834E+03  0.23184161682E+03  0.47000000000E+01 0. -1.
         -5    1    4    4    0  503 -0.61767311510E+02  0.52209996496E+02  0.52331916416E+02  0.96445860363E+02  0.47000000000E+01 0. -1.
<mgrwt>
<rscale>  0 0.16899798E+03</rscale>
<asrwt>0</asrwt>
<pdfrwt beam="1">  1        5 0.73397622E-01 0.16901065E+03</pdfrwt>
<pdfrwt beam="2">  1       -5 0.99811611E-02 0.16901065E+03</pdfrwt>
<totfact> 0.10198149E+02</totfact>
</mgrwt>
</event>
<event>
 8    1  0.3763376E-007  0.1987479E+03  0.7546771E-02  0.1150800E+00
         -5   -1    0    0    0  501 -0.00000000000E+00  0.00000000000E+00  0.46052454997E+03  0.46054853287E+03  0.47000000000E+01 0. -1.
          5   -1    0    0  501    0  0.00000000000E+00 -0.00000000000E+00 -0.87888102271E+02  0.88013683713E+02  0.47000000000E+01 0. -1.
         25    2    1    2    0    0 -0.13581525875E+03  0.73681202249E+02  0.22973530161E+03  0.30377465767E+03  0.12500411899E+03 0.  0.
         25    2    1    2    0    0  0.13581525875E+03 -0.73681202249E+02  0.14290114609E+03  0.24478755891E+03  0.12500202946E+03 0.  0.
          5    1    4    4  502    0  0.13514436557E+03 -0.82314678191E+02  0.15998184925E+03  0.22506885142E+03  0.47000000000E+01 0.  1.
         -5    1    4    4    0  502  0.67089317896E+00  0.86334759419E+01 -0.17080703160E+02  0.19718707486E+02  0.47000000000E+01 0.  1.
          5    1    3    3  503    0 -0.15974318670E+03  0.60091478242E+02  0.20064010307E+03  0.26345286564E+03  0.47000000000E+01 0.  1.
         -5    1    3    3    0  503  0.23927927951E+02  0.13589724008E+02  0.29095198541E+02  0.40321792033E+02  0.47000000000E+01 0.  1.
<mgrwt>
<rscale>  0 0.19874759E+03</rscale>
<asrwt>0</asrwt>
<pdfrwt beam="2">  1        5 0.13532752E-01 0.19874792E+03</pdfrwt>
<pdfrwt beam="1">  1       -5 0.70861434E-01 0.19874792E+03</pdfrwt>
<totfact> 0.67342054E+01</totfact>
</mgrwt>
</event>
<event>
 8    1  0.3763376E-007  0.1310232E+03  0.7546771E-02  0.1225946E+00
         -5   -1    0    0    0  501 -0.00000000000E+00  0.00000000000E+00  0.73268242362E+03  0.73269749821E+03  0.47000000000E+01 0.  1.
          5   -1    0    0  501    0  0.00000000000E+00 -0.00000000000E+00 -0.23801152677E+02  0.24260768099E+02  0.47000000000E+01 0.  1.
         25    2    1    2    0    0 -0.34090065181E+02 -0.19480752602E+02  0.41501724047E+03  0.43520844096E+03  0.12500177970E+03 0.  0.
         25    2    1    2    0    0  0.34090065181E+02  0.19480752602E+02  0.29386403047E+03  0.32174982535E+03  0.12500099776E+03 0.  0.
          5    1    3    3  502    0 -0.29451257189E+02  0.31036943770E+02  0.34985762061E+03  0.35249555051E+03  0.47000000000E+01 0.  1.
         -5    1    3    3    0  502 -0.46388079918E+01 -0.50517696372E+02  0.65159619862E+02  0.82712890452E+02  0.47000000000E+01 0.  1.
          5    1    4    4  503    0  0.54252494996E+02 -0.27055402022E+02  0.24014232579E+03  0.24772112269E+03  0.47000000000E+01 0. -1.
         -5    1    4    4    0  503 -0.20162429815E+02  0.46536154624E+02  0.53721704676E+02  0.74028702653E+02  0.47000000000E+01 0. -1.
<mgrwt>
<rscale>  0 0.13102301E+03</rscale>
<asrwt>0</asrwt>
<pdfrwt beam="2">  1        5 0.36982310E-02 0.13102319E+03</pdfrwt>
<pdfrwt beam="1">  1       -5 0.11275687E+00 0.13102319E+03</pdfrwt>
<totfact> 0.18019466E+02</totfact>
</mgrwt>
</event>
<event>
 8    1  0.3763376E-007  0.1912919E+03  0.7546771E-02  0.1157302E+00
         -5   -1    0    0    0  501 -0.00000000000E+00  0.00000000000E+00  0.22541673080E+03  0.22546572362E+03  0.47000000000E+01 0.  1.
          5   -1    0    0  501    0  0.00000000000E+00 -0.00000000000E+00 -0.16458693609E+03  0.16465402980E+03  0.47000000000E+01 0.  1.
         25    2    1    2    0    0  0.76448953772E+02  0.12297423321E+03  0.53750071089E+02  0.19869992490E+03  0.12500194177E+03 0.  0.
         25    2    1    2    0    0 -0.76448953772E+02 -0.12297423321E+03  0.70797236280E+01  0.19141982852E+03  0.12499729475E+03 0.  0.
          5    1    3    3  502    0 -0.26529149314E+02  0.50207949930E+02 -0.91513044224E+01  0.57710227621E+02  0.47000000000E+01 0.  1.
         -5    1    3    3    0  502  0.10297810309E+03  0.72766283284E+02  0.62901375512E+02  0.14098969728E+03  0.47000000000E+01 0.  1.
          5    1    4    4  503    0 -0.18039678904E+02  0.19501741639E+02  0.24422767340E+02  0.36391063553E+02  0.47000000000E+01 0. -1.
         -5    1    4    4    0  503 -0.58409274867E+02 -0.14247597485E+03 -0.17343043712E+02  0.15502876496E+03  0.47000000000E+01 0. -1.
<mgrwt>
<rscale>  0 0.19129114E+03</rscale>
<asrwt>0</asrwt>
<pdfrwt beam="2">  1        5 0.25329997E-01 0.19129190E+03</pdfrwt>
<pdfrwt beam="1">  1       -5 0.34688427E-01 0.19129190E+03</pdfrwt>
<totfact> 0.95237033E+01</totfact>
</mgrwt>
</event>
<event>
 8    1  0.3763376E-007  0.1271528E+03  0.7546771E-02  0.1231743E+00
          5   -1    0    0  501    0  0.00000000000E+00  0.00000000000E+00  0.16989729586E+03  0.16996229329E+03  0.47000000000E+01 0. -1.
         -5   -1    0    0    0  501 -0.00000000000E+00 -0.00000000000E+00 -0.95737128417E+02  0.95852426978E+02  0.47000000000E+01 0. -1.
         25    2    1    2    0    0  0.18095883030E+02 -0.14651060482E+02  0.25588127598E+02  0.12970047500E+03  0.12500138554E+03 0.  0.
         25    2    1    2    0    0 -0.18095883030E+02  0.14651060482E+02  0.48572039841E+02  0.13611424526E+03  0.12500292058E+03 0.  0.
          5    1    3    3  502    0  0.38749595246E+02 -0.48550326944E+02 -0.23335880344E+02  0.66523068852E+02  0.47000000000E+01 0.  1.
         -5    1    3    3    0  502 -0.20653712216E+02  0.33899266461E+02  0.48924007942E+02  0.63177406151E+02  0.47000000000E+01 0.  1.
          5    1    4    4  503    0  0.24623243649E+02 -0.62700996855E+01 -0.32791624176E+02  0.41749238244E+02  0.47000000000E+01 0.  1.
         -5    1    4    4    0  503 -0.42719126679E+02  0.20921160168E+02  0.81363664017E+02  0.94365007017E+02  0.47000000000E+01 0.  1.
<mgrwt>
<rscale>  0 0.12715246E+03</rscale>
<asrwt>0</asrwt>
<pdfrwt beam="1">  1        5 0.26151914E-01 0.12715284E+03</pdfrwt>
<pdfrwt beam="2">  1       -5 0.14742658E-01 0.12715284E+03</pdfrwt>
<totfact> 0.39941946E+02</totfact>
</mgrwt>
</event>
<event>
 8    1  0.3763376E-007  0.1253888E+03  0.7546771E-02  0.1234464E+00
         -5   -1    0    0    0  501 -0.00000000000E+00  0.00000000000E+00  0.36158457703E+02  0.36462639283E+02  0.47000000000E+01 0.  1.
          5   -1    0    0  501    0  0.00000000000E+00 -0.00000000000E+00 -0.62849132300E+03  0.62850889658E+03  0.47000000000E+01 0.  1.
         25    2    1    2    0    0 -0.94998092892E+01 -0.27002510897E+01 -0.11062697395E+03  0.16721443575E+03  0.12499920970E+03 0.  0.
         25    2    1    2    0    0  0.94998092892E+01  0.27002510897E+01 -0.48170589134E+03  0.49775710011E+03  0.12499610885E+03 0.  0.
          5    1    4    4  502    0 -0.42535859096E+02  0.29151144595E+02 -0.11135990800E+03  0.12280963989E+03  0.47000000000E+01 0.  1.
         -5    1    4    4    0  502  0.52035668385E+02 -0.26450893505E+02 -0.37034598334E+03  0.37494746022E+03  0.47000000000E+01 0.  1.
          5    1    3    3  503    0  0.31241522357E+02 -0.17230901690E+02  0.11330527138E+02  0.37728073599E+02  0.47000000000E+01 0. -1.
         -5    1    3    3    0  503 -0.40741331646E+02  0.14530650601E+02 -0.12195750109E+03  0.12948636215E+03  0.47000000000E+01 0. -1.
<mgrwt>
<rscale>  0 0.12538798E+03</rscale>
<asrwt>0</asrwt>
<pdfrwt beam="2">  1        5 0.96715715E-01 0.12538876E+03</pdfrwt>
<pdfrwt beam="1">  1       -5 0.55875905E-02 0.12538876E+03</pdfrwt>
<totfact> 0.13094580E+02</totfact>
</mgrwt>
</event>
<event>
 8    1  0.3763376E-007  0.1519686E+03  0.7546771E-02  0.1198076E+00
         -5   -1    0    0    0  501 -0.00000000000E+00  0.00000000000E+00  0.56553149089E+03  0.56555102086E+03  0.47000000000E+01 0.  1.
          5   -1    0    0  501    0  0.00000000000E+00 -0.00000000000E+00 -0.43676170785E+02  0.43928326789E+02  0.47000000000E+01 0.  1.
         25    2    1    2    0    0  0.59883891020E+02  0.62314829663E+02  0.34048248146E+03  0.37285607238E+03  0.12499644847E+03 0.  0.
         25    2    1    2    0    0 -0.59883891020E+02 -0.62314829663E+02  0.18137283865E+03  0.23662327527E+03  0.12500099759E+03 0.  0.
          5    1    4    4  502    0 -0.68640672031E+02 -0.20382554916E+02  0.27526933961E+02  0.76855790251E+02  0.47000000000E+01 0.  1.
         -5    1    4    4    0  502  0.87567810112E+01 -0.41932274747E+02  0.15384590469E+03  0.15976748502E+03  0.47000000000E+01 0.  1.
          5    1    3    3  503    0  0.27145206206E+02  0.81256917958E+02  0.11133311416E+03  0.14055853316E+03  0.47000000000E+01 0.  1.
         -5    1    3    3    0  503  0.32738684814E+02 -0.18942088295E+02  0.22914936730E+03  0.23229753922E+03  0.47000000000E+01 0.  1.
<mgrwt>
<rscale>  0 0.15196771E+03</rscale>
<asrwt>0</asrwt>
<pdfrwt beam="2">  1        5 0.67403097E-02 0.15196864E+03</pdfrwt>
<pdfrwt beam="1">  1       -5 0.87025745E-01 0.15196864E+03</pdfrwt>
<totfact> 0.13079209E+02</totfact>
</mgrwt>
</event>
<event>
 8    1  0.3763376E-007  0.1558276E+03  0.7546771E-02  0.1193490E+00
         -5   -1    0    0    0  501 -0.00000000000E+00  0.00000000000E+00  0.37936885237E+02  0.38226918022E+02  0.47000000000E+01 0.  1.
          5   -1    0    0  501    0  0.00000000000E+00 -0.00000000000E+00 -0.72407580756E+03  0.72409106132E+03  0.47000000000E+01 0.  1.
         25    2    1    2    0    0  0.92983676489E+02 -0.31968567497E+01 -0.21116783910E+03  0.26243875662E+03  0.12500424281E+03 0.  0.
         25    2    1    2    0    0 -0.92983676489E+02  0.31968567497E+01 -0.47497108322E+03  0.49987922272E+03  0.12500209370E+03 0.  0.
          5    1    4    4  502    0 -0.91344487029E+02  0.11088003627E+02 -0.15896517600E+03  0.18373561526E+03  0.47000000000E+01 0. -1.
         -5    1    4    4    0  502 -0.16391894605E+01 -0.78911468774E+01 -0.31600590722E+03  0.31614360746E+03  0.47000000000E+01 0. -1.
          5    1    3    3  503    0  0.14393232795E+02  0.51802537725E+02 -0.43939624112E+02  0.69594889411E+02  0.47000000000E+01 0.  1.
         -5    1    3    3    0  503  0.78590443694E+02 -0.54999394475E+02 -0.16722821499E+03  0.19284386721E+03  0.47000000000E+01 0.  1.
<mgrwt>
<rscale>  0 0.15582718E+03</rscale>
<asrwt>0</asrwt>
<pdfrwt beam="2">  1        5 0.11141975E+00 0.15582761E+03</pdfrwt>
<pdfrwt beam="1">  1       -5 0.58599280E-02 0.15582761E+03</pdfrwt>
<totfact> 0.91564793E+01</totfact>
</mgrwt>
</event>
<event>
 8    1  0.3763376E-007  0.1484159E+03  0.7546771E-02  0.1202434E+00
          5   -1    0    0  501    0  0.00000000000E+00  0.00000000000E+00  0.49242143021E+02  0.49465934231E+02  0.47000000000E+01 0. -1.
         -5   -1    0    0    0  501 -0.00000000000E+00 -0.00000000000E+00 -0.46135712303E+03  0.46138106265E+03  0.47000000000E+01 0. -1.
         25    2    1    2    0    0  0.57259754527E+02 -0.55890181793E+02 -0.25253915990E+03  0.29292101081E+03  0.12499719750E+03 0.  0.
         25    2    1    2    0    0 -0.57259754527E+02  0.55890181793E+02 -0.15957582011E+03  0.21792598607E+03  0.12499960453E+03 0.  0.
          5    1    3    3  502    0  0.79557856361E+01 -0.58468617649E+02 -0.32839880336E+02  0.67693585481E+02  0.47000000000E+01 0. -1.
         -5    1    3    3    0  502  0.49303968891E+02  0.25784358554E+01 -0.21969927956E+03  0.22522742533E+03  0.47000000000E+01 0. -1.
          5    1    4    4  503    0  0.27157277389E+02  0.46771261227E+02 -0.10100212747E+03  0.11466729414E+03  0.47000000000E+01 0.  1.
         -5    1    4    4    0  503 -0.84417031916E+02  0.91189205658E+01 -0.58573692644E+02  0.10325869193E+03  0.47000000000E+01 0.  1.
<mgrwt>
<rscale>  0 0.14841544E+03</rscale>
<asrwt>0</asrwt>
<pdfrwt beam="1">  1        5 0.75947708E-02 0.14841595E+03</pdfrwt>
<pdfrwt beam="2">  1       -5 0.70997072E-01 0.14841595E+03</pdfrwt>
<totfact> 0.16950968E+02</totfact>
</mgrwt>
</event>
<event>
 8    1  0.3763376E-007  0.1413006E+03  0.7546771E-02  0.1211599E+00
         -5   -1    0    0    0  501 -0.00000000000E+00  0.00000000000E+00  0.29246093192E+03  0.29249869521E+03  0.47000000000E+01 0. -1.
          5   -1    0    0  501    0  0.00000000000E+00 -0.00000000000E+00 -0.71489278546E+02  0.71643610651E+02  0.47000000000E+01 0. -1.
         25    2    1    2    0    0 -0.64204189040E+02  0.14847305633E+02  0.14990434384E+03  0.20600284145E+03  0.12499295184E+03 0.  0.
         25    2    1    2    0    0  0.64204189040E+02 -0.14847305633E+02  0.71067309536E+02  0.15813946441E+03  0.12495962286E+03 0.  0.
          5    1    4    4  502    0 -0.36104357508E+01  0.31107717540E+02  0.69158368830E+02  0.76063758230E+02  0.47000000000E+01 0. -1.
         -5    1    4    4    0  502  0.67814624790E+02 -0.45955023173E+02  0.19089407057E+01  0.82075706180E+02  0.47000000000E+01 0. -1.
          5    1    3    3  503    0 -0.39858530404E+02  0.15442350944E+02  0.16919967275E+03  0.17457888735E+03  0.47000000000E+01 0.  1.
         -5    1    3    3    0  503 -0.24345658635E+02 -0.59504531086E+00 -0.19295328915E+02  0.31423954100E+02  0.47000000000E+01 0.  1.
<mgrwt>
<rscale>  0 0.14129322E+03</rscale>
<asrwt>0</asrwt>
<pdfrwt beam="2">  1        5 0.11013127E-01 0.14130060E+03</pdfrwt>
<pdfrwt beam="1">  1       -5 0.45008767E-01 0.14130060E+03</pdfrwt>
<totfact> 0.23528101E+02</totfact>
</mgrwt>
</event>
<event>
 8    1  0.3763376E-007  0.1283510E+03  0.7546771E-02  0.1229926E+00
         -5   -1    0    0    0  501 -0.00000000000E+00  0.00000000000E+00  0.21524044828E+03  0.21529175687E+03  0.47000000000E+01 0.  1.
          5   -1    0    0  501    0  0.00000000000E+00 -0.00000000000E+00 -0.11387213080E+03  0.11396908428E+03  0.47000000000E+01 0.  1.
         25    2    1    2    0    0 -0.13836040269E+02  0.25621748948E+02  0.14505050875E+03  0.19368019191E+03  0.12499782646E+03 0.  0.
         25    2    1    2    0    0  0.13836040269E+02 -0.25621748948E+02 -0.43682191272E+02  0.13558064924E+03  0.12500427427E+03 0.  0.
          5    1    4    4  502    0  0.45407786924E+02  0.12021408730E+02  0.23087607048E+02  0.52550061660E+02  0.47000000000E+01 0. -1.
         -5    1    4    4    0  502 -0.31571746656E+02 -0.37643157678E+02 -0.66769798320E+02  0.83030587584E+02  0.47000000000E+01 0. -1.
          5    1    3    3  503    0  0.38703653941E+02 -0.27912017138E+02  0.84544370833E+02  0.97195134490E+02  0.47000000000E+01 0.  1.
         -5    1    3    3    0  503 -0.52539694210E+02  0.53533766085E+02  0.60506137918E+02  0.96485057416E+02  0.47000000000E+01 0.  1.
<mgrwt>
<rscale>  0 0.12834943E+03</rscale>
<asrwt>0</asrwt>
<pdfrwt beam="2">  1        5 0.17530194E-01 0.12835100E+03</pdfrwt>
<pdfrwt beam="1">  1       -5 0.33125320E-01 0.12835100E+03</pdfrwt>
<totfact> 0.18421242E+02</totfact>
</mgrwt>
</event>
<event>
 8    1  0.3763376E-007  0.1741818E+03  0.7546771E-02  0.1173557E+00
          5   -1    0    0  501    0  0.00000000000E+00  0.00000000000E+00  0.51481271338E+02  0.51695370186E+02  0.47000000000E+01 0. -1.
         -5   -1    0    0    0  501 -0.00000000000E+00 -0.00000000000E+00 -0.61059844395E+03  0.61061653249E+03  0.47000000000E+01 0. -1.
         25    2    1    2    0    0  0.71076549861E+01 -0.12108848955E+03 -0.21567924159E+03  0.27723062577E+03  0.12500537408E+03 0.  0.
         25    2    1    2    0    0 -0.71076549861E+01  0.12108848955E+03 -0.34343793102E+03  0.38508127691E+03  0.12500014521E+03 0.  0.
          5    1    3    3  502    0 -0.51779059762E+02 -0.97324009374E+02 -0.13087548929E+03  0.17118270218E+03  0.47000000000E+01 0.  1.
         -5    1    3    3    0  502  0.58886714748E+02 -0.23764480173E+02 -0.84803752302E+02  0.10604792358E+03  0.47000000000E+01 0.  1.
          5    1    4    4  503    0 -0.62170813864E+02  0.57435198311E+02 -0.12587200168E+03  0.15175593204E+03  0.47000000000E+01 0.  1.
         -5    1    4    4    0  503  0.55063158878E+02  0.63653291237E+02 -0.21756592934E+03  0.23332534487E+03  0.47000000000E+01 0.  1.
<mgrwt>
<rscale>  0 0.17418082E+03</rscale>
<asrwt>0</asrwt>
<pdfrwt beam="1">  1        5 0.79380566E-02 0.17418176E+03</pdfrwt>
<pdfrwt beam="2">  1       -5 0.93956078E-01 0.17418176E+03</pdfrwt>
<totfact> 0.85827699E+01</totfact>
</mgrwt>
</event>
<event>
 8    1  0.3763376E-007  0.1301634E+03  0.7546771E-02  0.1227216E+00
          5   -1    0    0  501    0  0.00000000000E+00  0.00000000000E+00  0.49572485350E+03  0.49574713350E+03  0.47000000000E+01 0. -1.
         -5   -1    0    0    0  501 -0.00000000000E+00 -0.00000000000E+00 -0.36842293406E+02  0.37140874834E+02  0.47000000000E+01 0. -1.
         25    2    1    2    0    0 -0.32230449214E+02  0.16699355873E+02  0.15564960253E+03  0.20290224855E+03  0.12499941341E+03 0.  0.
         25    2    1    2    0    0  0.32230449214E+02 -0.16699355873E+02  0.30323295756E+03  0.32998575979E+03  0.12499081874E+03 0.  0.
          5    1    4    4  502    0  0.51186485376E+02 -0.21865249060E+02  0.47124614656E+02  0.73081904108E+02  0.47000000000E+01 0.  1.
         -5    1    4    4    0  502 -0.18956036162E+02  0.51658931866E+01  0.25610834290E+03  0.25690385568E+03  0.47000000000E+01 0.  1.
          5    1    3    3  503    0  0.17567818965E+02 -0.25836869025E+02 -0.24698835485E+01  0.31691676966E+02  0.47000000000E+01 0. -1.
         -5    1    3    3    0  503 -0.49798268179E+02  0.42536224898E+02  0.15811948608E+03  0.17121057158E+03  0.47000000000E+01 0. -1.
<mgrwt>
<rscale>  0 0.13016139E+03</rscale>
<asrwt>0</asrwt>
<pdfrwt beam="1">  1        5 0.76290043E-01 0.13016345E+03</pdfrwt>
<pdfrwt beam="2">  1       -5 0.56927269E-02 0.13016345E+03</pdfrwt>
<totfact> 0.22431895E+02</totfact>
</mgrwt>
</event>
<event>
 8    1  0.3763376E-007  0.1468103E+03  0.7546771E-02  0.1204450E+00
          5   -1    0    0  501    0  0.00000000000E+00  0.00000000000E+00  0.82077804449E+02  0.82212261757E+02  0.47000000000E+01 0. -1.
         -5   -1    0    0    0  501 -0.00000000000E+00 -0.00000000000E+00 -0.53152034630E+03  0.53154112591E+03  0.47000000000E+01 0. -1.
         25    2    1    2    0    0 -0.76578922883E+02  0.79505401757E+01 -0.44312580028E+03  0.46681230631E+03  0.12500284769E+03 0.  0.
         25    2    1    2    0    0  0.76578922883E+02 -0.79505401757E+01 -0.63167415667E+01  0.14694108135E+03  0.12499695054E+03 0.  0.
          5    1    4    4  502    0  0.43183957835E+02  0.44566886530E+02  0.35658056811E+02  0.71726205845E+02  0.47000000000E+01 0. -1.
         -5    1    4    4    0  502  0.33394965048E+02 -0.52517426706E+02 -0.41974798378E+02  0.75214875505E+02  0.47000000000E+01 0. -1.
          5    1    3    3  503    0 -0.23682796405E+02 -0.16758407678E+02 -0.12032639784E+02  0.31758361004E+02  0.47000000000E+01 0. -1.
         -5    1    3    3    0  503 -0.52896126478E+02  0.24708947853E+02 -0.43109316050E+03  0.43505394531E+03  0.47000000000E+01 0. -1.
<mgrwt>
<rscale>  0 0.14680901E+03</rscale>
<asrwt>0</asrwt>
<pdfrwt beam="1">  1        5 0.12639296E-01 0.14681027E+03</pdfrwt>
<pdfrwt beam="2">  1       -5 0.81784300E-01 0.14681027E+03</pdfrwt>
<totfact> 0.50205804E+01</totfact>
</mgrwt>
</event>
<event>
 8    1  0.3763376E-007  0.1250214E+03  0.7546771E-02  0.1235039E+00
         -5   -1    0    0    0  501 -0.00000000000E+00  0.00000000000E+00  0.11882913792E+04  0.11883006741E+04  0.47000000000E+01 0.  1.
          5   -1    0    0  501    0  0.00000000000E+00 -0.00000000000E+00 -0.20872330667E+02  0.21394957057E+02  0.47000000000E+01 0.  1.
         25    2    1    2    0    0  0.15957691861E+01 -0.15139519754E+01  0.95552604108E+03  0.96366921881E+03  0.12499403815E+03 0.  0.
         25    2    1    2    0    0 -0.15957691861E+01  0.15139519754E+01  0.21189300750E+03  0.24602641231E+03  0.12500204158E+03 0.  0.
          5    1    4    4  502    0  0.52626011891E+01 -0.53345246097E+02  0.44982553950E+02  0.70135086885E+02  0.47000000000E+01 0.  1.
         -5    1    4    4    0  502 -0.68583703752E+01  0.54859198073E+02  0.16691045355E+03  0.17589132543E+03  0.47000000000E+01 0.  1.
          5    1    3    3  503    0  0.21604851312E+02  0.53988831056E+02  0.63895741532E+03  0.64161533030E+03  0.47000000000E+01 0.  1.
         -5    1    3    3    0  503 -0.20009082126E+02 -0.55502783031E+02  0.31656862576E+03  0.32205388851E+03  0.47000000000E+01 0.  1.
<mgrwt>
<rscale>  0 0.12501939E+03</rscale>
<asrwt>0</asrwt>
<pdfrwt beam="2">  1        5 0.32520450E-02 0.12502139E+03</pdfrwt>
<pdfrwt beam="1">  1       -5 0.18285497E+00 0.12502139E+03</pdfrwt>
<totfact> 0.59341959E+01</totfact>
</mgrwt>
</event>
<event>
 8    1  0.3763376E-007  0.1328567E+03  0.7546771E-02  0.1223279E+00
         -5   -1    0    0    0  501 -0.00000000000E+00  0.00000000000E+00  0.15811950012E+03  0.15818933693E+03  0.47000000000E+01 0.  1.
          5   -1    0    0  501    0  0.00000000000E+00 -0.00000000000E+00 -0.11211588277E+03  0.11221435367E+03  0.47000000000E+01 0.  1.
         25    2    1    2    0    0  0.44567128412E+02  0.62349039359E+01  0.33157003720E+02  0.13693167414E+03  0.12500317406E+03 0.  0.
         25    2    1    2    0    0 -0.44567128412E+02 -0.62349039359E+01  0.12846613632E+02  0.13347201645E+03  0.12499856292E+03 0.  0.
          5    1    3    3  502    0 -0.53013675821E+01  0.45384708644E+02  0.53187088612E+02  0.70276828841E+02  0.47000000000E+01 0.  1.
         -5    1    3    3    0  502  0.49868495994E+02 -0.39149804708E+02 -0.20030084893E+02  0.66654845301E+02  0.47000000000E+01 0.  1.
          5    1    4    4  503    0  0.84680135446E+01  0.11045587739E+02 -0.48351852053E+02  0.50534185052E+02  0.47000000000E+01 0. -1.
         -5    1    4    4    0  503 -0.53035141956E+02 -0.17280491675E+02  0.61198465686E+02  0.82937831399E+02  0.47000000000E+01 0. -1.
<mgrwt>
<rscale>  0 0.13285559E+03</rscale>
<asrwt>0</asrwt>
<pdfrwt beam="2">  1        5 0.17261544E-01 0.13285668E+03</pdfrwt>
<pdfrwt beam="1">  1       -5 0.24339023E-01 0.13285668E+03</pdfrwt>
<totfact> 0.34959709E+02</totfact>
</mgrwt>
</event>
<event>
 8    1  0.3763376E-007  0.1430519E+03  0.7546771E-02  0.1209284E+00
         -5   -1    0    0    0  501 -0.00000000000E+00  0.00000000000E+00  0.16118835035E+03  0.16125685811E+03  0.47000000000E+01 0. -1.
          5   -1    0    0  501    0  0.00000000000E+00 -0.00000000000E+00 -0.21328622116E+03  0.21333799975E+03  0.47000000000E+01 0. -1.
         25    2    1    2    0    0  0.65561558226E+02  0.23242840574E+02  0.93176112992E+02  0.17071164277E+03  0.12498851703E+03 0.  0.
         25    2    1    2    0    0 -0.65561558226E+02 -0.23242840574E+02 -0.14527398380E+03  0.20388321509E+03  0.12500114988E+03 0.  0.
          5    1    4    4  502    0 -0.33529012646E+02  0.13327091140E+02 -0.15043191653E+03  0.15476969199E+03  0.47000000000E+01 0.  1.
         -5    1    4    4    0  502 -0.32032545580E+02 -0.36569931714E+02  0.51579327243E+01  0.49113523106E+02  0.47000000000E+01 0.  1.
          5    1    3    3  503    0 -0.69949831772E+01 -0.41000042850E+02  0.10289491076E+02  0.43103328525E+02  0.47000000000E+01 0.  1.
         -5    1    3    3    0  503  0.72556541404E+02  0.64242883424E+02  0.82886621916E+02  0.12760831424E+03  0.47000000000E+01 0.  1.
<mgrwt>
<rscale>  0 0.14304910E+03</rscale>
<asrwt>0</asrwt>
<pdfrwt beam="2">  1        5 0.32822518E-01 0.14305186E+03</pdfrwt>
<pdfrwt beam="1">  1       -5 0.24807460E-01 0.14305186E+03</pdfrwt>
<totfact> 0.10144392E+02</totfact>
</mgrwt>
</event>
<event>
 8    1  0.3763376E-007  0.1906132E+03  0.7546771E-02  0.1157911E+00
          5   -1    0    0  501    0  0.00000000000E+00  0.00000000000E+00  0.16416735047E+03  0.16423461560E+03  0.47000000000E+01 0.  1.
         -5   -1    0    0    0  501 -0.00000000000E+00 -0.00000000000E+00 -0.24272160524E+03  0.24276710578E+03  0.47000000000E+01 0.  1.
         25    2    1    2    0    0 -0.10634848902E+03  0.96940880291E+02 -0.99895347639E+02  0.21520328550E+03  0.12500335284E+03 0.  0.
         25    2    1    2    0    0  0.10634848902E+03 -0.96940880291E+02  0.21341092876E+02  0.19179843588E+03  0.12499464937E+03 0.  0.
          5    1    3    3  502    0 -0.12643924536E+03  0.91297214983E+02 -0.11063249817E+03  0.19126866937E+03  0.47000000000E+01 0. -1.
         -5    1    3    3    0  502  0.20090756333E+02  0.56436653080E+01  0.10737150529E+02  0.23934616137E+02  0.47000000000E+01 0. -1.
          5    1    4    4  503    0  0.10452349045E+03 -0.12419750222E+03  0.23068296132E+02  0.16402565623E+03  0.47000000000E+01 0. -1.
         -5    1    4    4    0  503  0.18249985699E+01  0.27256621926E+02 -0.17272032556E+01  0.27772779654E+02  0.47000000000E+01 0. -1.
<mgrwt>
<rscale>  0 0.19061172E+03</rscale>
<asrwt>0</asrwt>
<pdfrwt beam="1">  1        5 0.25265190E-01 0.19061315E+03</pdfrwt>
<pdfrwt beam="2">  1       -5 0.37350460E-01 0.19061315E+03</pdfrwt>
<totfact> 0.82316726E+01</totfact>
</mgrwt>
</event>
<event>
 8    1  0.3763376E-007  0.1461334E+03  0.7546771E-02  0.1205308E+00
         -5   -1    0    0    0  501 -0.00000000000E+00  0.00000000000E+00  0.38557122480E+02  0.38842524299E+02  0.47000000000E+01 0.  1.
          5   -1    0    0  501    0  0.00000000000E+00 -0.00000000000E+00 -0.56520824486E+03  0.56522778599E+03  0.47000000000E+01 0.  1.
         25    2    1    2    0    0 -0.85078830623E+01  0.75245198481E+02 -0.21629954451E+03  0.26103521621E+03  0.12497866690E+03 0.  0.
         25    2    1    2    0    0  0.85078830623E+01 -0.75245198481E+02 -0.31035157787E+03  0.34303509407E+03  0.12498299849E+03 0.  0.
          5    1    4    4  502    0  0.16591788961E+02  0.13379569135E+02 -0.18326612778E+01  0.21903172796E+02  0.47000000000E+01 0. -1.
         -5    1    4    4    0  502 -0.80839058985E+01 -0.88624767615E+02 -0.30851891659E+03  0.32113192128E+03  0.47000000000E+01 0. -1.
          5    1    3    3  503    0 -0.45654605128E+02  0.81205203456E+01 -0.20934547269E+02  0.51094335199E+02  0.47000000000E+01 0. -1.
         -5    1    3    3    0  503  0.37146722066E+02  0.67124678135E+02 -0.19536499724E+03  0.20994088101E+03  0.47000000000E+01 0. -1.
<mgrwt>
<rscale>  0 0.14613249E+03</rscale>
<asrwt>0</asrwt>
<pdfrwt beam="2">  1        5 0.86978565E-01 0.14613341E+03</pdfrwt>
<pdfrwt beam="1">  1       -5 0.59553226E-02 0.14613341E+03</pdfrwt>
<totfact> 0.15941190E+02</totfact>
</mgrwt>
</event>
<event>
 8    1  0.3763376E-007  0.1251926E+03  0.7546771E-02  0.1234769E+00
         -5   -1    0    0    0  501 -0.00000000000E+00  0.00000000000E+00  0.48854121748E+02  0.49079682271E+02  0.47000000000E+01 0.  1.
          5   -1    0    0  501    0  0.00000000000E+00 -0.00000000000E+00 -0.34850127685E+03  0.34853296827E+03  0.47000000000E+01 0.  1.
         25    2    1    2    0    0 -0.12112392486E+01  0.69119707455E+01 -0.92824197930E+02  0.15585091406E+03  0.12499573294E+03 0.  0.
         25    2    1    2    0    0  0.12112392486E+01 -0.69119707455E+01 -0.20682295718E+03  0.24176173648E+03  0.12499503658E+03 0.  0.
          5    1    4    4  502    0 -0.56450649757E+02  0.62105694954E+00 -0.14991729073E+03  0.16026336334E+03  0.47000000000E+01 0. -1.
         -5    1    4    4    0  502  0.57661889006E+02 -0.75330276950E+01 -0.56905666449E+02  0.81498373137E+02  0.47000000000E+01 0. -1.
          5    1    3    3  503    0  0.35223460350E+02 -0.20431559649E+02  0.10944108231E+02  0.42426457472E+02  0.47000000000E+01 0. -1.
         -5    1    3    3    0  503 -0.36434699598E+02  0.27343530394E+02 -0.10376830616E+03  0.11342445659E+03  0.47000000000E+01 0. -1.
<mgrwt>
<rscale>  0 0.12519238E+03</rscale>
<asrwt>0</asrwt>
<pdfrwt beam="2">  1        5 0.53635368E-01 0.12519255E+03</pdfrwt>
<pdfrwt beam="1">  1       -5 0.75358076E-02 0.12519255E+03</pdfrwt>
<totfact> 0.30034355E+02</totfact>
</mgrwt>
</event>
<event>
 8    1  0.3763376E-007  0.1549354E+03  0.7546771E-02  0.1194537E+00
         -5   -1    0    0    0  501 -0.00000000000E+00  0.00000000000E+00  0.31738616296E+03  0.31742096093E+03  0.47000000000E+01 0. -1.
          5   -1    0    0  501    0  0.00000000000E+00 -0.00000000000E+00 -0.81409736384E+02  0.81545295254E+02  0.47000000000E+01 0. -1.
         25    2    1    2    0    0 -0.82598970323E+02 -0.39460376983E+02  0.17158220242E+03  0.23118268529E+03  0.12500108215E+03 0.  0.
         25    2    1    2    0    0  0.82598970323E+02  0.39460376983E+02  0.64394224161E+02  0.16778357090E+03  0.12499999724E+03 0.  0.
          5    1    3    3  502    0 -0.43825319034E+01 -0.59262950405E+02  0.26774070798E+02  0.65347109681E+02  0.47000000000E+01 0. -1.
         -5    1    3    3    0  502 -0.78216438419E+02  0.19802573422E+02  0.14480813162E+03  0.16583557561E+03  0.47000000000E+01 0. -1.
          5    1    4    4  503    0  0.48760431151E+02  0.81399628600E+02  0.18374718402E+02  0.96763626733E+02  0.47000000000E+01 0. -1.
         -5    1    4    4    0  503  0.33838539171E+02 -0.41939251617E+02  0.46019505760E+02  0.71019944169E+02  0.47000000000E+01 0. -1.
<mgrwt>
<rscale>  0 0.15493519E+03</rscale>
<asrwt>0</asrwt>
<pdfrwt beam="2">  1        5 0.12537679E-01 0.15493541E+03</pdfrwt>
<pdfrwt beam="1">  1       -5 0.48841745E-01 0.15493541E+03</pdfrwt>
<totfact> 0.16236050E+02</totfact>
</mgrwt>
</event>
<event>
 8    1  0.3763376E-007  0.1564926E+03  0.7546771E-02  0.1192715E+00
          5   -1    0    0  501    0  0.00000000000E+00  0.00000000000E+00  0.79366813550E+03  0.79368205178E+03  0.47000000000E+01 0.  1.
         -5   -1    0    0    0  501 -0.00000000000E+00 -0.00000000000E+00 -0.62550269290E+02  0.62726598730E+02  0.47000000000E+01 0.  1.
         25    2    1    2    0    0  0.93023610996E+02  0.14533957610E+02  0.60509450795E+02  0.16778354386E+03  0.12500118330E+03 0.  0.
         25    2    1    2    0    0 -0.93023610996E+02 -0.14533957610E+02  0.67060841542E+03  0.68862510665E+03  0.12499705017E+03 0.  0.
          5    1    4    4  502    0 -0.12080951992E+03  0.31173435201E+01  0.47176497684E+03  0.48702047319E+03  0.47000000000E+01 0. -1.
         -5    1    4    4    0  502  0.27785908926E+02 -0.17651301130E+02  0.19884343858E+03  0.20160463346E+03  0.47000000000E+01 0. -1.
          5    1    3    3  503    0  0.46941844479E+02 -0.55993423206E+01 -0.35495473829E+02  0.59303524852E+02  0.47000000000E+01 0. -1.
         -5    1    3    3    0  503  0.46081766517E+02  0.20133299931E+02  0.96004924624E+02  0.10848001901E+03  0.47000000000E+01 0. -1.
<mgrwt>
<rscale>  0 0.15649174E+03</rscale>
<asrwt>0</asrwt>
<pdfrwt beam="1">  1        5 0.12211741E+00 0.15649257E+03</pdfrwt>
<pdfrwt beam="2">  1       -5 0.96377534E-02 0.15649257E+03</pdfrwt>
<totfact> 0.31025264E+01</totfact>
</mgrwt>
</event>
<event>
 8    1  0.3763376E-007  0.1511220E+03  0.7546771E-02  0.1199104E+00
          5   -1    0    0  501    0  0.00000000000E+00  0.00000000000E+00  0.14714841398E+03  0.14722345512E+03  0.47000000000E+01 0.  1.
         -5   -1    0    0    0  501 -0.00000000000E+00 -0.00000000000E+00 -0.18350207952E+03  0.18356225971E+03  0.47000000000E+01 0.  1.
         25    2    1    2    0    0 -0.83782131673E+02  0.13880767405E+02 -0.83285390445E+02  0.17254402322E+03  0.12499144929E+03 0.  0.
         25    2    1    2    0    0  0.83782131673E+02 -0.13880767405E+02  0.46931724899E+02  0.15824169160E+03  0.12500289944E+03 0.  0.
          5    1    3    3  502    0 -0.75461284931E+01 -0.19087741410E+01  0.32048354201E+02  0.33313277847E+02  0.47000000000E+01 0. -1.
         -5    1    3    3    0  502 -0.76236003180E+02  0.15789541546E+02 -0.11533374465E+03  0.13923074537E+03  0.47000000000E+01 0. -1.
          5    1    4    4  503    0  0.47123955241E+02  0.53520494112E+02  0.75232704729E+01  0.71859585624E+02  0.47000000000E+01 0.  1.
         -5    1    4    4    0  503  0.36658176432E+02 -0.67401261516E+02  0.39408454427E+02  0.86382105981E+02  0.47000000000E+01 0.  1.
<mgrwt>
<rscale>  0 0.15111959E+03</rscale>
<asrwt>0</asrwt>
<pdfrwt beam="1">  1        5 0.22648619E-01 0.15112196E+03</pdfrwt>
<pdfrwt beam="2">  1       -5 0.28241491E-01 0.15112196E+03</pdfrwt>
<totfact> 0.16512709E+02</totfact>
</mgrwt>
</event>
<event>
 8    1  0.3763376E-007  0.1263518E+03  0.7546771E-02  0.1232972E+00
          5   -1    0    0  501    0  0.00000000000E+00  0.00000000000E+00  0.59114190712E+02  0.59300738137E+02  0.47000000000E+01 0.  1.
         -5   -1    0    0    0  501 -0.00000000000E+00 -0.00000000000E+00 -0.27048026877E+03  0.27052110046E+03  0.47000000000E+01 0.  1.
         25    2    1    2    0    0 -0.18402509880E+02  0.13510005842E+01 -0.11593902908E+03  0.17148325152E+03  0.12499667801E+03 0.  0.
         25    2    1    2    0    0  0.18402509880E+02 -0.13510005842E+01 -0.95427048974E+02  0.15833858707E+03  0.12499723560E+03 0.  0.
          5    1    3    3  502    0 -0.50807404253E+02  0.32610427890E+02 -0.11034603107E+03  0.12586965046E+03  0.47000000000E+01 0.  1.
         -5    1    3    3    0  502  0.32404894373E+02 -0.31259427306E+02 -0.55929980124E+01  0.45613601059E+02  0.47000000000E+01 0.  1.
          5    1    4    4  503    0 -0.31062547705E+02  0.44295771289E+02 -0.63915360291E+02  0.83870498420E+02  0.47000000000E+01 0.  1.
         -5    1    4    4    0  503  0.49465057585E+02 -0.45646771873E+02 -0.31511688683E+02  0.74468088655E+02  0.47000000000E+01 0.  1.
<mgrwt>
<rscale>  0 0.12635170E+03</rscale>
<asrwt>0</asrwt>
<pdfrwt beam="1">  1        5 0.91119817E-02 0.12635184E+03</pdfrwt>
<pdfrwt beam="2">  1       -5 0.41629839E-01 0.12635184E+03</pdfrwt>
<totfact> 0.37003248E+02</totfact>
</mgrwt>
</event>
<event>
 8    1  0.3763376E-007  0.1393694E+03  0.7546771E-02  0.1214187E+00
          5   -1    0    0  501    0  0.00000000000E+00  0.00000000000E+00  0.44857278224E+02  0.45102831504E+02  0.47000000000E+01 0. -1.
         -5   -1    0    0    0  501 -0.00000000000E+00 -0.00000000000E+00 -0.60874800101E+03  0.60876614454E+03  0.47000000000E+01 0. -1.
         25    2    1    2    0    0 -0.61100147723E+02 -0.78284127539E+01 -0.45832875169E+03  0.47905019263E+03  0.12501732016E+03 0.  0.
         25    2    1    2    0    0  0.61100147723E+02  0.78284127539E+01 -0.10556197110E+03  0.17481878341E+03  0.12499506067E+03 0.  0.
          5    1    3    3  502    0 -0.28407229697E+02 -0.66175000042E+02 -0.22628684170E+03  0.23751615957E+03  0.47000000000E+01 0.  1.
         -5    1    3    3    0  502 -0.32692918026E+02  0.58346587288E+02 -0.23204190999E+03  0.24153403306E+03  0.47000000000E+01 0.  1.
          5    1    4    4  503    0  0.31062847739E+02 -0.30715766178E+02 -0.11651178022E+03  0.12452085662E+03  0.47000000000E+01 0.  1.
         -5    1    4    4    0  503  0.30037299984E+02  0.38544178932E+02  0.10949809124E+02  0.50297926793E+02  0.47000000000E+01 0.  1.
<mgrwt>
<rscale>  0 0.13936445E+03</rscale>
<asrwt>0</asrwt>
<pdfrwt beam="1">  1        5 0.69214045E-02 0.13936945E+03</pdfrwt>
<pdfrwt beam="2">  1       -5 0.93673817E-01 0.13936945E+03</pdfrwt>
<totfact> 0.10212643E+02</totfact>
</mgrwt>
</event>
<event>
 8    1  0.3763376E-007  0.1282479E+03  0.7546771E-02  0.1230079E+00
         -5   -1    0    0    0  501 -0.00000000000E+00  0.00000000000E+00  0.10945933602E+03  0.10956019460E+03  0.47000000000E+01 0.  1.
          5   -1    0    0  501    0  0.00000000000E+00 -0.00000000000E+00 -0.15712408164E+03  0.15719436069E+03  0.47000000000E+01 0.  1.
         25    2    1    2    0    0 -0.23647580528E+02  0.16221367515E+02  0.44439506968E+01  0.12832464710E+03  0.12500050211E+03 0.  0.
         25    2    1    2    0    0  0.23647580528E+02 -0.16221367515E+02 -0.52108696326E+02  0.13842990819E+03  0.12500072968E+03 0.  0.
          5    1    3    3  502    0  0.44864580788E+02 -0.21054898363E+01  0.28367572598E+02  0.53329849726E+02  0.47000000000E+01 0. -1.
         -5    1    3    3    0  502 -0.68512161316E+02  0.18326857351E+02 -0.23923621901E+02  0.74994797376E+02  0.47000000000E+01 0. -1.
          5    1    4    4  503    0 -0.21494252755E+02  0.20452259570E+02 -0.71003047396E+02  0.77096177354E+02  0.47000000000E+01 0. -1.
         -5    1    4    4    0  503  0.45141833283E+02 -0.36673627085E+02  0.18894351070E+02  0.61333730835E+02  0.47000000000E+01 0. -1.
<mgrwt>
<rscale>  0 0.12824784E+03</rscale>
<asrwt>0</asrwt>
<pdfrwt beam="2">  1        5 0.24186100E-01 0.12824790E+03</pdfrwt>
<pdfrwt beam="1">  1       -5 0.16853062E-01 0.12824790E+03</pdfrwt>
<totfact> 0.36494660E+02</totfact>
</mgrwt>
</event>
<event>
 8    1  0.3763376E-007  0.1272438E+03  0.7546771E-02  0.1231606E+00
         -5   -1    0    0    0  501 -0.00000000000E+00  0.00000000000E+00  0.19611378150E+02  0.20166709026E+02  0.47000000000E+01 0.  1.
          5   -1    0    0  501    0  0.00000000000E+00 -0.00000000000E+00 -0.82396340231E+03  0.82397680692E+03  0.47000000000E+01 0.  1.
         25    2    1    2    0    0 -0.21223561359E+02 -0.10745194741E+02 -0.35455858855E+03  0.37669820640E+03  0.12499538882E+03 0.  0.
         25    2    1    2    0    0  0.21223561359E+02  0.10745194741E+02 -0.44979343561E+03  0.46744530955E+03  0.12500033573E+03 0.  0.
          5    1    4    4  502    0  0.71892350794E+02 -0.91061426509E+01 -0.25840310281E+03  0.26841327366E+03  0.47000000000E+01 0. -1.
         -5    1    4    4    0  502 -0.50668789434E+02  0.19851337392E+02 -0.19139033280E+03  0.19903203589E+03  0.47000000000E+01 0. -1.
          5    1    3    3  503    0 -0.87114859741E+01 -0.86349059456E+01 -0.36132897678E+03  0.36156765763E+03  0.47000000000E+01 0.  1.
         -5    1    3    3    0  503 -0.12512075385E+02 -0.21102887953E+01  0.67703882274E+01  0.15130548767E+02  0.47000000000E+01 0.  1.
<mgrwt>
<rscale>  0 0.12724258E+03</rscale>
<asrwt>0</asrwt>
<pdfrwt beam="2">  1        5 0.12680732E+00 0.12724379E+03</pdfrwt>
<pdfrwt beam="1">  1       -5 0.30608846E-02 0.12724379E+03</pdfrwt>
<totfact> 0.17995951E+02</totfact>
</mgrwt>
</event>
<event>
 8    1  0.3763376E-007  0.2100689E+03  0.7546771E-02  0.1141512E+00
          5   -1    0    0  501    0  0.00000000000E+00  0.00000000000E+00  0.82096700230E+03  0.82098045584E+03  0.47000000000E+01 0.  1.
         -5   -1    0    0    0  501 -0.00000000000E+00 -0.00000000000E+00 -0.56520814031E+02  0.56715892118E+02  0.47000000000E+01 0.  1.
         25    2    1    2    0    0 -0.73784123181E+02 -0.15185058911E+03  0.28325049708E+03  0.35264565760E+03  0.12500166993E+03 0.  0.
         25    2    1    2    0    0  0.73784123181E+02  0.15185058911E+03  0.48119569120E+03  0.52505069036E+03  0.12500494379E+03 0.  0.
          5    1    4    4  502    0  0.73506239768E+02  0.22606726319E+02  0.22922927369E+03  0.24183130748E+03  0.47000000000E+01 0. -1.
         -5    1    4    4    0  502  0.27788341282E+00  0.12924386279E+03  0.25196641751E+03  0.28321938288E+03  0.47000000000E+01 0. -1.
          5    1    3    3  503    0 -0.64168951438E+02 -0.59033848595E+02  0.48274204384E+02  0.99775439952E+02  0.47000000000E+01 0.  1.
         -5    1    3    3    0  503 -0.96151717429E+01 -0.92816740514E+02  0.23497629269E+03  0.25287021765E+03  0.47000000000E+01 0.  1.
<mgrwt>
<rscale>  0 0.21006839E+03</rscale>
<asrwt>0</asrwt>
<pdfrwt beam="1">  1        5 0.12631866E+00 0.21006888E+03</pdfrwt>
<pdfrwt beam="2">  1       -5 0.87115507E-02 0.21006888E+03</pdfrwt>
<totfact> 0.36581490E+01</totfact>
</mgrwt>
</event>
<event>
 8    1  0.3763376E-007  0.1486578E+03  0.7546771E-02  0.1202146E+00
          5   -1    0    0  501    0  0.00000000000E+00  0.00000000000E+00  0.99263721994E+01  0.10982844123E+02  0.47000000000E+01 0.  1.
         -5   -1    0    0    0  501 -0.00000000000E+00 -0.00000000000E+00 -0.23736690482E+04  0.23736737014E+04  0.47000000000E+01 0.  1.
         25    2    1    2    0    0  0.72023577283E+02  0.35863578717E+02 -0.15777123320E+04  0.15847003978E+04  0.12500222492E+03 0.  0.
         25    2    1    2    0    0 -0.72023577283E+02 -0.35863578717E+02 -0.78603034403E+03  0.79995614769E+03  0.12495016822E+03 0.  0.
          5    1    3    3  502    0  0.77797062581E+01  0.54947743516E+02 -0.29384711909E+03  0.29907858122E+03  0.47000000000E+01 0.  1.
         -5    1    3    3    0  502  0.64243871025E+02 -0.19084164800E+02 -0.12838652129E+04  0.12856218166E+04  0.47000000000E+01 0.  1.
          5    1    4    4  503    0  0.29696444118E+02 -0.33466626339E+02 -0.18757457984E+03  0.19289428938E+03  0.47000000000E+01 0. -1.
         -5    1    4    4    0  503 -0.10172002140E+03 -0.23969523773E+01 -0.59845576418E+03  0.60706185831E+03  0.47000000000E+01 0. -1.
<mgrwt>
<rscale>  0 0.14864688E+03</rscale>
<asrwt>0</asrwt>
<pdfrwt beam="1">  1        5 0.16087611E-02 0.14865782E+03</pdfrwt>
<pdfrwt beam="2">  1       -5 0.36526105E+00 0.14865782E+03</pdfrwt>
<totfact> 0.12572990E+01</totfact>
</mgrwt>
</event>
<event>
 8    1  0.3763376E-007  0.1337729E+03  0.7546771E-02  0.1221965E+00
          5   -1    0    0  501    0  0.00000000000E+00  0.00000000000E+00  0.15828939699E+03  0.15835915887E+03  0.47000000000E+01 0. -1.
         -5   -1    0    0    0  501 -0.00000000000E+00 -0.00000000000E+00 -0.14636815715E+03  0.14644359811E+03  0.47000000000E+01 0. -1.
         25    2    1    2    0    0 -0.39737673421E+02 -0.26248313606E+02 -0.66872397923E+02  0.14954932242E+03  0.12500010230E+03 0.  0.
         25    2    1    2    0    0  0.39737673421E+02  0.26248313606E+02  0.78793637763E+02  0.15525343457E+03  0.12500853946E+03 0.  0.
          5    1    4    4  502    0 -0.73427556598E+01  0.48181959793E+02 -0.12121690189E+02  0.50442469044E+02  0.47000000000E+01 0. -1.
         -5    1    4    4    0  502  0.47080429081E+02 -0.21933646187E+02  0.90915327952E+02  0.10481096552E+03  0.47000000000E+01 0. -1.
          5    1    3    3  503    0 -0.53754429263E+01 -0.21990922678E+02 -0.99252863680E+02  0.10191033812E+03  0.47000000000E+01 0.  1.
         -5    1    3    3    0  503 -0.34362230495E+02 -0.42573909282E+01  0.32380465757E+02  0.47638984296E+02  0.47000000000E+01 0.  1.
<mgrwt>
<rscale>  0 0.13377094E+03</rscale>
<asrwt>0</asrwt>
<pdfrwt beam="1">  1        5 0.24363384E-01 0.13377291E+03</pdfrwt>
<pdfrwt beam="2">  1       -5 0.22529347E-01 0.13377291E+03</pdfrwt>
<totfact> 0.21297642E+02</totfact>
</mgrwt>
</event>
<event>
 8    1  0.3763376E-007  0.1438050E+03  0.7546771E-02  0.1208300E+00
          5   -1    0    0  501    0  0.00000000000E+00  0.00000000000E+00  0.18566098298E+04  0.18566157788E+04  0.47000000000E+01 0.  1.
         -5   -1    0    0    0  501 -0.00000000000E+00 -0.00000000000E+00 -0.11728400744E+02  0.12635085437E+02  0.47000000000E+01 0.  1.
         25    2    1    2    0    0 -0.23846908069E+02  0.66978137057E+02  0.64818227122E+03  0.66394228984E+03  0.12499744652E+03 0.  0.
         25    2    1    2    0    0  0.23846908069E+02 -0.66978137057E+02  0.11966991578E+04  0.12053085744E+04  0.12500055725E+03 0.  0.
          5    1    3    3  502    0 -0.15559274288E+02  0.36170176623E+02  0.61955050750E+03  0.62081824557E+03  0.47000000000E+01 0.  1.
         -5    1    3    3    0  502 -0.82876337810E+01  0.30807960433E+02  0.28631763727E+02  0.43124044266E+02  0.47000000000E+01 0.  1.
          5    1    4    4  503    0  0.29966311483E+02  0.22658322719E+02  0.66293719902E+03  0.66401746909E+03  0.47000000000E+01 0. -1.
         -5    1    4    4    0  503 -0.61194034139E+01 -0.89636459775E+02  0.53376195881E+03  0.54129110531E+03  0.47000000000E+01 0. -1.
<mgrwt>
<rscale>  0 0.14380435E+03</rscale>
<asrwt>0</asrwt>
<pdfrwt beam="1">  1        5 0.28570229E+00 0.14380502E+03</pdfrwt>
<pdfrwt beam="2">  1       -5 0.18745732E-02 0.14380502E+03</pdfrwt>
<totfact> 0.32054507E+01</totfact>
</mgrwt>
</event>
<event>
 8    1  0.3763376E-007  0.1744992E+03  0.7546771E-02  0.1173236E+00
          5   -1    0    0  501    0  0.00000000000E+00  0.00000000000E+00  0.90345341278E+02  0.90467511796E+02  0.47000000000E+01 0. -1.
         -5   -1    0    0    0  501 -0.00000000000E+00 -0.00000000000E+00 -0.36576003755E+03  0.36579023369E+03  0.47000000000E+01 0. -1.
         25    2    1    2    0    0  0.99950786874E+02  0.69533171131E+02 -0.20202924612E+03  0.26695652477E+03  0.12499979259E+03 0.  0.
         25    2    1    2    0    0 -0.99950786874E+02 -0.69533171131E+02 -0.73385450148E+02  0.18930122072E+03  0.12499802473E+03 0.  0.
          5    1    3    3  502    0 -0.92174545738E+01 -0.26619983521E+02 -0.40039040333E+02  0.49181294638E+02  0.47000000000E+01 0.  1.
         -5    1    3    3    0  502  0.10916824145E+03  0.96153154652E+02 -0.16199020579E+03  0.21777523014E+03  0.47000000000E+01 0.  1.
          5    1    4    4  503    0 -0.10541139683E+03 -0.28183105680E+02 -0.53323208350E+01  0.10934520416E+03  0.47000000000E+01 0. -1.
         -5    1    4    4    0  503  0.54606099570E+01 -0.41350065451E+02 -0.68053129313E+02  0.79956016554E+02  0.47000000000E+01 0. -1.
<mgrwt>
<rscale>  0 0.17449888E+03</rscale>
<asrwt>0</asrwt>
<pdfrwt beam="1">  1        5 0.13911004E-01 0.17449920E+03</pdfrwt>
<pdfrwt beam="2">  1       -5 0.56282495E-01 0.17449920E+03</pdfrwt>
<totfact> 0.10307362E+02</totfact>
</mgrwt>
</event>
<event>
 8    1  0.3763376E-007  0.1299444E+03  0.7546771E-02  0.1227540E+00
         -5   -1    0    0    0  501 -0.00000000000E+00  0.00000000000E+00  0.16648512720E+02  0.17299218936E+02  0.47000000000E+01 0. -1.
          5   -1    0    0  501    0  0.00000000000E+00 -0.00000000000E+00 -0.10811878769E+04  0.10811980925E+04  0.47000000000E+01 0. -1.
         25    2    1    2    0    0 -0.37132643364E+01  0.35303653667E+02 -0.37644709935E+03  0.39824360919E+03  0.12500166943E+03 0.  0.
         25    2    1    2    0    0  0.37132643364E+01 -0.35303653667E+02 -0.68809226487E+03  0.70025370225E+03  0.12499658495E+03 0.  0.
          5    1    3    3  502    0 -0.57782166485E+02  0.26409882565E+01 -0.25208649913E+03  0.25868020146E+03  0.47000000000E+01 0. -1.
         -5    1    3    3    0  502  0.54068902149E+02  0.32662665411E+02 -0.12436060022E+03  0.13956340773E+03  0.47000000000E+01 0. -1.
          5    1    4    4  503    0  0.12075690372E+02 -0.66190618136E+02 -0.63134075919E+03  0.63493327558E+03  0.47000000000E+01 0.  1.
         -5    1    4    4    0  503 -0.83624260357E+01  0.30886964469E+02 -0.56751505679E+02  0.65320426668E+02  0.47000000000E+01 0.  1.
<mgrwt>
<rscale>  0 0.12994320E+03</rscale>
<asrwt>0</asrwt>
<pdfrwt beam="2">  1        5 0.16638738E+00 0.12994443E+03</pdfrwt>
<pdfrwt beam="1">  1       -5 0.26121506E-02 0.12994443E+03</pdfrwt>
<totfact> 0.11237015E+02</totfact>
</mgrwt>
</event>
<event>
 8    1  0.3763376E-007  0.1433333E+03  0.7546771E-02  0.1208915E+00
         -5   -1    0    0    0  501 -0.00000000000E+00  0.00000000000E+00  0.15907515427E+04  0.15907584860E+04  0.47000000000E+01 0.  1.
          5   -1    0    0  501    0  0.00000000000E+00 -0.00000000000E+00 -0.12673587904E+02  0.13517020025E+02  0.47000000000E+01 0.  1.
         25    2    1    2    0    0 -0.23922854561E+02 -0.65930951174E+02  0.88510087398E+03  0.89663146252E+03  0.12500091661E+03 0.  0.
         25    2    1    2    0    0  0.23922854561E+02  0.65930951174E+02  0.69297708084E+03  0.70764404349E+03  0.12499465753E+03 0.  0.
          5    1    3    3  502    0  0.45944233266E+01  0.22985141252E+02  0.41719758692E+02  0.48083819622E+02  0.47000000000E+01 0.  1.
         -5    1    3    3    0  502 -0.28517277888E+02 -0.88916092425E+02  0.84338111529E+03  0.84854764289E+03  0.47000000000E+01 0.  1.
          5    1    4    4  503    0  0.21042173126E+02  0.10300185569E+03  0.48072896321E+03  0.49211236664E+03  0.47000000000E+01 0. -1.
         -5    1    4    4    0  503  0.28806814349E+01 -0.37070904513E+02  0.21224811763E+03  0.21553167685E+03  0.47000000000E+01 0. -1.
<mgrwt>
<rscale>  0 0.14333189E+03</rscale>
<asrwt>0</asrwt>
<pdfrwt beam="2">  1        5 0.20151976E-02 0.14333326E+03</pdfrwt>
<pdfrwt beam="1">  1       -5 0.24479626E+00 0.14333326E+03</pdfrwt>
<totfact> 0.51753256E+01</totfact>
</mgrwt>
</event>
<event>
 8    1  0.3763376E-007  0.1419752E+03  0.7546771E-02  0.1210705E+00
          5   -1    0    0  501    0  0.00000000000E+00  0.00000000000E+00  0.70837711534E+02  0.70993460089E+02  0.47000000000E+01 0.  1.
         -5   -1    0    0    0  501 -0.00000000000E+00 -0.00000000000E+00 -0.32083303722E+03  0.32086746138E+03  0.47000000000E+01 0.  1.
         25    2    1    2    0    0  0.63917190028E+02 -0.21132810510E+02 -0.19134882100E+03  0.23824979389E+03  0.12496635599E+03 0.  0.
         25    2    1    2    0    0 -0.63917190028E+02  0.21132810510E+02 -0.58646504687E+02  0.15361112758E+03  0.12499985257E+03 0.  0.
          5    1    3    3  502    0  0.63190806790E+02  0.21320125948E+02 -0.33609886451E+02  0.74828739802E+02  0.47000000000E+01 0. -1.
         -5    1    3    3    0  502  0.72638323820E+00 -0.42452936457E+02 -0.15773893455E+03  0.16342105408E+03  0.47000000000E+01 0. -1.
          5    1    4    4  503    0 -0.58706248519E+02  0.43040902728E+02 -0.89286912465E+02  0.11529607825E+03  0.47000000000E+01 0.  1.
         -5    1    4    4    0  503 -0.52109415088E+01 -0.21908092219E+02  0.30640407778E+02  0.38315049326E+02  0.47000000000E+01 0.  1.
<mgrwt>
<rscale>  0 0.14196786E+03</rscale>
<asrwt>0</asrwt>
<pdfrwt beam="1">  1        5 0.10912738E-01 0.14197523E+03</pdfrwt>
<pdfrwt beam="2">  1       -5 0.49373557E-01 0.14197523E+03</pdfrwt>
<totfact> 0.19717464E+02</totfact>
</mgrwt>
</event>
<event>
 8    1  0.3763376E-007  0.1732759E+03  0.7546771E-02  0.1174477E+00
         -5   -1    0    0    0  501 -0.00000000000E+00  0.00000000000E+00  0.14828621599E+04  0.14828696083E+04  0.47000000000E+01 0.  1.
          5   -1    0    0  501    0  0.00000000000E+00 -0.00000000000E+00 -0.21017197509E+02  0.21536308670E+02  0.47000000000E+01 0.  1.
         25    2    1    2    0    0  0.70085589648E+02  0.97383161007E+02  0.89706914996E+03  0.91365070321E+03  0.12501630985E+03 0.  0.
         25    2    1    2    0    0 -0.70085589648E+02 -0.97383161007E+02  0.56477581241E+03  0.59075521376E+03  0.12499813750E+03 0.  0.
          5    1    4    4  502    0 -0.77574054577E+02 -0.55535685536E+02  0.52050891531E+03  0.52920087607E+03  0.47000000000E+01 0.  1.
         -5    1    4    4    0  502  0.74884649292E+01 -0.41847475471E+02  0.44266897099E+02  0.61554337695E+02  0.47000000000E+01 0.  1.
          5    1    3    3  503    0  0.10231096993E+03  0.51986788297E+02  0.67238752903E+03  0.68212699691E+03  0.47000000000E+01 0.  1.
         -5    1    3    3    0  503 -0.32225380282E+02  0.45396372710E+02  0.22468162094E+03  0.23152370629E+03  0.47000000000E+01 0.  1.
<mgrwt>
<rscale>  0 0.17327265E+03</rscale>
<asrwt>0</asrwt>
<pdfrwt beam="2">  1        5 0.32739186E-02 0.17327593E+03</pdfrwt>
<pdfrwt beam="1">  1       -5 0.22817322E+00 0.17327593E+03</pdfrwt>
<totfact> 0.31840684E+01</totfact>
</mgrwt>
</event>
<event>
 8    1  0.3763376E-007  0.1367000E+03  0.7546771E-02  0.1217840E+00
          5   -1    0    0  501    0  0.00000000000E+00  0.00000000000E+00  0.25598598887E+03  0.25602913213E+03  0.47000000000E+01 0. -1.
         -5   -1    0    0    0  501 -0.00000000000E+00 -0.00000000000E+00 -0.12596232494E+03  0.12604997939E+03  0.47000000000E+01 0. -1.
         25    2    1    2    0    0  0.39385610964E+02 -0.38867993394E+02 -0.58931307503E+02  0.14886163792E+03  0.12499976391E+03 0.  0.
         25    2    1    2    0    0 -0.39385610964E+02  0.38867993394E+02  0.18895497144E+03  0.23321747360E+03  0.12499784598E+03 0.  0.
          5    1    4    4  502    0 -0.18424359683E+02  0.15758970788E+02 -0.13618202917E+02  0.28201908459E+02  0.47000000000E+01 0. -1.
         -5    1    4    4    0  502 -0.20961251281E+02  0.23109022606E+02  0.20257317435E+03  0.20501556514E+03  0.47000000000E+01 0. -1.
          5    1    3    3  503    0  0.66932297425E+02 -0.64211121517E+02 -0.60945070663E+02  0.11108281687E+03  0.47000000000E+01 0.  1.
         -5    1    3    3    0  503 -0.27546686461E+02  0.25343128123E+02  0.20137631599E+01  0.37778821052E+02  0.47000000000E+01 0.  1.
<mgrwt>
<rscale>  0 0.13669956E+03</rscale>
<asrwt>0</asrwt>
<pdfrwt beam="1">  1        5 0.39392521E-01 0.13669999E+03</pdfrwt>
<pdfrwt beam="2">  1       -5 0.19388881E-01 0.13669999E+03</pdfrwt>
<totfact> 0.11022893E+02</totfact>
</mgrwt>
</event>
<event>
 8    1  0.3763376E-007  0.1268278E+03  0.7546771E-02  0.1232244E+00
          5   -1    0    0  501    0  0.00000000000E+00  0.00000000000E+00  0.11311436562E+02  0.12249024332E+02  0.47000000000E+01 0. -1.
         -5   -1    0    0    0  501 -0.00000000000E+00 -0.00000000000E+00 -0.15679564819E+04  0.15679635261E+04  0.47000000000E+01 0. -1.
         25    2    1    2    0    0 -0.21297967722E+02 -0.20327927379E+01 -0.10629575443E+04  0.10704970936E+04  0.12501020272E+03 0.  0.
         25    2    1    2    0    0  0.21297967722E+02  0.20327927379E+01 -0.49368750111E+03  0.50971545687E+03  0.12499905018E+03 0.  0.
          5    1    3    3  502    0  0.10499695088E+02 -0.52104487796E+02 -0.26467418620E+03  0.26999932609E+03  0.47000000000E+01 0.  1.
         -5    1    3    3    0  502 -0.31797662810E+02  0.50071695058E+02 -0.79828335808E+03  0.80049776751E+03  0.47000000000E+01 0.  1.
          5    1    4    4  503    0 -0.21371574822E+02 -0.31187870711E+02 -0.50723547500E+02  0.63438125452E+02  0.47000000000E+01 0.  1.
         -5    1    4    4    0  503  0.42669542544E+02  0.33220663449E+02 -0.44296395361E+03  0.44627733142E+03  0.47000000000E+01 0.  1.
<mgrwt>
<rscale>  0 0.12682503E+03</rscale>
<asrwt>0</asrwt>
<pdfrwt beam="1">  1        5 0.18128863E-02 0.12682778E+03</pdfrwt>
<pdfrwt beam="2">  1       -5 0.24129657E+00 0.12682778E+03</pdfrwt>
<totfact> 0.62236974E+01</totfact>
</mgrwt>
</event>
<event>
 8    1  0.3763376E-007  0.1266176E+03  0.7546771E-02  0.1232567E+00
          5   -1    0    0  501    0  0.00000000000E+00  0.00000000000E+00  0.74672947734E+02  0.74820713197E+02  0.47000000000E+01 0. -1.
         -5   -1    0    0    0  501 -0.00000000000E+00 -0.00000000000E+00 -0.21509282117E+03  0.21514416496E+03  0.47000000000E+01 0. -1.
         25    2    1    2    0    0  0.30677586904E+01 -0.19929278186E+02 -0.79062768794E+02  0.14927469723E+03  0.12500170620E+03 0.  0.
         25    2    1    2    0    0 -0.30677586904E+01  0.19929278186E+02 -0.61357104638E+02  0.14069018092E+03  0.12498978137E+03 0.  0.
          5    1    3    3  502    0  0.60106881391E+02 -0.31695280927E+02 -0.45100945334E+02  0.81692186245E+02  0.47000000000E+01 0.  1.
         -5    1    3    3    0  502 -0.57039122700E+02  0.11766002740E+02 -0.33961823461E+02  0.67582510990E+02  0.47000000000E+01 0.  1.
          5    1    4    4  503    0 -0.58411537934E+02  0.79732453914E+01 -0.29588169931E+01  0.59214229742E+02  0.47000000000E+01 0.  1.
         -5    1    4    4    0  503  0.55343779244E+02  0.11956032795E+02 -0.58398287645E+02  0.81475951182E+02  0.47000000000E+01 0.  1.
<mgrwt>
<rscale>  0 0.12661465E+03</rscale>
<asrwt>0</asrwt>
<pdfrwt beam="1">  1        5 0.11503462E-01 0.12661759E+03</pdfrwt>
<pdfrwt beam="2">  1       -5 0.33106519E-01 0.12661759E+03</pdfrwt>
<totfact> 0.39151642E+02</totfact>
</mgrwt>
</event>
<event>
 8    1  0.3763376E-007  0.2132431E+03  0.7546771E-02  0.1139023E+00
         -5   -1    0    0    0  501 -0.00000000000E+00  0.00000000000E+00  0.18853546661E+03  0.18859404065E+03  0.47000000000E+01 0.  1.
          5   -1    0    0  501    0  0.00000000000E+00 -0.00000000000E+00 -0.30785028146E+03  0.30788615720E+03  0.47000000000E+01 0.  1.
         25    2    1    2    0    0  0.10187064008E+03  0.13953635752E+03  0.55943310911E+02  0.22045840055E+03  0.12499691979E+03 0.  0.
         25    2    1    2    0    0 -0.10187064008E+03 -0.13953635752E+03 -0.17525812576E+03  0.27602179730E+03  0.12499839822E+03 0.  0.
          5    1    3    3  502    0  0.17021065293E+02  0.10837589642E+03 -0.72883542098E+01  0.11004663418E+03  0.47000000000E+01 0.  1.
         -5    1    3    3    0  502  0.84849574792E+02  0.31160461104E+02  0.63231665120E+02  0.11041176637E+03  0.47000000000E+01 0.  1.
          5    1    4    4  503    0 -0.12856061326E+03 -0.13217254038E+03 -0.15935126035E+03  0.24374643769E+03  0.47000000000E+01 0. -1.
         -5    1    4    4    0  503  0.26689973173E+02 -0.73638171427E+01 -0.15906865417E+02  0.32275359615E+02  0.47000000000E+01 0. -1.
<mgrwt>
<rscale>  0 0.21324289E+03</rscale>
<asrwt>0</asrwt>
<pdfrwt beam="2">  1        5 0.47368847E-01 0.21324311E+03</pdfrwt>
<pdfrwt beam="1">  1       -5 0.29012722E-01 0.21324311E+03</pdfrwt>
<totfact> 0.39531670E+01</totfact>
</mgrwt>
</event>
<event>
 8    1  0.3763376E-007  0.2323203E+03  0.7546771E-02  0.1125018E+00
         -5   -1    0    0    0  501 -0.00000000000E+00  0.00000000000E+00  0.53828520806E+02  0.54033319833E+02  0.47000000000E+01 0.  1.
          5   -1    0    0  501    0  0.00000000000E+00 -0.00000000000E+00 -0.11840047154E+04  0.11840140439E+04  0.47000000000E+01 0.  1.
         25    2    1    2    0    0  0.15945816960E+03  0.11366355950E+03 -0.32144237154E+03  0.39660626650E+03  0.12500007920E+03 0.  0.
         25    2    1    2    0    0 -0.15945816960E+03 -0.11366355950E+03 -0.80873382308E+03  0.84144109723E+03  0.12500564348E+03 0.  0.
          5    1    4    4  502    0  0.20160363504E+02 -0.67976445590E+01 -0.10848280285E+03  0.11064925098E+03  0.47000000000E+01 0. -1.
         -5    1    4    4    0  502 -0.17961853310E+03 -0.10686591494E+03 -0.70025102023E+03  0.73079184625E+03  0.47000000000E+01 0. -1.
          5    1    3    3  503    0  0.12801683181E+03  0.27376980478E+02 -0.13169730280E+03  0.18575273310E+03  0.47000000000E+01 0.  1.
         -5    1    3    3    0  503  0.31441337787E+02  0.86286579024E+02 -0.18974506873E+03  0.21085353341E+03  0.47000000000E+01 0.  1.
<mgrwt>
<rscale>  0 0.23231956E+03</rscale>
<asrwt>0</asrwt>
<pdfrwt beam="2">  1        5 0.18217102E+00 0.23232030E+03</pdfrwt>
<pdfrwt beam="1">  1       -5 0.82977831E-02 0.23232030E+03</pdfrwt>
<totfact> 0.14665844E+01</totfact>
</mgrwt>
</event>
<event>
 8    1  0.3763376E-007  0.1418379E+03  0.7546771E-02  0.1210878E+00
         -5   -1    0    0    0  501 -0.00000000000E+00  0.00000000000E+00  0.43993726118E+02  0.44244072346E+02  0.47000000000E+01 0. -1.
          5   -1    0    0  501    0  0.00000000000E+00 -0.00000000000E+00 -0.45572779539E+03  0.45575203070E+03  0.47000000000E+01 0. -1.
         25    2    1    2    0    0  0.59645384170E+02  0.30565898079E+02 -0.20518907864E+03  0.24944046267E+03  0.12500456171E+03 0.  0.
         25    2    1    2    0    0 -0.59645384170E+02 -0.30565898079E+02 -0.20654499063E+03  0.25055564037E+03  0.12500179915E+03 0.  0.
          5    1    3    3  502    0  0.38929068276E+02 -0.47111412927E+02 -0.90387918669E+02  0.10921091258E+03  0.47000000000E+01 0. -1.
         -5    1    3    3    0  502  0.20716315894E+02  0.77677311007E+02 -0.11480115997E+03  0.14022955010E+03  0.47000000000E+01 0. -1.
          5    1    4    4  503    0 -0.47735787639E+01 -0.28219288219E+02  0.71448818355E+01  0.29870631367E+02  0.47000000000E+01 0. -1.
         -5    1    4    4    0  503 -0.54871805406E+02 -0.23466098606E+01 -0.21368987246E+03  0.22068500901E+03  0.47000000000E+01 0. -1.
<mgrwt>
<rscale>  0 0.14183728E+03</rscale>
<asrwt>0</asrwt>
<pdfrwt beam="2">  1        5 0.70133087E-01 0.14183789E+03</pdfrwt>
<pdfrwt beam="1">  1       -5 0.67893875E-02 0.14183789E+03</pdfrwt>
<totfact> 0.20780241E+02</totfact>
</mgrwt>
</event>
<event>
 8    1  0.3763376E-007  0.1295024E+03  0.7546771E-02  0.1228196E+00
          5   -1    0    0  501    0  0.00000000000E+00  0.00000000000E+00  0.16606438543E+03  0.16613088247E+03  0.47000000000E+01 0.  1.
         -5   -1    0    0    0  501 -0.00000000000E+00 -0.00000000000E+00 -0.11729309567E+03  0.11738722372E+03  0.47000000000E+01 0.  1.
         25    2    1    2    0    0  0.29555416197E+02  0.16497928157E+02 -0.28655361982E+02  0.13263483625E+03  0.12500066302E+03 0.  0.
         25    2    1    2    0    0 -0.29555416197E+02 -0.16497928157E+02  0.77426651744E+02  0.15088326993E+03  0.12500068194E+03 0.  0.
          5    1    3    3  502    0  0.49346197345E+02  0.25573932860E+02  0.34555452663E+02  0.65614347083E+02  0.47000000000E+01 0. -1.
         -5    1    3    3    0  502 -0.19790781149E+02 -0.90760047030E+01 -0.63210814645E+02  0.67020489165E+02  0.47000000000E+01 0. -1.
          5    1    4    4  503    0 -0.39861175371E+02  0.28764725969E+02  0.89915202693E+02  0.10258243728E+03  0.47000000000E+01 0. -1.
         -5    1    4    4    0  503  0.10305759175E+02 -0.45262654126E+02 -0.12488550949E+02  0.48300832659E+02  0.47000000000E+01 0. -1.
<mgrwt>
<rscale>  0 0.12950241E+03</rscale>
<asrwt>0</asrwt>
<pdfrwt beam="1">  1        5 0.25560723E-01 0.12950241E+03</pdfrwt>
<pdfrwt beam="2">  1       -5 0.18057447E-01 0.12950241E+03</pdfrwt>
<totfact> 0.29028831E+02</totfact>
</mgrwt>
</event>
<event>
 8    1  0.3763376E-007  0.1300073E+03  0.7546771E-02  0.1227457E+00
         -5   -1    0    0    0  501 -0.00000000000E+00  0.00000000000E+00  0.29930006185E+03  0.29933696234E+03  0.47000000000E+01 0. -1.
          5   -1    0    0  501    0  0.00000000000E+00 -0.00000000000E+00 -0.56348463770E+02  0.56544136471E+02  0.47000000000E+01 0. -1.
         25    2    1    2    0    0  0.31113877370E+02  0.17460184547E+02  0.12552635280E+03  0.18071737298E+03  0.12501588795E+03 0.  0.
         25    2    1    2    0    0 -0.31113877370E+02 -0.17460184547E+02  0.11742524528E+03  0.17516372583E+03  0.12498284366E+03 0.  0.
          5    1    4    4  502    0 -0.46236429602E+02 -0.63082782403E+02  0.52783715689E+02  0.94474628869E+02  0.47000000000E+01 0. -1.
         -5    1    4    4    0  502  0.15122552232E+02  0.45622597856E+02  0.64641529591E+02  0.80689096965E+02  0.47000000000E+01 0. -1.
          5    1    3    3  503    0  0.63020368129E+02 -0.31950480790E+02  0.63595241420E+02  0.95177963590E+02  0.47000000000E+01 0. -1.
         -5    1    3    3    0  503 -0.31906490759E+02  0.49410665336E+02  0.61931111381E+02  0.85539409388E+02  0.47000000000E+01 0. -1.
<mgrwt>
<rscale>  0 0.12999938E+03</rscale>
<asrwt>0</asrwt>
<pdfrwt beam="2">  1        5 0.86868848E-02 0.13000732E+03</pdfrwt>
<pdfrwt beam="1">  1       -5 0.46064053E-01 0.13000732E+03</pdfrwt>
<totfact> 0.32927052E+02</totfact>
</mgrwt>
</event>
<event>
 8    1  0.3763376E-007  0.1265482E+03  0.7546771E-02  0.1232671E+00
         -5   -1    0    0    0  501 -0.00000000000E+00  0.00000000000E+00  0.16962490813E+02  0.17601593524E+02  0.47000000000E+01 0. -1.
          5   -1    0    0  501    0  0.00000000000E+00 -0.00000000000E+00 -0.94155726543E+03  0.94156899592E+03  0.47000000000E+01 0. -1.
         25    2    1    2    0    0  0.55801334778E+01  0.18920758037E+02 -0.40064439477E+03  0.42015517434E+03  0.12500122596E+03 0.  0.
         25    2    1    2    0    0 -0.55801334778E+01 -0.18920758037E+02 -0.52395037984E+03  0.53901541510E+03  0.12499793680E+03 0.  0.
          5    1    4    4  502    0 -0.58507420922E+02  0.13441274665E+02 -0.32612947256E+03  0.33164183849E+03  0.47000000000E+01 0.  1.
         -5    1    4    4    0  502  0.52927287444E+02 -0.32362032702E+02 -0.19782090728E+03  0.20737357661E+03  0.47000000000E+01 0.  1.
          5    1    3    3  503    0 -0.55312989986E+02  0.24975708610E+00 -0.25741152642E+03  0.26332940051E+03  0.47000000000E+01 0.  1.
         -5    1    3    3    0  503  0.60893123464E+02  0.18671000951E+02 -0.14323286835E+03  0.15682577383E+03  0.47000000000E+01 0.  1.
<mgrwt>
<rscale>  0 0.12654736E+03</rscale>
<asrwt>0</asrwt>
<pdfrwt beam="2">  1        5 0.14490499E+00 0.12654817E+03</pdfrwt>
<pdfrwt beam="1">  1       -5 0.26596788E-02 0.12654817E+03</pdfrwt>
<totfact> 0.15848998E+02</totfact>
</mgrwt>
</event>
<event>
 8    1  0.3763376E-007  0.1450540E+03  0.7546771E-02  0.1206687E+00
          5   -1    0    0  501    0  0.00000000000E+00  0.00000000000E+00  0.11863362985E+03  0.11872669511E+03  0.47000000000E+01 0. -1.
         -5   -1    0    0    0  501 -0.00000000000E+00 -0.00000000000E+00 -0.19023869268E+03  0.19029674247E+03  0.47000000000E+01 0. -1.
         25    2    1    2    0    0 -0.57075135030E+02 -0.46448103504E+02 -0.76297961195E+02  0.16389644929E+03  0.12500267937E+03 0.  0.
         25    2    1    2    0    0  0.57075135030E+02  0.46448103504E+02  0.46928983639E+01  0.14512698829E+03  0.12499928830E+03 0.  0.
          5    1    3    3  502    0 -0.44709830604E+02  0.37944761038E+02 -0.39650762056E+02  0.70943969261E+02  0.47000000000E+01 0.  1.
         -5    1    3    3    0  502 -0.12365304426E+02 -0.84392864542E+02 -0.36647199139E+02  0.92952480031E+02  0.47000000000E+01 0.  1.
          5    1    4    4  503    0  0.40496570733E+02  0.86825677333E+02  0.21182080904E+02  0.98231568433E+02  0.47000000000E+01 0. -1.
         -5    1    4    4    0  503  0.16578564297E+02 -0.40377573829E+02 -0.16489182540E+02  0.46895419854E+02  0.47000000000E+01 0. -1.
<mgrwt>
<rscale>  0 0.14505328E+03</rscale>
<asrwt>0</asrwt>
<pdfrwt beam="1">  1        5 0.18262952E-01 0.14505401E+03</pdfrwt>
<pdfrwt beam="2">  1       -5 0.29279115E-01 0.14505401E+03</pdfrwt>
<totfact> 0.22717258E+02</totfact>
</mgrwt>
</event>
<event>
 8    1  0.3763376E-007  0.1489821E+03  0.7546771E-02  0.1201737E+00
         -5   -1    0    0    0  501 -0.00000000000E+00  0.00000000000E+00  0.15225591706E+04  0.15225664248E+04  0.47000000000E+01 0.  1.
          5   -1    0    0  501    0  0.00000000000E+00 -0.00000000000E+00 -0.26164375228E+02  0.26583162548E+02  0.47000000000E+01 0.  1.
         25    2    1    2    0    0  0.18349965196E+02  0.78949886715E+02  0.12663211831E+04  0.12750518907E+04  0.12497271463E+03 0.  0.
         25    2    1    2    0    0 -0.18349965196E+02 -0.78949886715E+02  0.23007361225E+03  0.27409769664E+03  0.12500349759E+03 0.  0.
          5    1    3    3  502    0  0.29874984474E+02 -0.94791083905E+01  0.77717573268E+03  0.77782168758E+03  0.47000000000E+01 0. -1.
         -5    1    3    3    0  502 -0.11525019278E+02  0.88428995106E+02  0.48914545042E+03  0.49723020314E+03  0.47000000000E+01 0. -1.
          5    1    4    4  503    0  0.44536030980E+02 -0.31713808624E+02  0.38728653836E+02  0.67165633629E+02  0.47000000000E+01 0. -1.
         -5    1    4    4    0  503 -0.62885996176E+02 -0.47236078092E+02  0.19134495842E+03  0.20693206301E+03  0.47000000000E+01 0. -1.
<mgrwt>
<rscale>  0 0.14897569E+03</rscale>
<asrwt>0</asrwt>
<pdfrwt beam="2">  1        5 0.40580609E-02 0.14898215E+03</pdfrwt>
<pdfrwt beam="1">  1       -5 0.23427265E+00 0.14898215E+03</pdfrwt>
<totfact> 0.19724919E+01</totfact>
</mgrwt>
</event>
<event>
 8    1  0.3763376E-007  0.1589641E+03  0.7546771E-02  0.1189877E+00
         -5   -1    0    0    0  501 -0.00000000000E+00  0.00000000000E+00  0.89111342662E+02  0.89235202645E+02  0.47000000000E+01 0.  1.
          5   -1    0    0  501    0  0.00000000000E+00 -0.00000000000E+00 -0.30339082095E+03  0.30342722395E+03  0.47000000000E+01 0.  1.
         25    2    1    2    0    0 -0.84040996324E+02 -0.50812354840E+02 -0.56506706246E+02  0.16870858435E+03  0.12499917646E+03 0.  0.
         25    2    1    2    0    0  0.84040996324E+02  0.50812354840E+02 -0.15777277204E+03  0.22395384225E+03  0.12497316269E+03 0.  0.
          5    1    3    3  502    0 -0.46922002261E+02 -0.32057586612E+02 -0.95680305545E+02  0.11138300600E+03  0.47000000000E+01 0.  1.
         -5    1    3    3    0  502 -0.37118994063E+02 -0.18754768228E+02  0.39173599299E+02  0.57325578353E+02  0.47000000000E+01 0.  1.
          5    1    4    4  503    0 -0.95879667404E+01  0.34064884968E+02 -0.11341125324E+03  0.11889721551E+03  0.47000000000E+01 0.  1.
         -5    1    4    4    0  503  0.93628963064E+02  0.16747469872E+02 -0.44361518799E+02  0.10505662674E+03  0.47000000000E+01 0.  1.
<mgrwt>
<rscale>  0 0.15895897E+03</rscale>
<asrwt>0</asrwt>
<pdfrwt beam="2">  1        5 0.46687838E-01 0.15896408E+03</pdfrwt>
<pdfrwt beam="1">  1       -5 0.13721765E-01 0.15896408E+03</pdfrwt>
<totfact> 0.15316801E+02</totfact>
</mgrwt>
</event>
<event>
 8    1  0.3763376E-007  0.1277570E+03  0.7546771E-02  0.1230823E+00
          5   -1    0    0  501    0  0.00000000000E+00  0.00000000000E+00  0.12149904104E+03  0.12158991312E+03  0.47000000000E+01 0. -1.
         -5   -1    0    0    0  501 -0.00000000000E+00 -0.00000000000E+00 -0.13620342508E+03  0.13628449289E+03  0.47000000000E+01 0. -1.
         25    2    1    2    0    0  0.35517959212E+01  0.26150087114E+02 -0.23165421333E+02  0.12984019657E+03  0.12500159035E+03 0.  0.
         25    2    1    2    0    0 -0.35517959212E+01 -0.26150087114E+02  0.84610372900E+01  0.12803420944E+03  0.12499890930E+03 0.  0.
          5    1    3    3  502    0 -0.16470154438E+02 -0.47816845083E+02 -0.12716775740E+02  0.52359555443E+02  0.47000000000E+01 0.  1.
         -5    1    3    3    0  502  0.20021950359E+02  0.73966932197E+02 -0.10448645593E+02  0.77480641128E+02  0.47000000000E+01 0.  1.
          5    1    4    4  503    0 -0.44201230013E+02  0.18058931047E+01 -0.39187557185E+02  0.59285450346E+02  0.47000000000E+01 0.  1.
         -5    1    4    4    0  503  0.40649434092E+02 -0.27955980219E+02  0.47648594475E+02  0.68748759098E+02  0.47000000000E+01 0.  1.
<mgrwt>
<rscale>  0 0.12775630E+03</rscale>
<asrwt>0</asrwt>
<pdfrwt beam="1">  1        5 0.18705386E-01 0.12775696E+03</pdfrwt>
<pdfrwt beam="2">  1       -5 0.20967599E-01 0.12775696E+03</pdfrwt>
<totfact> 0.39400876E+02</totfact>
</mgrwt>
</event>
<event>
 8    1  0.3763376E-007  0.1297578E+03  0.7546771E-02  0.1227816E+00
          5   -1    0    0  501    0  0.00000000000E+00  0.00000000000E+00  0.86233494995E+03  0.86234775810E+03  0.47000000000E+01 0. -1.
         -5   -1    0    0    0  501 -0.00000000000E+00 -0.00000000000E+00 -0.25264144040E+02  0.25697606388E+02  0.47000000000E+01 0. -1.
         25    2    1    2    0    0 -0.10272053192E+02 -0.33257760644E+02  0.20368605280E+03  0.24150591147E+03  0.12500201377E+03 0.  0.
         25    2    1    2    0    0  0.10272053192E+02  0.33257760644E+02  0.63338475310E+03  0.64653945302E+03  0.12500170051E+03 0.  0.
          5    1    4    4  502    0 -0.12902955018E+02 -0.43540690287E+02  0.30875063135E+03  0.31210786648E+03  0.47000000000E+01 0.  1.
         -5    1    4    4    0  502  0.23175008210E+02  0.76798450932E+02  0.32463412176E+03  0.33443158654E+03  0.47000000000E+01 0.  1.
          5    1    3    3  503    0  0.11862664890E+02 -0.76308995724E+02  0.95623863425E+02  0.12300324753E+03  0.47000000000E+01 0.  1.
         -5    1    3    3    0  503 -0.22134718082E+02  0.43051235080E+02  0.10806218938E+03  0.11850266394E+03  0.47000000000E+01 0.  1.
<mgrwt>
<rscale>  0 0.12975777E+03</rscale>
<asrwt>0</asrwt>
<pdfrwt beam="1">  1        5 0.13270127E+00 0.12975784E+03</pdfrwt>
<pdfrwt beam="2">  1       -5 0.39211193E-02 0.12975784E+03</pdfrwt>
<totfact> 0.10766041E+02</totfact>
</mgrwt>
</event>
<event>
 8    1  0.3763376E-007  0.1536803E+03  0.7546771E-02  0.1196028E+00
         -5   -1    0    0    0  501 -0.00000000000E+00  0.00000000000E+00  0.59143754244E+02  0.59330208714E+02  0.47000000000E+01 0.  1.
          5   -1    0    0  501    0  0.00000000000E+00 -0.00000000000E+00 -0.43207573875E+03  0.43210130064E+03  0.47000000000E+01 0.  1.
         25    2    1    2    0    0  0.72700273543E+02  0.52029818310E+02 -0.11794269172E+03  0.19372174601E+03  0.12500081832E+03 0.  0.
         25    2    1    2    0    0 -0.72700273543E+02 -0.52029818310E+02 -0.25498929278E+03  0.29770976335E+03  0.12497652576E+03 0.  0.
          5    1    3    3  502    0  0.30767176977E+02  0.83458803879E+02 -0.10831096885E+03  0.14023318829E+03  0.47000000000E+01 0. -1.
         -5    1    3    3    0  502  0.41933096567E+02 -0.31428985569E+02 -0.96317228717E+01  0.53488557721E+02  0.47000000000E+01 0. -1.
          5    1    4    4  503    0 -0.72657832602E+02 -0.68873200752E+02 -0.26071016058E+03  0.27931085953E+03  0.47000000000E+01 0. -1.
         -5    1    4    4    0  503 -0.42440940973E-01  0.16843382443E+02  0.57208677979E+01  0.18398903818E+02  0.47000000000E+01 0. -1.
<mgrwt>
<rscale>  0 0.15367537E+03</rscale>
<asrwt>0</asrwt>
<pdfrwt beam="2">  1        5 0.66489498E-01 0.15368031E+03</pdfrwt>
<pdfrwt beam="1">  1       -5 0.91153483E-02 0.15368031E+03</pdfrwt>
<totfact> 0.14508147E+02</totfact>
</mgrwt>
</event>
<event>
 8    1  0.3763376E-007  0.1266685E+03  0.7546771E-02  0.1232502E+00
          5   -1    0    0  501    0  0.00000000000E+00  0.00000000000E+00  0.17873153914E+02  0.18480790861E+02  0.47000000000E+01 0. -1.
         -5   -1    0    0    0  501 -0.00000000000E+00 -0.00000000000E+00 -0.10940113010E+04  0.10940213969E+04  0.47000000000E+01 0. -1.
         25    2    1    2    0    0  0.17802283770E+02 -0.10247183542E+02 -0.78292626492E+03  0.79309942138E+03  0.12494490713E+03 0.  0.
         25    2    1    2    0    0 -0.17802283770E+02  0.10247183542E+02 -0.29321188219E+03  0.31940276633E+03  0.12499197256E+03 0.  0.
          5    1    4    4  502    0  0.37188231674E+02 -0.31842797681E+02 -0.18008109143E+03  0.18667677368E+03  0.47000000000E+01 0.  1.
         -5    1    4    4    0  502 -0.54990515444E+02  0.42089981223E+02 -0.11313079076E+03  0.13272599266E+03  0.47000000000E+01 0.  1.
          5    1    3    3  503    0  0.66435232813E+02 -0.26414722553E+02 -0.36061022634E+03  0.36765908539E+03  0.47000000000E+01 0.  1.
         -5    1    3    3    0  503 -0.48632949042E+02  0.16167539010E+02 -0.42231603858E+03  0.42544033599E+03  0.47000000000E+01 0.  1.
<mgrwt>
<rscale>  0 0.12665693E+03</rscale>
<asrwt>0</asrwt>
<pdfrwt beam="1">  1        5 0.27972348E-02 0.12666854E+03</pdfrwt>
<pdfrwt beam="2">  1       -5 0.16835690E+00 0.12666854E+03</pdfrwt>
<totfact> 0.96563668E+01</totfact>
</mgrwt>
</event>
<event>
 8    1  0.3763376E-007  0.1320931E+03  0.7546771E-02  0.1224390E+00
          5   -1    0    0  501    0  0.00000000000E+00  0.00000000000E+00  0.59512927359E+03  0.59514783229E+03  0.47000000000E+01 0.  1.
         -5   -1    0    0    0  501 -0.00000000000E+00 -0.00000000000E+00 -0.49332410481E+02  0.49555794050E+02  0.47000000000E+01 0.  1.
         25    2    1    2    0    0 -0.18565384246E+02  0.38474063368E+02  0.67147409035E+02  0.14816170248E+03  0.12497275103E+03 0.  0.
         25    2    1    2    0    0  0.18565384246E+02 -0.38474063368E+02  0.47864945407E+03  0.49654192386E+03  0.12499462076E+03 0.  0.
          5    1    3    3  502    0  0.12023010636E+02 -0.42205874313E+02  0.33584530338E+02  0.55460790558E+02  0.47000000000E+01 0. -1.
         -5    1    3    3    0  502 -0.30588394881E+02  0.80679937681E+02  0.33562878697E+02  0.92700911926E+02  0.47000000000E+01 0. -1.
          5    1    4    4  503    0 -0.18787745779E+02 -0.44077215242E+02  0.63683157372E+02  0.79833669763E+02  0.47000000000E+01 0.  1.
         -5    1    4    4    0  503  0.37353130025E+02  0.56031518741E+01  0.41496629670E+03  0.41670825409E+03  0.47000000000E+01 0.  1.
<mgrwt>
<rscale>  0 0.13208791E+03</rscale>
<asrwt>0</asrwt>
<pdfrwt beam="1">  1        5 0.91576962E-01 0.13209308E+03</pdfrwt>
<pdfrwt beam="2">  1       -5 0.76082124E-02 0.13209308E+03</pdfrwt>
<totfact> 0.90205275E+01</totfact>
</mgrwt>
</event>
<event>
 8    1  0.3763376E-007  0.1602908E+03  0.7546771E-02  0.1188369E+00
         -5   -1    0    0    0  501 -0.00000000000E+00  0.00000000000E+00  0.56671770969E+03  0.56673719877E+03  0.47000000000E+01 0.  1.
          5   -1    0    0  501    0  0.00000000000E+00 -0.00000000000E+00 -0.50078775986E+02  0.50298844960E+02  0.47000000000E+01 0.  1.
         25    2    1    2    0    0  0.10033610665E+03 -0.54152376077E+00  0.35443171632E+03  0.38899146776E+03  0.12499957165E+03 0.  0.
         25    2    1    2    0    0 -0.10033610665E+03  0.54152376077E+00  0.16220721738E+03  0.22804457597E+03  0.12500207884E+03 0.  0.
          5    1    3    3  502    0  0.78763013877E+02 -0.56398197238E+02  0.25507571027E+03  0.27289206104E+03  0.47000000000E+01 0. -1.
         -5    1    3    3    0  502  0.21573092771E+02  0.55856673477E+02  0.99356006049E+02  0.11609940672E+03  0.47000000000E+01 0. -1.
          5    1    4    4  503    0 -0.12851154183E+03  0.11248892594E+02  0.12239414649E+03  0.17788808578E+03  0.47000000000E+01 0. -1.
         -5    1    4    4    0  503  0.28175435178E+02 -0.10707368833E+02  0.39813070890E+02  0.50156490193E+02  0.47000000000E+01 0. -1.
<mgrwt>
<rscale>  0 0.16029033E+03</rscale>
<asrwt>0</asrwt>
<pdfrwt beam="2">  1        5 0.77228542E-02 0.16029082E+03</pdfrwt>
<pdfrwt beam="1">  1       -5 0.87205772E-01 0.16029082E+03</pdfrwt>
<totfact> 0.10493258E+02</totfact>
</mgrwt>
</event>
<event>
 8    1  0.3763376E-007  0.1343221E+03  0.7546771E-02  0.1221191E+00
         -5   -1    0    0    0  501 -0.00000000000E+00  0.00000000000E+00  0.31959024717E+02  0.32302774816E+02  0.47000000000E+01 0.  1.
          5   -1    0    0  501    0  0.00000000000E+00 -0.00000000000E+00 -0.56616089055E+03  0.56618039881E+03  0.47000000000E+01 0.  1.
         25    2    1    2    0    0  0.42946660041E+02  0.23930277302E+02 -0.23868200915E+03  0.27388232438E+03  0.12500140933E+03 0.  0.
         25    2    1    2    0    0 -0.42946660041E+02 -0.23930277302E+02 -0.29551985669E+03  0.32460084925E+03  0.12496660295E+03 0.  0.
          5    1    3    3  502    0 -0.18341937447E+02  0.55940942205E+02 -0.15086175993E+03  0.16200980308E+03  0.47000000000E+01 0.  1.
         -5    1    3    3    0  502  0.61288597487E+02 -0.32010664903E+02 -0.87820249218E+02  0.11187252130E+03  0.47000000000E+01 0.  1.
          5    1    4    4  503    0  0.30775716849E+02  0.26600648212E+02 -0.13179067827E+03  0.13800584087E+03  0.47000000000E+01 0.  1.
         -5    1    4    4    0  503 -0.73722376890E+02 -0.50530925514E+02 -0.16372917842E+03  0.18659500838E+03  0.47000000000E+01 0.  1.
<mgrwt>
<rscale>  0 0.13431400E+03</rscale>
<asrwt>0</asrwt>
<pdfrwt beam="2">  1        5 0.87129611E-01 0.13432210E+03</pdfrwt>
<pdfrwt beam="1">  1       -5 0.49447164E-02 0.13432210E+03</pdfrwt>
<totfact> 0.21067613E+02</totfact>
</mgrwt>
</event>
<event>
 8    1  0.3763376E-007  0.1633190E+03  0.7546771E-02  0.1185002E+00
         -5   -1    0    0    0  501 -0.00000000000E+00  0.00000000000E+00  0.12088869871E+04  0.12088961236E+04  0.47000000000E+01 0. -1.
          5   -1    0    0  501    0  0.00000000000E+00 -0.00000000000E+00 -0.27403311849E+02  0.27803444037E+02  0.47000000000E+01 0. -1.
         25    2    1    2    0    0 -0.10157908777E+03 -0.26967251526E+02  0.86793735196E+03  0.88316827126E+03  0.12500161881E+03 0.  0.
         25    2    1    2    0    0  0.10157908777E+03  0.26967251526E+02  0.31354632332E+03  0.35353129638E+03  0.12501014728E+03 0.  0.
          5    1    4    4  502    0  0.11057475382E+03 -0.15257977052E+02  0.26919898023E+03  0.29146142627E+03  0.47000000000E+01 0. -1.
         -5    1    4    4    0  502 -0.89956660505E+01  0.42225228578E+02  0.44347343092E+02  0.62069870110E+02  0.47000000000E+01 0. -1.
          5    1    3    3  503    0  0.11245292842E+02 -0.40070460511E+02  0.37296337320E+03  0.37530769532E+03  0.47000000000E+01 0. -1.
         -5    1    3    3    0  503 -0.11282438061E+03  0.13103208985E+02  0.49497397876E+03  0.50786057594E+03  0.47000000000E+01 0. -1.
<mgrwt>
<rscale>  0 0.16331732E+03</rscale>
<asrwt>0</asrwt>
<pdfrwt beam="2">  1        5 0.42473772E-02 0.16331895E+03</pdfrwt>
<pdfrwt beam="1">  1       -5 0.18601406E+00 0.16331895E+03</pdfrwt>
<totfact> 0.39346108E+01</totfact>
</mgrwt>
</event>
<event>
 8    1  0.3763376E-007  0.1469469E+03  0.7546771E-02  0.1204276E+00
          5   -1    0    0  501    0  0.00000000000E+00  0.00000000000E+00  0.98088103237E+02  0.98200641528E+02  0.47000000000E+01 0. -1.
         -5   -1    0    0    0  501 -0.00000000000E+00 -0.00000000000E+00 -0.22858184555E+03  0.22863016012E+03  0.47000000000E+01 0. -1.
         25    2    1    2    0    0  0.26832065248E+02  0.72450039915E+02 -0.97124539435E+02  0.17614273557E+03  0.12499647644E+03 0.  0.
         25    2    1    2    0    0 -0.26832065248E+02 -0.72450039915E+02 -0.33369202882E+02  0.15068806608E+03  0.12499768618E+03 0.  0.
          5    1    4    4  502    0 -0.18231582749E+02 -0.10544219491E+03 -0.42253159387E+02  0.11514280939E+03  0.47000000000E+01 0.  1.
         -5    1    4    4    0  502 -0.86004824992E+01  0.32992154991E+02  0.88839565049E+01  0.35545256692E+02  0.47000000000E+01 0.  1.
          5    1    3    3  503    0  0.18067904916E+01  0.12605320352E+02  0.30232988807E+02  0.33140341055E+02  0.47000000000E+01 0. -1.
         -5    1    3    3    0  503  0.25025274756E+02  0.59844719563E+02 -0.12735752824E+03  0.14300239451E+03  0.47000000000E+01 0. -1.
<mgrwt>
<rscale>  0 0.14694664E+03</rscale>
<asrwt>0</asrwt>
<pdfrwt beam="1">  1        5 0.15102851E-01 0.14694689E+03</pdfrwt>
<pdfrwt beam="2">  1       -5 0.35178811E-01 0.14694689E+03</pdfrwt>
<totfact> 0.22450774E+02</totfact>
</mgrwt>
</event>
<event>
 8    1  0.3763376E-007  0.1534647E+03  0.7546771E-02  0.1196280E+00
          5   -1    0    0  501    0  0.00000000000E+00  0.00000000000E+00  0.27380289273E+02  0.27780753062E+02  0.47000000000E+01 0.  1.
         -5   -1    0    0    0  501 -0.00000000000E+00 -0.00000000000E+00 -0.98675556297E+03  0.98676675615E+03  0.47000000000E+01 0.  1.
         25    2    1    2    0    0 -0.11827512363E+02 -0.88236885144E+02 -0.66606698751E+03  0.68351706909E+03  0.12499885574E+03 0.  0.
         25    2    1    2    0    0  0.11827512363E+02  0.88236885144E+02 -0.29330828618E+03  0.33103044012E+03  0.12500305435E+03 0.  0.
          5    1    4    4  502    0 -0.14131653068E+02 -0.29055653875E+02 -0.75216605333E+02  0.81997331410E+02  0.47000000000E+01 0.  1.
         -5    1    4    4    0  502  0.25959165431E+02  0.11729253902E+03 -0.21809168085E+03  0.24903310871E+03  0.47000000000E+01 0.  1.
          5    1    3    3  503    0 -0.44559191101E+02 -0.47199168193E+02 -0.13528071063E+03  0.15012076358E+03  0.47000000000E+01 0.  1.
         -5    1    3    3    0  503  0.32731678738E+02 -0.41037716951E+02 -0.53078627688E+03  0.53339630551E+03  0.47000000000E+01 0.  1.
<mgrwt>
<rscale>  0 0.15346380E+03</rscale>
<asrwt>0</asrwt>
<pdfrwt beam="1">  1        5 0.42440189E-02 0.15346466E+03</pdfrwt>
<pdfrwt beam="2">  1       -5 0.15184019E+00 0.15346466E+03</pdfrwt>
<totfact> 0.69370288E+01</totfact>
</mgrwt>
</event>
<event>
 8    1  0.3763376E-007  0.1327626E+03  0.7546771E-02  0.1223422E+00
          5   -1    0    0  501    0  0.00000000000E+00  0.00000000000E+00  0.42768857550E+02  0.43026331195E+02  0.47000000000E+01 0.  1.
         -5   -1    0    0    0  501 -0.00000000000E+00 -0.00000000000E+00 -0.50900234480E+03  0.50902404365E+03  0.47000000000E+01 0.  1.
         25    2    1    2    0    0  0.36984596320E+02 -0.25173100324E+02 -0.35450431029E+03  0.37854882116E+03  0.12499743455E+03 0.  0.
         25    2    1    2    0    0 -0.36984596320E+02  0.25173100324E+02 -0.11172917696E+03  0.17350155368E+03  0.12497133592E+03 0.  0.
          5    1    4    4  502    0 -0.73556630463E+02  0.20491306385E+02 -0.11282569567E+03  0.13631654018E+03  0.47000000000E+01 0.  1.
         -5    1    4    4    0  502  0.36572034143E+02  0.46817939384E+01  0.10965187124E+01  0.37185013502E+02  0.47000000000E+01 0.  1.
          5    1    3    3  503    0  0.44286235956E+02 -0.28332413650E+02 -0.46318657980E+02  0.70224671130E+02  0.47000000000E+01 0. -1.
         -5    1    3    3    0  503 -0.73016396363E+01  0.31593133261E+01 -0.30818565231E+03  0.30832415003E+03  0.47000000000E+01 0. -1.
<mgrwt>
<rscale>  0 0.13275644E+03</rscale>
<asrwt>0</asrwt>
<pdfrwt beam="1">  1        5 0.66012994E-02 0.13276259E+03</pdfrwt>
<pdfrwt beam="2">  1       -5 0.78329523E-01 0.13276259E+03</pdfrwt>
<totfact> 0.16574743E+02</totfact>
</mgrwt>
</event>
<event>
 8    1  0.3763376E-007  0.1278860E+03  0.7546771E-02  0.1230628E+00
          5   -1    0    0  501    0  0.00000000000E+00  0.00000000000E+00  0.28978322538E+03  0.28982133757E+03  0.47000000000E+01 0.  1.
         -5   -1    0    0    0  501 -0.00000000000E+00 -0.00000000000E+00 -0.57200495439E+02  0.57393263355E+02  0.47000000000E+01 0.  1.
         25    2    1    2    0    0  0.21153265992E+02 -0.16809280482E+02  0.94515543685E+02  0.15902204189E+03  0.12499923694E+03 0.  0.
         25    2    1    2    0    0 -0.21153265992E+02  0.16809280482E+02  0.13806718625E+03  0.18819255903E+03  0.12499551506E+03 0.  0.
          5    1    3    3  502    0  0.15279794538E+02 -0.63198618121E+02  0.15371820131E+02  0.66977013279E+02  0.47000000000E+01 0. -1.
         -5    1    3    3    0  502  0.58734714544E+01  0.46389337639E+02  0.79143723554E+02  0.92045028608E+02  0.47000000000E+01 0. -1.
          5    1    4    4  503    0  0.45115857277E+02  0.64773610999E+01  0.15455250312E+02  0.48356504701E+02  0.47000000000E+01 0. -1.
         -5    1    4    4    0  503 -0.66269123269E+02  0.10331919382E+02  0.12261193594E+03  0.13983605433E+03  0.47000000000E+01 0. -1.
<mgrwt>
<rscale>  0 0.12788506E+03</rscale>
<asrwt>0</asrwt>
<pdfrwt beam="1">  1        5 0.44599794E-01 0.12788597E+03</pdfrwt>
<pdfrwt beam="2">  1       -5 0.88178364E-02 0.12788597E+03</pdfrwt>
<totfact> 0.34116021E+02</totfact>
</mgrwt>
</event>
<event>
 8    1  0.3763376E-007  0.1645985E+03  0.7546771E-02  0.1183601E+00
          5   -1    0    0  501    0  0.00000000000E+00  0.00000000000E+00  0.31687291368E+02  0.32033957517E+02  0.47000000000E+01 0.  1.
         -5   -1    0    0    0  501 -0.00000000000E+00 -0.00000000000E+00 -0.90195044257E+03  0.90196268817E+03  0.47000000000E+01 0.  1.
         25    2    1    2    0    0  0.10682952601E+03  0.74793576175E+01 -0.54719143535E+03  0.57141146503E+03  0.12499642806E+03 0.  0.
         25    2    1    2    0    0 -0.10682952601E+03 -0.74793576175E+01 -0.32307171585E+03  0.36258518065E+03  0.12499676488E+03 0.  0.
          5    1    3    3  502    0  0.10689461375E+03  0.36070877006E+02 -0.26930611334E+03  0.29201958718E+03  0.47000000000E+01 0. -1.
         -5    1    3    3    0  502 -0.65087735830E-01 -0.28591519389E+02 -0.27788532202E+03  0.27939187785E+03  0.47000000000E+01 0. -1.
          5    1    4    4  503    0 -0.46864138584E+02  0.42461610060E+02 -0.57002367175E+02  0.85267788042E+02  0.47000000000E+01 0.  1.
         -5    1    4    4    0  503 -0.59965387429E+02 -0.49940967677E+02 -0.26606934867E+03  0.27731739261E+03  0.47000000000E+01 0.  1.
<mgrwt>
<rscale>  0 0.16459848E+03</rscale>
<asrwt>0</asrwt>
<pdfrwt beam="1">  1        5 0.49025772E-02 0.16459854E+03</pdfrwt>
<pdfrwt beam="2">  1       -5 0.13878920E+00 0.16459854E+03</pdfrwt>
<totfact> 0.71118300E+01</totfact>
</mgrwt>
</event>
<event>
 8    1  0.3763376E-007  0.1312393E+03  0.7546771E-02  0.1225636E+00
         -5   -1    0    0    0  501 -0.00000000000E+00  0.00000000000E+00  0.70131746749E+03  0.70133321624E+03  0.47000000000E+01 0.  1.
          5   -1    0    0  501    0  0.00000000000E+00 -0.00000000000E+00 -0.24644134958E+02  0.25088311777E+02  0.47000000000E+01 0.  1.
         25    2    1    2    0    0  0.98333994412E+01  0.38752951348E+02  0.29667103691E+03  0.32439477685E+03  0.12497911875E+03 0.  0.
         25    2    1    2    0    0 -0.98333994412E+01 -0.38752951348E+02  0.38000229562E+03  0.40202675116E+03  0.12500110798E+03 0.  0.
          5    1    4    4  502    0 -0.32748574814E+02 -0.78254954300E+02  0.26077144210E+03  0.27426290679E+03  0.47000000000E+01 0. -1.
         -5    1    4    4    0  502  0.22915175372E+02  0.39502002953E+02  0.11923085352E+03  0.12776384438E+03  0.47000000000E+01 0. -1.
          5    1    3    3  503    0 -0.47005520895E+02  0.50094107765E+02  0.11941143313E+03  0.13784091914E+03  0.47000000000E+01 0. -1.
         -5    1    3    3    0  503  0.56838920336E+02 -0.11341156417E+02  0.17725960379E+03  0.18655385772E+03  0.47000000000E+01 0. -1.
<mgrwt>
<rscale>  0 0.13123410E+03</rscale>
<asrwt>0</asrwt>
<pdfrwt beam="2">  1        5 0.38267841E-02 0.13123934E+03</pdfrwt>
<pdfrwt beam="1">  1       -5 0.10793038E+00 0.13123934E+03</pdfrwt>
<totfact> 0.19010167E+02</totfact>
</mgrwt>
</event>
<event>
 8    1  0.3763376E-007  0.1496374E+03  0.7546771E-02  0.1200920E+00
         -5   -1    0    0    0  501 -0.00000000000E+00  0.00000000000E+00  0.10728019256E+03  0.10738309791E+03  0.47000000000E+01 0.  1.
          5   -1    0    0  501    0  0.00000000000E+00 -0.00000000000E+00 -0.30866442305E+03  0.30870020417E+03  0.47000000000E+01 0.  1.
         25    2    1    2    0    0  0.56946741950E+01  0.82063726845E+02  0.17799237722E+02  0.15069229855E+03  0.12499788559E+03 0.  0.
         25    2    1    2    0    0 -0.56946741950E+01 -0.82063726845E+02 -0.21918346820E+03  0.26539100353E+03  0.12499642971E+03 0.  0.
          5    1    4    4  502    0 -0.20592370709E+02 -0.11296987089E+03 -0.16473319555E+03  0.20086152737E+03  0.47000000000E+01 0. -1.
         -5    1    4    4    0  502  0.14897696514E+02  0.30906144046E+02 -0.54450272649E+02  0.64529476154E+02  0.47000000000E+01 0. -1.
          5    1    3    3  503    0  0.24658924974E+02  0.68983886665E+02 -0.43298076270E+02  0.85227065003E+02  0.47000000000E+01 0.  1.
         -5    1    3    3    0  503 -0.18964250779E+02  0.13079840180E+02  0.61097313991E+02  0.65465233550E+02  0.47000000000E+01 0.  1.
<mgrwt>
<rscale>  0 0.14963711E+03</rscale>
<asrwt>0</asrwt>
<pdfrwt beam="2">  1        5 0.47497502E-01 0.14963742E+03</pdfrwt>
<pdfrwt beam="1">  1       -5 0.16515313E-01 0.14963742E+03</pdfrwt>
<totfact> 0.10352268E+02</totfact>
</mgrwt>
</event>
<event>
 8    1  0.3763376E-007  0.1305574E+03  0.7546771E-02  0.1226635E+00
          5   -1    0    0  501    0  0.00000000000E+00  0.00000000000E+00  0.12791486833E+04  0.12791573179E+04  0.47000000000E+01 0. -1.
         -5   -1    0    0    0  501 -0.00000000000E+00 -0.00000000000E+00 -0.14338311932E+02  0.15088975746E+02  0.47000000000E+01 0. -1.
         25    2    1    2    0    0  0.16224114410E+02 -0.33980925121E+02  0.43301881445E+03  0.45227263800E+03  0.12500928069E+03 0.  0.
         25    2    1    2    0    0 -0.16224114410E+02  0.33980925121E+02  0.83179155689E+03  0.84197365564E+03  0.12499807003E+03 0.  0.
          5    1    3    3  502    0 -0.52875991019E+02 -0.63645952786E+01  0.22592221745E+03  0.23216226402E+03  0.47000000000E+01 0.  1.
         -5    1    3    3    0  502  0.69100105429E+02 -0.27616329843E+02  0.20709659700E+03  0.22011037398E+03  0.47000000000E+01 0.  1.
          5    1    4    4  503    0  0.10314199992E+02 -0.45229004365E+02  0.32306346515E+03  0.32641099563E+03  0.47000000000E+01 0.  1.
         -5    1    4    4    0  503 -0.26538314401E+02  0.79209929486E+02  0.50872809175E+03  0.51556266001E+03  0.47000000000E+01 0.  1.
<mgrwt>
<rscale>  0 0.13055476E+03</rscale>
<asrwt>0</asrwt>
<pdfrwt beam="1">  1        5 0.19685055E+00 0.13055744E+03</pdfrwt>
<pdfrwt beam="2">  1       -5 0.22643013E-02 0.13055744E+03</pdfrwt>
<totfact> 0.86107436E+01</totfact>
</mgrwt>
</event>
<event>
 8    1  0.3763376E-007  0.1354431E+03  0.7546771E-02  0.1219596E+00
         -5   -1    0    0    0  501 -0.00000000000E+00  0.00000000000E+00  0.39228424520E+03  0.39231239979E+03  0.47000000000E+01 0. -1.
          5   -1    0    0  501    0  0.00000000000E+00 -0.00000000000E+00 -0.49786172043E+02  0.50007528700E+02  0.47000000000E+01 0. -1.
         25    2    1    2    0    0 -0.37720683330E+02  0.35990518837E+02  0.22692088673E+03  0.26426867333E+03  0.12500670170E+03 0.  0.
         25    2    1    2    0    0  0.37720683330E+02 -0.35990518837E+02  0.11557718642E+03  0.17805125516E+03  0.12500398412E+03 0.  0.
          5    1    3    3  502    0 -0.54056790560E+02 -0.80744749781E+01  0.31578933491E+02  0.63298126293E+02  0.47000000000E+01 0.  1.
         -5    1    3    3    0  502  0.16336107230E+02  0.44064993815E+02  0.19534195324E+03  0.20097054703E+03  0.47000000000E+01 0.  1.
          5    1    4    4  503    0  0.76122011377E+02 -0.53109201934E+02  0.83821081010E+02  0.12515275294E+03  0.47000000000E+01 0.  1.
         -5    1    4    4    0  503 -0.38401328047E+02  0.17118683098E+02  0.31756105413E+02  0.52898502226E+02  0.47000000000E+01 0.  1.
<mgrwt>
<rscale>  0 0.13544251E+03</rscale>
<asrwt>0</asrwt>
<pdfrwt beam="2">  1        5 0.76786043E-02 0.13544314E+03</pdfrwt>
<pdfrwt beam="1">  1       -5 0.60370615E-01 0.13544314E+03</pdfrwt>
<totfact> 0.23153408E+02</totfact>
</mgrwt>
</event>
<event>
 8    1  0.3763376E-007  0.1397582E+03  0.7546771E-02  0.1213657E+00
          5   -1    0    0  501    0  0.00000000000E+00  0.00000000000E+00  0.18079475102E+02  0.18680402029E+02  0.47000000000E+01 0. -1.
         -5   -1    0    0    0  501 -0.00000000000E+00 -0.00000000000E+00 -0.10739801766E+04  0.10739904607E+04  0.47000000000E+01 0. -1.
         25    2    1    2    0    0 -0.23922407302E+02 -0.57731909611E+02 -0.58557615915E+03  0.60202307253E+03  0.12500834667E+03 0.  0.
         25    2    1    2    0    0  0.23922407302E+02  0.57731909611E+02 -0.47032454231E+03  0.49064779019E+03  0.12499929582E+03 0.  0.
          5    1    4    4  502    0 -0.45069749738E+02  0.44007642754E+01 -0.95673031592E+02  0.10595314078E+03  0.47000000000E+01 0. -1.
         -5    1    4    4    0  502  0.68992157040E+02  0.53331145335E+02 -0.37465151072E+03  0.38469464940E+03  0.47000000000E+01 0. -1.
          5    1    3    3  503    0 -0.69809515182E+02 -0.51914408234E+02 -0.28972714733E+03  0.30254319376E+03  0.47000000000E+01 0.  1.
         -5    1    3    3    0  503  0.45887107880E+02 -0.58175013768E+01 -0.29584901182E+03  0.29947987877E+03  0.47000000000E+01 0.  1.
<mgrwt>
<rscale>  0 0.13975613E+03</rscale>
<asrwt>0</asrwt>
<pdfrwt beam="1">  1        5 0.28284748E-02 0.13975815E+03</pdfrwt>
<pdfrwt beam="2">  1       -5 0.16527469E+00 0.13975815E+03</pdfrwt>
<totfact> 0.10309417E+02</totfact>
</mgrwt>
</event>
<event>
 8    1  0.3763376E-007  0.1322626E+03  0.7546771E-02  0.1224138E+00
         -5   -1    0    0    0  501 -0.00000000000E+00  0.00000000000E+00  0.32757661472E+03  0.32761033029E+03  0.47000000000E+01 0. -1.
          5   -1    0    0  501    0  0.00000000000E+00 -0.00000000000E+00 -0.56380610908E+02  0.56576172426E+02  0.47000000000E+01 0. -1.
         25    2    1    2    0    0  0.76144208077E+01  0.42543956133E+02  0.18068570496E+03  0.22391949382E+03  0.12499859251E+03 0.  0.
         25    2    1    2    0    0 -0.76144208077E+01 -0.42543956133E+02  0.90510298852E+02  0.16026700889E+03  0.12500172932E+03 0.  0.
          5    1    3    3  502    0  0.63360336290E+02  0.42276853690E+02  0.10455562567E+03  0.12944432561E+03  0.47000000000E+01 0. -1.
         -5    1    3    3    0  502 -0.55745915482E+02  0.26710244317E+00  0.76130079293E+02  0.94475168218E+02  0.47000000000E+01 0. -1.
          5    1    4    4  503    0 -0.38443276571E+02 -0.61937520401E+02  0.98552030548E+02  0.12267328426E+03  0.47000000000E+01 0. -1.
         -5    1    4    4    0  503  0.30828855763E+02  0.19393564268E+02 -0.80417316963E+01  0.37593724627E+02  0.47000000000E+01 0. -1.
<mgrwt>
<rscale>  0 0.13226188E+03</rscale>
<asrwt>0</asrwt>
<pdfrwt beam="2">  1        5 0.86915768E-02 0.13226262E+03</pdfrwt>
<pdfrwt beam="1">  1       -5 0.50414039E-01 0.13226262E+03</pdfrwt>
<totfact> 0.27376424E+02</totfact>
</mgrwt>
</event>
<event>
 8    1  0.3763376E-007  0.1495448E+03  0.7546771E-02  0.1201054E+00
          5   -1    0    0  501    0  0.00000000000E+00  0.00000000000E+00  0.49214910206E+03  0.49217154393E+03  0.47000000000E+01 0.  1.
         -5   -1    0    0    0  501 -0.00000000000E+00 -0.00000000000E+00 -0.50936661431E+02  0.51153039770E+02  0.47000000000E+01 0.  1.
         25    2    1    2    0    0  0.66472588763E+02  0.48032775389E+02  0.13030645612E+03  0.19835175334E+03  0.12505156128E+03 0.  0.
         25    2    1    2    0    0 -0.66472588763E+02 -0.48032775389E+02  0.31090598451E+03  0.34497283036E+03  0.12497187651E+03 0.  0.
          5    1    3    3  502    0  0.81899262318E+02  0.12123174569E+02  0.13528088439E+03  0.15867409433E+03  0.47000000000E+01 0.  1.
         -5    1    3    3    0  502 -0.15426673555E+02  0.35909600820E+02 -0.49744282688E+01  0.39677659011E+02  0.47000000000E+01 0.  1.
          5    1    4    4  503    0  0.29537821308E+02  0.11511932707E+02  0.10838219602E+03  0.11302122763E+03  0.47000000000E+01 0.  1.
         -5    1    4    4    0  503 -0.96010410071E+02 -0.59544708096E+02  0.20252378849E+03  0.23195160273E+03  0.47000000000E+01 0.  1.
<mgrwt>
<rscale>  0 0.14952813E+03</rscale>
<asrwt>0</asrwt>
<pdfrwt beam="1">  1        5 0.75733616E-01 0.14954479E+03</pdfrwt>
<pdfrwt beam="2">  1       -5 0.78547804E-02 0.14954479E+03</pdfrwt>
<totfact> 0.13846922E+02</totfact>
</mgrwt>
</event>
<event>
 8    1  0.3763376E-007  0.1313582E+03  0.7546771E-02  0.1225457E+00
          5   -1    0    0  501    0  0.00000000000E+00  0.00000000000E+00  0.48012544172E+02  0.48242039735E+02  0.47000000000E+01 0. -1.
         -5   -1    0    0    0  501 -0.00000000000E+00 -0.00000000000E+00 -0.36059229122E+03  0.36062292008E+03  0.47000000000E+01 0. -1.
         25    2    1    2    0    0  0.17614363932E+02  0.36322327005E+02 -0.17272327648E+03  0.21699842383E+03  0.12500163379E+03 0.  0.
         25    2    1    2    0    0 -0.17614363932E+02 -0.36322327005E+02 -0.13985647057E+03  0.19186653599E+03  0.12499343189E+03 0.  0.
          5    1    3    3  502    0  0.31756312070E+02  0.54635578645E+02 -0.18116194125E+03  0.19192511240E+03  0.47000000000E+01 0. -1.
         -5    1    3    3    0  502 -0.14141948138E+02 -0.18313251640E+02  0.84386647752E+01  0.25073311428E+02  0.47000000000E+01 0. -1.
          5    1    4    4  503    0  0.95952340352E+01 -0.74805543487E+02 -0.50970050952E+02  0.91148088004E+02  0.47000000000E+01 0. -1.
         -5    1    4    4    0  503 -0.27209597967E+02  0.38483216483E+02 -0.88886419616E+02  0.10071844799E+03  0.47000000000E+01 0. -1.
<mgrwt>
<rscale>  0 0.13135628E+03</rscale>
<asrwt>0</asrwt>
<pdfrwt beam="1">  1        5 0.74065551E-02 0.13135823E+03</pdfrwt>
<pdfrwt beam="2">  1       -5 0.55495745E-01 0.13135823E+03</pdfrwt>
<totfact> 0.29254881E+02</totfact>
</mgrwt>
</event>
<event>
 8    1  0.3763376E-007  0.1308814E+03  0.7546771E-02  0.1226154E+00
          5   -1    0    0  501    0  0.00000000000E+00  0.00000000000E+00  0.32174269263E+03  0.32177701947E+03  0.47000000000E+01 0. -1.
         -5   -1    0    0    0  501 -0.00000000000E+00 -0.00000000000E+00 -0.76724057221E+02  0.76867879875E+02  0.47000000000E+01 0. -1.
         25    2    1    2    0    0  0.36849220670E+02  0.12130036379E+02  0.12057232810E+02  0.13143564844E+03  0.12499979989E+03 0.  0.
         25    2    1    2    0    0 -0.36849220670E+02 -0.12130036379E+02  0.23296140260E+03  0.26720925091E+03  0.12499906329E+03 0.  0.
          5    1    4    4  502    0  0.40416453661E+01 -0.52977849245E+02  0.18316625161E+03  0.19077461345E+03  0.47000000000E+01 0.  1.
         -5    1    4    4    0  502 -0.40890866036E+02  0.40847812866E+02  0.49795150989E+02  0.76434637457E+02  0.47000000000E+01 0.  1.
          5    1    3    3  503    0  0.22407090769E+02 -0.48488420926E+02 -0.24589361210E+02  0.58990943078E+02  0.47000000000E+01 0. -1.
         -5    1    3    3    0  503  0.14442129901E+02  0.60618457304E+02  0.36646594020E+02  0.72444705364E+02  0.47000000000E+01 0. -1.
<mgrwt>
<rscale>  0 0.13088127E+03</rscale>
<asrwt>0</asrwt>
<pdfrwt beam="1">  1        5 0.49512579E-01 0.13088145E+03</pdfrwt>
<pdfrwt beam="2">  1       -5 0.11817405E-01 0.13088145E+03</pdfrwt>
<totfact> 0.16573159E+02</totfact>
</mgrwt>
</event>
<event>
 8    1  0.3763376E-007  0.1273321E+03  0.7546771E-02  0.1231469E+00
         -5   -1    0    0    0  501 -0.00000000000E+00  0.00000000000E+00  0.77646890378E+02  0.77789006842E+02  0.47000000000E+01 0.  1.
          5   -1    0    0  501    0  0.00000000000E+00 -0.00000000000E+00 -0.22844654213E+03  0.22849488530E+03  0.47000000000E+01 0.  1.
         25    2    1    2    0    0 -0.27682958197E+01 -0.24105883602E+02 -0.30109209105E+02  0.13084262766E+03  0.12499788660E+03 0.  0.
         25    2    1    2    0    0  0.27682958197E+01  0.24105883602E+02 -0.12069044264E+03  0.17544126448E+03  0.12499878900E+03 0.  0.
          5    1    3    3  502    0 -0.45610169224E+02 -0.56368727434E+02 -0.98813141786E+01  0.73331107581E+02  0.47000000000E+01 0.  1.
         -5    1    3    3    0  502  0.42841873404E+02  0.32262843832E+02 -0.20227894926E+02  0.57511520081E+02  0.47000000000E+01 0.  1.
          5    1    4    4  503    0 -0.23457592800E+02  0.65062887248E+02 -0.10157248113E+03  0.12297356171E+03  0.47000000000E+01 0. -1.
         -5    1    4    4    0  503  0.26225888619E+02 -0.40957003646E+02 -0.19117961510E+02  0.52467702768E+02  0.47000000000E+01 0. -1.
<mgrwt>
<rscale>  0 0.12733184E+03</rscale>
<asrwt>0</asrwt>
<pdfrwt beam="2">  1        5 0.35160272E-01 0.12733206E+03</pdfrwt>
<pdfrwt beam="1">  1       -5 0.11960326E-01 0.12733206E+03</pdfrwt>
<totfact> 0.32482149E+02</totfact>
</mgrwt>
</event>
<event>
 8    1  0.3763376E-007  0.1295527E+03  0.7546771E-02  0.1228124E+00
         -5   -1    0    0    0  501 -0.00000000000E+00  0.00000000000E+00  0.92515639454E+02  0.92634947745E+02  0.47000000000E+01 0.  1.
          5   -1    0    0  501    0  0.00000000000E+00 -0.00000000000E+00 -0.24224888208E+03  0.24229447140E+03  0.47000000000E+01 0.  1.
         25    2    1    2    0    0  0.15024161555E+01  0.34001253221E+02  0.92113088259E+01  0.12987971824E+03  0.12500220208E+03 0.  0.
         25    2    1    2    0    0 -0.15024161555E+01 -0.34001253221E+02 -0.15894455145E+03  0.20504970090E+03  0.12499466760E+03 0.  0.
          5    1    3    3  502    0  0.39187431951E+01 -0.12558548100E+02  0.59514814688E+02  0.61132453295E+02  0.47000000000E+01 0. -1.
         -5    1    3    3    0  502 -0.24163270396E+01  0.46559801321E+02 -0.50303505862E+02  0.68747264945E+02  0.47000000000E+01 0. -1.
          5    1    4    4  503    0 -0.12289321306E+02 -0.42111545032E+02 -0.17677597043E+03  0.18219836268E+03  0.47000000000E+01 0.  1.
         -5    1    4    4    0  503  0.10786905151E+02  0.81102918110E+01  0.17831418973E+02  0.22851338223E+02  0.47000000000E+01 0.  1.
<mgrwt>
<rscale>  0 0.12955085E+03</rscale>
<asrwt>0</asrwt>
<pdfrwt beam="2">  1        5 0.37281743E-01 0.12955266E+03</pdfrwt>
<pdfrwt beam="1">  1       -5 0.14245860E-01 0.12955266E+03</pdfrwt>
<totfact> 0.21265711E+02</totfact>
</mgrwt>
</event>
<event>
 8    1  0.3763376E-007  0.1440437E+03  0.7546771E-02  0.1207989E+00
          5   -1    0    0  501    0  0.00000000000E+00  0.00000000000E+00  0.22679250078E+03  0.22684119646E+03  0.47000000000E+01 0.  1.
         -5   -1    0    0    0  501 -0.00000000000E+00 -0.00000000000E+00 -0.94397044648E+02  0.94513978004E+02  0.47000000000E+01 0.  1.
         25    2    1    2    0    0  0.13678657231E+01  0.71565403017E+02  0.37438519451E+02  0.14882863663E+03  0.12499936950E+03 0.  0.
         25    2    1    2    0    0 -0.13678657231E+01 -0.71565403017E+02  0.94956936683E+02  0.17252653784E+03  0.12500043387E+03 0.  0.
          5    1    3    3  502    0  0.35669166923E+02  0.76662555125E+02 -0.14783309549E+02  0.85965534190E+02  0.47000000000E+01 0. -1.
         -5    1    3    3    0  502 -0.34301301200E+02 -0.50971521085E+01  0.52221829000E+02  0.62863102435E+02  0.47000000000E+01 0. -1.
          5    1    4    4  503    0 -0.46505462224E+02 -0.84179051548E+02  0.71344699941E+02  0.11983750225E+03  0.47000000000E+01 0.  1.
         -5    1    4    4    0  503  0.45137596501E+02  0.12613648531E+02  0.23612236742E+02  0.52689035587E+02  0.47000000000E+01 0.  1.
<mgrwt>
<rscale>  0 0.14404347E+03</rscale>
<asrwt>0</asrwt>
<pdfrwt beam="1">  1        5 0.34903895E-01 0.14404370E+03</pdfrwt>
<pdfrwt beam="2">  1       -5 0.14535363E-01 0.14404370E+03</pdfrwt>
<totfact> 0.24281712E+02</totfact>
</mgrwt>
</event>
<event>
 8    1  0.3763376E-007  0.1352395E+03  0.7546771E-02  0.1219885E+00
          5   -1    0    0  501    0  0.00000000000E+00  0.00000000000E+00  0.73936578227E+02  0.74085812407E+02  0.47000000000E+01 0.  1.
         -5   -1    0    0    0  501 -0.00000000000E+00 -0.00000000000E+00 -0.26477195348E+03  0.26481366534E+03  0.47000000000E+01 0.  1.
         25    2    1    2    0    0  0.42088302517E+02 -0.29876240572E+02 -0.13938156780E+03  0.19420244883E+03  0.12499341875E+03 0.  0.
         25    2    1    2    0    0 -0.42088302517E+02  0.29876240572E+02 -0.51453807456E+02  0.14469702892E+03  0.12500288363E+03 0.  0.
          5    1    4    4  502    0 -0.28127402921E+02  0.72688796455E+02 -0.26525415147E+01  0.78127702524E+02  0.47000000000E+01 0.  1.
         -5    1    4    4    0  502 -0.13960899596E+02 -0.42812555883E+02 -0.48801265942E+02  0.66569326392E+02  0.47000000000E+01 0.  1.
          5    1    3    3  503    0 -0.13915685301E+02 -0.42939120895E+02 -0.22624635396E+01  0.45438124322E+02  0.47000000000E+01 0.  1.
         -5    1    3    3    0  503  0.56003987817E+02  0.13062880323E+02 -0.13711910426E+03  0.14876432451E+03  0.47000000000E+01 0.  1.
<mgrwt>
<rscale>  0 0.13523736E+03</rscale>
<asrwt>0</asrwt>
<pdfrwt beam="1">  1        5 0.11389547E-01 0.13523955E+03</pdfrwt>
<pdfrwt beam="2">  1       -5 0.40748834E-01 0.13523955E+03</pdfrwt>
<totfact> 0.26834646E+02</totfact>
</mgrwt>
</event>
<event>
 8    1  0.3763376E-007  0.1377955E+03  0.7546771E-02  0.1216327E+00
          5   -1    0    0  501    0  0.00000000000E+00  0.00000000000E+00  0.71385112964E+02  0.71539669784E+02  0.47000000000E+01 0.  1.
         -5   -1    0    0    0  501 -0.00000000000E+00 -0.00000000000E+00 -0.26803034012E+03  0.26807154497E+03  0.47000000000E+01 0.  1.
         25    2    1    2    0    0 -0.31165551460E+02  0.48902947926E+02 -0.11473781895E+03  0.17931017499E+03  0.12499832737E+03 0.  0.
         25    2    1    2    0    0  0.31165551460E+02 -0.48902947926E+02 -0.81907408203E+02  0.16030103976E+03  0.12499923966E+03 0.  0.
          5    1    3    3  502    0 -0.35066274698E+02 -0.37208087634E+02 -0.39144931555E+02  0.64563930124E+02  0.47000000000E+01 0. -1.
         -5    1    3    3    0  502  0.39007232376E+01  0.86111035561E+02 -0.75592887396E+02  0.11474624487E+03  0.47000000000E+01 0. -1.
          5    1    4    4  503    0  0.44033972615E+02 -0.77536601806E+01 -0.10277054886E+03  0.11217390830E+03  0.47000000000E+01 0. -1.
         -5    1    4    4    0  503 -0.12868421154E+02 -0.41149287746E+02  0.20863140654E+02  0.48127131464E+02  0.47000000000E+01 0. -1.
<mgrwt>
<rscale>  0 0.13779529E+03</rscale>
<asrwt>0</asrwt>
<pdfrwt beam="1">  1        5 0.10997384E-01 0.13779550E+03</pdfrwt>
<pdfrwt beam="2">  1       -5 0.41250495E-01 0.13779550E+03</pdfrwt>
<totfact> 0.28013199E+02</totfact>
</mgrwt>
</event>
<event>
 8    1  0.3763376E-007  0.1338247E+03  0.7546771E-02  0.1221892E+00
          5   -1    0    0  501    0  0.00000000000E+00  0.00000000000E+00  0.66488660155E+02  0.66654571705E+02  0.47000000000E+01 0. -1.
         -5   -1    0    0    0  501 -0.00000000000E+00 -0.00000000000E+00 -0.27312313556E+03  0.27316357220E+03  0.47000000000E+01 0. -1.
         25    2    1    2    0    0 -0.47788778700E+02  0.51150513205E+00 -0.12464471804E+03  0.18287432220E+03  0.12499073157E+03 0.  0.
         25    2    1    2    0    0  0.47788778700E+02 -0.51150513205E+00 -0.81989757365E+02  0.15694382170E+03  0.12500005540E+03 0.  0.
          5    1    4    4  502    0 -0.26564188134E+02  0.39668449506E+02 -0.39974290420E+02  0.62444182051E+02  0.47000000000E+01 0. -1.
         -5    1    4    4    0  502  0.74352966834E+02 -0.40179954638E+02 -0.42015466945E+02  0.94499639652E+02  0.47000000000E+01 0. -1.
          5    1    3    3  503    0  0.33084643130E+02 -0.32183312597E+02 -0.45917683873E+02  0.65275438819E+02  0.47000000000E+01 0.  1.
         -5    1    3    3    0  503 -0.80873421830E+02  0.32694817729E+02 -0.78727034167E+02  0.11759888339E+03  0.47000000000E+01 0.  1.
<mgrwt>
<rscale>  0 0.13382249E+03</rscale>
<asrwt>0</asrwt>
<pdfrwt beam="1">  1        5 0.10244898E-01 0.13382467E+03</pdfrwt>
<pdfrwt beam="2">  1       -5 0.42034816E-01 0.13382467E+03</pdfrwt>
<totfact> 0.30210453E+02</totfact>
</mgrwt>
</event>
<event>
 8    1  0.3763376E-007  0.1280091E+03  0.7546771E-02  0.1230441E+00
         -5   -1    0    0    0  501 -0.00000000000E+00  0.00000000000E+00  0.32259491842E+03  0.32262915459E+03  0.47000000000E+01 0.  1.
          5   -1    0    0  501    0  0.00000000000E+00 -0.00000000000E+00 -0.63000365537E+02  0.63175438723E+02  0.47000000000E+01 0.  1.
         25    2    1    2    0    0  0.27549237348E+02  0.15713947081E+01  0.21505468741E+03  0.25026954150E+03  0.12499958027E+03 0.  0.
         25    2    1    2    0    0 -0.27549237348E+02 -0.15713947081E+01  0.44539865468E+02  0.13553505180E+03  0.12499808355E+03 0.  0.
          5    1    4    4  502    0  0.24635869458E+01  0.52713240761E+02  0.50310046976E+02  0.73061247176E+02  0.47000000000E+01 0. -1.
         -5    1    4    4    0  502 -0.30012824293E+02 -0.54284635469E+02 -0.57701815079E+01  0.62473804628E+02  0.47000000000E+01 0. -1.
          5    1    3    3  503    0 -0.16282607501E+02 -0.24436809852E+02  0.19172894028E+03  0.19402153882E+03  0.47000000000E+01 0.  1.
         -5    1    3    3    0  503  0.43831844849E+02  0.26008204560E+02  0.23325747129E+02  0.56248002688E+02  0.47000000000E+01 0.  1.
<mgrwt>
<rscale>  0 0.12800872E+03</rscale>
<asrwt>0</asrwt>
<pdfrwt beam="2">  1        5 0.97084645E-02 0.12800908E+03</pdfrwt>
<pdfrwt beam="1">  1       -5 0.49646089E-01 0.12800908E+03</pdfrwt>
<totfact> 0.23077232E+02</totfact>
</mgrwt>
</event>
<event>
 8    1  0.3763376E-007  0.1544736E+03  0.7546771E-02  0.1195084E+00
         -5   -1    0    0    0  501 -0.00000000000E+00  0.00000000000E+00  0.26398896184E+02  0.26814020954E+02  0.47000000000E+01 0. -1.
          5   -1    0    0  501    0  0.00000000000E+00 -0.00000000000E+00 -0.14171168108E+04  0.14171246047E+04  0.47000000000E+01 0. -1.
         25    2    1    2    0    0  0.89225106517E+02 -0.16600534031E+02 -0.25775927263E+03  0.30049759814E+03  0.12498906552E+03 0.  0.
         25    2    1    2    0    0 -0.89225106517E+02  0.16600534031E+02 -0.11329586419E+04  0.11434410275E+04  0.12500160700E+03 0.  0.
          5    1    4    4  502    0 -0.95180479445E+02  0.55176182044E+02 -0.68889074138E+03  0.69763620770E+03  0.47000000000E+01 0.  1.
         -5    1    4    4    0  502  0.59553729279E+01 -0.38575648013E+02 -0.44406790056E+03  0.44580481984E+03  0.47000000000E+01 0.  1.
          5    1    3    3  503    0  0.12077593557E+03 -0.19297196171E+02 -0.20744806912E+03  0.24086510701E+03  0.47000000000E+01 0.  1.
         -5    1    3    3    0  503 -0.31550829048E+02  0.26966621401E+01 -0.50311203515E+02  0.59632491139E+02  0.47000000000E+01 0.  1.
<mgrwt>
<rscale>  0 0.15447108E+03</rscale>
<asrwt>0</asrwt>
<pdfrwt beam="2">  1        5 0.21805044E+00 0.15447362E+03</pdfrwt>
<pdfrwt beam="1">  1       -5 0.40939020E-02 0.15447362E+03</pdfrwt>
<totfact> 0.25003739E+01</totfact>
</mgrwt>
</event>
<event>
 8    1  0.3763376E-007  0.1609897E+03  0.7546771E-02  0.1187585E+00
         -5   -1    0    0    0  501 -0.00000000000E+00  0.00000000000E+00  0.14346128050E+03  0.14353824927E+03  0.47000000000E+01 0.  1.
          5   -1    0    0  501    0  0.00000000000E+00 -0.00000000000E+00 -0.36007112735E+03  0.36010180054E+03  0.47000000000E+01 0.  1.
         25    2    1    2    0    0 -0.87948540293E+02  0.50557715737E+02  0.69498278854E+02  0.17535019147E+03  0.12500660192E+03 0.  0.
         25    2    1    2    0    0  0.87948540293E+02 -0.50557715737E+02 -0.28610812570E+03  0.32828985834E+03  0.12500137252E+03 0.  0.
          5    1    4    4  502    0 -0.22840786378E+02 -0.37933224329E+02 -0.12160516878E+03  0.12950111237E+03  0.47000000000E+01 0. -1.
         -5    1    4    4    0  502  0.11078932667E+03 -0.12624491407E+02 -0.16450295692E+03  0.19878874597E+03  0.47000000000E+01 0. -1.
          5    1    3    3  503    0 -0.33880149648E+02 -0.81555652632E+01 -0.31034196482E+02  0.46899777571E+02  0.47000000000E+01 0.  1.
         -5    1    3    3    0  503 -0.54068390645E+02  0.58713281000E+02  0.10053247534E+03  0.12845041389E+03  0.47000000000E+01 0.  1.
<mgrwt>
<rscale>  0 0.16098867E+03</rscale>
<asrwt>0</asrwt>
<pdfrwt beam="2">  1        5 0.55403838E-01 0.16098969E+03</pdfrwt>
<pdfrwt beam="1">  1       -5 0.22079246E-01 0.16098969E+03</pdfrwt>
<totfact> 0.44402652E+01</totfact>
</mgrwt>
</event>
<event>
 8    1  0.3763376E-007  0.1517973E+03  0.7546771E-02  0.1198282E+00
         -5   -1    0    0    0  501 -0.00000000000E+00  0.00000000000E+00  0.29366627774E+02  0.29740356871E+02  0.47000000000E+01 0. -1.
          5   -1    0    0  501    0  0.00000000000E+00 -0.00000000000E+00 -0.83235496163E+03  0.83236823111E+03  0.47000000000E+01 0. -1.
         25    2    1    2    0    0 -0.16486601121E+02 -0.84533826428E+02 -0.29269317193E+03  0.32971439156E+03  0.12499804510E+03 0.  0.
         25    2    1    2    0    0  0.16486601121E+02  0.84533826428E+02 -0.51029516193E+03  0.53239419642E+03  0.12499860905E+03 0.  0.
          5    1    3    3  502    0 -0.18470384115E+00 -0.93664851434E+02 -0.10399991888E+03  0.14004003583E+03  0.47000000000E+01 0. -1.
         -5    1    3    3    0  502 -0.16301897279E+02  0.91310250051E+01 -0.18869325305E+03  0.18967435572E+03  0.47000000000E+01 0. -1.
          5    1    4    4  503    0 -0.39616147821E+02  0.15118909179E+02 -0.61896821033E+02  0.75175308692E+02  0.47000000000E+01 0.  1.
         -5    1    4    4    0  503  0.56102748941E+02  0.69414917250E+02 -0.44839834090E+03  0.45721888773E+03  0.47000000000E+01 0.  1.
<mgrwt>
<rscale>  0 0.15179721E+03</rscale>
<asrwt>0</asrwt>
<pdfrwt beam="2">  1        5 0.12808436E+00 0.15179733E+03</pdfrwt>
<pdfrwt beam="1">  1       -5 0.45477125E-02 0.15179733E+03</pdfrwt>
<totfact> 0.97169270E+01</totfact>
</mgrwt>
</event>
<event>
 8    1  0.3763376E-007  0.1257007E+03  0.7546771E-02  0.1233981E+00
          5   -1    0    0  501    0  0.00000000000E+00  0.00000000000E+00  0.18141000627E+03  0.18147088024E+03  0.47000000000E+01 0. -1.
         -5   -1    0    0    0  501 -0.00000000000E+00 -0.00000000000E+00 -0.94264984519E+02  0.94382081490E+02  0.47000000000E+01 0. -1.
         25    2    1    2    0    0 -0.21275238757E+01  0.13092310852E+02  0.52018577042E+01  0.12580827733E+03  0.12499891344E+03 0.  0.
         25    2    1    2    0    0  0.21275238757E+01 -0.13092310852E+02  0.81943164048E+02  0.15004468440E+03  0.12499116057E+03 0.  0.
          5    1    4    4  502    0 -0.53499702053E+02  0.98969038359E+01  0.89824427138E+01  0.55343844305E+02  0.47000000000E+01 0.  1.
         -5    1    4    4    0  502  0.55627225929E+02 -0.22989214688E+02  0.72960721334E+02  0.94700840092E+02  0.47000000000E+01 0.  1.
          5    1    3    3  503    0 -0.33069272384E+02  0.26684439019E+02 -0.46942337098E+02  0.63492590702E+02  0.47000000000E+01 0. -1.
         -5    1    3    3    0  503  0.30941748508E+02 -0.13592128166E+02  0.52144194802E+02  0.62315686632E+02  0.47000000000E+01 0. -1.
<mgrwt>
<rscale>  0 0.12569876E+03</rscale>
<asrwt>0</asrwt>
<pdfrwt beam="1">  1        5 0.27922922E-01 0.12570069E+03</pdfrwt>
<pdfrwt beam="2">  1       -5 0.14515996E-01 0.12570069E+03</pdfrwt>
<totfact> 0.36035553E+02</totfact>
</mgrwt>
</event>
<event>
 8    1  0.3763376E-007  0.1261479E+03  0.7546771E-02  0.1233287E+00
          5   -1    0    0  501    0  0.00000000000E+00  0.00000000000E+00  0.94939890430E+02  0.95056156007E+02  0.47000000000E+01 0.  1.
         -5   -1    0    0    0  501 -0.00000000000E+00 -0.00000000000E+00 -0.20646180184E+03  0.20651529149E+03  0.47000000000E+01 0.  1.
         25    2    1    2    0    0  0.92396620901E+01  0.14281808346E+02 -0.12135252077E+03  0.17504208608E+03  0.12499582471E+03 0.  0.
         25    2    1    2    0    0 -0.92396620901E+01 -0.14281808346E+02  0.98306093599E+01  0.12652936142E+03  0.12499478796E+03 0.  0.
          5    1    4    4  502    0  0.45026369883E+02  0.26869383697E+01 -0.32240981834E+02  0.55643189451E+02  0.47000000000E+01 0. -1.
         -5    1    4    4    0  502 -0.54266031974E+02 -0.16968746716E+02  0.42071591194E+02  0.70886171972E+02  0.47000000000E+01 0. -1.
          5    1    3    3  503    0 -0.16713177761E+02 -0.14496261078E+02 -0.13252294999E+03  0.13443918390E+03  0.47000000000E+01 0.  1.
         -5    1    3    3    0  503  0.25952839851E+02  0.28778069425E+02  0.11170429211E+02  0.40602902173E+02  0.47000000000E+01 0.  1.
<mgrwt>
<rscale>  0 0.12614766E+03</rscale>
<asrwt>0</asrwt>
<pdfrwt beam="1">  1        5 0.14619195E-01 0.12614792E+03</pdfrwt>
<pdfrwt beam="2">  1       -5 0.31776412E-01 0.12614792E+03</pdfrwt>
<totfact> 0.27660659E+02</totfact>
</mgrwt>
</event>
<event>
 8    1  0.3763376E-007  0.1530238E+03  0.7546771E-02  0.1196807E+00
         -5   -1    0    0    0  501 -0.00000000000E+00  0.00000000000E+00  0.68280827345E+03  0.68282444911E+03  0.47000000000E+01 0. -1.
          5   -1    0    0  501    0  0.00000000000E+00 -0.00000000000E+00 -0.35434139614E+02  0.35744485592E+02  0.47000000000E+01 0. -1.
         25    2    1    2    0    0  0.87128026713E+02 -0.14084829831E+02  0.39267829202E+03  0.42144100681E+03  0.12500642276E+03 0.  0.
         25    2    1    2    0    0 -0.87128026713E+02  0.14084829831E+02  0.25469584182E+03  0.29712792789E+03  0.12500143286E+03 0.  0.
          5    1    3    3  502    0  0.24637108733E+02 -0.58473222144E+02  0.97400911929E+02  0.11634058827E+03  0.47000000000E+01 0.  1.
         -5    1    3    3    0  502  0.62490917981E+02  0.44388392313E+02  0.29527738009E+03  0.30510041854E+03  0.47000000000E+01 0.  1.
          5    1    4    4  503    0 -0.11628045183E+03 -0.49636031810E+01  0.17744821449E+03  0.21226337333E+03  0.47000000000E+01 0.  1.
         -5    1    4    4    0  503  0.29152425117E+02  0.19048433012E+02  0.77247627337E+02  0.84864554554E+02  0.47000000000E+01 0.  1.
<mgrwt>
<rscale>  0 0.15302277E+03</rscale>
<asrwt>0</asrwt>
<pdfrwt beam="2">  1        5 0.54765236E-02 0.15302379E+03</pdfrwt>
<pdfrwt beam="1">  1       -5 0.10507254E+00 0.15302379E+03</pdfrwt>
<totfact> 0.11801341E+02</totfact>
</mgrwt>
</event>
<event>
 8    1  0.3763376E-007  0.1441775E+03  0.7546771E-02  0.1207817E+00
         -5   -1    0    0    0  501 -0.00000000000E+00  0.00000000000E+00  0.62319899101E+02  0.62496878513E+02  0.47000000000E+01 0. -1.
          5   -1    0    0  501    0  0.00000000000E+00 -0.00000000000E+00 -0.33288709818E+03  0.33292027594E+03  0.47000000000E+01 0. -1.
         25    2    1    2    0    0 -0.24225232196E+02  0.67633009106E+02 -0.13463619594E+03  0.19726647673E+03  0.12500428709E+03 0.  0.
         25    2    1    2    0    0  0.24225232196E+02 -0.67633009106E+02 -0.13593100314E+03  0.19815067772E+03  0.12500147068E+03 0.  0.
          5    1    3    3  502    0 -0.48193412456E+02 -0.20598060362E+02 -0.48199816476E+02  0.71359634270E+02  0.47000000000E+01 0. -1.
         -5    1    3    3    0  502  0.23968180261E+02  0.88231069468E+02 -0.86436379464E+02  0.12590684246E+03  0.47000000000E+01 0. -1.
          5    1    4    4  503    0  0.34392117719E+02 -0.47997126202E+02  0.11235176897E+01  0.59244359874E+02  0.47000000000E+01 0. -1.
         -5    1    4    4    0  503 -0.10166885524E+02 -0.19635882904E+02 -0.13705452083E+03  0.13890631785E+03  0.47000000000E+01 0. -1.
<mgrwt>
<rscale>  0 0.14417691E+03</rscale>
<asrwt>0</asrwt>
<pdfrwt beam="2">  1        5 0.51229565E-01 0.14417752E+03</pdfrwt>
<pdfrwt beam="1">  1       -5 0.96038429E-02 0.14417752E+03</pdfrwt>
<totfact> 0.22916179E+02</totfact>
</mgrwt>
</event>
<event>
 8    1  0.3763376E-007  0.1267011E+03  0.7546771E-02  0.1232436E+00
         -5   -1    0    0    0  501 -0.00000000000E+00  0.00000000000E+00  0.23498514161E+03  0.23503213988E+03  0.47000000000E+01 0.  1.
          5   -1    0    0  501    0  0.00000000000E+00 -0.00000000000E+00 -0.68310216155E+02  0.68471714095E+02  0.47000000000E+01 0.  1.
         25    2    1    2    0    0  0.20637641204E+02  0.94435521360E+00  0.89969802859E+02  0.15539538796E+03  0.12500542841E+03 0.  0.
         25    2    1    2    0    0 -0.20637641204E+02 -0.94435521360E+00  0.76705122595E+02  0.14810846601E+03  0.12500255130E+03 0.  0.
          5    1    3    3  502    0  0.20492481772E+02 -0.53890809356E+02  0.81149197481E+02  0.99656627447E+02  0.47000000000E+01 0. -1.
         -5    1    3    3    0  502  0.14515943252E+00  0.54835164570E+02  0.88206053785E+01  0.55738760517E+02  0.47000000000E+01 0. -1.
          5    1    4    4  503    0 -0.44873091910E+02 -0.45583476075E+02  0.72689813046E+02  0.96939912262E+02  0.47000000000E+01 0.  1.
         -5    1    4    4    0  503  0.24235450706E+02  0.44639120862E+02  0.40153095487E+01  0.51168553751E+02  0.47000000000E+01 0.  1.
<mgrwt>
<rscale>  0 0.12670036E+03</rscale>
<asrwt>0</asrwt>
<pdfrwt beam="2">  1        5 0.10525302E-01 0.12670107E+03</pdfrwt>
<pdfrwt beam="1">  1       -5 0.36167598E-01 0.12670107E+03</pdfrwt>
<totfact> 0.38361505E+02</totfact>
</mgrwt>
</event>
<event>
 8    1  0.3763376E-007  0.1279872E+03  0.7546771E-02  0.1230477E+00
          5   -1    0    0  501    0  0.00000000000E+00  0.00000000000E+00  0.58565328793E+03  0.58567214691E+03  0.47000000000E+01 0.  1.
         -5   -1    0    0    0  501 -0.00000000000E+00 -0.00000000000E+00 -0.30408127145E+02  0.30769208577E+02  0.47000000000E+01 0.  1.
         25    2    1    2    0    0 -0.88123499215E+01  0.26001101980E+02  0.18709579044E+03  0.22667901876E+03  0.12499931171E+03 0.  0.
         25    2    1    2    0    0  0.88123499215E+01 -0.26001101980E+02  0.36814937034E+03  0.38976233672E+03  0.12500802146E+03 0.  0.
          5    1    3    3  502    0 -0.64777172909E+02  0.92056739102E+01  0.12573827371E+03  0.14182041474E+03  0.47000000000E+01 0.  1.
         -5    1    3    3    0  502  0.55964822987E+02  0.16795428070E+02  0.61357516730E+02  0.84858604015E+02  0.47000000000E+01 0.  1.
          5    1    4    4  503    0  0.34826727689E+01  0.50652429931E+02  0.14970233510E+03  0.15814764242E+03  0.47000000000E+01 0. -1.
         -5    1    4    4    0  503  0.53296771526E+01 -0.76653531911E+02  0.21844703524E+03  0.23161469431E+03  0.47000000000E+01 0. -1.
<mgrwt>
<rscale>  0 0.12798506E+03</rscale>
<asrwt>0</asrwt>
<pdfrwt beam="1">  1        5 0.90129717E-01 0.12798719E+03</pdfrwt>
<pdfrwt beam="2">  1       -5 0.47074004E-02 0.12798719E+03</pdfrwt>
<totfact> 0.20748565E+02</totfact>
</mgrwt>
</event>
<event>
 8    1  0.3763376E-007  0.1275176E+03  0.7546771E-02  0.1231187E+00
         -5   -1    0    0    0  501 -0.00000000000E+00  0.00000000000E+00  0.22722083059E+02  0.23203082953E+02  0.47000000000E+01 0.  1.
          5   -1    0    0  501    0  0.00000000000E+00 -0.00000000000E+00 -0.74614240541E+03  0.74615720807E+03  0.47000000000E+01 0.  1.
         25    2    1    2    0    0 -0.10196582056E+02  0.23006834364E+02 -0.27436139090E+03  0.30254738673E+03  0.12500985437E+03 0.  0.
         25    2    1    2    0    0  0.10196582056E+02 -0.23006834364E+02 -0.44905893145E+03  0.46681290429E+03  0.12500831565E+03 0.  0.
          5    1    4    4  502    0 -0.37276774449E+02  0.42307169683E+01 -0.36133936243E+03  0.36331209961E+03  0.47000000000E+01 0.  1.
         -5    1    4    4    0  502  0.47473356505E+02 -0.27237551332E+02 -0.87719569023E+02  0.10350080468E+03  0.47000000000E+01 0.  1.
          5    1    3    3  503    0  0.45861144505E+02  0.41985173560E+02 -0.18531308574E+03  0.19552245170E+03  0.47000000000E+01 0.  1.
         -5    1    3    3    0  503 -0.56057726561E+02 -0.18978339196E+02 -0.89048305162E+02  0.10702493503E+03  0.47000000000E+01 0.  1.
<mgrwt>
<rscale>  0 0.12751726E+03</rscale>
<asrwt>0</asrwt>
<pdfrwt beam="2">  1        5 0.11482926E+00 0.12751764E+03</pdfrwt>
<pdfrwt beam="1">  1       -5 0.35338443E-02 0.12751764E+03</pdfrwt>
<totfact> 0.18367908E+02</totfact>
</mgrwt>
</event>
<event>
 8    1  0.3763376E-007  0.1265728E+03  0.7546771E-02  0.1232632E+00
          5   -1    0    0  501    0  0.00000000000E+00  0.00000000000E+00  0.65514085092E+02  0.65682458430E+02  0.47000000000E+01 0. -1.
         -5   -1    0    0    0  501 -0.00000000000E+00 -0.00000000000E+00 -0.24550605500E+03  0.24555103958E+03  0.47000000000E+01 0. -1.
         25    2    1    2    0    0  0.15763338877E+01  0.19842951504E+02 -0.10205296828E+03  0.16258995653E+03  0.12499783228E+03 0.  0.
         25    2    1    2    0    0 -0.15763338877E+01 -0.19842951504E+02 -0.77939001626E+02  0.14864354149E+03  0.12499674755E+03 0.  0.
          5    1    3    3  502    0  0.26623942230E+02  0.19011402742E+02 -0.12438107350E+03  0.12869735498E+03  0.47000000000E+01 0. -1.
         -5    1    3    3    0  502 -0.25047608342E+02  0.83154876207E+00  0.22328105219E+02  0.33892601548E+02  0.47000000000E+01 0. -1.
          5    1    4    4  503    0 -0.91106500933E+01 -0.27635535167E+02  0.28825269674E+02  0.41227574763E+02  0.47000000000E+01 0. -1.
         -5    1    4    4    0  503  0.75343162056E+01  0.77925836626E+01 -0.10676427130E+03  0.10741596672E+03  0.47000000000E+01 0. -1.
<mgrwt>
<rscale>  0 0.12657258E+03</rscale>
<asrwt>0</asrwt>
<pdfrwt beam="1">  1        5 0.10095502E-01 0.12657285E+03</pdfrwt>
<pdfrwt beam="2">  1       -5 0.37786574E-01 0.12657285E+03</pdfrwt>
<totfact> 0.37756733E+02</totfact>
</mgrwt>
</event>
<event>
 8    1  0.3763376E-007  0.1465260E+03  0.7546771E-02  0.1204817E+00
          5   -1    0    0  501    0  0.00000000000E+00  0.00000000000E+00  0.17160081102E+03  0.17166516345E+03  0.47000000000E+01 0.  1.
         -5   -1    0    0    0  501 -0.00000000000E+00 -0.00000000000E+00 -0.19198620255E+03  0.19204372411E+03  0.47000000000E+01 0.  1.
         25    2    1    2    0    0  0.82509756497E+00 -0.76395576474E+02 -0.11760711179E+03  0.18788644226E+03  0.12503166619E+03 0.  0.
         25    2    1    2    0    0 -0.82509756497E+00  0.76395576474E+02  0.97221720256E+02  0.17582244530E+03  0.12499801794E+03 0.  0.
          5    1    3    3  502    0 -0.32213485260E+02 -0.74333425787E+02 -0.12913851288E+03  0.15251889172E+03  0.47000000000E+01 0. -1.
         -5    1    3    3    0  502  0.33038582825E+02 -0.20621506871E+01  0.11531401086E+02  0.35367550545E+02  0.47000000000E+01 0. -1.
          5    1    4    4  503    0  0.60190852869E+02  0.41302610368E+02  0.32348178997E+02  0.79983367501E+02  0.47000000000E+01 0. -1.
         -5    1    4    4    0  503 -0.61015950434E+02  0.35092966106E+02  0.64873541259E+02  0.95839077797E+02  0.47000000000E+01 0. -1.
<mgrwt>
<rscale>  0 0.14651887E+03</rscale>
<asrwt>0</asrwt>
<pdfrwt beam="1">  1        5 0.26409500E-01 0.14652605E+03</pdfrwt>
<pdfrwt beam="2">  1       -5 0.29545714E-01 0.14652605E+03</pdfrwt>
<totfact> 0.11154932E+02</totfact>
</mgrwt>
</event>
<event>
 8    1  0.3763376E-007  0.2003187E+03  0.7546771E-02  0.1149475E+00
         -5   -1    0    0    0  501 -0.00000000000E+00  0.00000000000E+00  0.86511559275E+02  0.86639136008E+02  0.47000000000E+01 0. -1.
          5   -1    0    0  501    0  0.00000000000E+00 -0.00000000000E+00 -0.47101375805E+03  0.47103720689E+03  0.47000000000E+01 0. -1.
         25    2    1    2    0    0 -0.15194895472E+03 -0.37483530937E+02 -0.15660737347E+03  0.25427043345E+03  0.12503633059E+03 0.  0.
         25    2    1    2    0    0  0.15194895472E+03  0.37483530937E+02 -0.22789482531E+03  0.30340590945E+03  0.12500237820E+03 0.  0.
          5    1    4    4  502    0  0.32588775758E+02  0.50109170568E+02 -0.19821571965E+02  0.63150154359E+02  0.47000000000E+01 0.  1.
         -5    1    4    4    0  502  0.11936017896E+03 -0.12625639631E+02 -0.20807325334E+03  0.24025575509E+03  0.47000000000E+01 0.  1.
          5    1    3    3  503    0 -0.55957541089E+02 -0.68602899514E+02 -0.11454153414E+03  0.14484287097E+03  0.47000000000E+01 0.  1.
         -5    1    3    3    0  503 -0.95991413632E+02  0.31119368577E+02 -0.42065839327E+02  0.10942756248E+03  0.47000000000E+01 0.  1.
<mgrwt>
<rscale>  0 0.20031341E+03</rscale>
<asrwt>0</asrwt>
<pdfrwt beam="2">  1        5 0.72475271E-01 0.20031871E+03</pdfrwt>
<pdfrwt beam="1">  1       -5 0.13321088E-01 0.20031871E+03</pdfrwt>
<totfact> 0.65951872E+01</totfact>
</mgrwt>
</event>
<event>
 8    1  0.3763376E-007  0.1612522E+03  0.7546771E-02  0.1187292E+00
          5   -1    0    0  501    0  0.00000000000E+00  0.00000000000E+00  0.16213651011E+04  0.16213719133E+04  0.47000000000E+01 0. -1.
         -5   -1    0    0    0  501 -0.00000000000E+00 -0.00000000000E+00 -0.16535607787E+02  0.17190588265E+02  0.47000000000E+01 0. -1.
         25    2    1    2    0    0 -0.93152963518E+02  0.41200448581E+02  0.62034252903E+03  0.64095798484E+03  0.12500933339E+03 0.  0.
         25    2    1    2    0    0  0.93152963518E+02 -0.41200448581E+02  0.98448696430E+03  0.99760451669E+03  0.12500094904E+03 0.  0.
          5    1    4    4  502    0  0.13812056394E+02 -0.27001793966E+02  0.43933591216E+02  0.53592165625E+02  0.47000000000E+01 0. -1.
         -5    1    4    4    0  502  0.79340907124E+02 -0.14198654614E+02  0.94055337309E+03  0.94401235106E+03  0.47000000000E+01 0. -1.
          5    1    3    3  503    0  0.16723616352E+01  0.96130334320E+01  0.38595133485E+03  0.38610326349E+03  0.47000000000E+01 0.  1.
         -5    1    3    3    0  503 -0.94825325153E+02  0.31587415149E+02  0.23439119417E+03  0.25485472135E+03  0.47000000000E+01 0.  1.
<mgrwt>
<rscale>  0 0.16125062E+03</rscale>
<asrwt>0</asrwt>
<pdfrwt beam="1">  1        5 0.24949167E+00 0.16125224E+03</pdfrwt>
<pdfrwt beam="2">  1       -5 0.25948470E-02 0.16125224E+03</pdfrwt>
<totfact> 0.33254470E+01</totfact>
</mgrwt>
</event>
<event>
 8    1  0.3763376E-007  0.1254018E+03  0.7546771E-02  0.1234444E+00
         -5   -1    0    0    0  501 -0.00000000000E+00  0.00000000000E+00  0.50629856033E+02  0.50847539979E+02  0.47000000000E+01 0.  1.
          5   -1    0    0  501    0  0.00000000000E+00 -0.00000000000E+00 -0.30970932543E+03  0.30974498585E+03  0.47000000000E+01 0.  1.
         25    2    1    2    0    0 -0.51557570655E+01  0.85566825748E+01 -0.12801018083E+03  0.17919884259E+03  0.12500328052E+03 0.  0.
         25    2    1    2    0    0  0.51557570655E+01 -0.85566825748E+01 -0.13106928857E+03  0.18139368324E+03  0.12499884506E+03 0.  0.
          5    1    4    4  502    0 -0.32266790195E+02 -0.22549385146E+02 -0.13525738363E+03  0.14094775750E+03  0.47000000000E+01 0. -1.
         -5    1    4    4    0  502  0.37422547260E+02  0.13992702571E+02  0.41880950573E+01  0.40445925739E+02  0.47000000000E+01 0. -1.
          5    1    3    3  503    0  0.33062794307E+02  0.37464590310E+01  0.10617565542E+02  0.35242119980E+02  0.47000000000E+01 0.  1.
         -5    1    3    3    0  503 -0.38218551373E+02  0.48102235438E+01 -0.13862774637E+03  0.14395672261E+03  0.47000000000E+01 0.  1.
<mgrwt>
<rscale>  0 0.12540072E+03</rscale>
<asrwt>0</asrwt>
<pdfrwt beam="2">  1        5 0.47667075E-01 0.12540183E+03</pdfrwt>
<pdfrwt beam="1">  1       -5 0.78086968E-02 0.12540183E+03</pdfrwt>
<totfact> 0.36317850E+02</totfact>
</mgrwt>
</event>
<event>
 8    1  0.3763376E-007  0.1354700E+03  0.7546771E-02  0.1219562E+00
          5   -1    0    0  501    0  0.00000000000E+00  0.00000000000E+00  0.17882316209E+03  0.17888491635E+03  0.47000000000E+01 0.  1.
         -5   -1    0    0    0  501 -0.00000000000E+00 -0.00000000000E+00 -0.10455500340E+03  0.10466058826E+03  0.47000000000E+01 0.  1.
         25    2    1    2    0    0  0.38627836795E+02 -0.35140520341E+02  0.17200608952E+02  0.13655763197E+03  0.12500063982E+03 0.  0.
         25    2    1    2    0    0 -0.38627836795E+02  0.35140520341E+02  0.57067549736E+02  0.14698787265E+03  0.12498705344E+03 0.  0.
          5    1    3    3  502    0  0.58238732322E+02  0.15081292137E+02  0.45416531730E+02  0.75524477286E+02  0.47000000000E+01 0. -1.
         -5    1    3    3    0  502 -0.19610895527E+02 -0.50221812478E+02 -0.28215922778E+02  0.61033154680E+02  0.47000000000E+01 0. -1.
          5    1    4    4  503    0  0.15389001040E+02  0.53327634125E+02  0.68886531409E+02  0.88589514752E+02  0.47000000000E+01 0. -1.
         -5    1    4    4    0  503 -0.54016837835E+02 -0.18187113785E+02 -0.11818981673E+02  0.58398357899E+02  0.47000000000E+01 0. -1.
<mgrwt>
<rscale>  0 0.13546688E+03</rscale>
<asrwt>0</asrwt>
<pdfrwt beam="1">  1        5 0.27524128E-01 0.13547002E+03</pdfrwt>
<pdfrwt beam="2">  1       -5 0.16098258E-01 0.13547002E+03</pdfrwt>
<totfact> 0.31562480E+02</totfact>
</mgrwt>
</event>
<event>
 8    1  0.3763376E-007  0.1263662E+03  0.7546771E-02  0.1232954E+00
          5   -1    0    0  501    0  0.00000000000E+00  0.00000000000E+00  0.70405594322E+03  0.70407163072E+03  0.47000000000E+01 0.  1.
         -5   -1    0    0    0  501 -0.00000000000E+00 -0.00000000000E+00 -0.22426675987E+02  0.22913877800E+02  0.47000000000E+01 0.  1.
         25    2    1    2    0    0 -0.13589029873E+02  0.12481008892E+02  0.33421316188E+03  0.35730497741E+03  0.12501188739E+03 0.  0.
         25    2    1    2    0    0  0.13589029873E+02 -0.12481008892E+02  0.34741610535E+03  0.36968053112E+03  0.12500123004E+03 0.  0.
          5    1    4    4  502    0  0.27182959958E+02 -0.29268450830E+01  0.67151811785E+01  0.28542308815E+02  0.47000000000E+01 0. -1.
         -5    1    4    4    0  502 -0.13593930085E+02 -0.95541638085E+01  0.34070092417E+03  0.34113822230E+03  0.47000000000E+01 0. -1.
          5    1    3    3  503    0  0.33923732608E+02 -0.14348407546E+02  0.27157167236E+03  0.27409844885E+03  0.47000000000E+01 0.  1.
         -5    1    3    3    0  503 -0.47512762481E+02  0.26829416438E+02  0.62641489527E+02  0.83206528561E+02  0.47000000000E+01 0.  1.
<mgrwt>
<rscale>  0 0.12636354E+03</rscale>
<asrwt>0</asrwt>
<pdfrwt beam="1">  1        5 0.10835497E+00 0.12636617E+03</pdfrwt>
<pdfrwt beam="2">  1       -5 0.34889420E-02 0.12636617E+03</pdfrwt>
<totfact> 0.21598609E+02</totfact>
</mgrwt>
</event>
<event>
 8    1  0.3763376E-007  0.1276761E+03  0.7546771E-02  0.1230951E+00
          5   -1    0    0  501    0  0.00000000000E+00  0.00000000000E+00  0.17056678408E+03  0.17063152649E+03  0.47000000000E+01 0.  1.
         -5   -1    0    0    0  501 -0.00000000000E+00 -0.00000000000E+00 -0.95771327468E+02  0.95886584906E+02  0.47000000000E+01 0.  1.
         25    2    1    2    0    0  0.25689718052E+02  0.40227298132E+01  0.29315125252E+02  0.13098345422E+03  0.12498457802E+03 0.  0.
         25    2    1    2    0    0 -0.25689718052E+02 -0.40227298132E+01  0.45480331364E+02  0.13553465718E+03  0.12500015514E+03 0.  0.
          5    1    3    3  502    0  0.29241577121E+02 -0.18902528868E+02  0.73158808086E+02  0.81158342952E+02  0.47000000000E+01 0. -1.
         -5    1    3    3    0  502 -0.35518590687E+01  0.22925258681E+02 -0.43843682835E+02  0.49825111269E+02  0.47000000000E+01 0. -1.
          5    1    4    4  503    0 -0.45770899936E+02  0.45685030163E+02  0.49490618114E+02  0.81569041573E+02  0.47000000000E+01 0. -1.
         -5    1    4    4    0  503  0.20081181883E+02 -0.49707759976E+02 -0.40102867495E+01  0.53965615604E+02  0.47000000000E+01 0. -1.
<mgrwt>
<rscale>  0 0.12767227E+03</rscale>
<asrwt>0</asrwt>
<pdfrwt beam="1">  1        5 0.26254890E-01 0.12767609E+03</pdfrwt>
<pdfrwt beam="2">  1       -5 0.14747897E-01 0.12767609E+03</pdfrwt>
<totfact> 0.39675993E+02</totfact>
</mgrwt>
</event>
<event>
 8    1  0.3763376E-007  0.3055630E+03  0.7546771E-02  0.1082496E+00
          5   -1    0    0  501    0  0.00000000000E+00  0.00000000000E+00  0.16210406513E+04  0.16210474649E+04  0.47000000000E+01 0. -1.
         -5   -1    0    0    0  501 -0.00000000000E+00 -0.00000000000E+00 -0.57557371956E+02  0.57748948618E+02  0.47000000000E+01 0. -1.
         25    2    1    2    0    0 -0.23160401270E+03  0.15518877455E+03  0.75296032867E+03  0.81259951582E+03  0.12507894355E+03 0.  0.
         25    2    1    2    0    0  0.23160401270E+03 -0.15518877455E+03  0.81052295071E+03  0.86619689764E+03  0.12500254960E+03 0.  0.
          5    1    3    3  502    0 -0.24426321879E+03  0.13673651427E+03  0.66116141341E+03  0.71799575136E+03  0.47000000000E+01 0.  1.
         -5    1    3    3    0  502  0.12659206083E+02  0.18452260272E+02  0.91798915256E+02  0.94603764460E+02  0.47000000000E+01 0.  1.
          5    1    4    4  503    0  0.54410527086E+02 -0.76100895978E+02  0.41722985084E+03  0.42761511931E+03  0.47000000000E+01 0.  1.
         -5    1    4    4    0  503  0.17719348562E+03 -0.79087878569E+02  0.39329309987E+03  0.43858177834E+03  0.47000000000E+01 0.  1.
<mgrwt>
<rscale>  0 0.30555513E+03</rscale>
<asrwt>0</asrwt>
<pdfrwt beam="1">  1        5 0.24940614E+00 0.30556295E+03</pdfrwt>
<pdfrwt beam="2">  1       -5 0.88702406E-02 0.30556295E+03</pdfrwt>
<totfact> 0.48079745E+00</totfact>
</mgrwt>
</event>
<event>
 8    1  0.3763376E-007  0.1850182E+03  0.7546771E-02  0.1163033E+00
         -5   -1    0    0    0  501 -0.00000000000E+00  0.00000000000E+00  0.32888878652E+03  0.32892236758E+03  0.47000000000E+01 0. -1.
          5   -1    0    0  501    0  0.00000000000E+00 -0.00000000000E+00 -0.11656185341E+03  0.11665657149E+03  0.47000000000E+01 0. -1.
         25    2    1    2    0    0  0.53106576656E+02 -0.12563921429E+03  0.17928602878E+03  0.25763363200E+03  0.12500435021E+03 0.  0.
         25    2    1    2    0    0 -0.53106576656E+02  0.12563921429E+03  0.33040904322E+02  0.18794530707E+03  0.12500486567E+03 0.  0.
          5    1    4    4  502    0  0.37652107345E+02  0.38818595789E+02 -0.97953341682E+01  0.55159796392E+02  0.47000000000E+01 0.  1.
         -5    1    4    4    0  502 -0.90758684001E+02  0.86820618498E+02  0.42836238491E+02  0.13278551068E+03  0.47000000000E+01 0.  1.
          5    1    3    3  503    0  0.85671798326E+02 -0.77459004566E+02  0.73961850729E+02  0.13722973359E+03  0.47000000000E+01 0.  1.
         -5    1    3    3    0  503 -0.32565221670E+02 -0.48180209721E+02  0.10532417805E+03  0.12040389841E+03  0.47000000000E+01 0.  1.
<mgrwt>
<rscale>  0 0.18501812E+03</rscale>
<asrwt>0</asrwt>
<pdfrwt beam="2">  1        5 0.17942462E-01 0.18501821E+03</pdfrwt>
<pdfrwt beam="1">  1       -5 0.50608144E-01 0.18501821E+03</pdfrwt>
<totfact> 0.82759248E+01</totfact>
</mgrwt>
</event>
<event>
 8    1  0.3763376E-007  0.1260160E+03  0.7546771E-02  0.1233491E+00
          5   -1    0    0  501    0  0.00000000000E+00  0.00000000000E+00  0.16408942944E+03  0.16415672649E+03  0.47000000000E+01 0. -1.
         -5   -1    0    0    0  501 -0.00000000000E+00 -0.00000000000E+00 -0.17988242950E+03  0.17994382024E+03  0.47000000000E+01 0. -1.
         25    2    1    2    0    0 -0.13621554767E+02  0.82718487479E+01 -0.12489193410E+03  0.17741939325E+03  0.12500270261E+03 0.  0.
         25    2    1    2    0    0  0.13621554767E+02 -0.82718487479E+01  0.10909893405E+03  0.16668115348E+03  0.12500423705E+03 0.  0.
          5    1    3    3  502    0 -0.34831050624E+02 -0.51535829344E+02 -0.61135734148E+02  0.87343069465E+02  0.47000000000E+01 0. -1.
         -5    1    3    3    0  502  0.21209495857E+02  0.59807678092E+02 -0.63756199955E+02  0.90076323781E+02  0.47000000000E+01 0. -1.
          5    1    4    4  503    0  0.40012751857E+02  0.13626473326E+02  0.12241631058E+03  0.12959376599E+03  0.47000000000E+01 0. -1.
         -5    1    4    4    0  503 -0.26391197091E+02 -0.21898322074E+02 -0.13317376535E+02  0.37087387497E+02  0.47000000000E+01 0. -1.
<mgrwt>
<rscale>  0 0.12601561E+03</rscale>
<asrwt>0</asrwt>
<pdfrwt beam="1">  1        5 0.25254427E-01 0.12601599E+03</pdfrwt>
<pdfrwt beam="2">  1       -5 0.27684119E-01 0.12601599E+03</pdfrwt>
<totfact> 0.13126039E+02</totfact>
</mgrwt>
</event>
<event>
 8    1  0.3763376E-007  0.1252053E+03  0.7546771E-02  0.1234752E+00
         -5   -1    0    0    0  501 -0.00000000000E+00  0.00000000000E+00  0.66762198009E+03  0.66763852368E+03  0.47000000000E+01 0.  1.
          5   -1    0    0  501    0  0.00000000000E+00 -0.00000000000E+00 -0.35752034829E+02  0.36059644957E+02  0.47000000000E+01 0.  1.
         25    2    1    2    0    0 -0.62174018688E+01  0.31960070758E+01  0.52300994567E+03  0.53778593684E+03  0.12500176019E+03 0.  0.
         25    2    1    2    0    0  0.62174018688E+01 -0.31960070758E+01  0.10885999959E+03  0.16591223180E+03  0.12500999400E+03 0.  0.
          5    1    3    3  502    0 -0.12186778864E+00 -0.41591142054E+02  0.44893762714E+03  0.45088459833E+03  0.47000000000E+01 0. -1.
         -5    1    3    3    0  502 -0.60955340801E+01  0.44787149130E+02  0.74072318527E+02  0.86901338511E+02  0.47000000000E+01 0. -1.
          5    1    4    4  503    0  0.21394271992E+02 -0.59391088278E+01  0.13407548521E+03  0.13598276958E+03  0.47000000000E+01 0.  1.
         -5    1    4    4    0  503 -0.15176870124E+02  0.27431017520E+01 -0.25215485614E+02  0.29929462219E+02  0.47000000000E+01 0.  1.
<mgrwt>
<rscale>  0 0.12520325E+03</rscale>
<asrwt>0</asrwt>
<pdfrwt beam="2">  1        5 0.55252485E-02 0.12520531E+03</pdfrwt>
<pdfrwt beam="1">  1       -5 0.10273600E+00 0.12520531E+03</pdfrwt>
<totfact> 0.11517106E+02</totfact>
</mgrwt>
</event>
<event>
 8    1  0.3763376E-007  0.1541529E+03  0.7546771E-02  0.1195467E+00
          5   -1    0    0  501    0  0.00000000000E+00  0.00000000000E+00  0.36536717992E+03  0.36539740854E+03  0.47000000000E+01 0. -1.
         -5   -1    0    0    0  501 -0.00000000000E+00 -0.00000000000E+00 -0.65496219119E+02  0.65664638269E+02  0.47000000000E+01 0. -1.
         25    2    1    2    0    0 -0.53263812519E+01  0.90056800115E+02  0.12963388698E+03  0.20141511050E+03  0.12499801799E+03 0.  0.
         25    2    1    2    0    0  0.53263812519E+01 -0.90056800115E+02  0.17023707382E+03  0.22964693630E+03  0.12497382312E+03 0.  0.
          5    1    4    4  502    0 -0.87333029431E+01 -0.98287963053E+02  0.18331143158E+03  0.20823536013E+03  0.47000000000E+01 0.  1.
         -5    1    4    4    0  502  0.14059684195E+02  0.82311629378E+01 -0.13074357762E+02  0.21411576165E+02  0.47000000000E+01 0.  1.
          5    1    3    3  503    0 -0.40199556597E+02  0.10747687789E+03  0.98673174078E+02  0.15141257845E+03  0.47000000000E+01 0. -1.
         -5    1    3    3    0  503  0.34873175345E+02 -0.17420077772E+02  0.30960712904E+02  0.50002532053E+02  0.47000000000E+01 0. -1.
<mgrwt>
<rscale>  0 0.15414795E+03</rscale>
<asrwt>0</asrwt>
<pdfrwt beam="1">  1        5 0.56225616E-01 0.15415285E+03</pdfrwt>
<pdfrwt beam="2">  1       -5 0.10091622E-01 0.15415285E+03</pdfrwt>
<totfact> 0.17591980E+02</totfact>
</mgrwt>
</event>
<event>
 8    1  0.3763376E-007  0.1419841E+03  0.7546771E-02  0.1210685E+00
         -5   -1    0    0    0  501 -0.00000000000E+00  0.00000000000E+00  0.35062599862E+03  0.35065749801E+03  0.47000000000E+01 0. -1.
          5   -1    0    0  501    0  0.00000000000E+00 -0.00000000000E+00 -0.62664976124E+02  0.62840983702E+02  0.47000000000E+01 0. -1.
         25    2    1    2    0    0 -0.10718401145E+02  0.66483085153E+02  0.20401336669E+03  0.24855773510E+03  0.12499843661E+03 0.  0.
         25    2    1    2    0    0  0.10718401145E+02 -0.66483085153E+02  0.83947655807E+02  0.16494074661E+03  0.12499342480E+03 0.  0.
          5    1    4    4  502    0  0.56136610550E+02 -0.74730301935E+02  0.42730945847E+02  0.10287837870E+03  0.47000000000E+01 0.  1.
         -5    1    4    4    0  502 -0.45418209406E+02  0.82472167824E+01  0.41216709960E+02  0.62062367907E+02  0.47000000000E+01 0.  1.
          5    1    3    3  503    0 -0.29332179347E+02  0.69587834744E+02  0.21379494570E+03  0.22678891572E+03  0.47000000000E+01 0. -1.
         -5    1    3    3    0  503  0.18613778203E+02 -0.31047495914E+01 -0.97815790102E+01  0.21768819374E+02  0.47000000000E+01 0. -1.
<mgrwt>
<rscale>  0 0.14198303E+03</rscale>
<asrwt>0</asrwt>
<pdfrwt beam="2">  1        5 0.96567277E-02 0.14198413E+03</pdfrwt>
<pdfrwt beam="1">  1       -5 0.53958423E-01 0.14198413E+03</pdfrwt>
<totfact> 0.20209657E+02</totfact>
</mgrwt>
</event>
<event>
 8    1  0.3763376E-007  0.1352023E+03  0.7546771E-02  0.1219939E+00
          5   -1    0    0  501    0  0.00000000000E+00  0.00000000000E+00  0.20578741042E+03  0.20584107531E+03  0.47000000000E+01 0.  1.
         -5   -1    0    0    0  501 -0.00000000000E+00 -0.00000000000E+00 -0.91432468035E+02  0.91553187880E+02  0.47000000000E+01 0.  1.
         25    2    1    2    0    0 -0.44302468522E+02  0.26272067901E+02  0.31451489238E+02  0.13879842011E+03  0.12499149963E+03 0.  0.
         25    2    1    2    0    0  0.44302468522E+02 -0.26272067901E+02  0.82903453144E+02  0.15859584309E+03  0.12500691434E+03 0.  0.
          5    1    3    3  502    0 -0.77748930085E+02 -0.26348320190E+01  0.47805827393E+02  0.91429347596E+02  0.47000000000E+01 0. -1.
         -5    1    3    3    0  502  0.33446461563E+02  0.28906899920E+02 -0.16354338155E+02  0.47369072512E+02  0.47000000000E+01 0. -1.
          5    1    4    4  503    0  0.52900316165E+02 -0.67112695695E+02  0.78903382446E+02  0.11640614733E+03  0.47000000000E+01 0.  1.
         -5    1    4    4    0  503 -0.85978476437E+01  0.40840627794E+02  0.40000706986E+01  0.42189695759E+02  0.47000000000E+01 0.  1.
<mgrwt>
<rscale>  0 0.13519873E+03</rscale>
<asrwt>0</asrwt>
<pdfrwt beam="1">  1        5 0.31673016E-01 0.13520229E+03</pdfrwt>
<pdfrwt beam="2">  1       -5 0.14079948E-01 0.13520229E+03</pdfrwt>
<totfact> 0.30537538E+02</totfact>
</mgrwt>
</event>
<event>
 8    1  0.3763376E-007  0.1271632E+03  0.7546771E-02  0.1231732E+00
          5   -1    0    0  501    0  0.00000000000E+00  0.00000000000E+00  0.24394668617E+02  0.24843306079E+02  0.47000000000E+01 0.  1.
         -5   -1    0    0    0  501 -0.00000000000E+00 -0.00000000000E+00 -0.83283283930E+03  0.83284610116E+03  0.47000000000E+01 0.  1.
         25    2    1    2    0    0  0.19977201264E+02 -0.12062193226E+02 -0.60158385776E+03  0.61487427916E+03  0.12499062438E+03 0.  0.
         25    2    1    2    0    0 -0.19977201264E+02  0.12062193226E+02 -0.20685431292E+03  0.24281512808E+03  0.12500357823E+03 0.  0.
          5    1    3    3  502    0 -0.25304716764E+02 -0.39612507019E+02 -0.10135479641E+03  0.11182291428E+03  0.47000000000E+01 0. -1.
         -5    1    3    3    0  502  0.45281918029E+02  0.27550313793E+02 -0.50022906135E+03  0.50305136488E+03  0.47000000000E+01 0. -1.
          5    1    4    4  503    0  0.46885455949E+02  0.27013936166E+01 -0.36992861962E+02  0.59967535743E+02  0.47000000000E+01 0.  1.
         -5    1    4    4    0  503 -0.66862657213E+02  0.93607996091E+01 -0.16986145096E+03  0.18284759233E+03  0.47000000000E+01 0.  1.
<mgrwt>
<rscale>  0 0.12716002E+03</rscale>
<asrwt>0</asrwt>
<pdfrwt beam="1">  1        5 0.37885573E-02 0.12716320E+03</pdfrwt>
<pdfrwt beam="2">  1       -5 0.12816364E+00 0.12716320E+03</pdfrwt>
<totfact> 0.12381738E+02</totfact>
</mgrwt>
</event>
<event>
 8    1  0.3763376E-007  0.1308269E+03  0.7546771E-02  0.1226236E+00
         -5   -1    0    0    0  501 -0.00000000000E+00  0.00000000000E+00  0.36409160899E+03  0.36412194350E+03  0.47000000000E+01 0.  1.
          5   -1    0    0  501    0  0.00000000000E+00 -0.00000000000E+00 -0.48005696684E+02  0.48235224827E+02  0.47000000000E+01 0.  1.
         25    2    1    2    0    0 -0.14358986114E+02  0.35839477791E+02  0.18983554312E+03  0.23054728296E+03  0.12499547030E+03 0.  0.
         25    2    1    2    0    0  0.14358986114E+02 -0.35839477791E+02  0.12625036919E+03  0.18180988537E+03  0.12500012020E+03 0.  0.
          5    1    4    4  502    0 -0.33249667516E+02 -0.62143052450E+02  0.44428000177E+02  0.83446009836E+02  0.47000000000E+01 0. -1.
         -5    1    4    4    0  502  0.47608653631E+02  0.26303574659E+02  0.81822369012E+02  0.98363875539E+02  0.47000000000E+01 0. -1.
          5    1    3    3  503    0 -0.39850987755E+02 -0.57953482241E+01  0.68688010117E+01  0.41121256224E+02  0.47000000000E+01 0.  1.
         -5    1    3    3    0  503  0.25492001641E+02  0.41634826015E+02  0.18296674211E+03  0.18942602673E+03  0.47000000000E+01 0.  1.
<mgrwt>
<rscale>  0 0.13082579E+03</rscale>
<asrwt>0</asrwt>
<pdfrwt beam="2">  1        5 0.74054813E-02 0.13082690E+03</pdfrwt>
<pdfrwt beam="1">  1       -5 0.56034083E-01 0.13082690E+03</pdfrwt>
<totfact> 0.28617029E+02</totfact>
</mgrwt>
</event>
<event>
 8    1  0.3763376E-007  0.1308327E+03  0.7546771E-02  0.1226230E+00
         -5   -1    0    0    0  501 -0.00000000000E+00  0.00000000000E+00  0.56754494016E+03  0.56756440084E+03  0.47000000000E+01 0. -1.
          5   -1    0    0  501    0  0.00000000000E+00 -0.00000000000E+00 -0.35540951538E+02  0.35850372888E+02  0.47000000000E+01 0. -1.
         25    2    1    2    0    0 -0.37217725311E+02  0.10256732063E+02  0.38503721299E+03  0.40665816336E+03  0.12500738702E+03 0.  0.
         25    2    1    2    0    0  0.37217725311E+02 -0.10256732063E+02  0.14696677563E+03  0.19675661036E+03  0.12499428369E+03 0.  0.
          5    1    4    4  502    0  0.42416977698E+02 -0.35670908112E+02  0.90618344239E+01  0.56354418866E+02  0.47000000000E+01 0.  1.
         -5    1    4    4    0  502 -0.51992523872E+01  0.25414176049E+02  0.13790494120E+03  0.14040219150E+03  0.47000000000E+01 0.  1.
          5    1    3    3  503    0 -0.74471415158E+02 -0.17759945985E+02  0.29911781486E+03  0.30879599176E+03  0.47000000000E+01 0. -1.
         -5    1    3    3    0  503  0.37253689847E+02  0.28016678048E+02  0.85919398133E+02  0.97862171607E+02  0.47000000000E+01 0. -1.
<mgrwt>
<rscale>  0 0.13082961E+03</rscale>
<asrwt>0</asrwt>
<pdfrwt beam="2">  1        5 0.54931375E-02 0.13083274E+03</pdfrwt>
<pdfrwt beam="1">  1       -5 0.87339902E-01 0.13083274E+03</pdfrwt>
<totfact> 0.17427315E+02</totfact>
</mgrwt>
</event>
<event>
 8    1  0.3763376E-007  0.1285468E+03  0.7546771E-02  0.1229629E+00
          5   -1    0    0  501    0  0.00000000000E+00  0.00000000000E+00  0.21187706330E+04  0.21187758459E+04  0.47000000000E+01 0.  1.
         -5   -1    0    0    0  501 -0.00000000000E+00 -0.00000000000E+00 -0.11315198020E+02  0.12252497958E+02  0.47000000000E+01 0.  1.
         25    2    1    2    0    0  0.19047127117E+02 -0.23143486007E+02  0.43382085665E+03  0.45246437958E+03  0.12500026052E+03 0.  0.
         25    2    1    2    0    0 -0.19047127117E+02  0.23143486007E+02  0.16736345784E+04  0.16785639643E+04  0.12500346581E+03 0.  0.
          5    1    3    3  502    0  0.47614300408E+02  0.17138260488E+02  0.77311041744E+02  0.92519883006E+02  0.47000000000E+01 0. -1.
         -5    1    3    3    0  502 -0.28567173291E+02 -0.40281746495E+02  0.35650981490E+03  0.35994449657E+03  0.47000000000E+01 0. -1.
          5    1    4    4  503    0 -0.46549571408E+02 -0.37916484509E+02  0.90614600063E+03  0.90814491512E+03  0.47000000000E+01 0.  1.
         -5    1    4    4    0  503  0.27502444292E+02  0.61059970517E+02  0.76748857772E+03  0.77041904920E+03  0.47000000000E+01 0.  1.
<mgrwt>
<rscale>  0 0.12854602E+03</rscale>
<asrwt>0</asrwt>
<pdfrwt beam="1">  1        5 0.32603696E+00 0.12854680E+03</pdfrwt>
<pdfrwt beam="2">  1       -5 0.18133021E-02 0.12854680E+03</pdfrwt>
<totfact> 0.18237598E+01</totfact>
</mgrwt>
</event>
<event>
 8    1  0.3763376E-007  0.1503793E+03  0.7546771E-02  0.1200011E+00
          5   -1    0    0  501    0  0.00000000000E+00  0.00000000000E+00  0.51962858019E+02  0.52174980723E+02  0.47000000000E+01 0. -1.
         -5   -1    0    0    0  501 -0.00000000000E+00 -0.00000000000E+00 -0.48255106546E+03  0.48257395368E+03  0.47000000000E+01 0. -1.
         25    2    1    2    0    0  0.55218350035E+02 -0.62756577128E+02 -0.30005033317E+03  0.33562499727E+03  0.12500592868E+03 0.  0.
         25    2    1    2    0    0 -0.55218350035E+02  0.62756577128E+02 -0.13053787427E+03  0.19912393713E+03  0.12499100595E+03 0.  0.
          5    1    4    4  502    0  0.18205641604E+02 -0.27640164553E+02 -0.23353814409E+02  0.40778851506E+02  0.47000000000E+01 0.  1.
         -5    1    4    4    0  502 -0.73423991639E+02  0.90396741681E+02 -0.10718405986E+03  0.15834508563E+03  0.47000000000E+01 0.  1.
          5    1    3    3  503    0  0.42195683859E+02 -0.90082222320E+02 -0.28418247861E+03  0.30112630849E+03  0.47000000000E+01 0.  1.
         -5    1    3    3    0  503  0.13022666176E+02  0.27325645193E+02 -0.15867854562E+02  0.34498688786E+02  0.47000000000E+01 0.  1.
<mgrwt>
<rscale>  0 0.15037621E+03</rscale>
<asrwt>0</asrwt>
<pdfrwt beam="1">  1        5 0.80123639E-02 0.15037931E+03</pdfrwt>
<pdfrwt beam="2">  1       -5 0.74256700E-01 0.15037931E+03</pdfrwt>
<totfact> 0.14024525E+02</totfact>
</mgrwt>
</event>
<event>
 8    1  0.3763376E-007  0.1888088E+03  0.7546771E-02  0.1159541E+00
          5   -1    0    0  501    0  0.00000000000E+00  0.00000000000E+00  0.76388720456E+02  0.76533173284E+02  0.47000000000E+01 0.  1.
         -5   -1    0    0    0  501 -0.00000000000E+00 -0.00000000000E+00 -0.49526389911E+03  0.49528619985E+03  0.47000000000E+01 0.  1.
         25    2    1    2    0    0 -0.42991432633E+02  0.13479160545E+03 -0.27883737701E+03  0.33674629503E+03  0.12502297477E+03 0.  0.
         25    2    1    2    0    0  0.42991432633E+02 -0.13479160545E+03 -0.14003780164E+03  0.23507307810E+03  0.12502690103E+03 0.  0.
          5    1    3    3  502    0 -0.19666565628E+02  0.13459792071E+03 -0.13769184191E+03  0.19360916144E+03  0.47000000000E+01 0.  1.
         -5    1    3    3    0  502 -0.23324867005E+02  0.19368473324E+00 -0.14114553510E+03  0.14313713359E+03  0.47000000000E+01 0.  1.
          5    1    4    4  503    0 -0.10292213134E+01  0.22301399714E+02 -0.52783284832E+01  0.23417140673E+02  0.47000000000E+01 0.  1.
         -5    1    4    4    0  503  0.44020653946E+02 -0.15709300516E+03 -0.13475947316E+03  0.21165593743E+03  0.47000000000E+01 0.  1.
<mgrwt>
<rscale>  0 0.18880816E+03</rscale>
<asrwt>0</asrwt>
<pdfrwt beam="1">  1        5 0.11764938E-01 0.18880881E+03</pdfrwt>
<pdfrwt beam="2">  1       -5 0.76207271E-01 0.18880881E+03</pdfrwt>
<totfact> 0.72248755E+01</totfact>
</mgrwt>
</event>
<event>
 8    1  0.3763376E-007  0.1358353E+03  0.7546771E-02  0.1219048E+00
         -5   -1    0    0    0  501 -0.00000000000E+00  0.00000000000E+00  0.74078446806E+03  0.74079937778E+03  0.47000000000E+01 0.  1.
          5   -1    0    0  501    0  0.00000000000E+00 -0.00000000000E+00 -0.32335546277E+02  0.32675335546E+02  0.47000000000E+01 0.  1.
         25    2    1    2    0    0  0.32455782279E+02 -0.42108930527E+02  0.54135183532E+03  0.55813155231E+03  0.12498992057E+03 0.  0.
         25    2    1    2    0    0 -0.32455782279E+02  0.42108930527E+02  0.16709708646E+03  0.21534316102E+03  0.12499880343E+03 0.  0.
          5    1    3    3  502    0 -0.10755235489E+02  0.36269677482E+02  0.86406070721E+02  0.94441853288E+02  0.47000000000E+01 0. -1.
         -5    1    3    3    0  502  0.43211017768E+02 -0.78378608009E+02  0.45494576460E+03  0.46368969902E+03  0.47000000000E+01 0. -1.
          5    1    4    4  503    0  0.31867327250E+02  0.10958790473E+02  0.52926069325E+00  0.34029277859E+02  0.47000000000E+01 0. -1.
         -5    1    4    4    0  503 -0.64323109529E+02  0.31150140055E+02  0.16656782577E+03  0.18131388316E+03  0.47000000000E+01 0. -1.
<mgrwt>
<rscale>  0 0.13583330E+03</rscale>
<asrwt>0</asrwt>
<pdfrwt beam="2">  1        5 0.50019839E-02 0.13583534E+03</pdfrwt>
<pdfrwt beam="1">  1       -5 0.11399413E+00 0.13583534E+03</pdfrwt>
<totfact> 0.10795098E+02</totfact>
</mgrwt>
</event>
<event>
 8    1  0.3763376E-007  0.1383598E+03  0.7546771E-02  0.1215561E+00
         -5   -1    0    0    0  501 -0.00000000000E+00  0.00000000000E+00  0.70816329564E+02  0.70972125041E+02  0.47000000000E+01 0.  1.
          5   -1    0    0  501    0  0.00000000000E+00 -0.00000000000E+00 -0.26985027656E+03  0.26989120356E+03  0.47000000000E+01 0.  1.
         25    2    1    2    0    0 -0.58631830062E+02 -0.88649705987E+01 -0.10172305912E+03  0.17172951078E+03  0.12500865937E+03 0.  0.
         25    2    1    2    0    0  0.58631830062E+02  0.88649705987E+01 -0.97310887877E+02  0.16913381782E+03  0.12498223966E+03 0.  0.
          5    1    3    3  502    0 -0.72962921483E+02  0.24357475859E+02 -0.16200141902E+02  0.78749026275E+02  0.47000000000E+01 0.  1.
         -5    1    3    3    0  502  0.14331091421E+02 -0.33222446458E+02 -0.85522917217E+02  0.92980484508E+02  0.47000000000E+01 0.  1.
          5    1    4    4  503    0  0.18324905578E+01 -0.14024106388E+02 -0.10605451077E+03  0.10709660516E+03  0.47000000000E+01 0.  1.
         -5    1    4    4    0  503  0.56799339504E+02  0.22889076986E+02  0.87436228946E+01  0.62037212661E+02  0.47000000000E+01 0.  1.
<mgrwt>
<rscale>  0 0.13835387E+03</rscale>
<asrwt>0</asrwt>
<pdfrwt beam="2">  1        5 0.41530559E-01 0.13835984E+03</pdfrwt>
<pdfrwt beam="1">  1       -5 0.10909953E-01 0.13835984E+03</pdfrwt>
<totfact> 0.28055677E+02</totfact>
</mgrwt>
</event>
<event>
 8    1  0.3763376E-007  0.1462667E+03  0.7546771E-02  0.1205142E+00
         -5   -1    0    0    0  501 -0.00000000000E+00  0.00000000000E+00  0.17385173728E+03  0.17391525682E+03  0.47000000000E+01 0.  1.
          5   -1    0    0  501    0  0.00000000000E+00 -0.00000000000E+00 -0.13029627978E+03  0.13038102056E+03  0.47000000000E+01 0.  1.
         25    2    1    2    0    0  0.10640742672E+02  0.75208202016E+02  0.57973425791E+02  0.15732065938E+03  0.12497748884E+03 0.  0.
         25    2    1    2    0    0 -0.10640742672E+02 -0.75208202016E+02 -0.14417968285E+02  0.14697561800E+03  0.12499782167E+03 0.  0.
          5    1    4    4  502    0  0.57955476618E+01  0.51267759385E+01  0.44809142105E+02  0.45714564642E+02  0.47000000000E+01 0.  1.
         -5    1    4    4    0  502 -0.16436290334E+02 -0.80334977954E+02 -0.59227110390E+02  0.10126105336E+03  0.47000000000E+01 0.  1.
          5    1    3    3  503    0 -0.23007962344E+01  0.23961106257E+02  0.91381482448E+02  0.94615504072E+02  0.47000000000E+01 0. -1.
         -5    1    3    3    0  503  0.12941538907E+02  0.51247095759E+02 -0.33408056657E+02  0.62705155311E+02  0.47000000000E+01 0. -1.
<mgrwt>
<rscale>  0 0.14626238E+03</rscale>
<asrwt>0</asrwt>
<pdfrwt beam="2">  1        5 0.20056986E-01 0.14626672E+03</pdfrwt>
<pdfrwt beam="1">  1       -5 0.26757826E-01 0.14626672E+03</pdfrwt>
<totfact> 0.22804774E+02</totfact>
</mgrwt>
</event>
<event>
 8    1  0.3763376E-007  0.1350201E+03  0.7546771E-02  0.1220202E+00
         -5   -1    0    0    0  501 -0.00000000000E+00  0.00000000000E+00  0.14504588954E+02  0.15247068594E+02  0.47000000000E+01 0. -1.
          5   -1    0    0  501    0  0.00000000000E+00 -0.00000000000E+00 -0.12863064942E+04  0.12863150808E+04  0.47000000000E+01 0. -1.
         25    2    1    2    0    0  0.48877304623E+02 -0.14665421643E+02 -0.49319398531E+03  0.51133388084E+03  0.12497185705E+03 0.  0.
         25    2    1    2    0    0 -0.48877304623E+02  0.14665421643E+02 -0.77860791997E+03  0.79022826855E+03  0.12500543142E+03 0.  0.
          5    1    3    3  502    0 -0.15739649290E+02 -0.55766220272E+02 -0.22373326919E+03  0.23116287251E+03  0.47000000000E+01 0. -1.
         -5    1    3    3    0  502  0.64616953913E+02  0.41100798630E+02 -0.26946071612E+03  0.28017100833E+03  0.47000000000E+01 0. -1.
          5    1    4    4  503    0 -0.69028715791E+02  0.30931021935E+02 -0.25662198489E+03  0.26757919361E+03  0.47000000000E+01 0. -1.
         -5    1    4    4    0  503  0.20151411169E+02 -0.16265600292E+02 -0.52198593507E+03  0.52264907495E+03  0.47000000000E+01 0. -1.
<mgrwt>
<rscale>  0 0.13501231E+03</rscale>
<asrwt>0</asrwt>
<pdfrwt beam="2">  1        5 0.19795099E+00 0.13502009E+03</pdfrwt>
<pdfrwt beam="1">  1       -5 0.22892506E-02 0.13502009E+03</pdfrwt>
<totfact> 0.84022149E+01</totfact>
</mgrwt>
</event>
<event>
 8    1  0.3763376E-007  0.1446564E+03  0.7546771E-02  0.1207198E+00
          5   -1    0    0  501    0  0.00000000000E+00  0.00000000000E+00  0.45399826606E+03  0.45402259369E+03  0.47000000000E+01 0. -1.
         -5   -1    0    0    0  501 -0.00000000000E+00 -0.00000000000E+00 -0.49662800702E+02  0.49884704806E+02  0.47000000000E+01 0. -1.
         25    2    1    2    0    0 -0.12579049204E+02 -0.71708214263E+02  0.13341322283E+03  0.19678462836E+03  0.12499920584E+03 0.  0.
         25    2    1    2    0    0  0.12579049204E+02  0.71708214263E+02  0.27092224253E+03  0.30712267014E+03  0.12500069018E+03 0.  0.
          5    1    3    3  502    0 -0.21162898768E+02 -0.38912721272E+02  0.15161358130E+03  0.15802163205E+03  0.47000000000E+01 0. -1.
         -5    1    3    3    0  502  0.85838495635E+01 -0.32795492991E+02 -0.18200358476E+02  0.38762996305E+02  0.47000000000E+01 0. -1.
          5    1    4    4  503    0  0.18569075033E+02  0.61849043225E+01 -0.71292590129E+01  0.21353686406E+02  0.47000000000E+01 0.  1.
         -5    1    4    4    0  503 -0.59900258287E+01  0.65523309941E+02  0.27805150154E+03  0.28576898373E+03  0.47000000000E+01 0.  1.
<mgrwt>
<rscale>  0 0.14465608E+03</rscale>
<asrwt>0</asrwt>
<pdfrwt beam="1">  1        5 0.69864825E-01 0.14465640E+03</pdfrwt>
<pdfrwt beam="2">  1       -5 0.76593721E-02 0.14465640E+03</pdfrwt>
<totfact> 0.17180601E+02</totfact>
</mgrwt>
</event>
<event>
 8    1  0.3763376E-007  0.1617767E+03  0.7546771E-02  0.1186706E+00
          5   -1    0    0  501    0  0.00000000000E+00  0.00000000000E+00  0.15896702232E+03  0.15903648696E+03  0.47000000000E+01 0.  1.
         -5   -1    0    0    0  501 -0.00000000000E+00 -0.00000000000E+00 -0.17015504920E+03  0.17021994821E+03  0.47000000000E+01 0.  1.
         25    2    1    2    0    0 -0.81399929526E+02 -0.62614889814E+02 -0.35606149373E+02  0.16564733767E+03  0.12499867859E+03 0.  0.
         25    2    1    2    0    0  0.81399929526E+02  0.62614889814E+02  0.24418122487E+02  0.16360909750E+03  0.12500047651E+03 0.  0.
          5    1    4    4  502    0  0.61778615417E+02  0.10033860168E+03  0.26162194704E+02  0.12079314029E+03  0.47000000000E+01 0.  1.
         -5    1    4    4    0  502  0.19621314109E+02 -0.37723711864E+02 -0.17440722168E+01  0.42815957213E+02  0.47000000000E+01 0.  1.
          5    1    3    3  503    0  0.20886388350E+02 -0.54457610043E+02 -0.19471039294E+02  0.61669148535E+02  0.47000000000E+01 0.  1.
         -5    1    3    3    0  503 -0.10228631788E+03 -0.81572797709E+01 -0.16135110080E+02  0.10397818913E+03  0.47000000000E+01 0.  1.
<mgrwt>
<rscale>  0 0.16177633E+03</rscale>
<asrwt>0</asrwt>
<pdfrwt beam="1">  1        5 0.24466801E-01 0.16177667E+03</pdfrwt>
<pdfrwt beam="2">  1       -5 0.26188035E-01 0.16177667E+03</pdfrwt>
<totfact> 0.16867026E+02</totfact>
</mgrwt>
</event>
<event>
 8    1  0.3763376E-007  0.1375459E+03  0.7546771E-02  0.1216671E+00
         -5   -1    0    0    0  501 -0.00000000000E+00  0.00000000000E+00  0.13318180775E+04  0.13318263707E+04  0.47000000000E+01 0. -1.
          5   -1    0    0  501    0  0.00000000000E+00 -0.00000000000E+00 -0.30801771015E+02  0.31158290994E+02  0.47000000000E+01 0. -1.
         25    2    1    2    0    0  0.56393339706E+02 -0.10645343573E+02  0.11520487000E+04  0.11602306115E+04  0.12500133046E+03 0.  0.
         25    2    1    2    0    0 -0.56393339706E+02  0.10645343573E+02  0.14896760651E+03  0.20275405015E+03  0.12499729982E+03 0.  0.
          5    1    3    3  502    0  0.23916926788E+02  0.57202466914E+02  0.52172982649E+03  0.52542196705E+03  0.47000000000E+01 0. -1.
         -5    1    3    3    0  502  0.32476412918E+02 -0.67847810486E+02  0.63031887351E+03  0.63480864446E+03  0.47000000000E+01 0. -1.
          5    1    4    4  503    0 -0.84583917267E+01 -0.18075475779E+02  0.14510168552E+03  0.14654301879E+03  0.47000000000E+01 0. -1.
         -5    1    4    4    0  503 -0.47934947979E+02  0.28720819352E+02  0.38659209893E+01  0.56211031365E+02  0.47000000000E+01 0. -1.
<mgrwt>
<rscale>  0 0.13754495E+03</rscale>
<asrwt>0</asrwt>
<pdfrwt beam="2">  1        5 0.47667961E-02 0.13754586E+03</pdfrwt>
<pdfrwt beam="1">  1       -5 0.20492317E+00 0.13754586E+03</pdfrwt>
<totfact> 0.23046877E+01</totfact>
</mgrwt>
</event>
<event>
 8    1  0.3763376E-007  0.1721150E+03  0.7546771E-02  0.1175660E+00
          5   -1    0    0  501    0  0.00000000000E+00  0.00000000000E+00  0.57760348165E+03  0.57762260345E+03  0.47000000000E+01 0.  1.
         -5   -1    0    0    0  501 -0.00000000000E+00 -0.00000000000E+00 -0.51217315896E+02  0.51432513526E+02  0.47000000000E+01 0.  1.
         25    2    1    2    0    0 -0.10752120135E+03 -0.49378750306E+02  0.25262146211E+03  0.30568148750E+03  0.12499799582E+03 0.  0.
         25    2    1    2    0    0  0.10752120135E+03  0.49378750306E+02  0.27376470364E+03  0.32337362948E+03  0.12499728620E+03 0.  0.
          5    1    3    3  502    0 -0.47051906061E+02 -0.19351957416E+02  0.78082909189E+01  0.51685970310E+02  0.47000000000E+01 0. -1.
         -5    1    3    3    0  502 -0.60469295285E+02 -0.30026792889E+02  0.24481317119E+03  0.25399551719E+03  0.47000000000E+01 0. -1.
          5    1    4    4  503    0  0.26605105355E+02  0.80787146581E+02  0.13663590352E+03  0.16101507636E+03  0.47000000000E+01 0. -1.
         -5    1    4    4    0  503  0.80916095992E+02 -0.31408396276E+02  0.13712880012E+03  0.16235855312E+03  0.47000000000E+01 0. -1.
<mgrwt>
<rscale>  0 0.17211486E+03</rscale>
<asrwt>0</asrwt>
<pdfrwt beam="1">  1        5 0.88880106E-01 0.17211499E+03</pdfrwt>
<pdfrwt beam="2">  1       -5 0.78976110E-02 0.17211499E+03</pdfrwt>
<totfact> 0.98549688E+01</totfact>
</mgrwt>
</event>
<event>
 8    1  0.3763376E-007  0.1452516E+03  0.7546771E-02  0.1206445E+00
          5   -1    0    0  501    0  0.00000000000E+00  0.00000000000E+00  0.24060533584E+03  0.24065123651E+03  0.47000000000E+01 0. -1.
         -5   -1    0    0    0  501 -0.00000000000E+00 -0.00000000000E+00 -0.10820383020E+03  0.10830585797E+03  0.47000000000E+01 0. -1.
         25    2    1    2    0    0  0.53352723170E+02  0.51248763691E+02 -0.99876515225E+01  0.14555429709E+03  0.12495339679E+03 0.  0.
         25    2    1    2    0    0 -0.53352723170E+02 -0.51248763691E+02  0.14238915716E+03  0.20340279739E+03  0.12500030824E+03 0.  0.
          5    1    4    4  502    0 -0.18725549965E+02  0.99172877064E+01  0.13009559415E+03  0.13189371644E+03  0.47000000000E+01 0.  1.
         -5    1    4    4    0  502 -0.34627173205E+02 -0.61166051398E+02  0.12293563009E+02  0.71509080956E+02  0.47000000000E+01 0.  1.
          5    1    3    3  503    0  0.28088368294E+02 -0.37779292605E+02  0.14910497456E+02  0.49604881993E+02  0.47000000000E+01 0.  1.
         -5    1    3    3    0  503  0.25264354876E+02  0.89028056296E+02 -0.24898148979E+02  0.95949415098E+02  0.47000000000E+01 0.  1.
<mgrwt>
<rscale>  0 0.14524150E+03</rscale>
<asrwt>0</asrwt>
<pdfrwt beam="1">  1        5 0.37027585E-01 0.14525160E+03</pdfrwt>
<pdfrwt beam="2">  1       -5 0.16658122E-01 0.14525160E+03</pdfrwt>
<totfact> 0.16871383E+02</totfact>
</mgrwt>
</event>
<event>
 8    1  0.3763376E-007  0.1439019E+03  0.7546771E-02  0.1208177E+00
          5   -1    0    0  501    0  0.00000000000E+00  0.00000000000E+00  0.89485859005E+02  0.89609201324E+02  0.47000000000E+01 0.  1.
         -5   -1    0    0    0  501 -0.00000000000E+00 -0.00000000000E+00 -0.23876200908E+03  0.23880826405E+03  0.47000000000E+01 0.  1.
         25    2    1    2    0    0  0.54749101294E+02  0.45626231991E+02 -0.10407543790E+03  0.17758354727E+03  0.12500000940E+03 0.  0.
         25    2    1    2    0    0 -0.54749101294E+02 -0.45626231991E+02 -0.45200712170E+02  0.15083391810E+03  0.12501419652E+03 0.  0.
          5    1    3    3  502    0  0.80036914850E+02 -0.34615432752E+00 -0.94692865933E+02  0.12407601066E+03  0.47000000000E+01 0.  1.
         -5    1    3    3    0  502 -0.25287813556E+02  0.45972386318E+02 -0.93825719705E+01  0.53507536619E+02  0.47000000000E+01 0.  1.
          5    1    4    4  503    0  0.18886002344E+02 -0.13391032719E+02 -0.63938580079E+02  0.68163280909E+02  0.47000000000E+01 0. -1.
         -5    1    4    4    0  503 -0.73635103638E+02 -0.32235199272E+02  0.18737867909E+02  0.82670637192E+02  0.47000000000E+01 0. -1.
<mgrwt>
<rscale>  0 0.14389885E+03</rscale>
<asrwt>0</asrwt>
<pdfrwt beam="1">  1        5 0.13780101E-01 0.14390193E+03</pdfrwt>
<pdfrwt beam="2">  1       -5 0.36745663E-01 0.14390193E+03</pdfrwt>
<totfact> 0.24095140E+02</totfact>
</mgrwt>
</event>
<event>
 8    1  0.3763376E-007  0.1265552E+03  0.7546771E-02  0.1232663E+00
          5   -1    0    0  501    0  0.00000000000E+00  0.00000000000E+00  0.84899857409E+03  0.84901158344E+03  0.47000000000E+01 0. -1.
         -5   -1    0    0    0  501 -0.00000000000E+00 -0.00000000000E+00 -0.18603375635E+02  0.19187902048E+02  0.47000000000E+01 0. -1.
         25    2    1    2    0    0 -0.19731747165E+02 -0.11648678325E+01  0.39387089360E+03  0.41370011355E+03  0.12499121716E+03 0.  0.
         25    2    1    2    0    0  0.19731747165E+02  0.11648678325E+01  0.43652430486E+03  0.45449937193E+03  0.12500204634E+03 0.  0.
          5    1    4    4  502    0  0.28071488599E+02 -0.40484948843E+01  0.44155791554E+03  0.44249280396E+03  0.47000000000E+01 0.  1.
         -5    1    4    4    0  502 -0.83397414346E+01  0.52133627167E+01 -0.50336106770E+01  0.12006567972E+02  0.47000000000E+01 0.  1.
          5    1    3    3  503    0 -0.24390019862E+02 -0.45689064452E+02  0.33788065650E+03  0.34185931568E+03  0.47000000000E+01 0. -1.
         -5    1    3    3    0  503  0.46582726973E+01  0.44524196620E+02  0.55990237101E+02  0.71840797878E+02  0.47000000000E+01 0. -1.
<mgrwt>
<rscale>  0 0.12655249E+03</rscale>
<asrwt>0</asrwt>
<pdfrwt beam="1">  1        5 0.13066113E+00 0.12655517E+03</pdfrwt>
<pdfrwt beam="2">  1       -5 0.29080220E-02 0.12655517E+03</pdfrwt>
<totfact> 0.18053439E+02</totfact>
</mgrwt>
</event>
<event>
 8    1  0.3763376E-007  0.1424847E+03  0.7546771E-02  0.1210029E+00
         -5   -1    0    0    0  501 -0.00000000000E+00  0.00000000000E+00  0.81422934735E+02  0.81558471668E+02  0.47000000000E+01 0. -1.
          5   -1    0    0  501    0  0.00000000000E+00 -0.00000000000E+00 -0.42631868625E+03  0.42634459331E+03  0.47000000000E+01 0. -1.
         25    2    1    2    0    0 -0.65134798416E+02 -0.20732410275E+02 -0.86813741361E+01  0.14274892224E+03  0.12501805367E+03 0.  0.
         25    2    1    2    0    0  0.65134798416E+02  0.20732410275E+02 -0.33621437738E+03  0.36515414274E+03  0.12500026241E+03 0.  0.
          5    1    3    3  502    0  0.29460875243E+02 -0.13940919146E+02  0.25688449178E+02  0.41764564141E+02  0.47000000000E+01 0.  1.
         -5    1    3    3    0  502 -0.94595673658E+02 -0.67914911285E+01 -0.34369823314E+02  0.10098435810E+03  0.47000000000E+01 0.  1.
          5    1    4    4  503    0 -0.52699905969E+01  0.18753417566E+02  0.15440623872E+01  0.20098198924E+02  0.47000000000E+01 0.  1.
         -5    1    4    4    0  503  0.70404789013E+02  0.19789927080E+01 -0.33775843977E+03  0.34505594381E+03  0.47000000000E+01 0.  1.
<mgrwt>
<rscale>  0 0.14248079E+03</rscale>
<asrwt>0</asrwt>
<pdfrwt beam="2">  1        5 0.65599908E-01 0.14248470E+03</pdfrwt>
<pdfrwt beam="1">  1       -5 0.12539024E-01 0.14248470E+03</pdfrwt>
<totfact> 0.83336487E+01</totfact>
</mgrwt>
</event>
<event>
 8    1  0.3763376E-007  0.1649778E+03  0.7546771E-02  0.1183197E+00
          5   -1    0    0  501    0  0.00000000000E+00  0.00000000000E+00  0.40669251215E+02  0.40939931538E+02  0.47000000000E+01 0.  1.
         -5   -1    0    0    0  501 -0.00000000000E+00 -0.00000000000E+00 -0.12687618472E+04  0.12687705525E+04  0.47000000000E+01 0.  1.
         25    2    1    2    0    0  0.37459768691E+02 -0.10087800507E+03 -0.10651616370E+04  0.10778622327E+04  0.12505228335E+03 0.  0.
         25    2    1    2    0    0 -0.37459768691E+02  0.10087800507E+03 -0.16293095897E+03  0.23184825133E+03  0.12501003190E+03 0.  0.
          5    1    4    4  502    0 -0.41292110943E+02 -0.10449806190E+02 -0.86922166982E+02  0.96911247997E+02  0.47000000000E+01 0.  1.
         -5    1    4    4    0  502  0.38323422515E+01  0.11132781127E+03 -0.76008791984E+02  0.13493700333E+03  0.47000000000E+01 0.  1.
          5    1    3    3  503    0  0.23373309304E+02  0.18281061822E+02 -0.45536044877E+03  0.45635045427E+03  0.47000000000E+01 0.  1.
         -5    1    3    3    0  503  0.14086459387E+02 -0.11915906690E+03 -0.60980118825E+03  0.62151177845E+03  0.47000000000E+01 0.  1.
<mgrwt>
<rscale>  0 0.16496981E+03</rscale>
<asrwt>0</asrwt>
<pdfrwt beam="1">  1        5 0.62783001E-02 0.16497782E+03</pdfrwt>
<pdfrwt beam="2">  1       -5 0.19521559E+00 0.16497782E+03</pdfrwt>
<totfact> 0.17729348E+01</totfact>
</mgrwt>
</event>
<event>
 8    1  0.3763376E-007  0.1586516E+03  0.7546771E-02  0.1190228E+00
          5   -1    0    0  501    0  0.00000000000E+00  0.00000000000E+00  0.33649637168E+03  0.33652919362E+03  0.47000000000E+01 0. -1.
         -5   -1    0    0    0  501 -0.00000000000E+00 -0.00000000000E+00 -0.74730214069E+02  0.74877866521E+02  0.47000000000E+01 0. -1.
         25    2    1    2    0    0  0.97303518085E+02  0.87960901334E+01  0.13565085573E+03  0.20873639452E+03  0.12499752758E+03 0.  0.
         25    2    1    2    0    0 -0.97303518085E+02 -0.87960901334E+01  0.12611530188E+03  0.20267066562E+03  0.12499993401E+03 0.  0.
          5    1    3    3  502    0 -0.22044075744E+02 -0.25800170707E+02  0.31273566813E+02  0.46386593593E+02  0.47000000000E+01 0. -1.
         -5    1    3    3    0  502  0.11934759383E+03  0.34596260841E+02  0.10437728892E+03  0.16234980092E+03  0.47000000000E+01 0. -1.
          5    1    4    4  503    0 -0.10047645316E+03 -0.19985421448E+02  0.31577250870E+02  0.10730399565E+03  0.47000000000E+01 0.  1.
         -5    1    4    4    0  503  0.31729350757E+01  0.11189331315E+02  0.94538051011E+02  0.95366669970E+02  0.47000000000E+01 0.  1.
<mgrwt>
<rscale>  0 0.15865112E+03</rscale>
<asrwt>0</asrwt>
<pdfrwt beam="1">  1        5 0.51782555E-01 0.15865160E+03</pdfrwt>
<pdfrwt beam="2">  1       -5 0.11510839E-01 0.15865160E+03</pdfrwt>
<totfact> 0.16816202E+02</totfact>
</mgrwt>
</event>
<event>
 8    1  0.3763376E-007  0.1324091E+03  0.7546771E-02  0.1223925E+00
         -5   -1    0    0    0  501 -0.00000000000E+00  0.00000000000E+00  0.77242299221E+02  0.77385158712E+02  0.47000000000E+01 0.  1.
          5   -1    0    0  501    0  0.00000000000E+00 -0.00000000000E+00 -0.24308184839E+03  0.24312728151E+03  0.47000000000E+01 0.  1.
         25    2    1    2    0    0  0.24880841291E+02 -0.35896553158E+02 -0.41201808996E+02  0.13867136381E+03  0.12499815712E+03 0.  0.
         25    2    1    2    0    0 -0.24880841291E+02  0.35896553158E+02 -0.12463774017E+03  0.18184107641E+03  0.12499596795E+03 0.  0.
          5    1    3    3  502    0  0.53832219355E+02 -0.36153401435E+02  0.22290853532E+02  0.68730985932E+02  0.47000000000E+01 0.  1.
         -5    1    3    3    0  502 -0.28951378064E+02  0.25684827773E+00 -0.63492662528E+02  0.69940377878E+02  0.47000000000E+01 0.  1.
          5    1    4    4  503    0 -0.26986330167E+02  0.60786924290E+02 -0.13789931616E+03  0.15317187593E+03  0.47000000000E+01 0.  1.
         -5    1    4    4    0  503  0.21054888761E+01 -0.24890371132E+02  0.13261575987E+02  0.28669200480E+02  0.47000000000E+01 0.  1.
<mgrwt>
<rscale>  0 0.13240854E+03</rscale>
<asrwt>0</asrwt>
<pdfrwt beam="2">  1        5 0.37411691E-01 0.13240906E+03</pdfrwt>
<pdfrwt beam="1">  1       -5 0.11897915E-01 0.13240906E+03</pdfrwt>
<totfact> 0.29349349E+02</totfact>
</mgrwt>
</event>
<event>
 8    1  0.3763376E-007  0.3014063E+03  0.7546771E-02  0.1084540E+00
          5   -1    0    0  501    0  0.00000000000E+00  0.00000000000E+00  0.61948730504E+03  0.61950513405E+03  0.47000000000E+01 0.  1.
         -5   -1    0    0    0  501 -0.00000000000E+00 -0.00000000000E+00 -0.14681859912E+03  0.14689380874E+03  0.47000000000E+01 0.  1.
         25    2    1    2    0    0 -0.30966364704E+02  0.27251038413E+03  0.25149622732E+03  0.39255079515E+03  0.12499979684E+03 0.  0.
         25    2    1    2    0    0  0.30966364704E+02 -0.27251038413E+03  0.22117247860E+03  0.37384814764E+03  0.12499738797E+03 0.  0.
          5    1    3    3  502    0  0.21653452497E+02  0.14711473983E+02 -0.26231991388E+01  0.26725842279E+02  0.47000000000E+01 0. -1.
         -5    1    3    3    0  502 -0.52619817201E+02  0.25779891015E+03  0.25411942646E+03  0.36582495287E+03  0.47000000000E+01 0. -1.
          5    1    4    4  503    0 -0.38453943976E+02 -0.62345652223E+02  0.91428308962E+02  0.11724722529E+03  0.47000000000E+01 0.  1.
         -5    1    4    4    0  503  0.69420308680E+02 -0.21016473191E+03  0.12974416964E+03  0.25660092235E+03  0.47000000000E+01 0.  1.
<mgrwt>
<rscale>  0 0.30140608E+03</rscale>
<asrwt>0</asrwt>
<pdfrwt beam="1">  1        5 0.95312894E-01 0.30140633E+03</pdfrwt>
<pdfrwt beam="2">  1       -5 0.22594634E-01 0.30140633E+03</pdfrwt>
<totfact> 0.14216987E+01</totfact>
</mgrwt>
</event>
<event>
 8    1  0.3763376E-007  0.1518191E+03  0.7546771E-02  0.1198256E+00
         -5   -1    0    0    0  501 -0.00000000000E+00  0.00000000000E+00  0.26813948242E+03  0.26818067050E+03  0.47000000000E+01 0.  1.
          5   -1    0    0  501    0  0.00000000000E+00 -0.00000000000E+00 -0.96886914842E+02  0.97000846736E+02  0.47000000000E+01 0.  1.
         25    2    1    2    0    0  0.54910482297E+02 -0.66390517052E+02  0.14721519282E+03  0.21147426612E+03  0.12500476157E+03 0.  0.
         25    2    1    2    0    0 -0.54910482297E+02  0.66390517052E+02  0.24037374756E+02  0.15370725111E+03  0.12500104735E+03 0.  0.
          5    1    3    3  502    0  0.52117431433E+02 -0.27894875769E+02  0.91753111197E-01  0.59299655749E+02  0.47000000000E+01 0.  1.
         -5    1    3    3    0  502  0.27930508637E+01 -0.38495641283E+02  0.14712343971E+03  0.15217461037E+03  0.47000000000E+01 0.  1.
          5    1    4    4  503    0 -0.87860277111E+01 -0.11531459422E+02 -0.39931878824E+02  0.42741242211E+02  0.47000000000E+01 0. -1.
         -5    1    4    4    0  503 -0.46124454586E+02  0.77921976474E+02  0.63969253579E+02  0.11096600890E+03  0.47000000000E+01 0. -1.
<mgrwt>
<rscale>  0 0.15181838E+03</rscale>
<asrwt>0</asrwt>
<pdfrwt beam="2">  1        5 0.14917612E-01 0.15181914E+03</pdfrwt>
<pdfrwt beam="1">  1       -5 0.41264160E-01 0.15181914E+03</pdfrwt>
<totfact> 0.16777440E+02</totfact>
</mgrwt>
</event>
<event>
 8    1  0.3763376E-007  0.1260139E+03  0.7546771E-02  0.1233506E+00
          5   -1    0    0  501    0  0.00000000000E+00  0.00000000000E+00  0.13719252206E+03  0.13727300575E+03  0.47000000000E+01 0. -1.
         -5   -1    0    0    0  501 -0.00000000000E+00 -0.00000000000E+00 -0.12865071167E+03  0.12873653566E+03  0.47000000000E+01 0. -1.
         25    2    1    2    0    0 -0.13906127924E+01 -0.15638658058E+02 -0.38139669650E+02  0.13162703449E+03  0.12499816150E+03 0.  0.
         25    2    1    2    0    0  0.13906127924E+01  0.15638658058E+02  0.46681480036E+02  0.13438250692E+03  0.12503198054E+03 0.  0.
          5    1    4    4  502    0 -0.10982772636E+02 -0.48736027191E+02 -0.54799934790E+01  0.50477143042E+02  0.47000000000E+01 0. -1.
         -5    1    4    4    0  502  0.12373385429E+02  0.64374685250E+02  0.52161473515E+02  0.83905363876E+02  0.47000000000E+01 0. -1.
          5    1    3    3  503    0 -0.32879680785E+02 -0.11680774206E+02 -0.74943925229E+02  0.82802148664E+02  0.47000000000E+01 0.  1.
         -5    1    3    3    0  503  0.31489067993E+02 -0.39578838517E+01  0.36804255579E+02  0.48824885831E+02  0.47000000000E+01 0.  1.
<mgrwt>
<rscale>  0 0.12600549E+03</rscale>
<asrwt>0</asrwt>
<pdfrwt beam="1">  1        5 0.21119335E-01 0.12601388E+03</pdfrwt>
<pdfrwt beam="2">  1       -5 0.19805210E-01 0.12601388E+03</pdfrwt>
<totfact> 0.34784401E+02</totfact>
</mgrwt>
</event>
<event>
 8    1  0.3763376E-007  0.1536907E+03  0.7546771E-02  0.1196013E+00
          5   -1    0    0  501    0  0.00000000000E+00  0.00000000000E+00  0.69093764168E+03  0.69095362702E+03  0.47000000000E+01 0.  1.
         -5   -1    0    0    0  501 -0.00000000000E+00 -0.00000000000E+00 -0.40726491991E+02  0.40996794386E+02  0.47000000000E+01 0.  1.
         25    2    1    2    0    0  0.89043170913E+02 -0.81583993779E+01  0.17702090469E+03  0.23442957567E+03  0.12500231792E+03 0.  0.
         25    2    1    2    0    0 -0.89043170913E+02  0.81583993779E+01  0.47319024500E+03  0.49752084574E+03  0.12499095252E+03 0.  0.
          5    1    4    4  502    0 -0.92602974350E+01 -0.15416163201E+02  0.16341304928E+01  0.18659356336E+02  0.47000000000E+01 0.  1.
         -5    1    4    4    0  502 -0.79782873478E+02  0.23574562579E+02  0.47155611451E+03  0.47886148940E+03  0.47000000000E+01 0.  1.
          5    1    3    3  503    0  0.37104541934E+02 -0.41797104607E+01 -0.11049117809E+02  0.39222315281E+02  0.47000000000E+01 0. -1.
         -5    1    3    3    0  503  0.51938628979E+02 -0.39786889171E+01  0.18807002250E+03  0.19520726039E+03  0.47000000000E+01 0. -1.
<mgrwt>
<rscale>  0 0.15368837E+03</rscale>
<asrwt>0</asrwt>
<pdfrwt beam="1">  1        5 0.10632012E+00 0.15369068E+03</pdfrwt>
<pdfrwt beam="2">  1       -5 0.62876364E-02 0.15369068E+03</pdfrwt>
<totfact> 0.90989365E+01</totfact>
</mgrwt>
</event>
<event>
 8    1  0.3763376E-007  0.1258909E+03  0.7546771E-02  0.1233685E+00
         -5   -1    0    0    0  501 -0.00000000000E+00  0.00000000000E+00  0.19522145802E+03  0.19527802660E+03  0.47000000000E+01 0. -1.
          5   -1    0    0  501    0  0.00000000000E+00 -0.00000000000E+00 -0.84457070387E+02  0.84587745793E+02  0.47000000000E+01 0. -1.
         25    2    1    2    0    0 -0.71485550471E+01  0.13120533366E+02  0.83482214997E+02  0.15105565249E+03  0.12500111877E+03 0.  0.
         25    2    1    2    0    0  0.71485550471E+01 -0.13120533366E+02  0.27282172635E+02  0.12881011990E+03  0.12499791922E+03 0.  0.
          5    1    4    4  502    0  0.19044440494E+02 -0.24174204381E+02  0.73379762545E+02  0.79710491294E+02  0.47000000000E+01 0.  1.
         -5    1    4    4    0  502 -0.11895885447E+02  0.11053671015E+02 -0.46097589909E+02  0.49099628603E+02  0.47000000000E+01 0.  1.
          5    1    3    3  503    0  0.13141659519E+02  0.52692236891E+02 -0.20404331769E+01  0.54547487669E+02  0.47000000000E+01 0.  1.
         -5    1    3    3    0  503 -0.20290214566E+02 -0.39571703525E+02  0.85522648174E+02  0.96508164824E+02  0.47000000000E+01 0.  1.
<mgrwt>
<rscale>  0 0.12589015E+03</rscale>
<asrwt>0</asrwt>
<pdfrwt beam="2">  1        5 0.13007799E-01 0.12589094E+03</pdfrwt>
<pdfrwt beam="1">  1       -5 0.30048473E-01 0.12589094E+03</pdfrwt>
<totfact> 0.38039321E+02</totfact>
</mgrwt>
</event>
<event>
 8    1  0.3763376E-007  0.1342269E+03  0.7546771E-02  0.1221317E+00
         -5   -1    0    0    0  501 -0.00000000000E+00  0.00000000000E+00  0.62683433420E+02  0.62859389318E+02  0.47000000000E+01 0.  1.
          5   -1    0    0  501    0  0.00000000000E+00 -0.00000000000E+00 -0.31354285148E+03  0.31357807595E+03  0.47000000000E+01 0.  1.
         25    2    1    2    0    0  0.23977125724E+02 -0.42607187660E+02 -0.70491808789E+02  0.15160565005E+03  0.12499961209E+03 0.  0.
         25    2    1    2    0    0 -0.23977125724E+02  0.42607187660E+02 -0.18036760927E+03  0.22483181522E+03  0.12500638248E+03 0.  0.
          5    1    3    3  502    0  0.83205920071E+01 -0.25988537232E+02 -0.10576283222E+03  0.10932750340E+03  0.47000000000E+01 0.  1.
         -5    1    3    3    0  502  0.15656533717E+02 -0.16618650428E+02  0.35271023435E+02  0.42278146651E+02  0.47000000000E+01 0.  1.
          5    1    4    4  503    0 -0.42178176380E+02  0.30461093831E+02 -0.19243882913E+03  0.19940328422E+03  0.47000000000E+01 0. -1.
         -5    1    4    4    0  503  0.18201050656E+02  0.12146093830E+02  0.12071219853E+02  0.25428531004E+02  0.47000000000E+01 0. -1.
<mgrwt>
<rscale>  0 0.13422536E+03</rscale>
<asrwt>0</asrwt>
<pdfrwt beam="2">  1        5 0.48253606E-01 0.13422694E+03</pdfrwt>
<pdfrwt beam="1">  1       -5 0.96598500E-02 0.13422694E+03</pdfrwt>
<totfact> 0.25138318E+02</totfact>
</mgrwt>
</event>
<event>
 8    1  0.3763376E-007  0.1621717E+03  0.7546771E-02  0.1186267E+00
         -5   -1    0    0    0  501 -0.00000000000E+00  0.00000000000E+00  0.50240306419E+03  0.50242504805E+03  0.47000000000E+01 0.  1.
          5   -1    0    0  501    0  0.00000000000E+00 -0.00000000000E+00 -0.67581616872E+02  0.67744851753E+02  0.47000000000E+01 0.  1.
         25    2    1    2    0    0  0.10011564007E+03 -0.25525045996E+02  0.35312983379E+03  0.38858763998E+03  0.12500002029E+03 0.  0.
         25    2    1    2    0    0 -0.10011564007E+03  0.25525045996E+02  0.81691613525E+02  0.18158225982E+03  0.12499571193E+03 0.  0.
          5    1    4    4  502    0 -0.12390204858E+03  0.10243219813E+02  0.87804471169E+02  0.15227723517E+03  0.47000000000E+01 0.  1.
         -5    1    4    4    0  502  0.23786408507E+02  0.15281826184E+02 -0.61128576449E+01  0.29305024650E+02  0.47000000000E+01 0.  1.
          5    1    3    3  503    0  0.90190920936E+02  0.11196550019E+01  0.10378524231E+03  0.13758314710E+03  0.47000000000E+01 0.  1.
         -5    1    3    3    0  503  0.99247191333E+01 -0.26644700998E+02  0.24934459148E+03  0.25100449288E+03  0.47000000000E+01 0.  1.
<mgrwt>
<rscale>  0 0.16217091E+03</rscale>
<asrwt>0</asrwt>
<pdfrwt beam="2">  1        5 0.10411419E-01 0.16217174E+03</pdfrwt>
<pdfrwt beam="1">  1       -5 0.77307027E-01 0.16217174E+03</pdfrwt>
<totfact> 0.83071330E+01</totfact>
</mgrwt>
</event>
<event>
 8    1  0.3763376E-007  0.1450813E+03  0.7546771E-02  0.1206651E+00
          5   -1    0    0  501    0  0.00000000000E+00  0.00000000000E+00  0.96885692840E+02  0.96999626169E+02  0.47000000000E+01 0. -1.
         -5   -1    0    0    0  501 -0.00000000000E+00 -0.00000000000E+00 -0.22554509191E+03  0.22559405685E+03  0.47000000000E+01 0. -1.
         25    2    1    2    0    0  0.68755494334E+02 -0.26382690815E+02 -0.95744738283E+02  0.17382645084E+03  0.12500086290E+03 0.  0.
         25    2    1    2    0    0 -0.68755494334E+02  0.26382690815E+02 -0.32914660788E+02  0.14876723218E+03  0.12499980040E+03 0.  0.
          5    1    3    3  502    0 -0.80443353446E+01  0.31879792966E+02  0.58191302509E+01  0.33719205322E+02  0.47000000000E+01 0. -1.
         -5    1    3    3    0  502  0.76799829679E+02 -0.58262483781E+02 -0.10156386853E+03  0.14010724552E+03  0.47000000000E+01 0. -1.
          5    1    4    4  503    0 -0.55412450691E+02  0.79900454733E+01 -0.79134288301E+02  0.97050018564E+02  0.47000000000E+01 0. -1.
         -5    1    4    4    0  503 -0.13343043643E+02  0.18392645342E+02  0.46219627514E+02  0.51717213613E+02  0.47000000000E+01 0. -1.
<mgrwt>
<rscale>  0 0.14508106E+03</rscale>
<asrwt>0</asrwt>
<pdfrwt beam="1">  1        5 0.14918022E-01 0.14508129E+03</pdfrwt>
<pdfrwt beam="2">  1       -5 0.34711775E-01 0.14508129E+03</pdfrwt>
<totfact> 0.23481087E+02</totfact>
</mgrwt>
</event>
<event>
 8    1  0.3763376E-007  0.1581000E+03  0.7546771E-02  0.1190859E+00
          5   -1    0    0  501    0  0.00000000000E+00  0.00000000000E+00  0.45245438282E+03  0.45247879346E+03  0.47000000000E+01 0. -1.
         -5   -1    0    0    0  501 -0.00000000000E+00 -0.00000000000E+00 -0.55186091729E+02  0.55385871125E+02  0.47000000000E+01 0. -1.
         25    2    1    2    0    0 -0.94334487788E+02 -0.21711543465E+02  0.20751846093E+03  0.26088221337E+03  0.12500092368E+03 0.  0.
         25    2    1    2    0    0  0.94334487788E+02  0.21711543465E+02  0.18974983017E+03  0.24698245122E+03  0.12499978583E+03 0.  0.
          5    1    3    3  502    0  0.21521050814E+02  0.18114886105E+02  0.75547037550E+02  0.80751158564E+02  0.47000000000E+01 0.  1.
         -5    1    3    3    0  502 -0.11585553860E+03 -0.39826429570E+02  0.13197142338E+03  0.18013105480E+03  0.47000000000E+01 0.  1.
          5    1    4    4  503    0  0.12456516370E+03  0.22353796611E+02  0.16239263136E+03  0.20593598265E+03  0.47000000000E+01 0. -1.
         -5    1    4    4    0  503 -0.30230675915E+02 -0.64225314596E+00  0.27357198807E+02  0.41046468568E+02  0.47000000000E+01 0. -1.
<mgrwt>
<rscale>  0 0.15809980E+03</rscale>
<asrwt>0</asrwt>
<pdfrwt beam="1">  1        5 0.69625612E-01 0.15810002E+03</pdfrwt>
<pdfrwt beam="2">  1       -5 0.85074133E-02 0.15810002E+03</pdfrwt>
<totfact> 0.14875827E+02</totfact>
</mgrwt>
</event>
<event>
 8    1  0.3763376E-007  0.1250629E+03  0.7546771E-02  0.1234971E+00
          5   -1    0    0  501    0  0.00000000000E+00  0.00000000000E+00  0.45012523666E+02  0.45257234635E+02  0.47000000000E+01 0.  1.
         -5   -1    0    0    0  501 -0.00000000000E+00 -0.00000000000E+00 -0.45577661657E+03  0.45580084929E+03  0.47000000000E+01 0.  1.
         25    2    1    2    0    0 -0.33886789912E+01  0.19254287083E+01 -0.32814605098E+03  0.35116991197E+03  0.12500114352E+03 0.  0.
         25    2    1    2    0    0  0.33886789912E+01 -0.19254287083E+01 -0.82618041921E+02  0.14988817195E+03  0.12500213125E+03 0.  0.
          5    1    3    3  502    0 -0.41499820445E+02  0.12254650830E+02 -0.29827851235E+03  0.30143751010E+03  0.47000000000E+01 0.  1.
         -5    1    3    3    0  502  0.38111141453E+02 -0.10329222122E+02 -0.29867538627E+02  0.49732401874E+02  0.47000000000E+01 0.  1.
          5    1    4    4  503    0  0.21155918249E+02 -0.60101150591E+02 -0.46096455055E+02  0.78782576424E+02  0.47000000000E+01 0. -1.
         -5    1    4    4    0  503 -0.17767239258E+02  0.58175721883E+02 -0.36521586866E+02  0.71105595523E+02  0.47000000000E+01 0. -1.
<mgrwt>
<rscale>  0 0.12506263E+03</rscale>
<asrwt>0</asrwt>
<pdfrwt beam="1">  1        5 0.69456919E-02 0.12506288E+03</pdfrwt>
<pdfrwt beam="2">  1       -5 0.70140164E-01 0.12506288E+03</pdfrwt>
<totfact> 0.19144617E+02</totfact>
</mgrwt>
</event>
<event>
 8    1  0.3763376E-007  0.1254918E+03  0.7546771E-02  0.1234303E+00
          5   -1    0    0  501    0  0.00000000000E+00  0.00000000000E+00  0.95577211723E+02  0.95692702965E+02  0.47000000000E+01 0. -1.
         -5   -1    0    0    0  501 -0.00000000000E+00 -0.00000000000E+00 -0.27871860538E+03  0.27875823034E+03  0.47000000000E+01 0. -1.
         25    2    1    2    0    0  0.23985841936E+01 -0.10825838978E+02 -0.21137789686E+03  0.24582164240E+03  0.12499885037E+03 0.  0.
         25    2    1    2    0    0 -0.23985841936E+01  0.10825838978E+02  0.28236503209E+02  0.12862929091E+03  0.12500096948E+03 0.  0.
          5    1    4    4  502    0  0.53911338299E+02  0.22445295725E+02 -0.99814464348E+01  0.59430152031E+02  0.47000000000E+01 0. -1.
         -5    1    4    4    0  502 -0.56309922493E+02 -0.11619456748E+02  0.38217949644E+02  0.69199138877E+02  0.47000000000E+01 0. -1.
          5    1    3    3  503    0  0.15612239839E+01 -0.37860477708E+02 -0.60413105423E+01  0.38657995624E+02  0.47000000000E+01 0. -1.
         -5    1    3    3    0  503  0.83736020969E+00  0.27034638730E+02 -0.20533658632E+03  0.20716364678E+03  0.47000000000E+01 0. -1.
<mgrwt>
<rscale>  0 0.12549128E+03</rscale>
<asrwt>0</asrwt>
<pdfrwt beam="1">  1        5 0.14716119E-01 0.12549181E+03</pdfrwt>
<pdfrwt beam="2">  1       -5 0.42891717E-01 0.12549181E+03</pdfrwt>
<totfact> 0.14894713E+02</totfact>
</mgrwt>
</event>
<event>
 8    1  0.3763376E-007  0.1289156E+03  0.7546771E-02  0.1229076E+00
         -5   -1    0    0    0  501 -0.00000000000E+00  0.00000000000E+00  0.71989169041E+01  0.85973486955E+01  0.47000000000E+01 0.  1.
          5   -1    0    0  501    0  0.00000000000E+00 -0.00000000000E+00 -0.26053560261E+04  0.26053602654E+04  0.47000000000E+01 0.  1.
         25    2    1    2    0    0 -0.29154530100E+02  0.12033510912E+02 -0.72517644144E+03  0.73654606397E+03  0.12499776445E+03 0.  0.
         25    2    1    2    0    0  0.29154530100E+02 -0.12033510912E+02 -0.18729806677E+04  0.18774115502E+04  0.12499101931E+03 0.  0.
          5    1    3    3  502    0 -0.36779735575E+02 -0.41299437501E+01 -0.71394924911E+03  0.71492337050E+03  0.47000000000E+01 0. -1.
         -5    1    3    3    0  502  0.76252054748E+01  0.16163454662E+02 -0.11227192332E+02  0.21622693468E+02  0.47000000000E+01 0. -1.
          5    1    4    4  503    0  0.21236677527E+02 -0.50958454425E+02 -0.16460814423E+04  0.16470136506E+04  0.47000000000E+01 0.  1.
         -5    1    4    4    0  503  0.79178525732E+01  0.38924943513E+02 -0.22689922544E+03  0.23039789956E+03  0.47000000000E+01 0.  1.
<mgrwt>
<rscale>  0 0.12891397E+03</rscale>
<asrwt>0</asrwt>
<pdfrwt beam="2">  1        5 0.40093122E+00 0.12891560E+03</pdfrwt>
<pdfrwt beam="1">  1       -5 0.12154255E-02 0.12891560E+03</pdfrwt>
<totfact> 0.10777506E+01</totfact>
</mgrwt>
</event>
<event>
 8    1  0.3763376E-007  0.1475900E+03  0.7546771E-02  0.1203466E+00
         -5   -1    0    0    0  501 -0.00000000000E+00  0.00000000000E+00  0.30099172325E+03  0.30102841638E+03  0.47000000000E+01 0. -1.
          5   -1    0    0  501    0  0.00000000000E+00 -0.00000000000E+00 -0.74906917644E+02  0.75054222472E+02  0.47000000000E+01 0. -1.
         25    2    1    2    0    0 -0.72240902638E+02 -0.30647846294E+02  0.14839771921E+03  0.20929572142E+03  0.12499910976E+03 0.  0.
         25    2    1    2    0    0  0.72240902638E+02  0.30647846294E+02  0.77687086398E+02  0.16678691743E+03  0.12499821573E+03 0.  0.
          5    1    3    3  502    0 -0.77250215978E+02  0.96538064299E+01  0.29196569732E+02  0.83278577866E+02  0.47000000000E+01 0.  1.
         -5    1    3    3    0  502  0.50093133404E+01 -0.40301652724E+02  0.11920114948E+03  0.12601714355E+03  0.47000000000E+01 0.  1.
          5    1    4    4  503    0 -0.24051851523E+02 -0.24542107401E+02  0.30151766507E+02  0.45956779923E+02  0.47000000000E+01 0.  1.
         -5    1    4    4    0  503  0.96292754161E+02  0.55189953695E+02  0.47535319891E+02  0.12083013751E+03  0.47000000000E+01 0.  1.
<mgrwt>
<rscale>  0 0.14758984E+03</rscale>
<asrwt>0</asrwt>
<pdfrwt beam="2">  1        5 0.11538295E-01 0.14759003E+03</pdfrwt>
<pdfrwt beam="1">  1       -5 0.46320573E-01 0.14759003E+03</pdfrwt>
<totfact> 0.20706979E+02</totfact>
</mgrwt>
</event>
<event>
 8    1  0.3763376E-007  0.1332017E+03  0.7546771E-02  0.1222782E+00
         -5   -1    0    0    0  501 -0.00000000000E+00  0.00000000000E+00  0.27455263840E+03  0.27459286454E+03  0.47000000000E+01 0. -1.
          5   -1    0    0  501    0  0.00000000000E+00 -0.00000000000E+00 -0.69541095473E+02  0.69699741460E+02  0.47000000000E+01 0. -1.
         25    2    1    2    0    0  0.86163031484E+01  0.45209258359E+02  0.14882231379E+03  0.19972678050E+03  0.12499835216E+03 0.  0.
         25    2    1    2    0    0 -0.86163031484E+01 -0.45209258359E+02  0.56189229135E+02  0.14456582550E+03  0.12499572277E+03 0.  0.
          5    1    4    4  502    0  0.48329525423E+02 -0.37069678824E+01 -0.77359213410E+01  0.49309422198E+02  0.47000000000E+01 0. -1.
         -5    1    4    4    0  502 -0.56945828571E+02 -0.41502290477E+02  0.63925150476E+02  0.95256403301E+02  0.47000000000E+01 0. -1.
          5    1    3    3  503    0  0.44173355416E+02 -0.92156597990E+00  0.13146421329E+03  0.13876982377E+03  0.47000000000E+01 0. -1.
         -5    1    3    3    0  503 -0.35557052268E+02  0.46130824339E+02  0.17358100500E+02  0.60956956725E+02  0.47000000000E+01 0. -1.
<mgrwt>
<rscale>  0 0.13320113E+03</rscale>
<asrwt>0</asrwt>
<pdfrwt beam="2">  1        5 0.10713928E-01 0.13320175E+03</pdfrwt>
<pdfrwt beam="1">  1       -5 0.42254165E-01 0.13320175E+03</pdfrwt>
<totfact> 0.27590824E+02</totfact>
</mgrwt>
</event>
<event>
 8    1  0.3763376E-007  0.1586900E+03  0.7546771E-02  0.1190185E+00
          5   -1    0    0  501    0  0.00000000000E+00  0.00000000000E+00  0.18889661274E+03  0.18895507483E+03  0.47000000000E+01 0.  1.
         -5   -1    0    0    0  501 -0.00000000000E+00 -0.00000000000E+00 -0.16824774992E+03  0.16831338436E+03  0.47000000000E+01 0.  1.
         25    2    1    2    0    0 -0.42642820762E+02 -0.87970523435E+02 -0.71186230079E+02  0.17392523224E+03  0.12500113560E+03 0.  0.
         25    2    1    2    0    0  0.42642820762E+02  0.87970523435E+02  0.91835092891E+02  0.18334322695E+03  0.12499532562E+03 0.  0.
          5    1    3    3  502    0 -0.47118064461E+02  0.26235915649E+01 -0.68176759518E+02  0.83049116609E+02  0.47000000000E+01 0.  1.
         -5    1    3    3    0  502  0.44752436994E+01 -0.90594114999E+02 -0.30094705619E+01  0.90876115629E+02  0.47000000000E+01 0.  1.
          5    1    4    4  503    0  0.22181587813E+02  0.26748959775E+02  0.11054384525E+03  0.11597224413E+03  0.47000000000E+01 0. -1.
         -5    1    4    4    0  503  0.20461232949E+02  0.61221563660E+02 -0.18708752358E+02  0.67370982815E+02  0.47000000000E+01 0. -1.
<mgrwt>
<rscale>  0 0.15868883E+03</rscale>
<asrwt>0</asrwt>
<pdfrwt beam="1">  1        5 0.29070563E-01 0.15868997E+03</pdfrwt>
<pdfrwt beam="2">  1       -5 0.25893815E-01 0.15868997E+03</pdfrwt>
<totfact> 0.12270174E+02</totfact>
</mgrwt>
</event>
<event>
 8    1  0.3763376E-007  0.1276057E+03  0.7546771E-02  0.1231068E+00
          5   -1    0    0  501    0  0.00000000000E+00  0.00000000000E+00  0.62745860041E+02  0.62921641367E+02  0.47000000000E+01 0. -1.
         -5   -1    0    0    0  501 -0.00000000000E+00 -0.00000000000E+00 -0.26013806473E+03  0.26018051949E+03  0.47000000000E+01 0. -1.
         25    2    1    2    0    0  0.19997943899E+02  0.15716908226E+02 -0.10997064697E+03  0.16842266500E+03  0.12500284767E+03 0.  0.
         25    2    1    2    0    0 -0.19997943899E+02 -0.15716908226E+02 -0.87421557719E+02  0.15467949586E+03  0.12504510675E+03 0.  0.
          5    1    3    3  502    0  0.68695526661E+02  0.29517764238E+02 -0.79118071630E+02  0.10895931831E+03  0.47000000000E+01 0.  1.
         -5    1    3    3    0  502 -0.48697582762E+02 -0.13800856013E+02 -0.30852575343E+02  0.59463346684E+02  0.47000000000E+01 0.  1.
          5    1    4    4  503    0 -0.27020045700E+02 -0.67609269556E+02 -0.36885244739E+02  0.81753944731E+02  0.47000000000E+01 0.  1.
         -5    1    4    4    0  503  0.70221018015E+01  0.51892361331E+02 -0.50536312981E+02  0.72925551132E+02  0.47000000000E+01 0.  1.
<mgrwt>
<rscale>  0 0.12759536E+03</rscale>
<asrwt>0</asrwt>
<pdfrwt beam="1">  1        5 0.96699967E-02 0.12760571E+03</pdfrwt>
<pdfrwt beam="2">  1       -5 0.40038028E-01 0.12760571E+03</pdfrwt>
<totfact> 0.36287247E+02</totfact>
</mgrwt>
</event>
<event>
 8    1  0.3763376E-007  0.1573170E+03  0.7546771E-02  0.1191760E+00
          5   -1    0    0  501    0  0.00000000000E+00  0.00000000000E+00  0.22798471621E+03  0.22803315730E+03  0.47000000000E+01 0. -1.
         -5   -1    0    0    0  501 -0.00000000000E+00 -0.00000000000E+00 -0.12485137468E+03  0.12493980855E+03  0.47000000000E+01 0. -1.
         25    2    1    2    0    0 -0.59186484060E+02 -0.74971659803E+02 -0.12379870005E+02  0.15780139283E+03  0.12499691488E+03 0.  0.
         25    2    1    2    0    0  0.59186484060E+02  0.74971659803E+02  0.11551321154E+03  0.19517157302E+03  0.12499940482E+03 0.  0.
          5    1    4    4  502    0  0.69648473798E+01  0.97415832934E+02  0.89230191988E+02  0.13237246982E+03  0.47000000000E+01 0.  1.
         -5    1    4    4    0  502  0.52221636680E+02 -0.22444173131E+02  0.26283019548E+02  0.62799103191E+02  0.47000000000E+01 0.  1.
          5    1    3    3  503    0 -0.45194439485E+02 -0.11009701159E+03 -0.11898123071E+02  0.11969772201E+03  0.47000000000E+01 0.  1.
         -5    1    3    3    0  503 -0.13992044575E+02  0.35125351789E+02 -0.48174693357E+00  0.38103670818E+02  0.47000000000E+01 0.  1.
<mgrwt>
<rscale>  0 0.15731651E+03</rscale>
<asrwt>0</asrwt>
<pdfrwt beam="1">  1        5 0.35085101E-01 0.15731701E+03</pdfrwt>
<pdfrwt beam="2">  1       -5 0.19218433E-01 0.15731701E+03</pdfrwt>
<totfact> 0.14823682E+02</totfact>
</mgrwt>
</event>
<event>
 8    1  0.3763376E-007  0.1447009E+03  0.7546771E-02  0.1207144E+00
         -5   -1    0    0    0  501 -0.00000000000E+00  0.00000000000E+00  0.32666174517E+02  0.33002559864E+02  0.47000000000E+01 0. -1.
          5   -1    0    0  501    0  0.00000000000E+00 -0.00000000000E+00 -0.64030521567E+03  0.64032246502E+03  0.47000000000E+01 0. -1.
         25    2    1    2    0    0  0.27516738609E+02 -0.67490641288E+02 -0.32687752987E+03  0.35746844566E+03  0.12499044981E+03 0.  0.
         25    2    1    2    0    0 -0.27516738609E+02  0.67490641288E+02 -0.28076151128E+03  0.31585657923E+03  0.12500477934E+03 0.  0.
          5    1    4    4  502    0  0.16317772568E+02 -0.28055145066E+02 -0.11441778049E+03  0.11902470062E+03  0.47000000000E+01 0.  1.
         -5    1    4    4    0  502 -0.43834511177E+02  0.95545786354E+02 -0.16634373080E+03  0.19683187860E+03  0.47000000000E+01 0.  1.
          5    1    3    3  503    0  0.48628519762E+00 -0.85185380092E+02 -0.11554901357E+03  0.14363303935E+03  0.47000000000E+01 0.  1.
         -5    1    3    3    0  503  0.27030453411E+02  0.17694738804E+02 -0.21132851630E+03  0.21383540631E+03  0.47000000000E+01 0.  1.
<mgrwt>
<rscale>  0 0.14469781E+03</rscale>
<asrwt>0</asrwt>
<pdfrwt beam="2">  1        5 0.98535688E-01 0.14470091E+03</pdfrwt>
<pdfrwt beam="1">  1       -5 0.50527684E-02 0.14470091E+03</pdfrwt>
<totfact> 0.15523858E+02</totfact>
</mgrwt>
</event>
<event>
 8    1  0.3763376E-007  0.1648263E+03  0.7546771E-02  0.1183354E+00
          5   -1    0    0  501    0  0.00000000000E+00  0.00000000000E+00  0.59672480128E+03  0.59674331036E+03  0.47000000000E+01 0.  1.
         -5   -1    0    0    0  501 -0.00000000000E+00 -0.00000000000E+00 -0.45948254671E+02  0.46188008263E+02  0.47000000000E+01 0.  1.
         25    2    1    2    0    0  0.65680340786E+02 -0.85017656420E+02  0.23995870305E+03  0.29111396149E+03  0.12500100132E+03 0.  0.
         25    2    1    2    0    0 -0.65680340786E+02  0.85017656420E+02  0.31081784356E+03  0.35181735714E+03  0.12500324733E+03 0.  0.
          5    1    4    4  502    0 -0.46632479146E+02  0.10303891277E+03  0.14540147442E+03  0.18426959711E+03  0.47000000000E+01 0.  1.
         -5    1    4    4    0  502 -0.19047861641E+02 -0.18021256347E+02  0.16541636914E+03  0.16754776003E+03  0.47000000000E+01 0.  1.
          5    1    3    3  503    0 -0.34047325569E+02 -0.15117622801E+01  0.57090833398E+02  0.66655525366E+02  0.47000000000E+01 0.  1.
         -5    1    3    3    0  503  0.99727666356E+02 -0.83505894140E+02  0.18286786966E+03  0.22445843612E+03  0.47000000000E+01 0.  1.
<mgrwt>
<rscale>  0 0.16482591E+03</rscale>
<asrwt>0</asrwt>
<pdfrwt beam="1">  1        5 0.91823670E-01 0.16482634E+03</pdfrwt>
<pdfrwt beam="2">  1       -5 0.70888295E-02 0.16482634E+03</pdfrwt>
<totfact> 0.10834152E+02</totfact>
</mgrwt>
</event>
<event>
 8    1  0.3763376E-007  0.1422663E+03  0.7546771E-02  0.1210312E+00
         -5   -1    0    0    0  501 -0.00000000000E+00  0.00000000000E+00  0.50665681996E+03  0.50667861926E+03  0.47000000000E+01 0. -1.
          5   -1    0    0  501    0  0.00000000000E+00 -0.00000000000E+00 -0.39787242039E+02  0.40063881852E+02  0.47000000000E+01 0. -1.
         25    2    1    2    0    0  0.20585664426E+01 -0.67908775211E+02  0.23183145937E+03  0.27200152341E+03  0.12499265473E+03 0.  0.
         25    2    1    2    0    0 -0.20585664426E+01  0.67908775211E+02  0.23503811856E+03  0.27474097771E+03  0.12499539275E+03 0.  0.
          5    1    4    4  502    0  0.35635982277E+01  0.50834541091E+02  0.14181523029E+02  0.53104193767E+02  0.47000000000E+01 0. -1.
         -5    1    4    4    0  502 -0.56221646703E+01  0.17074234120E+02  0.22085659553E+03  0.22163678394E+03  0.47000000000E+01 0. -1.
          5    1    3    3  503    0  0.15001099103E+02 -0.73966730758E+02  0.24220062544E+03  0.25373084794E+03  0.47000000000E+01 0. -1.
         -5    1    3    3    0  503 -0.12942532661E+02  0.60579555475E+01 -0.10369166070E+02  0.18270675468E+02  0.47000000000E+01 0. -1.
<mgrwt>
<rscale>  0 0.14226565E+03</rscale>
<asrwt>0</asrwt>
<pdfrwt beam="2">  1        5 0.61440706E-02 0.14226626E+03</pdfrwt>
<pdfrwt beam="1">  1       -5 0.77970165E-01 0.14226626E+03</pdfrwt>
<totfact> 0.19344199E+02</totfact>
</mgrwt>
</event>
<event>
 8    1  0.3763376E-007  0.1417838E+03  0.7546771E-02  0.1210952E+00
          5   -1    0    0  501    0  0.00000000000E+00  0.00000000000E+00  0.99019762335E+02  0.99131242970E+02  0.47000000000E+01 0. -1.
         -5   -1    0    0    0  501 -0.00000000000E+00 -0.00000000000E+00 -0.20752597736E+03  0.20757919279E+03  0.47000000000E+01 0. -1.
         25    2    1    2    0    0  0.93128016156E+01  0.66240038731E+02 -0.77509260563E+02  0.16157792644E+03  0.12500107933E+03 0.  0.
         25    2    1    2    0    0 -0.93128016156E+01 -0.66240038731E+02 -0.30996954467E+02  0.14513250933E+03  0.12501265165E+03 0.  0.
          5    1    3    3  502    0  0.27593344699E+02 -0.18681934501E+02  0.12965833264E+02  0.36063973445E+02  0.47000000000E+01 0. -1.
         -5    1    3    3    0  502 -0.18280543084E+02  0.84921973232E+02 -0.90475093827E+02  0.12551395299E+03  0.47000000000E+01 0. -1.
          5    1    4    4  503    0  0.49041955610E+02 -0.28787984382E+02 -0.46872089205E+02  0.73844053256E+02  0.47000000000E+01 0. -1.
         -5    1    4    4    0  503 -0.58354757226E+02 -0.37452054349E+02  0.15875134738E+02  0.71288456070E+02  0.47000000000E+01 0. -1.
<mgrwt>
<rscale>  0 0.14178121E+03</rscale>
<asrwt>0</asrwt>
<pdfrwt beam="1">  1        5 0.15246479E-01 0.14178376E+03</pdfrwt>
<pdfrwt beam="2">  1       -5 0.31939742E-01 0.14178376E+03</pdfrwt>
<totfact> 0.26437760E+02</totfact>
</mgrwt>
</event>
<event>
 8    1  0.3763376E-007  0.1320434E+03  0.7546771E-02  0.1224455E+00
         -5   -1    0    0    0  501 -0.00000000000E+00  0.00000000000E+00  0.99205635419E+03  0.99206748757E+03  0.47000000000E+01 0. -1.
          5   -1    0    0  501    0  0.00000000000E+00 -0.00000000000E+00 -0.19162079421E+02  0.19730060510E+02  0.47000000000E+01 0. -1.
         25    2    1    2    0    0 -0.42388913694E+02  0.37491114776E+01  0.64379506253E+03  0.65719672759E+03  0.12499832151E+03 0.  0.
         25    2    1    2    0    0  0.42388913694E+02 -0.37491114776E+01  0.32909921224E+03  0.35460082049E+03  0.12499829819E+03 0.  0.
          5    1    4    4  502    0  0.58731994337E+02 -0.53186176625E+02  0.18490816981E+03  0.20122459543E+03  0.47000000000E+01 0.  1.
         -5    1    4    4    0  502 -0.16343080643E+02  0.49437065148E+02  0.14419104243E+03  0.15337622506E+03  0.47000000000E+01 0.  1.
          5    1    3    3  503    0 -0.20061334019E+02 -0.58658127006E+02  0.38605224307E+03  0.39102641517E+03  0.47000000000E+01 0. -1.
         -5    1    3    3    0  503 -0.22327579675E+02  0.62407238484E+02  0.25774281946E+03  0.26617031242E+03  0.47000000000E+01 0. -1.
<mgrwt>
<rscale>  0 0.13204338E+03</rscale>
<asrwt>0</asrwt>
<pdfrwt beam="2">  1        5 0.29925575E-02 0.13204339E+03</pdfrwt>
<pdfrwt beam="1">  1       -5 0.15266870E+00 0.13204339E+03</pdfrwt>
<totfact> 0.11542086E+02</totfact>
</mgrwt>
</event>
<event>
 8    1  0.3763376E-007  0.1410260E+03  0.7546771E-02  0.1211959E+00
         -5   -1    0    0    0  501 -0.00000000000E+00  0.00000000000E+00  0.85553571108E+01  0.97613592954E+01  0.47000000000E+01 0.  1.
          5   -1    0    0  501    0  0.00000000000E+00 -0.00000000000E+00 -0.22828992904E+04  0.22829041285E+04  0.47000000000E+01 0.  1.
         25    2    1    2    0    0  0.43752559224E+02  0.48482440547E+02 -0.88258648358E+03  0.89378254951E+03  0.12499404519E+03 0.  0.
         25    2    1    2    0    0 -0.43752559224E+02 -0.48482440547E+02 -0.13917574497E+04  0.13988829383E+04  0.12497936963E+03 0.  0.
          5    1    4    4  502    0 -0.45089007983E+02 -0.86208314146E+02 -0.80067108471E+03  0.80657372134E+03  0.47000000000E+01 0. -1.
         -5    1    4    4    0  502  0.13364487594E+01  0.37725873599E+02 -0.59108636498E+03  0.59230921697E+03  0.47000000000E+01 0. -1.
          5    1    3    3  503    0  0.41391790122E+02 -0.18454986912E+02 -0.65277716945E+03  0.65436533357E+03  0.47000000000E+01 0. -1.
         -5    1    3    3    0  503  0.23607691018E+01  0.66937427459E+02 -0.22980931414E+03  0.23941721594E+03  0.47000000000E+01 0. -1.
<mgrwt>
<rscale>  0 0.14102279E+03</rscale>
<asrwt>0</asrwt>
<pdfrwt beam="2">  1        5 0.35130796E+00 0.14102604E+03</pdfrwt>
<pdfrwt beam="1">  1       -5 0.14093522E-02 0.14102604E+03</pdfrwt>
<totfact> 0.18951189E+01</totfact>
</mgrwt>
</event>
<event>
 8    1  0.3763376E-007  0.1323602E+03  0.7546771E-02  0.1224007E+00
          5   -1    0    0  501    0  0.00000000000E+00  0.00000000000E+00  0.22829306706E+03  0.22834144273E+03  0.47000000000E+01 0. -1.
         -5   -1    0    0    0  501 -0.00000000000E+00 -0.00000000000E+00 -0.77086493107E+02  0.77229640809E+02  0.47000000000E+01 0. -1.
         25    2    1    2    0    0 -0.22001160951E+02  0.37513681354E+02  0.87823925206E+02  0.15884670114E+03  0.12501162047E+03 0.  0.
         25    2    1    2    0    0  0.22001160951E+02 -0.37513681354E+02  0.63382648745E+02  0.14672438239E+03  0.12497742538E+03 0.  0.
          5    1    3    3  502    0  0.15889733830E+02 -0.41362139134E+02  0.25820468559E+02  0.51498512517E+02  0.47000000000E+01 0. -1.
         -5    1    3    3    0  502 -0.37890894781E+02  0.78875820488E+02  0.62003456647E+02  0.10734818863E+03  0.47000000000E+01 0. -1.
          5    1    4    4  503    0  0.56516842825E+02 -0.66149120451E+02  0.44492617350E+02  0.97834261167E+02  0.47000000000E+01 0. -1.
         -5    1    4    4    0  503 -0.34515681874E+02  0.28635439097E+02  0.18890031394E+02  0.48890121227E+02  0.47000000000E+01 0. -1.
<mgrwt>
<rscale>  0 0.13235216E+03</rscale>
<asrwt>0</asrwt>
<pdfrwt beam="1">  1        5 0.35136742E-01 0.13236024E+03</pdfrwt>
<pdfrwt beam="2">  1       -5 0.11874193E-01 0.13236024E+03</pdfrwt>
<totfact> 0.33414363E+02</totfact>
</mgrwt>
</event>
<event>
 8    1  0.3763376E-007  0.1276306E+03  0.7546771E-02  0.1231019E+00
         -5   -1    0    0    0  501 -0.00000000000E+00  0.00000000000E+00  0.60102604517E+03  0.60104442180E+03  0.47000000000E+01 0. -1.
          5   -1    0    0  501    0  0.00000000000E+00 -0.00000000000E+00 -0.26878018142E+02  0.27285854563E+02  0.47000000000E+01 0. -1.
         25    2    1    2    0    0  0.55347918100E+01  0.25130247754E+02  0.28567587186E+03  0.31288493291E+03  0.12499645677E+03 0.  0.
         25    2    1    2    0    0 -0.55347918100E+01 -0.25130247754E+02  0.28847215517E+03  0.31544534346E+03  0.12500966813E+03 0.  0.
          5    1    3    3  502    0  0.23308391219E+02 -0.45875609637E+02  0.88115908018E+02  0.10214869508E+03  0.47000000000E+01 0.  1.
         -5    1    3    3    0  502 -0.17773599409E+02  0.71005857390E+02  0.19755996384E+03  0.21073623783E+03  0.47000000000E+01 0.  1.
          5    1    4    4  503    0 -0.50322097828E+02  0.26324789605E+02  0.10211787651E+03  0.11694211722E+03  0.47000000000E+01 0. -1.
         -5    1    4    4    0  503  0.44787306018E+02 -0.51455037359E+02  0.18635427866E+03  0.19850322624E+03  0.47000000000E+01 0. -1.
<mgrwt>
<rscale>  0 0.12762741E+03</rscale>
<asrwt>0</asrwt>
<pdfrwt beam="2">  1        5 0.41678658E-02 0.12763064E+03</pdfrwt>
<pdfrwt beam="1">  1       -5 0.92498321E-01 0.12763064E+03</pdfrwt>
<totfact> 0.23816403E+02</totfact>
</mgrwt>
</event>
<event>
 8    1  0.3763376E-007  0.1336555E+03  0.7546771E-02  0.1222135E+00
         -5   -1    0    0    0  501 -0.00000000000E+00  0.00000000000E+00  0.29821727536E+02  0.30189823339E+02  0.47000000000E+01 0. -1.
          5   -1    0    0  501    0  0.00000000000E+00 -0.00000000000E+00 -0.60240630623E+03  0.60242464075E+03  0.47000000000E+01 0. -1.
         25    2    1    2    0    0 -0.32568953740E+02  0.34278102175E+02 -0.32158130866E+03  0.34825039625E+03  0.12501230087E+03 0.  0.
         25    2    1    2    0    0  0.32568953740E+02 -0.34278102175E+02 -0.25100327003E+03  0.28436406784E+03  0.12499822590E+03 0.  0.
          5    1    4    4  502    0  0.17209468052E+02  0.23808354781E+02 -0.20851350601E+03  0.21062520205E+03  0.47000000000E+01 0.  1.
         -5    1    4    4    0  502  0.15359485688E+02 -0.58086456956E+02 -0.42489764014E+02  0.73738865792E+02  0.47000000000E+01 0.  1.
          5    1    3    3  503    0 -0.52853123106E+02 -0.32770190166E+02 -0.17352030222E+03  0.18438742709E+03  0.47000000000E+01 0.  1.
         -5    1    3    3    0  503  0.20284169365E+02  0.67048292342E+02 -0.14806100644E+03  0.16386296915E+03  0.47000000000E+01 0.  1.
<mgrwt>
<rscale>  0 0.13365224E+03</rscale>
<asrwt>0</asrwt>
<pdfrwt beam="2">  1        5 0.92707610E-01 0.13365553E+03</pdfrwt>
<pdfrwt beam="1">  1       -5 0.46176839E-02 0.13365553E+03</pdfrwt>
<totfact> 0.20334811E+02</totfact>
</mgrwt>
</event>
<event>
 8    1  0.3763376E-007  0.1412656E+03  0.7546771E-02  0.1211637E+00
         -5   -1    0    0    0  501 -0.00000000000E+00  0.00000000000E+00  0.54866158688E+02  0.55067098790E+02  0.47000000000E+01 0. -1.
          5   -1    0    0  501    0  0.00000000000E+00 -0.00000000000E+00 -0.36566424071E+03  0.36569444477E+03  0.47000000000E+01 0. -1.
         25    2    1    2    0    0 -0.46712141227E+02 -0.46356735784E+02 -0.17390087322E+03  0.22404649179E+03  0.12499738272E+03 0.  0.
         25    2    1    2    0    0  0.46712141227E+02  0.46356735784E+02 -0.13689720881E+03  0.19671505177E+03  0.12499997889E+03 0.  0.
          5    1    3    3  502    0 -0.83456209340E+02 -0.23461782948E+01 -0.10747494899E+03  0.13617414619E+03  0.47000000000E+01 0.  1.
         -5    1    3    3    0  502  0.36744068113E+02 -0.44010557490E+02 -0.66425924224E+02  0.87872345599E+02  0.47000000000E+01 0.  1.
          5    1    4    4  503    0  0.21858005616E+02 -0.17437900792E+02 -0.12360234280E+03  0.12681278303E+03  0.47000000000E+01 0. -1.
         -5    1    4    4    0  503  0.24854135611E+02  0.63794636576E+02 -0.13294866005E+02  0.69902268740E+02  0.47000000000E+01 0. -1.
<mgrwt>
<rscale>  0 0.14126501E+03</rscale>
<asrwt>0</asrwt>
<pdfrwt beam="2">  1        5 0.56273816E-01 0.14126559E+03</pdfrwt>
<pdfrwt beam="1">  1       -5 0.84587281E-02 0.14126559E+03</pdfrwt>
<totfact> 0.23179428E+02</totfact>
</mgrwt>
</event>
<event>
 8    1  0.3763376E-007  0.1499643E+03  0.7546771E-02  0.1200517E+00
          5   -1    0    0  501    0  0.00000000000E+00  0.00000000000E+00  0.49119162310E+02  0.49343511286E+02  0.47000000000E+01 0. -1.
         -5   -1    0    0    0  501 -0.00000000000E+00 -0.00000000000E+00 -0.45713727176E+03  0.45716143236E+03  0.47000000000E+01 0. -1.
         25    2    1    2    0    0 -0.61804607374E+02 -0.55175068653E+02 -0.19505895937E+03  0.24604207995E+03  0.12499843912E+03 0.  0.
         25    2    1    2    0    0  0.61804607374E+02  0.55175068653E+02 -0.21295915008E+03  0.26046286369E+03  0.12500082426E+03 0.  0.
          5    1    3    3  502    0 -0.49244719508E+02  0.31589388521E+02 -0.10486541657E+03  0.12017394667E+03  0.47000000000E+01 0. -1.
         -5    1    3    3    0  502 -0.12559887866E+02 -0.86764457175E+02 -0.90193542808E+02  0.12586813328E+03  0.47000000000E+01 0. -1.
          5    1    4    4  503    0  0.68162068965E+02  0.26100806794E+00 -0.40787238122E+02  0.79572762705E+02  0.47000000000E+01 0. -1.
         -5    1    4    4    0  503 -0.63574615912E+01  0.54914060585E+02 -0.17217191196E+03  0.18089010098E+03  0.47000000000E+01 0. -1.
<mgrwt>
<rscale>  0 0.14996384E+03</rscale>
<asrwt>0</asrwt>
<pdfrwt beam="1">  1        5 0.75759106E-02 0.14996434E+03</pdfrwt>
<pdfrwt beam="2">  1       -5 0.70347924E-01 0.14996434E+03</pdfrwt>
<totfact> 0.17439067E+02</totfact>
</mgrwt>
</event>
<event>
 8    1  0.3763376E-007  0.1384853E+03  0.7546771E-02  0.1215382E+00
          5   -1    0    0  501    0  0.00000000000E+00  0.00000000000E+00  0.70423432757E+02  0.70580095503E+02  0.47000000000E+01 0. -1.
         -5   -1    0    0    0  501 -0.00000000000E+00 -0.00000000000E+00 -0.27349549104E+03  0.27353587263E+03  0.47000000000E+01 0. -1.
         25    2    1    2    0    0 -0.27721701285E+01  0.59538376783E+02 -0.11489581388E+03  0.17994161340E+03  0.12500173179E+03 0.  0.
         25    2    1    2    0    0  0.27721701285E+01 -0.59538376783E+02 -0.88176244402E+02  0.16417435474E+03  0.12500266173E+03 0.  0.
          5    1    4    4  502    0  0.56823774492E+02 -0.70785329265E+01 -0.15753016760E+02  0.59575955829E+02  0.47000000000E+01 0. -1.
         -5    1    4    4    0  502 -0.54051604363E+02 -0.52459843857E+02 -0.72423227642E+02  0.10459839891E+03  0.47000000000E+01 0. -1.
          5    1    3    3  503    0  0.11291316104E+02  0.38716634690E+02 -0.13899907255E+03  0.14480781675E+03  0.47000000000E+01 0.  1.
         -5    1    3    3    0  503 -0.14063486232E+02  0.20821742093E+02  0.24103258672E+02  0.35133796655E+02  0.47000000000E+01 0.  1.
<mgrwt>
<rscale>  0 0.13848506E+03</rscale>
<asrwt>0</asrwt>
<pdfrwt beam="1">  1        5 0.10849532E-01 0.13848527E+03</pdfrwt>
<pdfrwt beam="2">  1       -5 0.42091386E-01 0.13848527E+03</pdfrwt>
<totfact> 0.27567421E+02</totfact>
</mgrwt>
</event>
<event>
 8    1  0.3763376E-007  0.1319595E+03  0.7546771E-02  0.1224577E+00
          5   -1    0    0  501    0  0.00000000000E+00  0.00000000000E+00  0.62332727080E+03  0.62334498997E+03  0.47000000000E+01 0. -1.
         -5   -1    0    0    0  501 -0.00000000000E+00 -0.00000000000E+00 -0.30066686316E+02  0.30431819302E+02  0.47000000000E+01 0. -1.
         25    2    1    2    0    0  0.39903890903E+02 -0.13949134122E+02  0.20590509650E+03  0.24456127566E+03  0.12500563961E+03 0.  0.
         25    2    1    2    0    0 -0.39903890903E+02  0.13949134122E+02  0.38735548799E+03  0.40921553362E+03  0.12500472002E+03 0.  0.
          5    1    3    3  502    0  0.50815969446E+02  0.46589412110E+02  0.92491958297E+02  0.11545426983E+03  0.47000000000E+01 0.  1.
         -5    1    3    3    0  502 -0.10912078543E+02 -0.60538546232E+02  0.11341313820E+03  0.12910700583E+03  0.47000000000E+01 0.  1.
          5    1    4    4  503    0  0.24751168300E+02  0.75490221948E+01  0.13190665990E+02  0.29422639881E+02  0.47000000000E+01 0.  1.
         -5    1    4    4    0  503 -0.64655059203E+02  0.64001119272E+01  0.37416482200E+03  0.37979289374E+03  0.47000000000E+01 0.  1.
<mgrwt>
<rscale>  0 0.13195928E+03</rscale>
<asrwt>0</asrwt>
<pdfrwt beam="1">  1        5 0.95925939E-01 0.13195950E+03</pdfrwt>
<pdfrwt beam="2">  1       -5 0.46550949E-02 0.13195950E+03</pdfrwt>
<totfact> 0.18411134E+02</totfact>
</mgrwt>
</event>
<event>
 8    1  0.3763376E-007  0.1264708E+03  0.7546771E-02  0.1232789E+00
         -5   -1    0    0    0  501 -0.00000000000E+00  0.00000000000E+00  0.32693287578E+02  0.33029396795E+02  0.47000000000E+01 0.  1.
          5   -1    0    0  501    0  0.00000000000E+00 -0.00000000000E+00 -0.51424510077E+03  0.51426657841E+03  0.47000000000E+01 0.  1.
         25    2    1    2    0    0  0.15134735919E+02  0.11862043968E+02 -0.17710518375E+03  0.21762551728E+03  0.12499940537E+03 0.  0.
         25    2    1    2    0    0 -0.15134735919E+02 -0.11862043968E+02 -0.30444662944E+03  0.32967045792E+03  0.12500036932E+03 0.  0.
          5    1    4    4  502    0 -0.53747868443E+02 -0.26248406897E+02 -0.72790370874E+02  0.94331014617E+02  0.47000000000E+01 0.  1.
         -5    1    4    4    0  502  0.38613132524E+02  0.14386362929E+02 -0.23165625856E+03  0.23533944330E+03  0.47000000000E+01 0.  1.
          5    1    3    3  503    0  0.37032716469E+02 -0.13263432008E+02 -0.17955927074E+03  0.18387757456E+03  0.47000000000E+01 0.  1.
         -5    1    3    3    0  503 -0.21897980550E+02  0.25125475976E+02  0.24540869839E+01  0.33747942724E+02  0.47000000000E+01 0.  1.
<mgrwt>
<rscale>  0 0.12647055E+03</rscale>
<asrwt>0</asrwt>
<pdfrwt beam="2">  1        5 0.79142132E-01 0.12647079E+03</pdfrwt>
<pdfrwt beam="1">  1       -5 0.50572436E-02 0.12647079E+03</pdfrwt>
<totfact> 0.24857271E+02</totfact>
</mgrwt>
</event>
<event>
 8    1  0.3763376E-007  0.1384107E+03  0.7546771E-02  0.1215497E+00
          5   -1    0    0  501    0  0.00000000000E+00  0.00000000000E+00  0.29042637423E+02  0.29420482465E+02  0.47000000000E+01 0.  1.
         -5   -1    0    0    0  501 -0.00000000000E+00 -0.00000000000E+00 -0.66866903097E+03  0.66868554865E+03  0.47000000000E+01 0.  1.
         25    2    1    2    0    0 -0.17165612144E+02 -0.56886709799E+02 -0.37001617329E+03  0.39504302404E+03  0.12496506051E+03 0.  0.
         25    2    1    2    0    0  0.17165612144E+02  0.56886709799E+02 -0.26961022025E+03  0.30306300708E+03  0.12500703742E+03 0.  0.
          5    1    4    4  502    0 -0.13482949584E+02  0.59350967572E+02 -0.43828685126E+02  0.75148991484E+02  0.47000000000E+01 0.  1.
         -5    1    4    4    0  502  0.30648561728E+02 -0.24642577728E+01 -0.22578153513E+03  0.22791401560E+03  0.47000000000E+01 0.  1.
          5    1    3    3  503    0 -0.14287440671E+01 -0.12689374595E+01 -0.31521004069E+03  0.31525087036E+03  0.47000000000E+01 0. -1.
         -5    1    3    3    0  503 -0.15736868077E+02 -0.55617772340E+02 -0.54806132603E+02  0.79792153673E+02  0.47000000000E+01 0. -1.
<mgrwt>
<rscale>  0 0.13840120E+03</rscale>
<asrwt>0</asrwt>
<pdfrwt beam="1">  1        5 0.44984342E-02 0.13841068E+03</pdfrwt>
<pdfrwt beam="2">  1       -5 0.10290248E+00 0.13841068E+03</pdfrwt>
<totfact> 0.16687668E+02</totfact>
</mgrwt>
</event>
<event>
 8    1  0.3763376E-007  0.1296729E+03  0.7546771E-02  0.1227946E+00
         -5   -1    0    0    0  501 -0.00000000000E+00  0.00000000000E+00  0.25258196547E+02  0.25691759239E+02  0.47000000000E+01 0.  1.
          5   -1    0    0  501    0  0.00000000000E+00 -0.00000000000E+00 -0.69071577391E+03  0.69073176439E+03  0.47000000000E+01 0.  1.
         25    2    1    2    0    0  0.33784656834E+02 -0.68093565438E+01 -0.25669006242E+03  0.28758450553E+03  0.12500915686E+03 0.  0.
         25    2    1    2    0    0 -0.33784656834E+02  0.68093565438E+01 -0.40876751494E+03  0.42883901810E+03  0.12499700714E+03 0.  0.
          5    1    4    4  502    0 -0.35316945755E+02 -0.17487008878E+02 -0.31267198816E+02  0.50525338779E+02  0.47000000000E+01 0.  1.
         -5    1    4    4    0  502  0.15322889212E+01  0.24296365422E+02 -0.37750031613E+03  0.37831367932E+03  0.47000000000E+01 0.  1.
          5    1    3    3  503    0  0.48299349883E+02 -0.26054687150E+01 -0.23719346692E+02  0.54076918125E+02  0.47000000000E+01 0. -1.
         -5    1    3    3    0  503 -0.14514693050E+02 -0.42038878287E+01 -0.23297071573E+03  0.23350758741E+03  0.47000000000E+01 0. -1.
<mgrwt>
<rscale>  0 0.12966997E+03</rscale>
<asrwt>0</asrwt>
<pdfrwt beam="2">  1        5 0.10629853E+00 0.12967289E+03</pdfrwt>
<pdfrwt beam="1">  1       -5 0.39204579E-02 0.12967289E+03</pdfrwt>
<totfact> 0.18895441E+02</totfact>
</mgrwt>
</event>
<event>
 8    1  0.3763376E-007  0.1376659E+03  0.7546771E-02  0.1216511E+00
         -5   -1    0    0    0  501 -0.00000000000E+00  0.00000000000E+00  0.40834637898E+02  0.41104229129E+02  0.47000000000E+01 0. -1.
          5   -1    0    0  501    0  0.00000000000E+00 -0.00000000000E+00 -0.46753189178E+03  0.46755551524E+03  0.47000000000E+01 0. -1.
         25    2    1    2    0    0  0.54486614597E+02  0.18778085906E+02 -0.18630790193E+03  0.23165176307E+03  0.12502198739E+03 0.  0.
         25    2    1    2    0    0 -0.54486614597E+02 -0.18778085906E+02 -0.24038935195E+03  0.27700798130E+03  0.12499989396E+03 0.  0.
          5    1    4    4  502    0  0.18414565677E+02 -0.22258522151E+02 -0.39715463212E+01  0.29536438811E+02  0.47000000000E+01 0. -1.
         -5    1    4    4    0  502 -0.72901180275E+02  0.34804362451E+01 -0.23641780563E+03  0.24747154249E+03  0.47000000000E+01 0. -1.
          5    1    3    3  503    0  0.23504399105E+02 -0.51645081611E+02 -0.10608988366E+03  0.12040276013E+03  0.47000000000E+01 0. -1.
         -5    1    3    3    0  503  0.30982215492E+02  0.70423167517E+02 -0.80218018267E+02  0.11124900294E+03  0.47000000000E+01 0. -1.
<mgrwt>
<rscale>  0 0.13766090E+03</rscale>
<asrwt>0</asrwt>
<pdfrwt beam="2">  1        5 0.71950535E-01 0.13766592E+03</pdfrwt>
<pdfrwt beam="1">  1       -5 0.63048073E-02 0.13766592E+03</pdfrwt>
<totfact> 0.22009171E+02</totfact>
</mgrwt>
</event>
<event>
 8    1  0.3763376E-007  0.1408821E+03  0.7546771E-02  0.1212149E+00
          5   -1    0    0  501    0  0.00000000000E+00  0.00000000000E+00  0.26677786336E+03  0.26681926164E+03  0.47000000000E+01 0.  1.
         -5   -1    0    0    0  501 -0.00000000000E+00 -0.00000000000E+00 -0.99924454928E+02  0.10003492736E+03  0.47000000000E+01 0.  1.
         25    2    1    2    0    0  0.47193929992E+02  0.44630050736E+02 -0.94294554436E+01  0.14119203936E+03  0.12500867526E+03 0.  0.
         25    2    1    2    0    0 -0.47193929992E+02 -0.44630050736E+02  0.17628286388E+03  0.22566214964E+03  0.12501459606E+03 0.  0.
          5    1    4    4  502    0 -0.25602168549E+02  0.20704104421E+02 -0.31711945406E+01  0.33410738530E+02  0.47000000000E+01 0.  1.
         -5    1    4    4    0  502 -0.21591761443E+02 -0.65334155157E+02  0.17945405842E+03  0.19225141111E+03  0.47000000000E+01 0.  1.
          5    1    3    3  503    0  0.52988933338E+02 -0.79494218718E+01  0.41250302265E+02  0.67784200233E+02  0.47000000000E+01 0.  1.
         -5    1    3    3    0  503 -0.57950033454E+01  0.52579472608E+02 -0.50679757708E+02  0.73407839124E+02  0.47000000000E+01 0.  1.
<mgrwt>
<rscale>  0 0.14088076E+03</rscale>
<asrwt>0</asrwt>
<pdfrwt beam="1">  1        5 0.41054430E-01 0.14088207E+03</pdfrwt>
<pdfrwt beam="2">  1       -5 0.15384676E-01 0.14088207E+03</pdfrwt>
<totfact> 0.15644759E+02</totfact>
</mgrwt>
</event>
<event>
 8    1  0.3763376E-007  0.1368563E+03  0.7546771E-02  0.1217624E+00
         -5   -1    0    0    0  501 -0.00000000000E+00  0.00000000000E+00  0.13859848785E+03  0.13867815558E+03  0.47000000000E+01 0.  1.
          5   -1    0    0  501    0  0.00000000000E+00 -0.00000000000E+00 -0.13731824556E+03  0.13739865561E+03  0.47000000000E+01 0.  1.
         25    2    1    2    0    0 -0.48512796000E+02  0.27382946340E+02  0.18673245732E+02  0.13812438278E+03  0.12500535143E+03 0.  0.
         25    2    1    2    0    0  0.48512796000E+02 -0.27382946340E+02 -0.17393003434E+02  0.13795242841E+03  0.12500015524E+03 0.  0.
          5    1    3    3  502    0 -0.13829112208E+02 -0.48552280679E+02 -0.57253023741E+01  0.51023890394E+02  0.47000000000E+01 0.  1.
         -5    1    3    3    0  502 -0.34683683792E+02  0.75935227019E+02  0.24398548106E+02  0.87100492384E+02  0.47000000000E+01 0.  1.
          5    1    4    4  503    0  0.38477644901E+02 -0.65043014110E+02  0.25415227447E+02  0.79869560083E+02  0.47000000000E+01 0. -1.
         -5    1    4    4    0  503  0.10035151099E+02  0.37660067771E+02 -0.42808230882E+02  0.58082868329E+02  0.47000000000E+01 0. -1.
<mgrwt>
<rscale>  0 0.13685514E+03</rscale>
<asrwt>0</asrwt>
<pdfrwt beam="2">  1        5 0.21138198E-01 0.13685633E+03</pdfrwt>
<pdfrwt beam="1">  1       -5 0.21335158E-01 0.13685633E+03</pdfrwt>
<totfact> 0.31121232E+02</totfact>
</mgrwt>
</event>
<event>
 8    1  0.3763376E-007  0.2351785E+03  0.7546771E-02  0.1123047E+00
          5   -1    0    0  501    0  0.00000000000E+00  0.00000000000E+00  0.71222394424E+02  0.71377303588E+02  0.47000000000E+01 0.  1.
         -5   -1    0    0    0  501 -0.00000000000E+00 -0.00000000000E+00 -0.78656478183E+03  0.78657882378E+03  0.47000000000E+01 0.  1.
         25    2    1    2    0    0 -0.16294306152E+03 -0.11460285172E+03 -0.30693633240E+03  0.38667656240E+03  0.12499838735E+03 0.  0.
         25    2    1    2    0    0  0.16294306152E+03  0.11460285172E+03 -0.40840605501E+03  0.47127956497E+03  0.12499867067E+03 0.  0.
          5    1    3    3  502    0 -0.17115241091E+03 -0.66364609477E+02 -0.26289431157E+03  0.32067572127E+03  0.47000000000E+01 0.  1.
         -5    1    3    3    0  502  0.82093493839E+01 -0.48238242240E+02 -0.44042020822E+02  0.66000841130E+02  0.47000000000E+01 0.  1.
          5    1    4    4  503    0 -0.71889690181E+01  0.53254726059E+02 -0.83766366784E+02  0.99632531471E+02  0.47000000000E+01 0.  1.
         -5    1    4    4    0  503  0.17013203054E+03  0.61348125659E+02 -0.32463968823E+03  0.37164703350E+03  0.47000000000E+01 0.  1.
<mgrwt>
<rscale>  0 0.23517845E+03</rscale>
<asrwt>0</asrwt>
<pdfrwt beam="1">  1        5 0.10970288E-01 0.23517849E+03</pdfrwt>
<pdfrwt beam="2">  1       -5 0.12102296E+00 0.23517849E+03</pdfrwt>
<totfact> 0.28021057E+01</totfact>
</mgrwt>
</event>
<event>
 8    1  0.3763376E-007  0.1259426E+03  0.7546771E-02  0.1233611E+00
          5   -1    0    0  501    0  0.00000000000E+00  0.00000000000E+00  0.49606923478E+02  0.49829076421E+02  0.47000000000E+01 0. -1.
         -5   -1    0    0    0  501 -0.00000000000E+00 -0.00000000000E+00 -0.55994676384E+03  0.55996648859E+03  0.47000000000E+01 0. -1.
         25    2    1    2    0    0  0.10374807463E+01  0.15328085214E+02 -0.45524777135E+03  0.47234741419E+03  0.12500207922E+03 0.  0.
         25    2    1    2    0    0 -0.10374807463E+01 -0.15328085214E+02 -0.55092069014E+02  0.13744815082E+03  0.12498332502E+03 0.  0.
          5    1    4    4  502    0 -0.52471204175E+02 -0.41011795775E+02 -0.39985657698E+02  0.77821189157E+02  0.47000000000E+01 0.  1.
         -5    1    4    4    0  502  0.51433723428E+02  0.25683710561E+02 -0.15106411316E+02  0.59626961660E+02  0.47000000000E+01 0.  1.
          5    1    3    3  503    0  0.40627172782E+02 -0.30217222903E+02 -0.10223501531E+03  0.11418290627E+03  0.47000000000E+01 0. -1.
         -5    1    3    3    0  503 -0.39589692035E+02  0.45545308117E+02 -0.35301275604E+03  0.35816450792E+03  0.47000000000E+01 0. -1.
<mgrwt>
<rscale>  0 0.12593798E+03</rscale>
<asrwt>0</asrwt>
<pdfrwt beam="1">  1        5 0.76504408E-02 0.12594263E+03</pdfrwt>
<pdfrwt beam="2">  1       -5 0.86164258E-01 0.12594263E+03</pdfrwt>
<totfact> 0.10152745E+02</totfact>
</mgrwt>
</event>
<event>
 8    1  0.3763376E-007  0.1385103E+03  0.7546771E-02  0.1215348E+00
          5   -1    0    0  501    0  0.00000000000E+00  0.00000000000E+00  0.30547841227E+02  0.30907290460E+02  0.47000000000E+01 0.  1.
         -5   -1    0    0    0  501 -0.00000000000E+00 -0.00000000000E+00 -0.70321644680E+03  0.70323215303E+03  0.47000000000E+01 0.  1.
         25    2    1    2    0    0 -0.14547033336E+02 -0.57871769343E+02 -0.45951513066E+03  0.47993672024E+03  0.12499736901E+03 0.  0.
         25    2    1    2    0    0  0.14547033336E+02  0.57871769343E+02 -0.21315347492E+03  0.25420272325E+03  0.12499545102E+03 0.  0.
          5    1    3    3  502    0 -0.23797042286E+01  0.14673550800E+02 -0.10953507166E+01  0.15629007598E+02  0.47000000000E+01 0.  1.
         -5    1    3    3    0  502 -0.12167329107E+02 -0.72545320143E+02 -0.45841977994E+03  0.46430771264E+03  0.47000000000E+01 0.  1.
          5    1    4    4  503    0 -0.36665365025E+01 -0.24790701905E+02 -0.75247694967E+00  0.25508402781E+02  0.47000000000E+01 0. -1.
         -5    1    4    4    0  503  0.18213569839E+02  0.82662471248E+02 -0.21240099797E+03  0.22869432047E+03  0.47000000000E+01 0. -1.
<mgrwt>
<rscale>  0 0.13850986E+03</rscale>
<asrwt>0</asrwt>
<pdfrwt beam="1">  1        5 0.47285265E-02 0.13851029E+03</pdfrwt>
<pdfrwt beam="2">  1       -5 0.10821599E+00 0.13851029E+03</pdfrwt>
<totfact> 0.13573584E+02</totfact>
</mgrwt>
</event>
<event>
 8    1  0.3763376E-007  0.1282677E+03  0.7546771E-02  0.1230050E+00
          5   -1    0    0  501    0  0.00000000000E+00  0.00000000000E+00  0.28149944197E+03  0.28153867555E+03  0.47000000000E+01 0. -1.
         -5   -1    0    0    0  501 -0.00000000000E+00 -0.00000000000E+00 -0.61545472973E+02  0.61724672891E+02  0.47000000000E+01 0. -1.
         25    2    1    2    0    0 -0.26598736714E+02 -0.10934018947E+02  0.70679083163E+02  0.14645180344E+03  0.12500220945E+03 0.  0.
         25    2    1    2    0    0  0.26598736714E+02  0.10934018947E+02  0.14927488584E+03  0.19681154500E+03  0.12499898856E+03 0.  0.
          5    1    3    3  502    0 -0.54166804331E+02 -0.23252379791E+02  0.91876027612E+02  0.10926120220E+03  0.47000000000E+01 0.  1.
         -5    1    3    3    0  502  0.27568067617E+02  0.12318360845E+02 -0.21196944449E+02  0.37190601232E+02  0.47000000000E+01 0.  1.
          5    1    4    4  503    0  0.66417419243E+02  0.38331415458E+02  0.70511778657E+02  0.10428121556E+03  0.47000000000E+01 0. -1.
         -5    1    4    4    0  503 -0.39818682529E+02 -0.27397396511E+02  0.78763107180E+02  0.92530329442E+02  0.47000000000E+01 0. -1.
<mgrwt>
<rscale>  0 0.12826690E+03</rscale>
<asrwt>0</asrwt>
<pdfrwt beam="1">  1        5 0.43324409E-01 0.12826768E+03</pdfrwt>
<pdfrwt beam="2">  1       -5 0.94853369E-02 0.12826768E+03</pdfrwt>
<totfact> 0.31967656E+02</totfact>
</mgrwt>
</event>
