<event>
 8    1  0.3588496E-007  0.1513265E+03  0.7546771E-02  0.1198856E+00
         -5   -1    0    0    0  501 -0.00000000000E+00  0.00000000000E+00  0.58412588870E+03  0.58414479699E+03  0.47000000000E+01 0.  1.
          5   -1    0    0  501    0  0.00000000000E+00 -0.00000000000E+00 -0.41940991004E+02  0.42203515570E+02  0.47000000000E+01 0.  1.
         25    2    1    2    0    0 -0.21530907391E+02 -0.82526908509E+02  0.35316257606E+03  0.38421376242E+03  0.12498855748E+03 0.  0.
         25    2    1    2    0    0  0.21530907391E+02  0.82526908509E+02  0.18902232163E+03  0.24213455014E+03  0.12500172676E+03 0.  0.
          5    1    3    3  502    0 -0.28632259476E+02 -0.11455523906E+03  0.27504844896E+03  0.29936006472E+03  0.47000000000E+01 0. -1.
         -5    1    3    3    0  502  0.71013520847E+01  0.32028330548E+02  0.78114127107E+02  0.84853697696E+02  0.47000000000E+01 0. -1.
          5    1    4    4  503    0  0.39946602816E+02  0.81272205406E+02  0.20039020353E+03  0.21995278157E+03  0.47000000000E+01 0.  1.
         -5    1    4    4    0  503 -0.18415695425E+02  0.12547031029E+01 -0.11367881901E+02  0.22181768568E+02  0.47000000000E+01 0.  1.
<mgrwt>
<rscale>  0 0.15132376E+03</rscale>
<asrwt>0</asrwt>
<pdfrwt beam="2">  1        5 0.64741095E-02 0.15132648E+03</pdfrwt>
<pdfrwt beam="1">  1       -5 0.89887161E-01 0.15132648E+03</pdfrwt>
<totfact> 0.12953337E+02</totfact>
</mgrwt>
</event>
<event>
 8    1  0.3588496E-007  0.1285936E+03  0.7546771E-02  0.1229567E+00
          5   -1    0    0  501    0  0.00000000000E+00  0.00000000000E+00  0.10813053760E+04  0.10813155905E+04  0.47000000000E+01 0.  1.
         -5   -1    0    0    0  501 -0.00000000000E+00 -0.00000000000E+00 -0.19845094281E+02  0.20394062053E+02  0.47000000000E+01 0.  1.
         25    2    1    2    0    0  0.24274422258E+02  0.17816332677E+02  0.26066251446E+03  0.29065659136E+03  0.12501855210E+03 0.  0.
         25    2    1    2    0    0 -0.24274422258E+02 -0.17816332677E+02  0.80079776727E+03  0.81105306116E+03  0.12499333849E+03 0.  0.
          5    1    3    3  502    0 -0.69798868885E+01 -0.39254477989E+02  0.27809509984E+02  0.48837400716E+02  0.47000000000E+01 0. -1.
         -5    1    3    3    0  502  0.31254309147E+02  0.57070810665E+02  0.23285300447E+03  0.24181919064E+03  0.47000000000E+01 0. -1.
          5    1    4    4  503    0 -0.40508571073E+02  0.38518620500E+02  0.21097965703E+03  0.21830972066E+03  0.47000000000E+01 0. -1.
         -5    1    4    4    0  503  0.16234148815E+02 -0.56334953176E+02  0.58981811024E+03  0.59274334050E+03  0.47000000000E+01 0. -1.
<mgrwt>
<rscale>  0 0.12858745E+03</rscale>
<asrwt>0</asrwt>
<pdfrwt beam="1">  1        5 0.16639770E+00 0.12859358E+03</pdfrwt>
<pdfrwt beam="2">  1       -5 0.30961053E-02 0.12859358E+03</pdfrwt>
<totfact> 0.85180194E+01</totfact>
</mgrwt>
</event>
<event>
 8    1  0.3588496E-007  0.1684549E+03  0.7546771E-02  0.1179469E+00
          5   -1    0    0  501    0  0.00000000000E+00  0.00000000000E+00  0.16595210132E+03  0.16601864333E+03  0.47000000000E+01 0. -1.
         -5   -1    0    0    0  501 -0.00000000000E+00 -0.00000000000E+00 -0.26866209013E+03  0.26870319811E+03  0.47000000000E+01 0. -1.
         25    2    1    2    0    0 -0.21480791525E+02  0.11086395613E+03 -0.18246950197E+03  0.24833884589E+03  0.12499928823E+03 0.  0.
         25    2    1    2    0    0  0.21480791525E+02 -0.11086395613E+03  0.79759513164E+02  0.18638299554E+03  0.12499919965E+03 0.  0.
          5    1    3    3  502    0 -0.39348250715E+02  0.41910350342E+02 -0.16507874276E+03  0.17486521556E+03  0.47000000000E+01 0. -1.
         -5    1    3    3    0  502  0.17867459190E+02  0.68953605785E+02 -0.17390759209E+02  0.73473630334E+02  0.47000000000E+01 0. -1.
          5    1    4    4  503    0 -0.12275580830E+02 -0.12702252002E+03  0.45909437556E+02  0.13570253105E+03  0.47000000000E+01 0.  1.
         -5    1    4    4    0  503  0.33756372356E+02  0.16158563895E+02  0.33850075607E+02  0.50680464485E+02  0.47000000000E+01 0.  1.
<mgrwt>
<rscale>  0 0.16845491E+03</rscale>
<asrwt>0</asrwt>
<pdfrwt beam="1">  1        5 0.25539373E-01 0.16845493E+03</pdfrwt>
<pdfrwt beam="2">  1       -5 0.41340910E-01 0.16845493E+03</pdfrwt>
<totfact> 0.63209427E+01</totfact>
</mgrwt>
</event>
<event>
 8    1  0.3588496E-007  0.2053003E+03  0.7546771E-02  0.1145345E+00
         -5   -1    0    0    0  501 -0.00000000000E+00  0.00000000000E+00  0.20867990942E+03  0.20873283066E+03  0.47000000000E+01 0.  1.
          5   -1    0    0  501    0  0.00000000000E+00 -0.00000000000E+00 -0.21940369856E+03  0.21945403378E+03  0.47000000000E+01 0.  1.
         25    2    1    2    0    0 -0.16015150639E+03 -0.29516350796E+02  0.55163896070E+02  0.21258235966E+03  0.12501393621E+03 0.  0.
         25    2    1    2    0    0  0.16015150639E+03  0.29516350796E+02 -0.65887685219E+02  0.21560450478E+03  0.12499758180E+03 0.  0.
          5    1    3    3  502    0  0.11478886715E+02  0.17417953407E+02  0.23537711223E+02  0.31800374066E+02  0.47000000000E+01 0.  1.
         -5    1    3    3    0  502 -0.17163039310E+03 -0.46934304203E+02  0.31626184847E+02  0.18078198559E+03  0.47000000000E+01 0.  1.
          5    1    4    4  503    0  0.40766131092E+02 -0.30046136964E+02 -0.64442870633E+02  0.82095196974E+02  0.47000000000E+01 0.  1.
         -5    1    4    4    0  503  0.11938537529E+03  0.59562487760E+02 -0.14448145852E+01  0.13350930781E+03  0.47000000000E+01 0.  1.
<mgrwt>
<rscale>  0 0.20529779E+03</rscale>
<asrwt>0</asrwt>
<pdfrwt beam="2">  1        5 0.33762358E-01 0.20530028E+03</pdfrwt>
<pdfrwt beam="1">  1       -5 0.32112544E-01 0.20530028E+03</pdfrwt>
<totfact> 0.64345276E+01</totfact>
</mgrwt>
</event>
<event>
 8    1  0.3588496E-007  0.1526919E+03  0.7546771E-02  0.1197210E+00
          5   -1    0    0  501    0  0.00000000000E+00  0.00000000000E+00  0.25491135921E+02  0.25920802660E+02  0.47000000000E+01 0.  1.
         -5   -1    0    0    0  501 -0.00000000000E+00 -0.00000000000E+00 -0.10050693564E+04  0.10050803456E+04  0.47000000000E+01 0.  1.
         25    2    1    2    0    0 -0.64164486646E+02  0.59751802641E+02 -0.65122713770E+03  0.66888343355E+03  0.12498361306E+03 0.  0.
         25    2    1    2    0    0  0.64164486646E+02 -0.59751802641E+02 -0.32835108278E+03  0.36211771474E+03  0.12500978563E+03 0.  0.
          5    1    3    3  502    0 -0.47357877118E+02 -0.26786653114E+02 -0.37327261652E+03  0.37724637778E+03  0.47000000000E+01 0. -1.
         -5    1    3    3    0  502 -0.16806609528E+02  0.86538455755E+02 -0.27795452119E+03  0.29163705577E+03  0.47000000000E+01 0. -1.
          5    1    4    4  503    0  0.82945189076E+02 -0.19137809185E+02 -0.10994960542E+03  0.13913003221E+03  0.47000000000E+01 0.  1.
         -5    1    4    4    0  503 -0.18780702430E+02 -0.40613993456E+02 -0.21840147736E+03  0.22298768254E+03  0.47000000000E+01 0.  1.
<mgrwt>
<rscale>  0 0.15268651E+03</rscale>
<asrwt>0</asrwt>
<pdfrwt beam="1">  1        5 0.39556106E-02 0.15269187E+03</pdfrwt>
<pdfrwt beam="2">  1       -5 0.15465992E+00 0.15269187E+03</pdfrwt>
<totfact> 0.73924619E+01</totfact>
</mgrwt>
</event>
<event>
 8    1  0.3588496E-007  0.1289924E+03  0.7546771E-02  0.1228960E+00
         -5   -1    0    0    0  501 -0.00000000000E+00  0.00000000000E+00  0.11394467639E+03  0.11404156820E+03  0.47000000000E+01 0. -1.
          5   -1    0    0  501    0  0.00000000000E+00 -0.00000000000E+00 -0.18501089828E+03  0.18507058783E+03  0.47000000000E+01 0. -1.
         25    2    1    2    0    0 -0.19408592774E+01  0.31762060304E+02  0.33263705815E+02  0.13320922271E+03  0.12500250990E+03 0.  0.
         25    2    1    2    0    0  0.19408592774E+01 -0.31762060304E+02 -0.10432992770E+03  0.16590293332E+03  0.12500581611E+03 0.  0.
          5    1    4    4  502    0  0.60407605046E+02 -0.17532048763E+02 -0.77303119631E+02  0.99771307429E+02  0.47000000000E+01 0.  1.
         -5    1    4    4    0  502 -0.58466745769E+02 -0.14230011541E+02 -0.27026808069E+02  0.66131625896E+02  0.47000000000E+01 0.  1.
          5    1    3    3  503    0 -0.53732492316E+01  0.17971956114E+02  0.80950666677E+02  0.83228381273E+02  0.47000000000E+01 0. -1.
         -5    1    3    3    0  503  0.34323899542E+01  0.13790104190E+02 -0.47686960863E+02  0.49980841437E+02  0.47000000000E+01 0. -1.
<mgrwt>
<rscale>  0 0.12899164E+03</rscale>
<asrwt>0</asrwt>
<pdfrwt beam="2">  1        5 0.28475260E-01 0.12899244E+03</pdfrwt>
<pdfrwt beam="1">  1       -5 0.17541995E-01 0.12899244E+03</pdfrwt>
<totfact> 0.24815555E+02</totfact>
</mgrwt>
</event>
<event>
 8    1  0.3588496E-007  0.1431061E+03  0.7546771E-02  0.1209214E+00
          5   -1    0    0  501    0  0.00000000000E+00  0.00000000000E+00  0.27888858015E+03  0.27892818097E+03  0.47000000000E+01 0.  1.
         -5   -1    0    0    0  501 -0.00000000000E+00 -0.00000000000E+00 -0.10823280984E+03  0.10833481031E+03  0.47000000000E+01 0.  1.
         25    2    1    2    0    0 -0.62908551818E+02 -0.29964715640E+02 -0.24582208291E+02  0.14520204159E+03  0.12499591130E+03 0.  0.
         25    2    1    2    0    0  0.62908551818E+02  0.29964715640E+02  0.19523797861E+03  0.24206094969E+03  0.12498105857E+03 0.  0.
          5    1    3    3  502    0 -0.36988435062E+02 -0.59498685272E+02  0.31176448492E+02  0.76826420052E+02  0.47000000000E+01 0.  1.
         -5    1    3    3    0  502 -0.25920116756E+02  0.29533969632E+02 -0.55758656783E+02  0.68375621540E+02  0.47000000000E+01 0.  1.
          5    1    4    4  503    0  0.78671779940E+02 -0.95408233238E+01  0.17983825676E+03  0.19658119153E+03  0.47000000000E+01 0. -1.
         -5    1    4    4    0  503 -0.15763228122E+02  0.39505538964E+02  0.15399721849E+02  0.45479758164E+02  0.47000000000E+01 0. -1.
<mgrwt>
<rscale>  0 0.14310283E+03</rscale>
<asrwt>0</asrwt>
<pdfrwt beam="1">  1        5 0.42916827E-01 0.14310607E+03</pdfrwt>
<pdfrwt beam="2">  1       -5 0.16662094E-01 0.14310607E+03</pdfrwt>
<totfact> 0.12408116E+02</totfact>
</mgrwt>
</event>
<event>
 8    1  0.3588496E-007  0.1909719E+03  0.7546771E-02  0.1157590E+00
          5   -1    0    0  501    0  0.00000000000E+00  0.00000000000E+00  0.14181286869E+03  0.14189073164E+03  0.47000000000E+01 0.  1.
         -5   -1    0    0    0  501 -0.00000000000E+00 -0.00000000000E+00 -0.32277359625E+03  0.32280781347E+03  0.47000000000E+01 0.  1.
         25    2    1    2    0    0 -0.51130262008E+02  0.13502453598E+03 -0.19535368692E+03  0.27318500990E+03  0.12498422954E+03 0.  0.
         25    2    1    2    0    0  0.51130262008E+02 -0.13502453598E+03  0.14392959358E+02  0.19151353520E+03  0.12499739148E+03 0.  0.
          5    1    3    3  502    0 -0.60103233179E+02  0.84091375998E+01 -0.41491291626E+02  0.73666339087E+02  0.47000000000E+01 0.  1.
         -5    1    3    3    0  502  0.89729711707E+01  0.12661539838E+03 -0.15386239530E+03  0.19951867082E+03  0.47000000000E+01 0.  1.
          5    1    4    4  503    0  0.51420109910E+02 -0.74144480695E+01 -0.25045530230E+02  0.57865104578E+02  0.47000000000E+01 0.  1.
         -5    1    4    4    0  503 -0.28984790114E+00 -0.12761008791E+03  0.39438489588E+02  0.13364843063E+03  0.47000000000E+01 0.  1.
<mgrwt>
<rscale>  0 0.19096977E+03</rscale>
<asrwt>0</asrwt>
<pdfrwt beam="1">  1        5 0.21825986E-01 0.19097193E+03</pdfrwt>
<pdfrwt beam="2">  1       -5 0.49666098E-01 0.19097193E+03</pdfrwt>
<totfact> 0.60199688E+01</totfact>
</mgrwt>
</event>
<event>
 8    1  0.3588496E-007  0.2027260E+03  0.7546771E-02  0.1147460E+00
         -5   -1    0    0    0  501 -0.00000000000E+00  0.00000000000E+00  0.59561574678E+03  0.59563429033E+03  0.47000000000E+01 0. -1.
          5   -1    0    0  501    0  0.00000000000E+00 -0.00000000000E+00 -0.71426786402E+02  0.71581253242E+02  0.47000000000E+01 0. -1.
         25    2    1    2    0    0  0.97961912121E+02  0.12600125920E+03  0.32477703026E+03  0.38285497760E+03  0.12499984377E+03 0.  0.
         25    2    1    2    0    0 -0.97961912121E+02 -0.12600125920E+03  0.19941193012E+03  0.28436056597E+03  0.12499183997E+03 0.  0.
          5    1    4    4  502    0 -0.88875591732E+02 -0.33451815305E+02  0.47749318284E+02  0.10639540474E+03  0.47000000000E+01 0. -1.
         -5    1    4    4    0  502 -0.90863203896E+01 -0.92549443894E+02  0.15166261183E+03  0.17796516123E+03  0.47000000000E+01 0. -1.
          5    1    3    3  503    0  0.43735929621E+02  0.12555438963E+03  0.15345578799E+03  0.20309481816E+03  0.47000000000E+01 0.  1.
         -5    1    3    3    0  503  0.54225982500E+02  0.44686957242E+00  0.17132124227E+03  0.17976015944E+03  0.47000000000E+01 0.  1.
<mgrwt>
<rscale>  0 0.20272473E+03</rscale>
<asrwt>0</asrwt>
<pdfrwt beam="2">  1        5 0.11002045E-01 0.20272596E+03</pdfrwt>
<pdfrwt beam="1">  1       -5 0.91646498E-01 0.20272596E+03</pdfrwt>
<totfact> 0.53730211E+01</totfact>
</mgrwt>
</event>
<event>
 8    1  0.3588496E-007  0.1875803E+03  0.7546771E-02  0.1160663E+00
          5   -1    0    0  501    0  0.00000000000E+00  0.00000000000E+00  0.17878071714E+03  0.17884248606E+03  0.47000000000E+01 0.  1.
         -5   -1    0    0    0  501 -0.00000000000E+00 -0.00000000000E+00 -0.19730632520E+03  0.19736229620E+03  0.47000000000E+01 0.  1.
         25    2    1    2    0    0 -0.48510441724E+02  0.13117748676E+03 -0.19801386138E+02  0.18862251711E+03  0.12500225230E+03 0.  0.
         25    2    1    2    0    0  0.48510441724E+02 -0.13117748676E+03  0.12757780803E+01  0.18758226515E+03  0.12499873040E+03 0.  0.
          5    1    3    3  502    0 -0.79234235526E+02  0.13070829075E+03 -0.22761953809E+01  0.15293787109E+03  0.47000000000E+01 0. -1.
         -5    1    3    3    0  502  0.30723793802E+02  0.46919601324E+00 -0.17525190757E+02  0.35684646019E+02  0.47000000000E+01 0. -1.
          5    1    4    4  503    0 -0.67583330687E+00 -0.10254572325E+03 -0.46906861578E+02  0.11286463472E+03  0.47000000000E+01 0. -1.
         -5    1    4    4    0  503  0.49186275031E+02 -0.28631763505E+02  0.48182639658E+02  0.74717630431E+02  0.47000000000E+01 0. -1.
<mgrwt>
<rscale>  0 0.18757969E+03</rscale>
<asrwt>0</asrwt>
<pdfrwt beam="1">  1        5 0.27513782E-01 0.18758027E+03</pdfrwt>
<pdfrwt beam="2">  1       -5 0.30363876E-01 0.18758027E+03</pdfrwt>
<totfact> 0.10520574E+02</totfact>
</mgrwt>
</event>
<event>
 8    1  0.3588496E-007  0.1614840E+03  0.7546771E-02  0.1187033E+00
         -5   -1    0    0    0  501 -0.00000000000E+00  0.00000000000E+00  0.26228790944E+03  0.26233001628E+03  0.47000000000E+01 0. -1.
          5   -1    0    0  501    0  0.00000000000E+00 -0.00000000000E+00 -0.12411431687E+03  0.12420327553E+03  0.47000000000E+01 0. -1.
         25    2    1    2    0    0 -0.98608091359E+02  0.26996634955E+02  0.15543263268E+03  0.22412956138E+03  0.12498953157E+03 0.  0.
         25    2    1    2    0    0  0.98608091359E+02 -0.26996634955E+02 -0.17259040109E+02  0.16240373042E+03  0.12499889283E+03 0.  0.
          5    1    3    3  502    0 -0.16684898530E+01  0.74635687869E+01  0.11792000708E+03  0.11826118039E+03  0.47000000000E+01 0.  1.
         -5    1    3    3    0  502 -0.96939601506E+02  0.19533066168E+02  0.37512625598E+02  0.10586838099E+03  0.47000000000E+01 0.  1.
          5    1    4    4  503    0  0.12336758763E+03 -0.18327636390E+02 -0.35911707397E+02  0.12987380283E+03  0.47000000000E+01 0.  1.
         -5    1    4    4    0  503 -0.24759496275E+02 -0.86689985649E+01  0.18652667287E+02  0.32529927588E+02  0.47000000000E+01 0.  1.
<mgrwt>
<rscale>  0 0.16148223E+03</rscale>
<asrwt>0</asrwt>
<pdfrwt beam="2">  1        5 0.19104592E-01 0.16148405E+03</pdfrwt>
<pdfrwt beam="1">  1       -5 0.40362068E-01 0.16148405E+03</pdfrwt>
<totfact> 0.11367690E+02</totfact>
</mgrwt>
</event>
<event>
 8    1  0.3588496E-007  0.1306336E+03  0.7546771E-02  0.1226520E+00
          5   -1    0    0  501    0  0.00000000000E+00  0.00000000000E+00  0.23955877087E+03  0.23960487203E+03  0.47000000000E+01 0. -1.
         -5   -1    0    0    0  501 -0.00000000000E+00 -0.00000000000E+00 -0.83583425502E+02  0.83715464633E+02  0.47000000000E+01 0. -1.
         25    2    1    2    0    0 -0.29149571648E+02  0.24295010763E+02  0.15590956369E+02  0.13156071835E+03  0.12500079847E+03 0.  0.
         25    2    1    2    0    0  0.29149571648E+02 -0.24295010763E+02  0.14038438900E+03  0.19175961831E+03  0.12499611780E+03 0.  0.
          5    1    3    3  502    0 -0.18661774455E+02  0.73755337338E+02  0.24377921665E+02  0.80028024319E+02  0.47000000000E+01 0. -1.
         -5    1    3    3    0  502 -0.10487797193E+02 -0.49460326576E+02 -0.87869652964E+01  0.51532694031E+02  0.47000000000E+01 0. -1.
          5    1    4    4  503    0  0.70033330025E+02 -0.30319700621E+02  0.47563216134E+02  0.90046105352E+02  0.47000000000E+01 0.  1.
         -5    1    4    4    0  503 -0.40883758376E+02  0.60246898584E+01  0.92821172865E+02  0.10171351296E+03  0.47000000000E+01 0.  1.
<mgrwt>
<rscale>  0 0.13063251E+03</rscale>
<asrwt>0</asrwt>
<pdfrwt beam="1">  1        5 0.36868898E-01 0.13063363E+03</pdfrwt>
<pdfrwt beam="2">  1       -5 0.12872692E-01 0.13063363E+03</pdfrwt>
<totfact> 0.26156101E+02</totfact>
</mgrwt>
</event>
<event>
 8    1  0.3588496E-007  0.1361199E+03  0.7546771E-02  0.1218648E+00
         -5   -1    0    0    0  501 -0.00000000000E+00  0.00000000000E+00  0.22091580330E+02  0.22586011633E+02  0.47000000000E+01 0. -1.
          5   -1    0    0  501    0  0.00000000000E+00 -0.00000000000E+00 -0.82895961120E+03  0.82897293502E+03  0.47000000000E+01 0. -1.
         25    2    1    2    0    0  0.46574982248E+02 -0.27100752868E+02 -0.40082116589E+03  0.42330355371E+03  0.12499844711E+03 0.  0.
         25    2    1    2    0    0 -0.46574982248E+02  0.27100752868E+02 -0.40604686498E+03  0.42825539294E+03  0.12499978100E+03 0.  0.
          5    1    4    4  502    0 -0.77247577508E+02  0.51894974932E+01 -0.36142444142E+03  0.36965367030E+03  0.47000000000E+01 0. -1.
         -5    1    4    4    0  502  0.30672595259E+02  0.21911255375E+02 -0.44622423560E+02  0.58601722640E+02  0.47000000000E+01 0. -1.
          5    1    3    3  503    0  0.26165574326E+02  0.19588909171E+02 -0.19059621673E+02  0.38127704109E+02  0.47000000000E+01 0. -1.
         -5    1    3    3    0  503  0.20409407923E+02 -0.46689662039E+02 -0.38176154422E+03  0.38517584960E+03  0.47000000000E+01 0. -1.
<mgrwt>
<rscale>  0 0.13611959E+03</rscale>
<asrwt>0</asrwt>
<pdfrwt beam="2">  1        5 0.12757128E+00 0.13611989E+03</pdfrwt>
<pdfrwt beam="1">  1       -5 0.34377634E-02 0.13611989E+03</pdfrwt>
<totfact> 0.15014829E+02</totfact>
</mgrwt>
</event>
<event>
 8    1  0.3588496E-007  0.1285042E+03  0.7546771E-02  0.1229695E+00
         -5   -1    0    0    0  501 -0.00000000000E+00  0.00000000000E+00  0.49265520636E+02  0.49489206132E+02  0.47000000000E+01 0.  1.
          5   -1    0    0  501    0  0.00000000000E+00 -0.00000000000E+00 -0.33738633281E+03  0.33741906818E+03  0.47000000000E+01 0.  1.
         25    2    1    2    0    0  0.24175266059E+02  0.17415233226E+02 -0.12519832730E+03  0.17940998196E+03  0.12500234650E+03 0.  0.
         25    2    1    2    0    0 -0.24175266059E+02 -0.17415233226E+02 -0.16292248488E+03  0.20749829235E+03  0.12499628559E+03 0.  0.
          5    1    3    3  502    0  0.65191127895E+02  0.44143216761E+02 -0.69694491430E+02  0.10525169299E+03  0.47000000000E+01 0. -1.
         -5    1    3    3    0  502 -0.41015861836E+02 -0.26727983535E+02 -0.55503835868E+02  0.74158288964E+02  0.47000000000E+01 0. -1.
          5    1    4    4  503    0 -0.30379544035E+02  0.32372218984E+02 -0.90052722518E+01  0.45541872887E+02  0.47000000000E+01 0.  1.
         -5    1    4    4    0  503  0.62042779759E+01 -0.49787452210E+02 -0.15391721263E+03  0.16195641946E+03  0.47000000000E+01 0.  1.
<mgrwt>
<rscale>  0 0.12850269E+03</rscale>
<asrwt>0</asrwt>
<pdfrwt beam="2">  1        5 0.51925313E-01 0.12850417E+03</pdfrwt>
<pdfrwt beam="1">  1       -5 0.75990357E-02 0.12850417E+03</pdfrwt>
<totfact> 0.32034935E+02</totfact>
</mgrwt>
</event>
<event>
 8    1  0.3588496E-007  0.1482668E+03  0.7546771E-02  0.1202620E+00
         -5   -1    0    0    0  501 -0.00000000000E+00  0.00000000000E+00  0.26024205051E+03  0.26028448831E+03  0.47000000000E+01 0. -1.
          5   -1    0    0  501    0  0.00000000000E+00 -0.00000000000E+00 -0.85781667981E+02  0.85910328608E+02  0.47000000000E+01 0. -1.
         25    2    1    2    0    0 -0.56448733015E+02  0.56306282144E+02  0.10953475713E+03  0.18433908948E+03  0.12500472001E+03 0.  0.
         25    2    1    2    0    0  0.56448733015E+02 -0.56306282144E+02  0.64925625404E+02  0.16185572744E+03  0.12500033121E+03 0.  0.
          5    1    3    3  502    0 -0.38448966408E+01 -0.68066722816E+01  0.10121413163E+03  0.10162433006E+03  0.47000000000E+01 0.  1.
         -5    1    3    3    0  502 -0.52603836374E+02  0.63112954425E+02  0.83206254941E+01  0.82714759421E+02  0.47000000000E+01 0.  1.
          5    1    4    4  503    0  0.96328115041E+02 -0.33684343086E+02  0.43568727152E+02  0.11105883442E+03  0.47000000000E+01 0.  1.
         -5    1    4    4    0  503 -0.39879382026E+02 -0.22621939058E+02  0.21356898251E+02  0.50796893019E+02  0.47000000000E+01 0.  1.
<mgrwt>
<rscale>  0 0.14826585E+03</rscale>
<asrwt>0</asrwt>
<pdfrwt beam="2">  1        5 0.13210341E-01 0.14826678E+03</pdfrwt>
<pdfrwt beam="1">  1       -5 0.40050401E-01 0.14826678E+03</pdfrwt>
<totfact> 0.22033041E+02</totfact>
</mgrwt>
</event>
<event>
 8    1  0.3588496E-007  0.1382958E+03  0.7546771E-02  0.1215641E+00
          5   -1    0    0  501    0  0.00000000000E+00  0.00000000000E+00  0.88481635335E+02  0.88606375570E+02  0.47000000000E+01 0. -1.
         -5   -1    0    0    0  501 -0.00000000000E+00 -0.00000000000E+00 -0.21610284713E+03  0.21615395101E+03  0.47000000000E+01 0. -1.
         25    2    1    2    0    0 -0.55132109232E+02 -0.21483939600E+02 -0.58617497648E+02  0.15020532525E+03  0.12499807828E+03 0.  0.
         25    2    1    2    0    0  0.55132109232E+02  0.21483939600E+02 -0.69003714147E+02  0.15455500133E+03  0.12499850695E+03 0.  0.
          5    1    3    3  502    0  0.43065181314E+01 -0.52566489982E+02  0.10273893159E+02  0.53939084606E+02  0.47000000000E+01 0. -1.
         -5    1    3    3    0  502 -0.59438627363E+02  0.31082550382E+02 -0.68891390807E+02  0.96266240647E+02  0.47000000000E+01 0. -1.
          5    1    4    4  503    0 -0.40335313304E+02  0.34255406178E+01 -0.24828652679E+02  0.47720266363E+02  0.47000000000E+01 0. -1.
         -5    1    4    4    0  503  0.95467422536E+02  0.18058398983E+02 -0.44175061468E+02  0.10683473497E+03  0.47000000000E+01 0. -1.
<mgrwt>
<rscale>  0 0.13829573E+03</rscale>
<asrwt>0</asrwt>
<pdfrwt beam="1">  1        5 0.13626086E-01 0.13829583E+03</pdfrwt>
<pdfrwt beam="2">  1       -5 0.33260118E-01 0.13829583E+03</pdfrwt>
<totfact> 0.29624343E+02</totfact>
</mgrwt>
</event>
<event>
 8    1  0.3588496E-007  0.1644849E+03  0.7546771E-02  0.1183726E+00
         -5   -1    0    0    0  501 -0.00000000000E+00  0.00000000000E+00  0.10956376705E+03  0.10966452959E+03  0.47000000000E+01 0.  1.
          5   -1    0    0  501    0  0.00000000000E+00 -0.00000000000E+00 -0.25191828590E+03  0.25196212567E+03  0.47000000000E+01 0.  1.
         25    2    1    2    0    0  0.92586340343E+02  0.53439046702E+02 -0.45134977148E+02  0.17055879039E+03  0.12500069074E+03 0.  0.
         25    2    1    2    0    0 -0.92586340343E+02 -0.53439046702E+02 -0.97219541701E+02  0.19106786488E+03  0.12500930993E+03 0.  0.
          5    1    4    4  502    0 -0.36082851739E+02 -0.54637345177E+02 -0.11432643658E+03  0.13183260514E+03  0.47000000000E+01 0.  1.
         -5    1    4    4    0  502 -0.56503488604E+02  0.11982984749E+01  0.17106894876E+02  0.59235259736E+02  0.47000000000E+01 0.  1.
          5    1    3    3  503    0  0.11527290508E+03  0.70947422726E+02 -0.37014306859E+02  0.14040487296E+03  0.47000000000E+01 0. -1.
         -5    1    3    3    0  503 -0.22686564739E+02 -0.17508376024E+02 -0.81206702883E+01  0.30153917433E+02  0.47000000000E+01 0. -1.
<mgrwt>
<rscale>  0 0.16448328E+03</rscale>
<asrwt>0</asrwt>
<pdfrwt beam="2">  1        5 0.38767783E-01 0.16448492E+03</pdfrwt>
<pdfrwt beam="1">  1       -5 0.16867087E-01 0.16448492E+03</pdfrwt>
<totfact> 0.15630694E+02</totfact>
</mgrwt>
</event>
<event>
 8    1  0.3588496E-007  0.1381983E+03  0.7546771E-02  0.1215798E+00
          5   -1    0    0  501    0  0.00000000000E+00  0.00000000000E+00  0.26259905585E+02  0.26677193281E+02  0.47000000000E+01 0.  1.
         -5   -1    0    0    0  501 -0.00000000000E+00 -0.00000000000E+00 -0.81982105571E+03  0.81983452806E+03  0.47000000000E+01 0.  1.
         25    2    1    2    0    0 -0.33995007506E+02  0.48137027545E+02 -0.54376874644E+03  0.56103838200E+03  0.12492710881E+03 0.  0.
         25    2    1    2    0    0  0.33995007506E+02 -0.48137027545E+02 -0.24979240369E+03  0.28547333933E+03  0.12500379424E+03 0.  0.
          5    1    4    4  502    0 -0.31878976257E+01 -0.79018172909E+01  0.13421132479E+02  0.16577641714E+02  0.47000000000E+01 0. -1.
         -5    1    4    4    0  502  0.37182905132E+02 -0.40235210254E+02 -0.26321353617E+03  0.26889569762E+03  0.47000000000E+01 0. -1.
          5    1    3    3  503    0  0.28105501857E+02  0.52064101142E+02 -0.13414338482E+03  0.14668717584E+03  0.47000000000E+01 0. -1.
         -5    1    3    3    0  503 -0.62100509363E+02 -0.39270735972E+01 -0.40962536162E+03  0.41435120617E+03  0.47000000000E+01 0. -1.
<mgrwt>
<rscale>  0 0.13818100E+03</rscale>
<asrwt>0</asrwt>
<pdfrwt beam="1">  1        5 0.40731215E-02 0.13819834E+03</pdfrwt>
<pdfrwt beam="2">  1       -5 0.12615943E+00 0.13819834E+03</pdfrwt>
<totfact> 0.11770877E+02</totfact>
</mgrwt>
</event>
<event>
 8    1  0.3588496E-007  0.1410627E+03  0.7546771E-02  0.1211909E+00
          5   -1    0    0  501    0  0.00000000000E+00  0.00000000000E+00  0.16854488139E+03  0.16861040016E+03  0.47000000000E+01 0.  1.
         -5   -1    0    0    0  501 -0.00000000000E+00 -0.00000000000E+00 -0.15860116566E+03  0.15867079047E+03  0.47000000000E+01 0.  1.
         25    2    1    2    0    0 -0.46838839144E+02 -0.45597991767E+02 -0.77866822261E+02  0.16112701072E+03  0.12500247145E+03 0.  0.
         25    2    1    2    0    0  0.46838839144E+02  0.45597991767E+02  0.87810537993E+02  0.16615417990E+03  0.12499386869E+03 0.  0.
          5    1    3    3  502    0 -0.47877180081E+02 -0.40761856666E+02 -0.11080497808E+03  0.12748955447E+03  0.47000000000E+01 0. -1.
         -5    1    3    3    0  502  0.10383409369E+01 -0.48361351007E+01  0.32938155818E+02  0.33637456255E+02  0.47000000000E+01 0. -1.
          5    1    4    4  503    0  0.89475393164E+02  0.36144832469E+02  0.66833325063E+02  0.11747799043E+03  0.47000000000E+01 0.  1.
         -5    1    4    4    0  503 -0.42636554020E+02  0.94531592977E+01  0.20977212930E+02  0.48676189474E+02  0.47000000000E+01 0.  1.
<mgrwt>
<rscale>  0 0.14106075E+03</rscale>
<asrwt>0</asrwt>
<pdfrwt beam="1">  1        5 0.25940377E-01 0.14106265E+03</pdfrwt>
<pdfrwt beam="2">  1       -5 0.24410575E-01 0.14106265E+03</pdfrwt>
<totfact> 0.16504010E+02</totfact>
</mgrwt>
</event>
<event>
 8    1  0.3588496E-007  0.1384841E+03  0.7546771E-02  0.1215384E+00
          5   -1    0    0  501    0  0.00000000000E+00  0.00000000000E+00  0.14005262869E+03  0.14013146971E+03  0.47000000000E+01 0. -1.
         -5   -1    0    0    0  501 -0.00000000000E+00 -0.00000000000E+00 -0.14120949563E+03  0.14128769110E+03  0.47000000000E+01 0. -1.
         25    2    1    2    0    0  0.23288532059E+02 -0.54868539939E+02 -0.25500375047E+02  0.14081230638E+03  0.12499969640E+03 0.  0.
         25    2    1    2    0    0 -0.23288532059E+02  0.54868539939E+02  0.24343508105E+02  0.14060685443E+03  0.12499907490E+03 0.  0.
          5    1    3    3  502    0  0.83598042989E+01 -0.39806566076E+02  0.48625916751E+02  0.63569008255E+02  0.47000000000E+01 0.  1.
         -5    1    3    3    0  502  0.14928727760E+02 -0.15061973863E+02 -0.74126291797E+02  0.77243298122E+02  0.47000000000E+01 0.  1.
          5    1    4    4  503    0 -0.25380946451E+02  0.93775733554E+02  0.27939004901E+02  0.10119663355E+03  0.47000000000E+01 0.  1.
         -5    1    4    4    0  503  0.20924143922E+01 -0.38907193615E+02 -0.35954967965E+01  0.39410220885E+02  0.47000000000E+01 0.  1.
<mgrwt>
<rscale>  0 0.13848393E+03</rscale>
<asrwt>0</asrwt>
<pdfrwt beam="1">  1        5 0.21558638E-01 0.13848407E+03</pdfrwt>
<pdfrwt beam="2">  1       -5 0.21736617E-01 0.13848407E+03</pdfrwt>
<totfact> 0.29073336E+02</totfact>
</mgrwt>
</event>
<event>
 8    1  0.3588496E-007  0.1260330E+03  0.7546771E-02  0.1233478E+00
          5   -1    0    0  501    0  0.00000000000E+00  0.00000000000E+00  0.31604697589E+02  0.31952259852E+02  0.47000000000E+01 0. -1.
         -5   -1    0    0    0  501 -0.00000000000E+00 -0.00000000000E+00 -0.58084552449E+03  0.58086453956E+03  0.47000000000E+01 0. -1.
         25    2    1    2    0    0 -0.12224594880E+02  0.10001506178E+02 -0.38939465611E+03  0.40928291523E+03  0.12503933640E+03 0.  0.
         25    2    1    2    0    0  0.12224594880E+02 -0.10001506178E+02 -0.15984617079E+03  0.20353388419E+03  0.12500309136E+03 0.  0.
          5    1    4    4  502    0  0.40411282406E+01  0.21345384211E+02 -0.16826931170E+03  0.16973098540E+03  0.47000000000E+01 0. -1.
         -5    1    4    4    0  502  0.81834666392E+01 -0.31346890389E+02  0.84231409103E+01  0.33802898783E+02  0.47000000000E+01 0. -1.
          5    1    3    3  503    0  0.34781873451E+02 -0.58293798033E+01 -0.32931967515E+03  0.33123601681E+03  0.47000000000E+01 0. -1.
         -5    1    3    3    0  503 -0.47006468331E+02  0.15830885982E+02 -0.60074980955E+02  0.78046898418E+02  0.47000000000E+01 0. -1.
<mgrwt>
<rscale>  0 0.12602397E+03</rscale>
<asrwt>0</asrwt>
<pdfrwt beam="1">  1        5 0.48904599E-02 0.12603296E+03</pdfrwt>
<pdfrwt beam="2">  1       -5 0.89389040E-01 0.12603296E+03</pdfrwt>
<totfact> 0.19755504E+02</totfact>
</mgrwt>
</event>
<event>
 8    1  0.3588496E-007  0.1331630E+03  0.7546771E-02  0.1222843E+00
          5   -1    0    0  501    0  0.00000000000E+00  0.00000000000E+00  0.38504055127E+03  0.38506923549E+03  0.47000000000E+01 0.  1.
         -5   -1    0    0    0  501 -0.00000000000E+00 -0.00000000000E+00 -0.46158505026E+02  0.46397172179E+02  0.47000000000E+01 0.  1.
         25    2    1    2    0    0 -0.45075128593E+02  0.84513046314E+01  0.15321536378E+03  0.20298338388E+03  0.12499645862E+03 0.  0.
         25    2    1    2    0    0  0.45075128593E+02 -0.84513046314E+01  0.18566668247E+03  0.22848302379E+03  0.12501673254E+03 0.  0.
          5    1    3    3  502    0  0.28767591389E+02  0.13951890452E+02 -0.47616978440E+00  0.32319441505E+02  0.47000000000E+01 0. -1.
         -5    1    3    3    0  502 -0.73842719982E+02 -0.55005858206E+01  0.15369153356E+03  0.17066394237E+03  0.47000000000E+01 0. -1.
          5    1    4    4  503    0  0.81048119536E+02 -0.12671575872E+02  0.16985213563E+03  0.18868281451E+03  0.47000000000E+01 0.  1.
         -5    1    4    4    0  503 -0.35972990943E+02  0.42202712407E+01  0.15814546839E+02  0.39800209277E+02  0.47000000000E+01 0.  1.
<mgrwt>
<rscale>  0 0.13315821E+03</rscale>
<asrwt>0</asrwt>
<pdfrwt beam="1">  1        5 0.59257573E-01 0.13316296E+03</pdfrwt>
<pdfrwt beam="2">  1       -5 0.71218740E-02 0.13316296E+03</pdfrwt>
<totfact> 0.27257430E+02</totfact>
</mgrwt>
</event>
<event>
 8    1  0.3588496E-007  0.1406292E+03  0.7546771E-02  0.1212485E+00
         -5   -1    0    0    0  501 -0.00000000000E+00  0.00000000000E+00  0.50945987428E+03  0.50948155364E+03  0.47000000000E+01 0. -1.
          5   -1    0    0  501    0  0.00000000000E+00 -0.00000000000E+00 -0.47862606763E+02  0.48092817822E+02  0.47000000000E+01 0. -1.
         25    2    1    2    0    0 -0.31772018933E+00 -0.64431533688E+02  0.35273005723E+03  0.37973024111E+03  0.12500015704E+03 0.  0.
         25    2    1    2    0    0  0.31772018933E+00  0.64431533688E+02  0.10886721028E+03  0.17784413035E+03  0.12499976698E+03 0.  0.
          5    1    3    3  502    0 -0.31801608880E+02 -0.90171804082E+02  0.20193882437E+03  0.22348081655E+03  0.47000000000E+01 0.  1.
         -5    1    3    3    0  502  0.31483888691E+02  0.25740270393E+02  0.15079123286E+03  0.15624942456E+03  0.47000000000E+01 0.  1.
          5    1    4    4  503    0  0.37552930023E+02 -0.10463447007E+02  0.80210747649E+02  0.89305992604E+02  0.47000000000E+01 0.  1.
         -5    1    4    4    0  503 -0.37235209834E+02  0.74894980696E+02  0.28656462632E+02  0.88538137745E+02  0.47000000000E+01 0.  1.
<mgrwt>
<rscale>  0 0.14062908E+03</rscale>
<asrwt>0</asrwt>
<pdfrwt beam="2">  1        5 0.73828541E-02 0.14062917E+03</pdfrwt>
<pdfrwt beam="1">  1       -5 0.78397819E-01 0.14062917E+03</pdfrwt>
<totfact> 0.13939816E+02</totfact>
</mgrwt>
</event>
<event>
 8    1  0.3588496E-007  0.1812217E+03  0.7546771E-02  0.1166628E+00
         -5   -1    0    0    0  501 -0.00000000000E+00  0.00000000000E+00  0.71938140567E+02  0.72091511763E+02  0.47000000000E+01 0. -1.
          5   -1    0    0  501    0  0.00000000000E+00 -0.00000000000E+00 -0.62757826351E+03  0.62759586266E+03  0.47000000000E+01 0. -1.
         25    2    1    2    0    0  0.36793659151E+02  0.12593949694E+03 -0.94843733063E+02  0.20454003913E+03  0.12500705445E+03 0.  0.
         25    2    1    2    0    0 -0.36793659151E+02 -0.12593949694E+03 -0.46079638988E+03  0.49514733530E+03  0.12499216170E+03 0.  0.
          5    1    4    4  502    0  0.69871723972E+01  0.45442279932E+01 -0.19996076870E+03  0.20018958416E+03  0.47000000000E+01 0.  1.
         -5    1    4    4    0  502 -0.43780831548E+02 -0.13048372493E+03 -0.26083562118E+03  0.29495775114E+03  0.47000000000E+01 0.  1.
          5    1    3    3  503    0 -0.39261259509E+02  0.34861989529E+02 -0.61900243134E+02  0.81305196096E+02  0.47000000000E+01 0.  1.
         -5    1    3    3    0  503  0.76054918660E+02  0.91077507406E+02 -0.32943489929E+02  0.12323484303E+03  0.47000000000E+01 0.  1.
<mgrwt>
<rscale>  0 0.18121910E+03</rscale>
<asrwt>0</asrwt>
<pdfrwt beam="2">  1        5 0.96563650E-01 0.18122167E+03</pdfrwt>
<pdfrwt beam="1">  1       -5 0.11080558E-01 0.18122167E+03</pdfrwt>
<totfact> 0.45401955E+01</totfact>
</mgrwt>
</event>
<event>
 8    1  0.3588496E-007  0.1292209E+03  0.7546771E-02  0.1228622E+00
          5   -1    0    0  501    0  0.00000000000E+00  0.00000000000E+00  0.46540381350E+03  0.46542754497E+03  0.47000000000E+01 0. -1.
         -5   -1    0    0    0  501 -0.00000000000E+00 -0.00000000000E+00 -0.37609819932E+02  0.37902355538E+02  0.47000000000E+01 0. -1.
         25    2    1    2    0    0  0.98012964057E+01  0.31253317694E+02  0.15737781899E+03  0.20363158183E+03  0.12500083171E+03 0.  0.
         25    2    1    2    0    0 -0.98012964057E+01 -0.31253317694E+02  0.27041617457E+03  0.29969831868E+03  0.12498535702E+03 0.  0.
          5    1    3    3  502    0  0.42610890672E+02  0.35952269597E+02  0.16053663127E+03  0.17000692243E+03  0.47000000000E+01 0.  1.
         -5    1    3    3    0  502 -0.32809594266E+02 -0.46989519025E+01 -0.31588122799E+01  0.33624659402E+02  0.47000000000E+01 0.  1.
          5    1    4    4  503    0  0.52039470198E+02 -0.39911891112E+02  0.15546215561E+03  0.16879466027E+03  0.47000000000E+01 0.  1.
         -5    1    4    4    0  503 -0.61840766603E+02  0.86585734178E+01  0.11495401897E+03  0.13090365841E+03  0.47000000000E+01 0.  1.
<mgrwt>
<rscale>  0 0.12921717E+03</rscale>
<asrwt>0</asrwt>
<pdfrwt beam="1">  1        5 0.71624912E-01 0.12922091E+03</pdfrwt>
<pdfrwt beam="2">  1       -5 0.58104546E-02 0.12922091E+03</pdfrwt>
<totfact> 0.24956108E+02</totfact>
</mgrwt>
</event>
<event>
 8    1  0.3588496E-007  0.1307879E+03  0.7546771E-02  0.1226293E+00
         -5   -1    0    0    0  501 -0.00000000000E+00  0.00000000000E+00  0.82402567551E+02  0.82536495800E+02  0.47000000000E+01 0.  1.
          5   -1    0    0  501    0  0.00000000000E+00 -0.00000000000E+00 -0.24457642750E+03  0.24462158304E+03  0.47000000000E+01 0.  1.
         25    2    1    2    0    0 -0.27240368851E+02 -0.27340068063E+02 -0.17205740866E+02  0.13191482694E+03  0.12496386290E+03 0.  0.
         25    2    1    2    0    0  0.27240368851E+02  0.27340068063E+02 -0.14496811908E+03  0.19524325190E+03  0.12495861253E+03 0.  0.
          5    1    3    3  502    0  0.18829786217E+02 -0.66666573324E+02 -0.28781082377E+01  0.69493642549E+02  0.47000000000E+01 0. -1.
         -5    1    3    3    0  502 -0.46070155068E+02  0.39326505261E+02 -0.14327632628E+02  0.62421184391E+02  0.47000000000E+01 0. -1.
          5    1    4    4  503    0  0.68693143373E+02  0.12645669434E+02 -0.38365568088E+02  0.79828990452E+02  0.47000000000E+01 0.  1.
         -5    1    4    4    0  503 -0.41452774522E+02  0.14694398629E+02 -0.10660255100E+03  0.11541426145E+03  0.47000000000E+01 0.  1.
<mgrwt>
<rscale>  0 0.13078668E+03</rscale>
<asrwt>0</asrwt>
<pdfrwt beam="2">  1        5 0.37640918E-01 0.13078794E+03</pdfrwt>
<pdfrwt beam="1">  1       -5 0.12691094E-01 0.13078794E+03</pdfrwt>
<totfact> 0.25736937E+02</totfact>
</mgrwt>
</event>
<event>
 8    1  0.3588496E-007  0.1406671E+03  0.7546771E-02  0.1212435E+00
         -5   -1    0    0    0  501 -0.00000000000E+00  0.00000000000E+00  0.20988359128E+03  0.20993620910E+03  0.47000000000E+01 0. -1.
          5   -1    0    0  501    0  0.00000000000E+00 -0.00000000000E+00 -0.12748922671E+03  0.12757583207E+03  0.47000000000E+01 0. -1.
         25    2    1    2    0    0 -0.11356142955E+02  0.63506101859E+02  0.12743838798E+03  0.18980897789E+03  0.12499967360E+03 0.  0.
         25    2    1    2    0    0  0.11356142955E+02 -0.63506101859E+02 -0.45044023411E+02  0.14770306328E+03  0.12500097560E+03 0.  0.
          5    1    4    4  502    0  0.25449826249E+02 -0.84602729309E+02 -0.69228037061E+02  0.11233844657E+03  0.47000000000E+01 0.  1.
         -5    1    4    4    0  502 -0.14093683294E+02  0.21096627450E+02  0.24184013650E+02  0.35364616706E+02  0.47000000000E+01 0.  1.
          5    1    3    3  503    0  0.19427092922E+02  0.10581445443E+01  0.11765465172E+03  0.11934504045E+03  0.47000000000E+01 0.  1.
         -5    1    3    3    0  503 -0.30783235877E+02  0.62447957315E+02  0.97837362614E+01  0.70463937436E+02  0.47000000000E+01 0.  1.
<mgrwt>
<rscale>  0 0.14066680E+03</rscale>
<asrwt>0</asrwt>
<pdfrwt beam="2">  1        5 0.19624437E-01 0.14066709E+03</pdfrwt>
<pdfrwt beam="1">  1       -5 0.32300492E-01 0.14066709E+03</pdfrwt>
<totfact> 0.16215572E+02</totfact>
</mgrwt>
</event>
<event>
 8    1  0.3588496E-007  0.1340212E+03  0.7546771E-02  0.1221611E+00
          5   -1    0    0  501    0  0.00000000000E+00  0.00000000000E+00  0.16460110740E+03  0.16466819534E+03  0.47000000000E+01 0. -1.
         -5   -1    0    0    0  501 -0.00000000000E+00 -0.00000000000E+00 -0.12321819200E+03  0.12330779715E+03  0.47000000000E+01 0. -1.
         25    2    1    2    0    0  0.44308959432E+02  0.19258643871E+02 -0.28228753370E+02  0.13696181861E+03  0.12500999156E+03 0.  0.
         25    2    1    2    0    0 -0.44308959432E+02 -0.19258643871E+02  0.69611668769E+02  0.15101417388E+03  0.12500126813E+03 0.  0.
          5    1    3    3  502    0  0.26502977434E+02 -0.38415152808E+02  0.27754435120E+02  0.54502572847E+02  0.47000000000E+01 0.  1.
         -5    1    3    3    0  502  0.17805981999E+02  0.57673796678E+02 -0.55983188490E+02  0.82459245763E+02  0.47000000000E+01 0.  1.
          5    1    4    4  503    0 -0.28553371210E+02  0.37831088856E+02 -0.12894322169E+02  0.49344096260E+02  0.47000000000E+01 0. -1.
         -5    1    4    4    0  503 -0.15755588222E+02 -0.57089732727E+02  0.82505990938E+02  0.10167007762E+03  0.47000000000E+01 0. -1.
<mgrwt>
<rscale>  0 0.13401915E+03</rscale>
<asrwt>0</asrwt>
<pdfrwt beam="1">  1        5 0.25335301E-01 0.13402118E+03</pdfrwt>
<pdfrwt beam="2">  1       -5 0.18968698E-01 0.13402118E+03</pdfrwt>
<totfact> 0.27289688E+02</totfact>
</mgrwt>
</event>
<event>
 8    1  0.3588496E-007  0.1253104E+03  0.7546771E-02  0.1234605E+00
          5   -1    0    0  501    0  0.00000000000E+00  0.00000000000E+00  0.14911199699E+03  0.14918605044E+03  0.47000000000E+01 0. -1.
         -5   -1    0    0    0  501 -0.00000000000E+00 -0.00000000000E+00 -0.10518317967E+03  0.10528813459E+03  0.47000000000E+01 0. -1.
         25    2    1    2    0    0  0.70539255373E+01  0.39919944050E+01  0.25257905603E+02  0.12783062891E+03  0.12504804680E+03 0.  0.
         25    2    1    2    0    0 -0.70539255373E+01 -0.39919944050E+01  0.18670911712E+02  0.12664355612E+03  0.12499717388E+03 0.  0.
          5    1    4    4  502    0 -0.54289323215E+02  0.33863244522E+02  0.46149480347E+01  0.64322917300E+02  0.47000000000E+01 0. -1.
         -5    1    4    4    0  502  0.47235397677E+02 -0.37855238927E+02  0.14055963678E+02  0.62320638820E+02  0.47000000000E+01 0. -1.
          5    1    3    3  503    0 -0.14126555112E+02 -0.57868861413E+02  0.11675820316E+02  0.60883326622E+02  0.47000000000E+01 0.  1.
         -5    1    3    3    0  503  0.21180480650E+02  0.61860855818E+02  0.13582085287E+02  0.66947302289E+02  0.47000000000E+01 0.  1.
<mgrwt>
<rscale>  0 0.12529775E+03</rscale>
<asrwt>0</asrwt>
<pdfrwt beam="1">  1        5 0.22954077E-01 0.12531045E+03</pdfrwt>
<pdfrwt beam="2">  1       -5 0.16195798E-01 0.12531045E+03</pdfrwt>
<totfact> 0.42968553E+02</totfact>
</mgrwt>
</event>
<event>
 8    1  0.3588496E-007  0.1364898E+03  0.7546771E-02  0.1218132E+00
         -5   -1    0    0    0  501 -0.00000000000E+00  0.00000000000E+00  0.95789908527E+02  0.95905143635E+02  0.47000000000E+01 0. -1.
          5   -1    0    0  501    0  0.00000000000E+00 -0.00000000000E+00 -0.20229364214E+03  0.20234823362E+03  0.47000000000E+01 0. -1.
         25    2    1    2    0    0 -0.52461022700E+02  0.15867266353E+02 -0.23472070108E+02  0.13849332101E+03  0.12500213136E+03 0.  0.
         25    2    1    2    0    0  0.52461022700E+02 -0.15867266353E+02 -0.83031663506E+02  0.15976005625E+03  0.12500035754E+03 0.  0.
          5    1    3    3  502    0  0.51410008539E+01  0.18311970159E+02  0.44867888014E+02  0.48958916611E+02  0.47000000000E+01 0.  1.
         -5    1    3    3    0  502 -0.57602023554E+02 -0.24447038063E+01 -0.68339958122E+02  0.89534404395E+02  0.47000000000E+01 0.  1.
          5    1    4    4  503    0  0.78268662760E+02 -0.28795439893E+02 -0.96442527733E+02  0.12758688053E+03  0.47000000000E+01 0. -1.
         -5    1    4    4    0  503 -0.25807640060E+02  0.12928173540E+02  0.13410864227E+02  0.32173175720E+02  0.47000000000E+01 0. -1.
<mgrwt>
<rscale>  0 0.13648938E+03</rscale>
<asrwt>0</asrwt>
<pdfrwt beam="2">  1        5 0.31135162E-01 0.13648979E+03</pdfrwt>
<pdfrwt beam="1">  1       -5 0.14749973E-01 0.13648979E+03</pdfrwt>
<totfact> 0.29142726E+02</totfact>
</mgrwt>
</event>
<event>
 8    1  0.3588496E-007  0.1366985E+03  0.7546771E-02  0.1217845E+00
         -5   -1    0    0    0  501 -0.00000000000E+00  0.00000000000E+00  0.35955622792E+03  0.35958694503E+03  0.47000000000E+01 0.  1.
          5   -1    0    0  501    0  0.00000000000E+00 -0.00000000000E+00 -0.53797758357E+02  0.54002674047E+02  0.47000000000E+01 0.  1.
         25    2    1    2    0    0  0.11903063574E+02  0.54011266207E+02  0.19236050263E+03  0.23598525693E+03  0.12501031444E+03 0.  0.
         25    2    1    2    0    0 -0.11903063574E+02 -0.54011266207E+02  0.11339796693E+03  0.17760436215E+03  0.12500124300E+03 0.  0.
          5    1    4    4  502    0 -0.72503121051E+01 -0.90369936511E+02  0.48508176482E+02  0.10292922635E+03  0.47000000000E+01 0. -1.
         -5    1    4    4    0  502 -0.46527514694E+01  0.36358670305E+02  0.64889790448E+02  0.74675135801E+02  0.47000000000E+01 0. -1.
          5    1    3    3  503    0 -0.46997885792E+02  0.59932352315E+02  0.93811989340E+02  0.12092752981E+03  0.47000000000E+01 0. -1.
         -5    1    3    3    0  503  0.58900949366E+02 -0.59210861084E+01  0.98548513294E+02  0.11505772712E+03  0.47000000000E+01 0. -1.
<mgrwt>
<rscale>  0 0.13669642E+03</rscale>
<asrwt>0</asrwt>
<pdfrwt beam="2">  1        5 0.82947042E-02 0.13669849E+03</pdfrwt>
<pdfrwt beam="1">  1       -5 0.55334466E-01 0.13669849E+03</pdfrwt>
<totfact> 0.24588250E+02</totfact>
</mgrwt>
</event>
<event>
 8    1  0.3588496E-007  0.1254194E+03  0.7546771E-02  0.1234417E+00
          5   -1    0    0  501    0  0.00000000000E+00  0.00000000000E+00  0.18678480653E+03  0.18684392939E+03  0.47000000000E+01 0. -1.
         -5   -1    0    0    0  501 -0.00000000000E+00 -0.00000000000E+00 -0.85423536573E+02  0.85552735787E+02  0.47000000000E+01 0. -1.
         25    2    1    2    0    0  0.69268331216E+01  0.74569647391E+01  0.67784390531E+02  0.14256048189E+03  0.12500072023E+03 0.  0.
         25    2    1    2    0    0 -0.69268331216E+01 -0.74569647391E+01  0.33576879425E+02  0.12983618328E+03  0.12500576114E+03 0.  0.
          5    1    3    3  502    0 -0.14882359262E+02  0.89686784061E+01 -0.33934344032E+02  0.38412908175E+02  0.47000000000E+01 0. -1.
         -5    1    3    3    0  502  0.21809192383E+02 -0.15117136670E+01  0.10171873456E+03  0.10414757372E+03  0.47000000000E+01 0. -1.
          5    1    4    4  503    0 -0.43178468533E+02  0.26642157527E+02 -0.21634066245E+02  0.55356187774E+02  0.47000000000E+01 0. -1.
         -5    1    4    4    0  503  0.36251635411E+02 -0.34099122266E+02  0.55210945670E+02  0.74479995509E+02  0.47000000000E+01 0. -1.
<mgrwt>
<rscale>  0 0.12541815E+03</rscale>
<asrwt>0</asrwt>
<pdfrwt beam="1">  1        5 0.28750610E-01 0.12541941E+03</pdfrwt>
<pdfrwt beam="2">  1       -5 0.13156569E-01 0.12541941E+03</pdfrwt>
<totfact> 0.40576876E+02</totfact>
</mgrwt>
</event>
<event>
 8    1  0.3588496E-007  0.1449345E+03  0.7546771E-02  0.1206861E+00
          5   -1    0    0  501    0  0.00000000000E+00  0.00000000000E+00  0.15228846644E+03  0.15236097601E+03  0.47000000000E+01 0. -1.
         -5   -1    0    0    0  501 -0.00000000000E+00 -0.00000000000E+00 -0.13902362915E+03  0.13910305339E+03  0.47000000000E+01 0. -1.
         25    2    1    2    0    0  0.25376741422E+02 -0.68672647624E+02 -0.74404038530E+01  0.14505799989E+03  0.12500620858E+03 0.  0.
         25    2    1    2    0    0 -0.25376741422E+02  0.68672647624E+02  0.20705241144E+02  0.14640602951E+03  0.12508439923E+03 0.  0.
          5    1    3    3  502    0  0.37517402058E+02 -0.10099902736E+03 -0.16377154070E+02  0.10908097983E+03  0.47000000000E+01 0. -1.
         -5    1    3    3    0  502 -0.12140660636E+02  0.32326379738E+02  0.89367502167E+01  0.35977020055E+02  0.47000000000E+01 0. -1.
          5    1    4    4  503    0  0.27812303666E+02  0.14314004852E+02  0.54528937129E+02  0.63038955849E+02  0.47000000000E+01 0.  1.
         -5    1    4    4    0  503 -0.53189045088E+02  0.54358642773E+02 -0.33823695985E+02  0.83367073666E+02  0.47000000000E+01 0.  1.
<mgrwt>
<rscale>  0 0.14491766E+03</rscale>
<asrwt>0</asrwt>
<pdfrwt beam="1">  1        5 0.23440682E-01 0.14493453E+03</pdfrwt>
<pdfrwt beam="2">  1       -5 0.21399938E-01 0.14493453E+03</pdfrwt>
<totfact> 0.25952073E+02</totfact>
</mgrwt>
</event>
<event>
 8    1  0.3588496E-007  0.1331339E+03  0.7546771E-02  0.1222888E+00
         -5   -1    0    0    0  501 -0.00000000000E+00  0.00000000000E+00  0.28331274708E+03  0.28335172958E+03  0.47000000000E+01 0. -1.
          5   -1    0    0  501    0  0.00000000000E+00 -0.00000000000E+00 -0.62876050499E+02  0.63051468867E+02  0.47000000000E+01 0. -1.
         25    2    1    2    0    0 -0.11216524267E+02 -0.44342430273E+02  0.95456906557E+02  0.16379823191E+03  0.12500311287E+03 0.  0.
         25    2    1    2    0    0  0.11216524267E+02  0.44342430273E+02  0.12497979003E+03  0.18260496655E+03  0.12503025375E+03 0.  0.
          5    1    4    4  502    0 -0.37943995477E+02  0.56966644351E+02  0.30142619552E+02  0.74937393034E+02  0.47000000000E+01 0. -1.
         -5    1    4    4    0  502  0.49160519743E+02 -0.12624214077E+02  0.94837170474E+02  0.10766757351E+03  0.47000000000E+01 0. -1.
          5    1    3    3  503    0 -0.63580015623E+02 -0.31002222589E+02  0.81046989705E+02  0.10767664897E+03  0.47000000000E+01 0. -1.
         -5    1    3    3    0  503  0.52363491357E+02 -0.13340207684E+02  0.14409916852E+02  0.56121582941E+02  0.47000000000E+01 0. -1.
<mgrwt>
<rscale>  0 0.13312749E+03</rscale>
<asrwt>0</asrwt>
<pdfrwt beam="2">  1        5 0.96897310E-02 0.13313386E+03</pdfrwt>
<pdfrwt beam="1">  1       -5 0.43603069E-01 0.13313386E+03</pdfrwt>
<totfact> 0.30811462E+02</totfact>
</mgrwt>
</event>
<event>
 8    1  0.3588496E-007  0.1340780E+03  0.7546771E-02  0.1221533E+00
          5   -1    0    0  501    0  0.00000000000E+00  0.00000000000E+00  0.80877080657E+02  0.81013530818E+02  0.47000000000E+01 0.  1.
         -5   -1    0    0    0  501 -0.00000000000E+00 -0.00000000000E+00 -0.25132084884E+03  0.25136479281E+03  0.47000000000E+01 0.  1.
         25    2    1    2    0    0  0.40592241928E+02  0.26542149092E+02 -0.14205859695E+03  0.19532857954E+03  0.12498157158E+03 0.  0.
         25    2    1    2    0    0 -0.40592241928E+02 -0.26542149092E+02 -0.28385171234E+02  0.13704974408E+03  0.12499879449E+03 0.  0.
          5    1    3    3  502    0 -0.39050919885E+02  0.22860048222E+02 -0.87455754249E+02  0.98580703486E+02  0.47000000000E+01 0.  1.
         -5    1    3    3    0  502  0.79643161813E+02  0.36821008704E+01 -0.54602842703E+02  0.96747876057E+02  0.47000000000E+01 0.  1.
          5    1    4    4  503    0 -0.32827462748E+01 -0.45081158427E+02 -0.66395629601E+02  0.80458417201E+02  0.47000000000E+01 0. -1.
         -5    1    4    4    0  503 -0.37309495653E+02  0.18539009335E+02  0.38010458367E+02  0.56591326882E+02  0.47000000000E+01 0. -1.
<mgrwt>
<rscale>  0 0.13407400E+03</rscale>
<asrwt>0</asrwt>
<pdfrwt beam="1">  1        5 0.12456504E-01 0.13407802E+03</pdfrwt>
<pdfrwt beam="2">  1       -5 0.38678622E-01 0.13407802E+03</pdfrwt>
<totfact> 0.25398058E+02</totfact>
</mgrwt>
</event>
<event>
 8    1  0.3588496E-007  0.2014553E+03  0.7546771E-02  0.1148518E+00
          5   -1    0    0  501    0  0.00000000000E+00  0.00000000000E+00  0.42300200234E+03  0.42302811253E+03  0.47000000000E+01 0. -1.
         -5   -1    0    0    0  501 -0.00000000000E+00 -0.00000000000E+00 -0.99036047682E+02  0.99147510006E+02  0.47000000000E+01 0. -1.
         25    2    1    2    0    0  0.75328795808E+01 -0.15779491335E+03  0.11521466760E+03  0.23207471319E+03  0.12501309499E+03 0.  0.
         25    2    1    2    0    0 -0.75328795808E+01  0.15779491335E+03  0.20875128706E+03  0.29010090934E+03  0.12500183516E+03 0.  0.
          5    1    4    4  502    0 -0.20422408584E+02  0.11593349928E+03  0.21543517090E+03  0.24554440309E+03  0.47000000000E+01 0. -1.
         -5    1    4    4    0  502  0.12889529003E+02  0.41861414072E+02 -0.66838838363E+01  0.44556506249E+02  0.47000000000E+01 0. -1.
          5    1    3    3  503    0 -0.36166779990E+02 -0.14464228026E+03  0.11113250162E+03  0.18601598891E+03  0.47000000000E+01 0.  1.
         -5    1    3    3    0  503  0.43699659571E+02 -0.13152633095E+02  0.40821659828E+01  0.46058724288E+02  0.47000000000E+01 0.  1.
<mgrwt>
<rscale>  0 0.20145359E+03</rscale>
<asrwt>0</asrwt>
<pdfrwt beam="1">  1        5 0.65087814E-01 0.20145534E+03</pdfrwt>
<pdfrwt beam="2">  1       -5 0.15246898E-01 0.20145534E+03</pdfrwt>
<totfact> 0.65935355E+01</totfact>
</mgrwt>
</event>
<event>
 8    1  0.3588496E-007  0.1468911E+03  0.7546771E-02  0.1204360E+00
         -5   -1    0    0    0  501 -0.00000000000E+00  0.00000000000E+00  0.44548230364E+02  0.44795477769E+02  0.47000000000E+01 0. -1.
          5   -1    0    0  501    0  0.00000000000E+00 -0.00000000000E+00 -0.49326020897E+03  0.49328260029E+03  0.47000000000E+01 0. -1.
         25    2    1    2    0    0  0.43101459615E+02  0.63882483495E+02 -0.18485823231E+03  0.23611344342E+03  0.12505312708E+03 0.  0.
         25    2    1    2    0    0 -0.43101459615E+02 -0.63882483495E+02 -0.26385374630E+03  0.30196463465E+03  0.12500053449E+03 0.  0.
          5    1    4    4  502    0 -0.23643964002E+02 -0.90362540220E+02 -0.10913620435E+03  0.14372622171E+03  0.47000000000E+01 0. -1.
         -5    1    4    4    0  502 -0.19457495613E+02  0.26480056724E+02 -0.15471754195E+03  0.15823841293E+03  0.47000000000E+01 0. -1.
          5    1    3    3  503    0 -0.19984436487E+02 -0.26488746567E+02 -0.24660429665E+02  0.41608390833E+02  0.47000000000E+01 0.  1.
         -5    1    3    3    0  503  0.63085896102E+02  0.90371230062E+02 -0.16019780264E+03  0.19450505259E+03  0.47000000000E+01 0.  1.
<mgrwt>
<rscale>  0 0.14687990E+03</rscale>
<asrwt>0</asrwt>
<pdfrwt beam="2">  1        5 0.75906924E-01 0.14689109E+03</pdfrwt>
<pdfrwt beam="1">  1       -5 0.68743157E-02 0.14689109E+03</pdfrwt>
<totfact> 0.17193875E+02</totfact>
</mgrwt>
</event>
<event>
 8    1  0.3588496E-007  0.1292300E+03  0.7546771E-02  0.1228613E+00
         -5   -1    0    0    0  501 -0.00000000000E+00  0.00000000000E+00  0.58955236812E+02  0.59142285613E+02  0.47000000000E+01 0. -1.
          5   -1    0    0  501    0  0.00000000000E+00 -0.00000000000E+00 -0.28871109817E+03  0.28874935187E+03  0.47000000000E+01 0. -1.
         25    2    1    2    0    0  0.28045760101E+02 -0.16942043721E+02 -0.89499938381E+02  0.15719614114E+03  0.12500716106E+03 0.  0.
         25    2    1    2    0    0 -0.28045760101E+02  0.16942043721E+02 -0.14025592298E+03  0.19069549634E+03  0.12497780159E+03 0.  0.
          5    1    4    4  502    0  0.14686970858E+02  0.61347347922E+02 -0.94830202820E+02  0.11399149783E+03  0.47000000000E+01 0. -1.
         -5    1    4    4    0  502 -0.42732730958E+02 -0.44405304200E+02 -0.45425720159E+02  0.76703998516E+02  0.47000000000E+01 0. -1.
          5    1    3    3  503    0  0.68185039493E+02 -0.38057092997E+02 -0.33812846407E+02  0.85222887302E+02  0.47000000000E+01 0.  1.
         -5    1    3    3    0  503 -0.40139279392E+02  0.21115049276E+02 -0.55687091974E+02  0.71973253842E+02  0.47000000000E+01 0.  1.
<mgrwt>
<rscale>  0 0.12922288E+03</rscale>
<asrwt>0</asrwt>
<pdfrwt beam="2">  1        5 0.44434422E-01 0.12922998E+03</pdfrwt>
<pdfrwt beam="1">  1       -5 0.90873676E-02 0.12922998E+03</pdfrwt>
<totfact> 0.32762958E+02</totfact>
</mgrwt>
</event>
<event>
 8    1  0.3588496E-007  0.1329895E+03  0.7546771E-02  0.1223087E+00
          5   -1    0    0  501    0  0.00000000000E+00  0.00000000000E+00  0.56141270892E+02  0.56337663222E+02  0.47000000000E+01 0.  1.
         -5   -1    0    0    0  501 -0.00000000000E+00 -0.00000000000E+00 -0.31427164209E+03  0.31430678488E+03  0.47000000000E+01 0.  1.
         25    2    1    2    0    0 -0.11773437834E+02  0.43840779173E+02 -0.13012583213E+03  0.18606163949E+03  0.12500229497E+03 0.  0.
         25    2    1    2    0    0  0.11773437834E+02 -0.43840779173E+02 -0.12800453908E+03  0.18458280861E+03  0.12500009382E+03 0.  0.
          5    1    3    3  502    0  0.30981543986E+02 -0.32307619277E+02 -0.52202238160E+02  0.68926061835E+02  0.47000000000E+01 0.  1.
         -5    1    3    3    0  502 -0.42754981820E+02  0.76148398450E+02 -0.77923593965E+02  0.11713557766E+03  0.47000000000E+01 0.  1.
          5    1    4    4  503    0  0.20013978385E+01 -0.45018209666E+02 -0.15179438996E+03  0.15841171553E+03  0.47000000000E+01 0.  1.
         -5    1    4    4    0  503  0.97720399959E+01  0.11774304930E+01  0.23789850881E+02  0.26171093083E+02  0.47000000000E+01 0.  1.
<mgrwt>
<rscale>  0 0.13298896E+03</rscale>
<asrwt>0</asrwt>
<pdfrwt beam="1">  1        5 0.86549292E-02 0.13298948E+03</pdfrwt>
<pdfrwt beam="2">  1       -5 0.48367293E-01 0.13298948E+03</pdfrwt>
<totfact> 0.30159109E+02</totfact>
</mgrwt>
</event>
<event>
 8    1  0.3588496E-007  0.1276207E+03  0.7546771E-02  0.1231031E+00
          5   -1    0    0  501    0  0.00000000000E+00  0.00000000000E+00  0.16549429565E+03  0.16556102166E+03  0.47000000000E+01 0.  1.
         -5   -1    0    0    0  501 -0.00000000000E+00 -0.00000000000E+00 -0.13318503425E+03  0.13326793818E+03  0.47000000000E+01 0.  1.
         25    2    1    2    0    0  0.14063021666E+02  0.21537974304E+02 -0.60300391316E+02  0.14114705291E+03  0.12499880174E+03 0.  0.
         25    2    1    2    0    0 -0.14063021666E+02 -0.21537974304E+02  0.92609652719E+02  0.15768190693E+03  0.12500153231E+03 0.  0.
          5    1    3    3  502    0  0.45742947289E+02 -0.30819110375E+02 -0.35981124392E+00  0.55357513087E+02  0.47000000000E+01 0.  1.
         -5    1    3    3    0  502 -0.31679925623E+02  0.52357084679E+02 -0.59940580072E+02  0.85789539823E+02  0.47000000000E+01 0.  1.
          5    1    4    4  503    0  0.28541376519E+01  0.60818364797E+01  0.11673510798E+03  0.11702269126E+03  0.47000000000E+01 0.  1.
         -5    1    4    4    0  503 -0.16917159318E+02 -0.27619810784E+02 -0.24125455257E+02  0.40659215665E+02  0.47000000000E+01 0.  1.
<mgrwt>
<rscale>  0 0.12762000E+03</rscale>
<asrwt>0</asrwt>
<pdfrwt beam="1">  1        5 0.25472171E-01 0.12762067E+03</pdfrwt>
<pdfrwt beam="2">  1       -5 0.20501515E-01 0.12762067E+03</pdfrwt>
<totfact> 0.22966859E+02</totfact>
</mgrwt>
</event>
<event>
 8    1  0.3588496E-007  0.1304210E+03  0.7546771E-02  0.1226834E+00
         -5   -1    0    0    0  501 -0.00000000000E+00  0.00000000000E+00  0.29967641998E+02  0.30333967214E+02  0.47000000000E+01 0.  1.
          5   -1    0    0  501    0  0.00000000000E+00 -0.00000000000E+00 -0.66192132641E+03  0.66193801248E+03  0.47000000000E+01 0.  1.
         25    2    1    2    0    0  0.32439416020E+02  0.18232069676E+02 -0.18272500130E+03  0.22449514308E+03  0.12499967636E+03 0.  0.
         25    2    1    2    0    0 -0.32439416020E+02 -0.18232069676E+02 -0.44922868312E+03  0.46777683661E+03  0.12499614017E+03 0.  0.
          5    1    3    3  502    0 -0.45258412289E+02 -0.10790200289E+02 -0.55857047501E+02  0.72848143839E+02  0.47000000000E+01 0. -1.
         -5    1    3    3    0  502  0.77697828310E+02  0.29022269965E+02 -0.12686795380E+03  0.15164699924E+03  0.47000000000E+01 0. -1.
          5    1    4    4  503    0 -0.51433839020E+02 -0.59592767503E+02 -0.21236293659E+03  0.22653221531E+03  0.47000000000E+01 0. -1.
         -5    1    4    4    0  503  0.18994423000E+02  0.41360697827E+02 -0.23686574653E+03  0.24124462130E+03  0.47000000000E+01 0. -1.
<mgrwt>
<rscale>  0 0.13042018E+03</rscale>
<asrwt>0</asrwt>
<pdfrwt beam="2">  1        5 0.10186350E+00 0.13042102E+03</pdfrwt>
<pdfrwt beam="1">  1       -5 0.46398694E-02 0.13042102E+03</pdfrwt>
<totfact> 0.15938267E+02</totfact>
</mgrwt>
</event>
<event>
 8    1  0.3588496E-007  0.1399461E+03  0.7546771E-02  0.1213410E+00
          5   -1    0    0  501    0  0.00000000000E+00  0.00000000000E+00  0.15101556487E+03  0.15108868532E+03  0.47000000000E+01 0.  1.
         -5   -1    0    0    0  501 -0.00000000000E+00 -0.00000000000E+00 -0.12974116557E+03  0.12982626869E+03  0.47000000000E+01 0.  1.
         25    2    1    2    0    0  0.18931307346E+01  0.62895287600E+02  0.16461691714E+02  0.14091092854E+03  0.12500200535E+03 0.  0.
         25    2    1    2    0    0 -0.18931307346E+01 -0.62895287600E+02  0.48127075859E+01  0.14000402548E+03  0.12497425274E+03 0.  0.
          5    1    3    3  502    0  0.12769755135E+02 -0.30193550204E+02  0.31697164361E+02  0.45842309591E+02  0.47000000000E+01 0. -1.
         -5    1    3    3    0  502 -0.10876624401E+02  0.93088837805E+02 -0.15235472647E+02  0.95068618950E+02  0.47000000000E+01 0. -1.
          5    1    4    4  503    0 -0.25223666103E+02 -0.56189899062E+02 -0.50260421017E+02  0.79635030038E+02  0.47000000000E+01 0.  1.
         -5    1    4    4    0  503  0.23330535369E+02 -0.67053885381E+01  0.55073128603E+02  0.60368995438E+02  0.47000000000E+01 0.  1.
<mgrwt>
<rscale>  0 0.13993987E+03</rscale>
<asrwt>0</asrwt>
<pdfrwt beam="1">  1        5 0.23245335E-01 0.13994607E+03</pdfrwt>
<pdfrwt beam="2">  1       -5 0.19972350E-01 0.13994607E+03</pdfrwt>
<totfact> 0.29657426E+02</totfact>
</mgrwt>
</event>
<event>
 8    1  0.3588496E-007  0.1281500E+03  0.7546771E-02  0.1230230E+00
         -5   -1    0    0    0  501 -0.00000000000E+00  0.00000000000E+00  0.93603778540E+02  0.93721701633E+02  0.47000000000E+01 0.  1.
          5   -1    0    0  501    0  0.00000000000E+00 -0.00000000000E+00 -0.20022259912E+03  0.20027775513E+03  0.47000000000E+01 0.  1.
         25    2    1    2    0    0 -0.18559558932E+02  0.21299824033E+02 -0.13398522252E+01  0.12814985477E+03  0.12498980096E+03 0.  0.
         25    2    1    2    0    0  0.18559558932E+02 -0.21299824033E+02 -0.10527896836E+03  0.16584960199E+03  0.12499715825E+03 0.  0.
          5    1    4    4  502    0 -0.95391258174E+01 -0.69018845306E+02 -0.41418976809E+02  0.81192472364E+02  0.47000000000E+01 0.  1.
         -5    1    4    4    0  502  0.28098684749E+02  0.47719021272E+02 -0.63859991548E+02  0.84657129625E+02  0.47000000000E+01 0.  1.
          5    1    3    3  503    0 -0.59792797536E+02  0.83806517317E+01  0.36339944245E+02  0.70626450487E+02  0.47000000000E+01 0. -1.
         -5    1    3    3    0  503  0.41233238604E+02  0.12919172302E+02 -0.37679796470E+02  0.57523404287E+02  0.47000000000E+01 0. -1.
<mgrwt>
<rscale>  0 0.12814823E+03</rscale>
<asrwt>0</asrwt>
<pdfrwt beam="2">  1        5 0.30816790E-01 0.12815003E+03</pdfrwt>
<pdfrwt beam="1">  1       -5 0.14413895E-01 0.12815003E+03</pdfrwt>
<totfact> 0.30315948E+02</totfact>
</mgrwt>
</event>
<event>
 8    1  0.3588496E-007  0.1315438E+03  0.7546771E-02  0.1225183E+00
          5   -1    0    0  501    0  0.00000000000E+00  0.00000000000E+00  0.88924132389E+02  0.89048252769E+02  0.47000000000E+01 0.  1.
         -5   -1    0    0    0  501 -0.00000000000E+00 -0.00000000000E+00 -0.20656298751E+03  0.20661645097E+03  0.47000000000E+01 0.  1.
         25    2    1    2    0    0  0.34450065749E+02  0.22186297552E+02 -0.94822075274E+02  0.16215675802E+03  0.12499819752E+03 0.  0.
         25    2    1    2    0    0 -0.34450065749E+02 -0.22186297552E+02 -0.22816779851E+02  0.13350794572E+03  0.12499890919E+03 0.  0.
          5    1    3    3  502    0  0.80515051360E+02  0.49999914825E+01 -0.69850210074E+02  0.10681205577E+03  0.47000000000E+01 0. -1.
         -5    1    3    3    0  502 -0.46064985612E+02  0.17186306069E+02 -0.24971865201E+02  0.55344702251E+02  0.47000000000E+01 0. -1.
          5    1    4    4  503    0 -0.68713489757E+02 -0.19273519457E+02 -0.51785865752E+02  0.88299932721E+02  0.47000000000E+01 0. -1.
         -5    1    4    4    0  503  0.34263424008E+02 -0.29127780949E+01  0.28969085902E+02  0.45208012995E+02  0.47000000000E+01 0. -1.
<mgrwt>
<rscale>  0 0.13154361E+03</rscale>
<asrwt>0</asrwt>
<pdfrwt beam="1">  1        5 0.13694296E-01 0.13154378E+03</pdfrwt>
<pdfrwt beam="2">  1       -5 0.31792581E-01 0.13154378E+03</pdfrwt>
<totfact> 0.31556507E+02</totfact>
</mgrwt>
</event>
<event>
 8    1  0.3588496E-007  0.1357180E+03  0.7546771E-02  0.1219211E+00
          5   -1    0    0  501    0  0.00000000000E+00  0.00000000000E+00  0.65925207640E+03  0.65926883002E+03  0.47000000000E+01 0. -1.
         -5   -1    0    0    0  501 -0.00000000000E+00 -0.00000000000E+00 -0.27751741384E+02  0.28146920788E+02  0.47000000000E+01 0. -1.
         25    2    1    2    0    0 -0.49797867812E+02 -0.17703575786E+02  0.32649326725E+03  0.35357642534E+03  0.12500076306E+03 0.  0.
         25    2    1    2    0    0  0.49797867812E+02  0.17703575786E+02  0.30500706777E+03  0.33383932546E+03  0.12500455834E+03 0.  0.
          5    1    3    3  502    0  0.45718151705E+01 -0.62833126984E+02  0.18222306642E+03  0.19286326575E+03  0.47000000000E+01 0.  1.
         -5    1    3    3    0  502 -0.54369682983E+02  0.45129551198E+02  0.14427020083E+03  0.16071315959E+03  0.47000000000E+01 0.  1.
          5    1    4    4  503    0  0.84611277379E+02  0.94768109856E+00  0.13470295414E+03  0.15914440679E+03  0.47000000000E+01 0.  1.
         -5    1    4    4    0  503 -0.34813409567E+02  0.16755894687E+02  0.17030411363E+03  0.17469491867E+03  0.47000000000E+01 0.  1.
<mgrwt>
<rscale>  0 0.13571716E+03</rscale>
<asrwt>0</asrwt>
<pdfrwt beam="1">  1        5 0.10145507E+00 0.13571803E+03</pdfrwt>
<pdfrwt beam="2">  1       -5 0.43011864E-02 0.13571803E+03</pdfrwt>
<totfact> 0.18484097E+02</totfact>
</mgrwt>
</event>
<event>
 8    1  0.3588496E-007  0.1300298E+03  0.7546771E-02  0.1227420E+00
         -5   -1    0    0    0  501 -0.00000000000E+00  0.00000000000E+00  0.14436966610E+03  0.14444615084E+03  0.47000000000E+01 0. -1.
          5   -1    0    0  501    0  0.00000000000E+00 -0.00000000000E+00 -0.11764988302E+03  0.11774372584E+03  0.47000000000E+01 0. -1.
         25    2    1    2    0    0 -0.17605833866E+02 -0.31206075751E+02  0.23544933499E+02  0.13214428817E+03  0.12499585774E+03 0.  0.
         25    2    1    2    0    0  0.17605833866E+02  0.31206075751E+02  0.31748495812E+01  0.13004558851E+03  0.12497196034E+03 0.  0.
          5    1    4    4  502    0 -0.14202709278E+02 -0.29327444916E+02 -0.37848457986E+02  0.50163849016E+02  0.47000000000E+01 0. -1.
         -5    1    4    4    0  502  0.31808543145E+02  0.60533520668E+02  0.41023307568E+02  0.79881739498E+02  0.47000000000E+01 0. -1.
          5    1    3    3  503    0 -0.58017199775E+02  0.21988049614E+02  0.18835957596E+02  0.65010407583E+02  0.47000000000E+01 0.  1.
         -5    1    3    3    0  503  0.40411365909E+02 -0.53194125365E+02  0.47089759023E+01  0.67133880582E+02  0.47000000000E+01 0.  1.
<mgrwt>
<rscale>  0 0.13002406E+03</rscale>
<asrwt>0</asrwt>
<pdfrwt beam="2">  1        5 0.18113084E-01 0.13002980E+03</pdfrwt>
<pdfrwt beam="1">  1       -5 0.22223820E-01 0.13002980E+03</pdfrwt>
<totfact> 0.37724291E+02</totfact>
</mgrwt>
</event>
<event>
 8    1  0.3588496E-007  0.1301751E+03  0.7546771E-02  0.1227197E+00
         -5   -1    0    0    0  501 -0.00000000000E+00  0.00000000000E+00  0.16402874632E+03  0.16409606826E+03  0.47000000000E+01 0.  1.
          5   -1    0    0  501    0  0.00000000000E+00 -0.00000000000E+00 -0.10534264558E+03  0.10544744178E+03  0.47000000000E+01 0.  1.
         25    2    1    2    0    0  0.35208969821E+02  0.89709098803E+01  0.48710885951E+02  0.13899027001E+03  0.12500158386E+03 0.  0.
         25    2    1    2    0    0 -0.35208969821E+02 -0.89709098803E+01  0.99752147868E+01  0.13055324003E+03  0.12499797915E+03 0.  0.
          5    1    3    3  502    0  0.24564500618E+02 -0.32701087661E+02  0.76987375329E+02  0.87303618395E+02  0.47000000000E+01 0. -1.
         -5    1    3    3    0  502  0.10644469203E+02  0.41671997542E+02 -0.28276489379E+02  0.51686651617E+02  0.47000000000E+01 0. -1.
          5    1    4    4  503    0 -0.52214916394E+02 -0.55152188931E+02  0.22881388013E+02  0.79459482475E+02  0.47000000000E+01 0. -1.
         -5    1    4    4    0  503  0.17005946572E+02  0.46181279050E+02 -0.12906173226E+02  0.51093757553E+02  0.47000000000E+01 0. -1.
<mgrwt>
<rscale>  0 0.13017419E+03</rscale>
<asrwt>0</asrwt>
<pdfrwt beam="2">  1        5 0.16219801E-01 0.13017505E+03</pdfrwt>
<pdfrwt beam="1">  1       -5 0.25248432E-01 0.13017505E+03</pdfrwt>
<totfact> 0.36250141E+02</totfact>
</mgrwt>
</event>
<event>
 8    1  0.3588496E-007  0.1537339E+03  0.7546771E-02  0.1195962E+00
         -5   -1    0    0    0  501 -0.00000000000E+00  0.00000000000E+00  0.14434814918E+03  0.14442464531E+03  0.47000000000E+01 0.  1.
          5   -1    0    0  501    0  0.00000000000E+00 -0.00000000000E+00 -0.19387068172E+03  0.19392764431E+03  0.47000000000E+01 0.  1.
         25    2    1    2    0    0  0.11337344116E+02  0.88759699684E+02  0.42103152171E+02  0.15938478722E+03  0.12499606120E+03 0.  0.
         25    2    1    2    0    0 -0.11337344116E+02 -0.88759699684E+02 -0.91625684704E+02  0.17896750240E+03  0.12500912430E+03 0.  0.
          5    1    3    3  502    0  0.76134056540E+01  0.10964026280E+02 -0.42203013165E+02  0.44512449249E+02  0.47000000000E+01 0. -1.
         -5    1    3    3    0  502  0.37239384620E+01  0.77795673404E+02  0.84306165336E+02  0.11487233797E+03  0.47000000000E+01 0. -1.
          5    1    4    4  503    0 -0.58698256186E+02 -0.22295181698E+02 -0.70519476663E+02  0.94539129439E+02  0.47000000000E+01 0.  1.
         -5    1    4    4    0  503  0.47360912070E+02 -0.66464517986E+02 -0.21106208041E+02  0.84428372963E+02  0.47000000000E+01 0.  1.
<mgrwt>
<rscale>  0 0.15373121E+03</rscale>
<asrwt>0</asrwt>
<pdfrwt beam="2">  1        5 0.29836525E-01 0.15373386E+03</pdfrwt>
<pdfrwt beam="1">  1       -5 0.22217674E-01 0.15373386E+03</pdfrwt>
<totfact> 0.15464516E+02</totfact>
</mgrwt>
</event>
<event>
 8    1  0.3588496E-007  0.1291106E+03  0.7546771E-02  0.1228782E+00
          5   -1    0    0  501    0  0.00000000000E+00  0.00000000000E+00  0.12664674549E+02  0.13508663199E+02  0.47000000000E+01 0. -1.
         -5   -1    0    0    0  501 -0.00000000000E+00 -0.00000000000E+00 -0.14255515553E+04  0.14255593032E+04  0.47000000000E+01 0. -1.
         25    2    1    2    0    0 -0.31812764749E+02 -0.57320794463E+01 -0.94182170574E+03  0.95063014709E+03  0.12499856967E+03 0.  0.
         25    2    1    2    0    0  0.31812764749E+02  0.57320794463E+01 -0.47106517502E+03  0.48843781928E+03  0.12499678174E+03 0.  0.
          5    1    3    3  502    0 -0.51320893117E+02 -0.44707437366E+02 -0.77992435264E+03  0.78290272375E+03  0.47000000000E+01 0.  1.
         -5    1    3    3    0  502  0.19508128367E+02  0.38975357920E+02 -0.16189735311E+03  0.16772742334E+03  0.47000000000E+01 0.  1.
          5    1    4    4  503    0  0.26526722755E+01  0.17772218552E+02 -0.44961816429E+03  0.45000163565E+03  0.47000000000E+01 0. -1.
         -5    1    4    4    0  503  0.29160092474E+02 -0.12040139106E+02 -0.21447010728E+02  0.38436183628E+02  0.47000000000E+01 0. -1.
<mgrwt>
<rscale>  0 0.12911018E+03</rscale>
<asrwt>0</asrwt>
<pdfrwt beam="1">  1        5 0.20139308E-02 0.12911062E+03</pdfrwt>
<pdfrwt beam="2">  1       -5 0.21938102E+00 0.12911062E+03</pdfrwt>
<totfact> 0.73254635E+01</totfact>
</mgrwt>
</event>
<event>
 8    1  0.3588496E-007  0.1403450E+03  0.7546771E-02  0.1212866E+00
         -5   -1    0    0    0  501 -0.00000000000E+00  0.00000000000E+00  0.57915912778E+02  0.58106307342E+02  0.47000000000E+01 0. -1.
          5   -1    0    0  501    0  0.00000000000E+00 -0.00000000000E+00 -0.35567269732E+03  0.35570374979E+03  0.47000000000E+01 0. -1.
         25    2    1    2    0    0 -0.30877701185E+02  0.55846053458E+02 -0.10453345557E+03  0.17499700835E+03  0.12499798191E+03 0.  0.
         25    2    1    2    0    0  0.30877701185E+02 -0.55846053458E+02 -0.19322332897E+03  0.23881304879E+03  0.12499681314E+03 0.  0.
          5    1    3    3  502    0 -0.49698014326E+02  0.70244999163E+02 -0.11893356765E+03  0.14687251632E+03  0.47000000000E+01 0. -1.
         -5    1    3    3    0  502  0.18820313141E+02 -0.14398945705E+02  0.14400112083E+02  0.28124492033E+02  0.47000000000E+01 0. -1.
          5    1    4    4  503    0  0.40043970710E+02 -0.43923695823E+02 -0.20850575536E+03  0.21686297670E+03  0.47000000000E+01 0.  1.
         -5    1    4    4    0  503 -0.91662695250E+01 -0.11922357635E+02  0.15282426383E+02  0.21950072090E+02  0.47000000000E+01 0.  1.
<mgrwt>
<rscale>  0 0.14034471E+03</rscale>
<asrwt>0</asrwt>
<pdfrwt beam="2">  1        5 0.54735910E-01 0.14034497E+03</pdfrwt>
<pdfrwt beam="1">  1       -5 0.89271750E-02 0.14034497E+03</pdfrwt>
<totfact> 0.22373062E+02</totfact>
</mgrwt>
</event>
<event>
 8    1  0.3588496E-007  0.1573249E+03  0.7546771E-02  0.1191756E+00
         -5   -1    0    0    0  501 -0.00000000000E+00  0.00000000000E+00  0.54328111347E+02  0.54531034123E+02  0.47000000000E+01 0. -1.
          5   -1    0    0  501    0  0.00000000000E+00 -0.00000000000E+00 -0.45547537500E+03  0.45549962375E+03  0.47000000000E+01 0. -1.
         25    2    1    2    0    0  0.91512427764E+02 -0.27403365683E+02 -0.18860936713E+03  0.24561069528E+03  0.12500260551E+03 0.  0.
         25    2    1    2    0    0 -0.91512427764E+02  0.27403365683E+02 -0.21253789653E+03  0.26441996259E+03  0.12498035953E+03 0.  0.
          5    1    3    3  502    0  0.18577051563E+02  0.35860945706E+02 -0.90038878288E+01  0.41644618713E+02  0.47000000000E+01 0. -1.
         -5    1    3    3    0  502  0.72935376200E+02 -0.63264311389E+02 -0.17960547930E+03  0.20396607657E+03  0.47000000000E+01 0. -1.
          5    1    4    4  503    0  0.31245206444E+02  0.79643648726E+00 -0.41901347038E+02  0.52485332431E+02  0.47000000000E+01 0. -1.
         -5    1    4    4    0  503 -0.12275763421E+03  0.26606929195E+02 -0.17063654949E+03  0.21193463016E+03  0.47000000000E+01 0. -1.
<mgrwt>
<rscale>  0 0.15732047E+03</rscale>
<asrwt>0</asrwt>
<pdfrwt beam="2">  1        5 0.70090607E-01 0.15732489E+03</pdfrwt>
<pdfrwt beam="1">  1       -5 0.83756460E-02 0.15732489E+03</pdfrwt>
<totfact> 0.15030401E+02</totfact>
</mgrwt>
</event>
<event>
 8    1  0.3588496E-007  0.1446367E+03  0.7546771E-02  0.1207224E+00
         -5   -1    0    0    0  501 -0.00000000000E+00  0.00000000000E+00  0.24870687433E+02  0.25310888830E+02  0.47000000000E+01 0. -1.
          5   -1    0    0  501    0  0.00000000000E+00 -0.00000000000E+00 -0.12295150669E+04  0.12295240500E+04  0.47000000000E+01 0. -1.
         25    2    1    2    0    0 -0.69490322741E+02 -0.21568501675E+02 -0.24622291538E+03  0.28556172379E+03  0.12500267523E+03 0.  0.
         25    2    1    2    0    0  0.69490322741E+02  0.21568501675E+02 -0.95842146404E+03  0.96927321509E+03  0.12499903009E+03 0.  0.
          5    1    4    4  502    0  0.48955311797E+02  0.70628866380E+02 -0.70876989041E+03  0.71397612486E+03  0.47000000000E+01 0.  1.
         -5    1    4    4    0  502  0.20535010944E+02 -0.49060364705E+02 -0.24965157364E+03  0.25529709023E+03  0.47000000000E+01 0.  1.
          5    1    3    3  503    0 -0.41705120252E+02 -0.65331993442E+02 -0.20484074247E+03  0.21906484473E+03  0.47000000000E+01 0. -1.
         -5    1    3    3    0  503 -0.27785202489E+02  0.43763491767E+02 -0.41382172913E+02  0.66496879055E+02  0.47000000000E+01 0. -1.
<mgrwt>
<rscale>  0 0.14463591E+03</rscale>
<asrwt>0</asrwt>
<pdfrwt beam="2">  1        5 0.18919067E+00 0.14463670E+03</pdfrwt>
<pdfrwt beam="1">  1       -5 0.38608132E-02 0.14463670E+03</pdfrwt>
<totfact> 0.42310952E+01</totfact>
</mgrwt>
</event>
<event>
 8    1  0.3588496E-007  0.1280882E+03  0.7546771E-02  0.1230323E+00
          5   -1    0    0  501    0  0.00000000000E+00  0.00000000000E+00  0.44109317134E+02  0.44359011012E+02  0.47000000000E+01 0. -1.
         -5   -1    0    0    0  501 -0.00000000000E+00 -0.00000000000E+00 -0.40252223520E+03  0.40254967374E+03  0.47000000000E+01 0. -1.
         25    2    1    2    0    0 -0.25437319696E+02 -0.11571559063E+02 -0.24208802821E+03  0.27388245452E+03  0.12499610906E+03 0.  0.
         25    2    1    2    0    0  0.25437319696E+02  0.11571559063E+02 -0.11632488986E+03  0.17302623023E+03  0.12500255252E+03 0.  0.
          5    1    4    4  502    0  0.50234644864E+02  0.55717702559E+02 -0.84233074092E+02  0.11289500739E+03  0.47000000000E+01 0. -1.
         -5    1    4    4    0  502 -0.24797325168E+02 -0.44146143496E+02 -0.32091815765E+02  0.60131222839E+02  0.47000000000E+01 0. -1.
          5    1    3    3  503    0 -0.64601430090E+02 -0.11124170289E+02 -0.64929520006E+02  0.92385196339E+02  0.47000000000E+01 0.  1.
         -5    1    3    3    0  503  0.39164110394E+02 -0.44738877408E+00 -0.17715850820E+03  0.18149725818E+03  0.47000000000E+01 0.  1.
<mgrwt>
<rscale>  0 0.12808666E+03</rscale>
<asrwt>0</asrwt>
<pdfrwt beam="1">  1        5 0.68073669E-02 0.12808824E+03</pdfrwt>
<pdfrwt beam="2">  1       -5 0.61947813E-01 0.12808824E+03</pdfrwt>
<totfact> 0.26332170E+02</totfact>
</mgrwt>
</event>
<event>
 8    1  0.3588496E-007  0.1847092E+03  0.7546771E-02  0.1163322E+00
          5   -1    0    0  501    0  0.00000000000E+00  0.00000000000E+00  0.50029314276E+02  0.50249599868E+02  0.47000000000E+01 0.  1.
         -5   -1    0    0    0  501 -0.00000000000E+00 -0.00000000000E+00 -0.72740292904E+03  0.72741811304E+03  0.47000000000E+01 0.  1.
         25    2    1    2    0    0  0.62719191988E+02 -0.12066216876E+03 -0.43770701944E+03  0.47508290162E+03  0.12499308992E+03 0.  0.
         25    2    1    2    0    0 -0.62719191988E+02  0.12066216876E+03 -0.23966659533E+03  0.30258481129E+03  0.12499774036E+03 0.  0.
          5    1    4    4  502    0 -0.93695676680E+02  0.11965828346E+03 -0.21121282738E+03  0.26024975135E+03  0.47000000000E+01 0. -1.
         -5    1    4    4    0  502  0.30976484692E+02  0.10038852999E+01 -0.28453767951E+02  0.42335059941E+02  0.47000000000E+01 0. -1.
          5    1    3    3  503    0 -0.32831123713E+02 -0.53787269514E+02 -0.20852438676E+03  0.21788864799E+03  0.47000000000E+01 0.  1.
         -5    1    3    3    0  503  0.95550315701E+02 -0.66874899251E+02 -0.22918263268E+03  0.25719425363E+03  0.47000000000E+01 0.  1.
<mgrwt>
<rscale>  0 0.18470842E+03</rscale>
<asrwt>0</asrwt>
<pdfrwt beam="1">  1        5 0.77149312E-02 0.18470921E+03</pdfrwt>
<pdfrwt beam="2">  1       -5 0.11192625E+00 0.18470921E+03</pdfrwt>
<totfact> 0.59531545E+01</totfact>
</mgrwt>
</event>
<event>
 8    1  0.3588496E-007  0.1392848E+03  0.7546771E-02  0.1214298E+00
          5   -1    0    0  501    0  0.00000000000E+00  0.00000000000E+00  0.14003339207E+03  0.14011224392E+03  0.47000000000E+01 0. -1.
         -5   -1    0    0    0  501 -0.00000000000E+00 -0.00000000000E+00 -0.14065307711E+03  0.14073158175E+03  0.47000000000E+01 0. -1.
         25    2    1    2    0    0 -0.26147026801E+02  0.55584659872E+02 -0.18180960336E+02  0.14045627384E+03  0.12499638442E+03 0.  0.
         25    2    1    2    0    0  0.26147026801E+02 -0.55584659872E+02  0.17561275298E+02  0.14038755183E+03  0.12500777934E+03 0.  0.
          5    1    3    3  502    0 -0.10168545047E+01  0.29637357762E+02 -0.70544910815E+02  0.76668646852E+02  0.47000000000E+01 0.  1.
         -5    1    3    3    0  502 -0.25130172297E+02  0.25947302110E+02  0.52363950479E+02  0.63787626984E+02  0.47000000000E+01 0.  1.
          5    1    4    4  503    0  0.34912096417E+02  0.10994254759E+02  0.52789544337E+02  0.64409270336E+02  0.47000000000E+01 0. -1.
         -5    1    4    4    0  503 -0.87650696156E+01 -0.66578914631E+02 -0.35228269039E+02  0.75978281491E+02  0.47000000000E+01 0. -1.
<mgrwt>
<rscale>  0 0.13928228E+03</rscale>
<asrwt>0</asrwt>
<pdfrwt beam="1">  1        5 0.21555703E-01 0.13928484E+03</pdfrwt>
<pdfrwt beam="2">  1       -5 0.21651039E-01 0.13928484E+03</pdfrwt>
<totfact> 0.29355478E+02</totfact>
</mgrwt>
</event>
<event>
 8    1  0.3588496E-007  0.1490258E+03  0.7546771E-02  0.1201679E+00
         -5   -1    0    0    0  501 -0.00000000000E+00  0.00000000000E+00  0.10878580078E+03  0.10888728324E+03  0.47000000000E+01 0. -1.
          5   -1    0    0  501    0  0.00000000000E+00 -0.00000000000E+00 -0.20612213559E+03  0.20617571336E+03  0.47000000000E+01 0. -1.
         25    2    1    2    0    0 -0.15357889534E+02 -0.79656716554E+02 -0.32357424743E+02  0.15249815920E+03  0.12501051299E+03 0.  0.
         25    2    1    2    0    0  0.15357889534E+02  0.79656716554E+02 -0.64978910064E+02  0.16256483740E+03  0.12499604131E+03 0.  0.
          5    1    4    4  502    0  0.35565514573E+02  0.47697898592E+02  0.25109506862E+02  0.64750078701E+02  0.47000000000E+01 0.  1.
         -5    1    4    4    0  502 -0.20207625040E+02  0.31958817963E+02 -0.90088416926E+02  0.97814758700E+02  0.47000000000E+01 0.  1.
          5    1    3    3  503    0 -0.39539084274E+02  0.14740562008E+02  0.13700332737E+02  0.44614038941E+02  0.47000000000E+01 0. -1.
         -5    1    3    3    0  503  0.24181194740E+02 -0.94397278562E+02 -0.46057757480E+02  0.10788412025E+03  0.47000000000E+01 0. -1.
<mgrwt>
<rscale>  0 0.14902275E+03</rscale>
<asrwt>0</asrwt>
<pdfrwt beam="2">  1        5 0.31723025E-01 0.14902579E+03</pdfrwt>
<pdfrwt beam="1">  1       -5 0.16748205E-01 0.14902579E+03</pdfrwt>
<totfact> 0.22958098E+02</totfact>
</mgrwt>
</event>
<event>
 8    1  0.3588496E-007  0.1825584E+03  0.7546771E-02  0.1165350E+00
         -5   -1    0    0    0  501 -0.00000000000E+00  0.00000000000E+00  0.50735981289E+03  0.50738158198E+03  0.47000000000E+01 0. -1.
          5   -1    0    0  501    0  0.00000000000E+00 -0.00000000000E+00 -0.83401550449E+02  0.83533877064E+02  0.47000000000E+01 0. -1.
         25    2    1    2    0    0  0.12411342614E+03 -0.47934098510E+02  0.34841572883E+03  0.39334455531E+03  0.12499839498E+03 0.  0.
         25    2    1    2    0    0 -0.12411342614E+03  0.47934098510E+02  0.75542533611E+02  0.19757090374E+03  0.12500306905E+03 0.  0.
          5    1    4    4  502    0 -0.85471636145E+02  0.90663216856E+02  0.49101376436E+02  0.13400841259E+03  0.47000000000E+01 0. -1.
         -5    1    4    4    0  502 -0.38641789993E+02 -0.42729118347E+02  0.26441157175E+02  0.63562491151E+02  0.47000000000E+01 0. -1.
          5    1    3    3  503    0  0.68318053826E+01  0.36273213482E+02  0.88048064921E+02  0.95587506074E+02  0.47000000000E+01 0.  1.
         -5    1    3    3    0  503  0.11728162076E+03 -0.84207311991E+02  0.26036766391E+03  0.29775704923E+03  0.47000000000E+01 0.  1.
<mgrwt>
<rscale>  0 0.18255765E+03</rscale>
<asrwt>0</asrwt>
<pdfrwt beam="2">  1        5 0.12842862E-01 0.18255845E+03</pdfrwt>
<pdfrwt beam="1">  1       -5 0.78067207E-01 0.18255845E+03</pdfrwt>
<totfact> 0.57885420E+01</totfact>
</mgrwt>
</event>
<event>
 8    1  0.3588496E-007  0.1408229E+03  0.7546771E-02  0.1212226E+00
          5   -1    0    0  501    0  0.00000000000E+00  0.00000000000E+00  0.34718728082E+03  0.34721909216E+03  0.47000000000E+01 0. -1.
         -5   -1    0    0    0  501 -0.00000000000E+00 -0.00000000000E+00 -0.69000256039E+02  0.69160142665E+02  0.47000000000E+01 0. -1.
         25    2    1    2    0    0  0.15189819550E+02  0.63045226841E+02  0.52358592049E+02  0.15024098704E+03  0.12500200311E+03 0.  0.
         25    2    1    2    0    0 -0.15189819550E+02 -0.63045226841E+02  0.22582843273E+03  0.26613824778E+03  0.12500261860E+03 0.  0.
          5    1    3    3  502    0  0.39104812702E+02  0.74295251400E+01  0.75322047113E+02  0.85322242127E+02  0.47000000000E+01 0.  1.
         -5    1    3    3    0  502 -0.23914993152E+02  0.55615701701E+02 -0.22963455064E+02  0.64918744917E+02  0.47000000000E+01 0.  1.
          5    1    4    4  503    0  0.48613930985E+02 -0.48461473920E+02  0.15500733909E+03  0.16959125541E+03  0.47000000000E+01 0.  1.
         -5    1    4    4    0  503 -0.63803750535E+02 -0.14583752922E+02  0.70821093641E+02  0.96546992372E+02  0.47000000000E+01 0.  1.
<mgrwt>
<rscale>  0 0.14082275E+03</rscale>
<asrwt>0</asrwt>
<pdfrwt beam="1">  1        5 0.53428172E-01 0.14082289E+03</pdfrwt>
<pdfrwt beam="2">  1       -5 0.10630170E-01 0.14082289E+03</pdfrwt>
<totfact> 0.17405183E+02</totfact>
</mgrwt>
</event>
<event>
 8    1  0.3588496E-007  0.1492144E+03  0.7546771E-02  0.1201443E+00
          5   -1    0    0  501    0  0.00000000000E+00  0.00000000000E+00  0.14866772436E+04  0.14866846729E+04  0.47000000000E+01 0.  1.
         -5   -1    0    0    0  501 -0.00000000000E+00 -0.00000000000E+00 -0.20988247699E+02  0.21508057595E+02  0.47000000000E+01 0.  1.
         25    2    1    2    0    0 -0.80467276239E+02  0.12845671352E+02  0.32296097557E+03  0.35576388003E+03  0.12499661104E+03 0.  0.
         25    2    1    2    0    0  0.80467276239E+02 -0.12845671352E+02  0.11427280204E+04  0.11524288505E+04  0.12499973253E+03 0.  0.
          5    1    3    3  502    0 -0.91346538896E+02 -0.16026017339E+02  0.30694644568E+03  0.32068556862E+03  0.47000000000E+01 0. -1.
         -5    1    3    3    0  502  0.10879262656E+02  0.28871688692E+02  0.16014529887E+02  0.35078311410E+02  0.47000000000E+01 0. -1.
          5    1    4    4  503    0 -0.31439317455E+02 -0.19001328041E+02  0.28787435127E+03  0.29024681440E+03  0.47000000000E+01 0.  1.
         -5    1    4    4    0  503  0.11190659369E+03  0.61556566887E+01  0.85485366910E+03  0.86218203611E+03  0.47000000000E+01 0.  1.
<mgrwt>
<rscale>  0 0.14921371E+03</rscale>
<asrwt>0</asrwt>
<pdfrwt beam="1">  1        5 0.22876014E+00 0.14921437E+03</pdfrwt>
<pdfrwt beam="2">  1       -5 0.32695180E-02 0.14921437E+03</pdfrwt>
<totfact> 0.30479621E+01</totfact>
</mgrwt>
</event>
<event>
 8    1  0.3588496E-007  0.1634774E+03  0.7546771E-02  0.1184826E+00
          5   -1    0    0  501    0  0.00000000000E+00  0.00000000000E+00  0.75685446623E+02  0.75831239147E+02  0.47000000000E+01 0.  1.
         -5   -1    0    0    0  501 -0.00000000000E+00 -0.00000000000E+00 -0.36128670329E+03  0.36131727329E+03  0.47000000000E+01 0.  1.
         25    2    1    2    0    0  0.10305862226E+03  0.21858815668E+02 -0.17668369156E+03  0.24071045379E+03  0.12500203299E+03 0.  0.
         25    2    1    2    0    0 -0.10305862226E+03 -0.21858815668E+02 -0.10891756511E+03  0.19643805865E+03  0.12500394974E+03 0.  0.
          5    1    3    3  502    0  0.91351711806E+02  0.59233087937E+02 -0.76798164257E+02  0.13331819827E+03  0.47000000000E+01 0.  1.
         -5    1    3    3    0  502  0.11706910457E+02 -0.37374272269E+02 -0.99885527305E+02  0.10739225552E+03  0.47000000000E+01 0.  1.
          5    1    4    4  503    0  0.96925157146E+01 -0.51042512282E+01  0.20624044558E+02  0.23820987709E+02  0.47000000000E+01 0.  1.
         -5    1    4    4    0  503 -0.11275113798E+03 -0.16754564440E+02 -0.12954160967E+03  0.17261707094E+03  0.47000000000E+01 0.  1.
<mgrwt>
<rscale>  0 0.16347708E+03</rscale>
<asrwt>0</asrwt>
<pdfrwt beam="1">  1        5 0.11657481E-01 0.16347744E+03</pdfrwt>
<pdfrwt beam="2">  1       -5 0.55596135E-01 0.16347744E+03</pdfrwt>
<totfact> 0.14242770E+02</totfact>
</mgrwt>
</event>
<event>
 8    1  0.3588496E-007  0.1481818E+03  0.7546771E-02  0.1202725E+00
          5   -1    0    0  501    0  0.00000000000E+00  0.00000000000E+00  0.14396300920E+04  0.14396377641E+04  0.47000000000E+01 0. -1.
         -5   -1    0    0    0  501 -0.00000000000E+00 -0.00000000000E+00 -0.15093258608E+02  0.15808113594E+02  0.47000000000E+01 0. -1.
         25    2    1    2    0    0 -0.24895536141E+02 -0.75582467092E+02  0.79627463875E+03  0.80994512113E+03  0.12500120752E+03 0.  0.
         25    2    1    2    0    0  0.24895536141E+02  0.75582467092E+02  0.62826219463E+03  0.64550075654E+03  0.12500137774E+03 0.  0.
          5    1    4    4  502    0  0.58553814842E+02  0.47909626075E+02  0.55483172458E+03  0.55998590527E+03  0.47000000000E+01 0. -1.
         -5    1    4    4    0  502 -0.33658278701E+02  0.27672841017E+02  0.73430470049E+02  0.85514851264E+02  0.47000000000E+01 0. -1.
          5    1    3    3  503    0 -0.89172706000E+01  0.34738270168E+02  0.22298617277E+03  0.22590083748E+03  0.47000000000E+01 0. -1.
         -5    1    3    3    0  503 -0.15978265541E+02 -0.11032073726E+03  0.57328846598E+03  0.58404428365E+03  0.47000000000E+01 0. -1.
<mgrwt>
<rscale>  0 0.14818175E+03</rscale>
<asrwt>0</asrwt>
<pdfrwt beam="1">  1        5 0.22153711E+00 0.14818179E+03</pdfrwt>
<pdfrwt beam="2">  1       -5 0.23776191E-02 0.14818179E+03</pdfrwt>
<totfact> 0.56621363E+01</totfact>
</mgrwt>
</event>
<event>
 8    1  0.3588496E-007  0.2009492E+03  0.7546771E-02  0.1148941E+00
          5   -1    0    0  501    0  0.00000000000E+00  0.00000000000E+00  0.13616583842E+03  0.13624692860E+03  0.47000000000E+01 0.  1.
         -5   -1    0    0    0  501 -0.00000000000E+00 -0.00000000000E+00 -0.40826332621E+03  0.40829037893E+03  0.47000000000E+01 0.  1.
         25    2    1    2    0    0 -0.13502348925E+03 -0.80780222919E+02 -0.27856913689E+03  0.34348388241E+03  0.12499450542E+03 0.  0.
         25    2    1    2    0    0  0.13502348925E+03  0.80780222919E+02  0.64716490988E+01  0.20105342512E+03  0.12499524169E+03 0.  0.
          5    1    3    3  502    0 -0.21181974800E+02 -0.49282208146E+02 -0.18513044830E+03  0.19280245067E+03  0.47000000000E+01 0. -1.
         -5    1    3    3    0  502 -0.11384151445E+03 -0.31498014774E+02 -0.93438688587E+02  0.15068143174E+03  0.47000000000E+01 0. -1.
          5    1    4    4  503    0  0.85670174293E+02  0.39994086581E+02  0.64474463641E+02  0.11453362906E+03  0.47000000000E+01 0.  1.
         -5    1    4    4    0  503  0.49353314956E+02  0.40786136338E+02 -0.58002814542E+02  0.86519796054E+02  0.47000000000E+01 0.  1.
<mgrwt>
<rscale>  0 0.20094913E+03</rscale>
<asrwt>0</asrwt>
<pdfrwt beam="1">  1        5 0.20956909E-01 0.20094924E+03</pdfrwt>
<pdfrwt beam="2">  1       -5 0.62818061E-01 0.20094924E+03</pdfrwt>
<totfact> 0.39520177E+01</totfact>
</mgrwt>
</event>
<event>
 8    1  0.3588496E-007  0.1367531E+03  0.7546771E-02  0.1217769E+00
          5   -1    0    0  501    0  0.00000000000E+00  0.00000000000E+00  0.15343392134E+03  0.15350588985E+03  0.47000000000E+01 0.  1.
         -5   -1    0    0    0  501 -0.00000000000E+00 -0.00000000000E+00 -0.12214061931E+03  0.12223101441E+03  0.47000000000E+01 0.  1.
         25    2    1    2    0    0  0.46324767655E+02 -0.30441822308E+02  0.76786582345E+01  0.13696852661E+03  0.12501490650E+03 0.  0.
         25    2    1    2    0    0 -0.46324767655E+02  0.30441822308E+02  0.23614643802E+02  0.13876837765E+03  0.12500529025E+03 0.  0.
          5    1    4    4  502    0 -0.13468409283E+02  0.13367155940E+02  0.73731655949E+02  0.76279263208E+02  0.47000000000E+01 0. -1.
         -5    1    4    4    0  502 -0.32856358372E+02  0.17074666368E+02 -0.50117012148E+02  0.62489114441E+02  0.47000000000E+01 0. -1.
          5    1    3    3  503    0  0.44689978674E+02 -0.67484866429E+02  0.37331277458E+02  0.89258700794E+02  0.47000000000E+01 0.  1.
         -5    1    3    3    0  503  0.16347889815E+01  0.37043044121E+02 -0.29652619224E+02  0.47709825818E+02  0.47000000000E+01 0.  1.
<mgrwt>
<rscale>  0 0.13675092E+03</rscale>
<asrwt>0</asrwt>
<pdfrwt beam="1">  1        5 0.23617708E-01 0.13675312E+03</pdfrwt>
<pdfrwt beam="2">  1       -5 0.18803354E-01 0.13675312E+03</pdfrwt>
<totfact> 0.31937343E+02</totfact>
</mgrwt>
</event>
<event>
 8    1  0.3588496E-007  0.2010269E+03  0.7546771E-02  0.1148876E+00
         -5   -1    0    0    0  501 -0.00000000000E+00  0.00000000000E+00  0.12855764752E+03  0.12864353359E+03  0.47000000000E+01 0. -1.
          5   -1    0    0  501    0  0.00000000000E+00 -0.00000000000E+00 -0.31502090435E+03  0.31505596356E+03  0.47000000000E+01 0. -1.
         25    2    1    2    0    0 -0.15126842752E+03 -0.43633195702E+02 -0.10499440014E+03  0.22679166595E+03  0.12499857099E+03 0.  0.
         25    2    1    2    0    0  0.15126842752E+03  0.43633195702E+02 -0.81468856692E+02  0.21690783121E+03  0.12500335874E+03 0.  0.
          5    1    3    3  502    0 -0.10648061110E+03 -0.87682936151E+02 -0.73249254760E+02  0.15624967570E+03  0.47000000000E+01 0. -1.
         -5    1    3    3    0  502 -0.44787816424E+02  0.44049740449E+02 -0.31745145381E+02  0.70541990253E+02  0.47000000000E+01 0. -1.
          5    1    4    4  503    0  0.16714846762E+03  0.59044463334E+02 -0.79057611241E+02  0.19415729389E+03  0.47000000000E+01 0.  1.
         -5    1    4    4    0  503 -0.15880040095E+02 -0.15411267631E+02 -0.24112454516E+01  0.22750537313E+02  0.47000000000E+01 0.  1.
<mgrwt>
<rscale>  0 0.20102620E+03</rscale>
<asrwt>0</asrwt>
<pdfrwt beam="2">  1        5 0.48474058E-01 0.20102695E+03</pdfrwt>
<pdfrwt beam="1">  1       -5 0.19787403E-01 0.20102695E+03</pdfrwt>
<totfact> 0.77326967E+01</totfact>
</mgrwt>
</event>
<event>
 8    1  0.3588496E-007  0.1340005E+03  0.7546771E-02  0.1221638E+00
         -5   -1    0    0    0  501 -0.00000000000E+00  0.00000000000E+00  0.64838234540E+02  0.65008358372E+02  0.47000000000E+01 0.  1.
          5   -1    0    0  501    0  0.00000000000E+00 -0.00000000000E+00 -0.52555665180E+03  0.52557766719E+03  0.47000000000E+01 0.  1.
         25    2    1    2    0    0 -0.27205850309E+02 -0.39885859315E+02 -0.27069294942E+02  0.13670531532E+03  0.12499822576E+03 0.  0.
         25    2    1    2    0    0  0.27205850309E+02  0.39885859315E+02 -0.43364912232E+03  0.45388071024E+03  0.12500039113E+03 0.  0.
          5    1    4    4  502    0 -0.29389347635E+01  0.55453713370E+02 -0.40615155805E+03  0.40995722919E+03  0.47000000000E+01 0. -1.
         -5    1    4    4    0  502  0.30144785073E+02 -0.15567854055E+02 -0.27497564270E+02  0.43923481052E+02  0.47000000000E+01 0. -1.
          5    1    3    3  503    0 -0.32309668730E+02  0.67884233729E+01 -0.67032402991E+02  0.74869422571E+02  0.47000000000E+01 0. -1.
         -5    1    3    3    0  503  0.51038184208E+01 -0.46674282688E+02  0.39963108049E+02  0.61835892747E+02  0.47000000000E+01 0. -1.
<mgrwt>
<rscale>  0 0.13400001E+03</rscale>
<asrwt>0</asrwt>
<pdfrwt beam="2">  1        5 0.80869570E-01 0.13400051E+03</pdfrwt>
<pdfrwt beam="1">  1       -5 0.99898164E-02 0.13400051E+03</pdfrwt>
<totfact> 0.75850287E+01</totfact>
</mgrwt>
</event>
<event>
 8    1  0.3588496E-007  0.1290217E+03  0.7546771E-02  0.1228916E+00
          5   -1    0    0  501    0  0.00000000000E+00  0.00000000000E+00  0.51408776278E+02  0.51623175787E+02  0.47000000000E+01 0.  1.
         -5   -1    0    0    0  501 -0.00000000000E+00 -0.00000000000E+00 -0.36960366155E+03  0.36963354371E+03  0.47000000000E+01 0.  1.
         25    2    1    2    0    0  0.19855768612E+02  0.25041969572E+02 -0.23395428348E+03  0.26717261578E+03  0.12500099230E+03 0.  0.
         25    2    1    2    0    0 -0.19855768612E+02 -0.25041969572E+02 -0.84240601793E+02  0.15408410371E+03  0.12499632090E+03 0.  0.
          5    1    3    3  502    0  0.51490354574E+02  0.61478702706E+02 -0.13842988109E+03  0.16004939699E+03  0.47000000000E+01 0. -1.
         -5    1    3    3    0  502 -0.31634585962E+02 -0.36436733134E+02 -0.95524402397E+02  0.10712321879E+03  0.47000000000E+01 0. -1.
          5    1    4    4  503    0 -0.39357757182E+02 -0.63781716682E+02 -0.22325279950E+02  0.78343146211E+02  0.47000000000E+01 0.  1.
         -5    1    4    4    0  503  0.19501988571E+02  0.38739747110E+02 -0.61915321843E+02  0.75740957501E+02  0.47000000000E+01 0.  1.
<mgrwt>
<rscale>  0 0.12902057E+03</rscale>
<asrwt>0</asrwt>
<pdfrwt beam="1">  1        5 0.79278336E-02 0.12902170E+03</pdfrwt>
<pdfrwt beam="2">  1       -5 0.56880891E-01 0.12902170E+03</pdfrwt>
<totfact> 0.24537268E+02</totfact>
</mgrwt>
</event>
<event>
 8    1  0.3588496E-007  0.1372048E+03  0.7546771E-02  0.1217141E+00
         -5   -1    0    0    0  501 -0.00000000000E+00  0.00000000000E+00  0.10372653491E+04  0.10372759973E+04  0.47000000000E+01 0.  1.
          5   -1    0    0  501    0  0.00000000000E+00 -0.00000000000E+00 -0.17878399781E+02  0.18485864295E+02  0.47000000000E+01 0.  1.
         25    2    1    2    0    0  0.56338202303E+02 -0.50434360815E+01  0.48365777474E+03  0.50274248707E+03  0.12500294379E+03 0.  0.
         25    2    1    2    0    0 -0.56338202303E+02  0.50434360815E+01  0.53572917460E+03  0.55301937448E+03  0.12500100298E+03 0.  0.
          5    1    3    3  502    0 -0.30987659745E+02 -0.17931133690E+02  0.25584858029E+03  0.25838410680E+03  0.47000000000E+01 0.  1.
         -5    1    3    3    0  502  0.87325862048E+02  0.12887697609E+02  0.22780919445E+03  0.24435838027E+03  0.47000000000E+01 0.  1.
          5    1    4    4  503    0 -0.31452905807E+02  0.38898570783E+02  0.74518073284E+02  0.89874453204E+02  0.47000000000E+01 0.  1.
         -5    1    4    4    0  503 -0.24885296496E+02 -0.33855134702E+02  0.46121110132E+03  0.46314492128E+03  0.47000000000E+01 0.  1.
<mgrwt>
<rscale>  0 0.13720439E+03</rscale>
<asrwt>0</asrwt>
<pdfrwt beam="2">  1        5 0.27980704E-02 0.13720483E+03</pdfrwt>
<pdfrwt beam="1">  1       -5 0.15962682E+00 0.13720483E+03</pdfrwt>
<totfact> 0.11505021E+02</totfact>
</mgrwt>
</event>
<event>
 8    1  0.3588496E-007  0.1544656E+03  0.7546771E-02  0.1195096E+00
         -5   -1    0    0    0  501 -0.00000000000E+00  0.00000000000E+00  0.10769300809E+04  0.10769403369E+04  0.47000000000E+01 0. -1.
          5   -1    0    0  501    0  0.00000000000E+00 -0.00000000000E+00 -0.22773085517E+02  0.23253030425E+02  0.47000000000E+01 0. -1.
         25    2    1    2    0    0  0.39694703011E+02  0.81608703422E+02  0.63410580558E+03  0.65264829806E+03  0.12499591339E+03 0.  0.
         25    2    1    2    0    0 -0.39694703011E+02 -0.81608703422E+02  0.42005118982E+03  0.44754506924E+03  0.12497174485E+03 0.  0.
          5    1    3    3  502    0  0.33321695056E+02  0.81477924202E+02  0.20113447649E+03  0.21960454259E+03  0.47000000000E+01 0. -1.
         -5    1    3    3    0  502  0.63730079552E+01  0.13077921952E+00  0.43297132909E+03  0.43304375546E+03  0.47000000000E+01 0. -1.
          5    1    4    4  503    0 -0.29840365816E+02 -0.11486133050E+03  0.30581897013E+03  0.32807149399E+03  0.47000000000E+01 0.  1.
         -5    1    4    4    0  503 -0.98543371951E+01  0.33252627074E+02  0.11423221969E+03  0.11947357525E+03  0.47000000000E+01 0.  1.
<mgrwt>
<rscale>  0 0.15446073E+03</rscale>
<asrwt>0</asrwt>
<pdfrwt beam="2">  1        5 0.35412587E-02 0.15446562E+03</pdfrwt>
<pdfrwt beam="1">  1       -5 0.16571929E+00 0.15446562E+03</pdfrwt>
<totfact> 0.73212466E+01</totfact>
</mgrwt>
</event>
<event>
 8    1  0.3588496E-007  0.1546320E+03  0.7546771E-02  0.1194895E+00
         -5   -1    0    0    0  501 -0.00000000000E+00  0.00000000000E+00  0.71791548062E+03  0.71793086528E+03  0.47000000000E+01 0.  1.
          5   -1    0    0  501    0  0.00000000000E+00 -0.00000000000E+00 -0.45607933941E+02  0.45849467155E+02  0.47000000000E+01 0.  1.
         25    2    1    2    0    0  0.90587907135E+02  0.89446858084E+01  0.53529961213E+03  0.55718644156E+03  0.12499951837E+03 0.  0.
         25    2    1    2    0    0 -0.90587907135E+02 -0.89446858084E+01  0.13700793455E+03  0.20659389087E+03  0.12499474105E+03 0.  0.
          5    1    4    4  502    0 -0.53664118261E+01 -0.29013550559E+02  0.11127599300E+03  0.11521727783E+03  0.47000000000E+01 0.  1.
         -5    1    4    4    0  502 -0.85221495309E+02  0.20068864751E+02  0.25731941554E+02  0.91376613043E+02  0.47000000000E+01 0.  1.
          5    1    3    3  503    0  0.12225595303E+03  0.63571223232E+01  0.42315369777E+03  0.44053158001E+03  0.47000000000E+01 0. -1.
         -5    1    3    3    0  503 -0.31668045890E+02  0.25875634852E+01  0.11214591436E+03  0.11665486155E+03  0.47000000000E+01 0. -1.
<mgrwt>
<rscale>  0 0.15463104E+03</rscale>
<asrwt>0</asrwt>
<pdfrwt beam="2">  1        5 0.70363682E-02 0.15463200E+03</pdfrwt>
<pdfrwt beam="1">  1       -5 0.11046830E+00 0.15463200E+03</pdfrwt>
<totfact> 0.68485054E+01</totfact>
</mgrwt>
</event>
<event>
 8    1  0.3588496E-007  0.1251271E+03  0.7546771E-02  0.1234873E+00
          5   -1    0    0  501    0  0.00000000000E+00  0.00000000000E+00  0.14045103341E+03  0.14052965091E+03  0.47000000000E+01 0.  1.
         -5   -1    0    0    0  501 -0.00000000000E+00 -0.00000000000E+00 -0.11860160936E+03  0.11869469972E+03  0.47000000000E+01 0.  1.
         25    2    1    2    0    0  0.47051196321E+01  0.29455771110E+01 -0.21185891064E+02  0.12690798316E+03  0.12500391848E+03 0.  0.
         25    2    1    2    0    0 -0.47051196321E+01 -0.29455771110E+01  0.43035315119E+02  0.13231636747E+03  0.12499907271E+03 0.  0.
          5    1    3    3  502    0  0.33791643327E+02  0.42740407963E+02 -0.46056643534E+02  0.71497706573E+02  0.47000000000E+01 0. -1.
         -5    1    3    3    0  502 -0.29086523695E+02 -0.39794830852E+02  0.24870752470E+02  0.55410276588E+02  0.47000000000E+01 0. -1.
          5    1    4    4  503    0 -0.24181470240E+02  0.53572926536E+02  0.41908803928E+02  0.72341134960E+02  0.47000000000E+01 0. -1.
         -5    1    4    4    0  503  0.19476350608E+02 -0.56518503647E+02  0.11265111904E+01  0.59975232513E+02  0.47000000000E+01 0. -1.
<mgrwt>
<rscale>  0 0.12512590E+03</rscale>
<asrwt>0</asrwt>
<pdfrwt beam="1">  1        5 0.21621060E-01 0.12512711E+03</pdfrwt>
<pdfrwt beam="2">  1       -5 0.18259610E-01 0.12512711E+03</pdfrwt>
<totfact> 0.38590632E+02</totfact>
</mgrwt>
</event>
<event>
 8    1  0.3588496E-007  0.1413595E+03  0.7546771E-02  0.1211513E+00
          5   -1    0    0  501    0  0.00000000000E+00  0.00000000000E+00  0.51991533976E+02  0.52203540159E+02  0.47000000000E+01 0.  1.
         -5   -1    0    0    0  501 -0.00000000000E+00 -0.00000000000E+00 -0.38338796096E+03  0.38341676881E+03  0.47000000000E+01 0.  1.
         25    2    1    2    0    0  0.57438256097E+02 -0.32538903462E+02 -0.16279777473E+03  0.21560523774E+03  0.12499827832E+03 0.  0.
         25    2    1    2    0    0 -0.57438256097E+02  0.32538903462E+02 -0.16859865226E+03  0.22001507124E+03  0.12499276990E+03 0.  0.
          5    1    3    3  502    0  0.17213592597E+01  0.41262879333E+02 -0.21831754694E+02  0.46950013861E+02  0.47000000000E+01 0. -1.
         -5    1    3    3    0  502  0.55716896838E+02 -0.73801782795E+02 -0.14096602003E+03  0.16865522388E+03  0.47000000000E+01 0. -1.
          5    1    4    4  503    0 -0.24721919328E+02 -0.12475935115E+02  0.12321810309E+02  0.30671473091E+02  0.47000000000E+01 0. -1.
         -5    1    4    4    0  503 -0.32716336769E+02  0.45014838578E+02 -0.18092046256E+03  0.18934359814E+03  0.47000000000E+01 0. -1.
<mgrwt>
<rscale>  0 0.14135826E+03</rscale>
<asrwt>0</asrwt>
<pdfrwt beam="1">  1        5 0.80172219E-02 0.14135948E+03</pdfrwt>
<pdfrwt beam="2">  1       -5 0.59001286E-01 0.14135948E+03</pdfrwt>
<totfact> 0.22937405E+02</totfact>
</mgrwt>
</event>
<event>
 8    1  0.3588496E-007  0.1275939E+03  0.7546771E-02  0.1231070E+00
         -5   -1    0    0    0  501 -0.00000000000E+00  0.00000000000E+00  0.57539434392E+03  0.57541353913E+03  0.47000000000E+01 0.  1.
          5   -1    0    0  501    0  0.00000000000E+00 -0.00000000000E+00 -0.28616453613E+02  0.28999852024E+02  0.47000000000E+01 0.  1.
         25    2    1    2    0    0 -0.22134046775E+02 -0.12827817710E+02  0.31451420307E+03  0.33941032937E+03  0.12500287524E+03 0.  0.
         25    2    1    2    0    0  0.22134046775E+02  0.12827817710E+02  0.23226368724E+03  0.26500306179E+03  0.12500293361E+03 0.  0.
          5    1    4    4  502    0 -0.12600617104E+01 -0.15344619422E+02  0.22716308476E+03  0.22773274288E+03  0.47000000000E+01 0. -1.
         -5    1    4    4    0  502  0.23394108485E+02  0.28172437131E+02  0.51006024762E+01  0.37270318906E+02  0.47000000000E+01 0. -1.
          5    1    3    3  503    0 -0.67956928418E+02  0.40613536338E+01  0.11297323201E+03  0.13198363484E+03  0.47000000000E+01 0. -1.
         -5    1    3    3    0  503  0.45822881643E+02 -0.16889171343E+02  0.20154097106E+03  0.20742669454E+03  0.47000000000E+01 0. -1.
<mgrwt>
<rscale>  0 0.12759388E+03</rscale>
<asrwt>0</asrwt>
<pdfrwt beam="2">  1        5 0.44335000E-02 0.12759390E+03</pdfrwt>
<pdfrwt beam="1">  1       -5 0.88553177E-01 0.12759390E+03</pdfrwt>
<totfact> 0.23855578E+02</totfact>
</mgrwt>
</event>
<event>
 8    1  0.3588496E-007  0.1438034E+03  0.7546771E-02  0.1208308E+00
         -5   -1    0    0    0  501 -0.00000000000E+00  0.00000000000E+00  0.33995259835E+03  0.33998508662E+03  0.47000000000E+01 0. -1.
          5   -1    0    0  501    0  0.00000000000E+00 -0.00000000000E+00 -0.69766955323E+02  0.69925088882E+02  0.47000000000E+01 0. -1.
         25    2    1    2    0    0 -0.19364183577E+02  0.68396999990E+02  0.20888403552E+03  0.25358584384E+03  0.12498047322E+03 0.  0.
         25    2    1    2    0    0  0.19364183577E+02 -0.68396999990E+02  0.61301607500E+02  0.15632433166E+03  0.12500515339E+03 0.  0.
          5    1    4    4  502    0  0.60336207886E+02  0.33977114637E+01  0.20233936408E+02  0.63902305184E+02  0.47000000000E+01 0.  1.
         -5    1    4    4    0  502 -0.40972024309E+02 -0.71794711454E+02  0.41067671092E+02  0.92422026475E+02  0.47000000000E+01 0.  1.
          5    1    3    3  503    0 -0.58333236804E+02  0.30629976571E+01  0.48712883549E+02  0.76204878416E+02  0.47000000000E+01 0.  1.
         -5    1    3    3    0  503  0.38969053228E+02  0.65334002333E+02  0.16017115197E+03  0.17738096542E+03  0.47000000000E+01 0.  1.
<mgrwt>
<rscale>  0 0.14379801E+03</rscale>
<asrwt>0</asrwt>
<pdfrwt beam="2">  1        5 0.10748041E-01 0.14380337E+03</pdfrwt>
<pdfrwt beam="1">  1       -5 0.52315062E-01 0.14380337E+03</pdfrwt>
<totfact> 0.17982268E+02</totfact>
</mgrwt>
</event>
<event>
 8    1  0.3588496E-007  0.1316559E+03  0.7546771E-02  0.1225032E+00
         -5   -1    0    0    0  501 -0.00000000000E+00  0.00000000000E+00  0.29822296310E+02  0.30190385178E+02  0.47000000000E+01 0. -1.
          5   -1    0    0  501    0  0.00000000000E+00 -0.00000000000E+00 -0.58924012837E+03  0.58925887255E+03  0.47000000000E+01 0. -1.
         25    2    1    2    0    0 -0.41157861192E+02 -0.24877783800E+01 -0.23535059840E+03  0.26967236284E+03  0.12503247792E+03 0.  0.
         25    2    1    2    0    0  0.41157861192E+02  0.24877783800E+01 -0.32406723366E+03  0.34977689489E+03  0.12499658270E+03 0.  0.
          5    1    3    3  502    0  0.38581334090E+02 -0.93943814079E+01 -0.32419278781E+02  0.51476920837E+02  0.47000000000E+01 0. -1.
         -5    1    3    3    0  502 -0.79739195281E+02  0.69066030280E+01 -0.20293131962E+03  0.21819544201E+03  0.47000000000E+01 0. -1.
          5    1    4    4  503    0 -0.44958903591E+02  0.33138459094E+01 -0.11614874156E+03  0.12467920738E+03  0.47000000000E+01 0. -1.
         -5    1    4    4    0  503  0.86116764783E+02 -0.82606752947E+00 -0.20791849210E+03  0.22509768751E+03  0.47000000000E+01 0. -1.
<mgrwt>
<rscale>  0 0.13164739E+03</rscale>
<asrwt>0</asrwt>
<pdfrwt beam="2">  1        5 0.90682076E-01 0.13165591E+03</pdfrwt>
<pdfrwt beam="1">  1       -5 0.46178024E-02 0.13165591E+03</pdfrwt>
<totfact> 0.21321463E+02</totfact>
</mgrwt>
</event>
<event>
 8    1  0.3588496E-007  0.1311912E+03  0.7546771E-02  0.1225699E+00
         -5   -1    0    0    0  501 -0.00000000000E+00  0.00000000000E+00  0.60152078095E+03  0.60153914247E+03  0.47000000000E+01 0.  1.
          5   -1    0    0  501    0  0.00000000000E+00 -0.00000000000E+00 -0.48859601150E+02  0.49085136493E+02  0.47000000000E+01 0.  1.
         25    2    1    2    0    0 -0.25259293684E+02 -0.30826354732E+02  0.48614494345E+03  0.50353552738E+03  0.12499130060E+03 0.  0.
         25    2    1    2    0    0  0.25259293684E+02  0.30826354732E+02  0.66516236354E+02  0.14708875158E+03  0.12498957989E+03 0.  0.
          5    1    3    3  502    0 -0.19870076534E+01 -0.18251540867E+01  0.45436038681E+03  0.45439270515E+03  0.47000000000E+01 0.  1.
         -5    1    3    3    0  502 -0.23272286031E+02 -0.29001200645E+02  0.31784556638E+02  0.49142822229E+02  0.47000000000E+01 0.  1.
          5    1    4    4  503    0  0.10847335352E+02 -0.14635344951E+02 -0.32235114520E+02  0.37323593265E+02  0.47000000000E+01 0.  1.
         -5    1    4    4    0  503  0.14411958332E+02  0.45461699683E+02  0.98751350874E+02  0.10976515832E+03  0.47000000000E+01 0.  1.
<mgrwt>
<rscale>  0 0.13119075E+03</rscale>
<asrwt>0</asrwt>
<pdfrwt beam="2">  1        5 0.75356233E-02 0.13119116E+03</pdfrwt>
<pdfrwt beam="1">  1       -5 0.92560416E-01 0.13119116E+03</pdfrwt>
<totfact> 0.89184061E+01</totfact>
</mgrwt>
</event>
<event>
 8    1  0.3588496E-007  0.1263374E+03  0.7546771E-02  0.1232996E+00
          5   -1    0    0  501    0  0.00000000000E+00  0.00000000000E+00  0.16691431384E+03  0.16698047241E+03  0.47000000000E+01 0.  1.
         -5   -1    0    0    0  501 -0.00000000000E+00 -0.00000000000E+00 -0.13994661622E+03  0.14002551693E+03  0.47000000000E+01 0.  1.
         25    2    1    2    0    0 -0.19673409753E+00 -0.18288981138E+02 -0.72995668616E+02  0.14590408461E+03  0.12500043494E+03 0.  0.
         25    2    1    2    0    0  0.19673409753E+00  0.18288981138E+02  0.99963366241E+02  0.16110190472E+03  0.12500649414E+03 0.  0.
          5    1    4    4  502    0  0.56528516274E+01 -0.21268280521E+02  0.11574202210E+03  0.11790928788E+03  0.47000000000E+01 0. -1.
         -5    1    4    4    0  502 -0.54561175299E+01  0.39557261659E+02 -0.15778655863E+02  0.43192616838E+02  0.47000000000E+01 0. -1.
          5    1    3    3  503    0 -0.17028296116E+02  0.50818562100E+02 -0.41624878472E+02  0.68023596129E+02  0.47000000000E+01 0. -1.
         -5    1    3    3    0  503  0.16831562018E+02 -0.69107543238E+02 -0.31370790145E+02  0.77880488485E+02  0.47000000000E+01 0. -1.
<mgrwt>
<rscale>  0 0.12633594E+03</rscale>
<asrwt>0</asrwt>
<pdfrwt beam="1">  1        5 0.25690284E-01 0.12633744E+03</pdfrwt>
<pdfrwt beam="2">  1       -5 0.21541407E-01 0.12633744E+03</pdfrwt>
<totfact> 0.20518512E+02</totfact>
</mgrwt>
</event>
<event>
 8    1  0.3588496E-007  0.1415637E+03  0.7546771E-02  0.1211241E+00
          5   -1    0    0  501    0  0.00000000000E+00  0.00000000000E+00  0.44233464010E+03  0.44235960918E+03  0.47000000000E+01 0.  1.
         -5   -1    0    0    0  501 -0.00000000000E+00 -0.00000000000E+00 -0.47034419480E+02  0.47268664206E+02  0.47000000000E+01 0.  1.
         25    2    1    2    0    0  0.30563989445E+02  0.58999511304E+02  0.14887580571E+03  0.20543596942E+03  0.12499932888E+03 0.  0.
         25    2    1    2    0    0 -0.30563989445E+02 -0.58999511304E+02  0.24642441491E+03  0.28419230397E+03  0.12500069434E+03 0.  0.
          5    1    3    3  502    0  0.19005129296E+02  0.55819223143E+02  0.32502029219E+01  0.59242167676E+02  0.47000000000E+01 0. -1.
         -5    1    3    3    0  502  0.11558860149E+02  0.31802881607E+01  0.14562560279E+03  0.14619380174E+03  0.47000000000E+01 0. -1.
          5    1    4    4  503    0  0.65408984429E+01 -0.59325333805E+02  0.34718974379E+02  0.69208205911E+02  0.47000000000E+01 0. -1.
         -5    1    4    4    0  503 -0.37104887888E+02  0.32582250110E+00  0.21170544053E+03  0.21498409806E+03  0.47000000000E+01 0. -1.
<mgrwt>
<rscale>  0 0.14156337E+03</rscale>
<asrwt>0</asrwt>
<pdfrwt beam="1">  1        5 0.68071425E-01 0.14156367E+03</pdfrwt>
<pdfrwt beam="2">  1       -5 0.72560038E-02 0.14156367E+03</pdfrwt>
<totfact> 0.19835700E+02</totfact>
</mgrwt>
</event>
<event>
 8    1  0.3588496E-007  0.1527980E+03  0.7546771E-02  0.1197078E+00
          5   -1    0    0  501    0  0.00000000000E+00  0.00000000000E+00  0.17240434403E+02  0.17869599279E+02  0.47000000000E+01 0. -1.
         -5   -1    0    0    0  501 -0.00000000000E+00 -0.00000000000E+00 -0.13490935610E+04  0.13491017479E+04  0.47000000000E+01 0. -1.
         25    2    1    2    0    0  0.89483841455E+01 -0.87418259084E+02 -0.74876413412E+03  0.76419563631E+03  0.12500086560E+03 0.  0.
         25    2    1    2    0    0 -0.89483841455E+01  0.87418259084E+02 -0.58308899244E+03  0.60277571090E+03  0.12499503565E+03 0.  0.
          5    1    3    3  502    0  0.29212088180E+02  0.12032052168E+02 -0.39046861288E+03  0.39177282195E+03  0.47000000000E+01 0.  1.
         -5    1    3    3    0  502 -0.20263704034E+02 -0.99450311251E+02 -0.35829552124E+03  0.37242281435E+03  0.47000000000E+01 0.  1.
          5    1    4    4  503    0  0.37936982455E+02 -0.12760438792E+02 -0.19954354812E+03  0.20357249577E+03  0.47000000000E+01 0.  1.
         -5    1    4    4    0  503 -0.46885366601E+02  0.10017869788E+03 -0.38354544432E+03  0.39920321513E+03  0.47000000000E+01 0.  1.
<mgrwt>
<rscale>  0 0.15279685E+03</rscale>
<asrwt>0</asrwt>
<pdfrwt beam="1">  1        5 0.27014026E-02 0.15279804E+03</pdfrwt>
<pdfrwt beam="2">  1       -5 0.20760180E+00 0.15279804E+03</pdfrwt>
<totfact> 0.57492055E+01</totfact>
</mgrwt>
</event>
<event>
 8    1  0.3588496E-007  0.1338489E+03  0.7546771E-02  0.1221855E+00
         -5   -1    0    0    0  501 -0.00000000000E+00  0.00000000000E+00  0.68365368037E+02  0.68526736001E+02  0.47000000000E+01 0. -1.
          5   -1    0    0  501    0  0.00000000000E+00 -0.00000000000E+00 -0.27458237853E+03  0.27462260031E+03  0.47000000000E+01 0. -1.
         25    2    1    2    0    0  0.41928270444E+02  0.23081751886E+02 -0.65756208754E+02  0.14912673250E+03  0.12499662485E+03 0.  0.
         25    2    1    2    0    0 -0.41928270444E+02 -0.23081751886E+02 -0.14046080174E+03  0.19402260381E+03  0.12499914732E+03 0.  0.
          5    1    4    4  502    0 -0.20773731580E+02 -0.74586954592E+02 -0.88992530936E+02  0.11805304859E+03  0.47000000000E+01 0. -1.
         -5    1    4    4    0  502 -0.21154538863E+02  0.51505202706E+02 -0.51468270806E+02  0.75969555218E+02  0.47000000000E+01 0. -1.
          5    1    3    3  503    0 -0.26863025429E+02  0.19247979936E+02 -0.72425358648E+02  0.79747284857E+02  0.47000000000E+01 0.  1.
         -5    1    3    3    0  503  0.68791295872E+02  0.38337719500E+01  0.66691498944E+01  0.69379447645E+02  0.47000000000E+01 0.  1.
<mgrwt>
<rscale>  0 0.13384833E+03</rscale>
<asrwt>0</asrwt>
<pdfrwt beam="2">  1        5 0.42258949E-01 0.13384892E+03</pdfrwt>
<pdfrwt beam="1">  1       -5 0.10533256E-01 0.13384892E+03</pdfrwt>
<totfact> 0.28466355E+02</totfact>
</mgrwt>
</event>
<event>
 8    1  0.3588496E-007  0.1409189E+03  0.7546771E-02  0.1212101E+00
         -5   -1    0    0    0  501 -0.00000000000E+00  0.00000000000E+00  0.30953159410E+03  0.30956727499E+03  0.47000000000E+01 0.  1.
          5   -1    0    0  501    0  0.00000000000E+00 -0.00000000000E+00 -0.65009183008E+02  0.65178860648E+02  0.47000000000E+01 0.  1.
         25    2    1    2    0    0 -0.56820547671E+02 -0.31629250392E+02  0.14528275603E+03  0.20239868067E+03  0.12501664937E+03 0.  0.
         25    2    1    2    0    0  0.56820547671E+02  0.31629250392E+02  0.99239655065E+02  0.17234745497E+03  0.12500460783E+03 0.  0.
          5    1    4    4  502    0  0.21233699011E+02  0.75042462233E+02  0.31488088735E+02  0.84236754709E+02  0.47000000000E+01 0. -1.
         -5    1    4    4    0  502  0.35586848661E+02 -0.43413211841E+02  0.67751566330E+02  0.88110700259E+02  0.47000000000E+01 0. -1.
          5    1    3    3  503    0  0.31101129884E+02 -0.39467257377E+02  0.69961497407E+02  0.86264974377E+02  0.47000000000E+01 0.  1.
         -5    1    3    3    0  503 -0.87921677555E+02  0.78380069852E+01  0.75321258623E+02  0.11613370630E+03  0.47000000000E+01 0.  1.
<mgrwt>
<rscale>  0 0.14091627E+03</rscale>
<asrwt>0</asrwt>
<pdfrwt beam="2">  1        5 0.10017209E-01 0.14091894E+03</pdfrwt>
<pdfrwt beam="1">  1       -5 0.47636042E-01 0.14091894E+03</pdfrwt>
<totfact> 0.24646943E+02</totfact>
</mgrwt>
</event>
<event>
 8    1  0.3588496E-007  0.1311093E+03  0.7546771E-02  0.1225820E+00
          5   -1    0    0  501    0  0.00000000000E+00  0.00000000000E+00  0.33473566273E+03  0.33476865729E+03  0.47000000000E+01 0. -1.
         -5   -1    0    0    0  501 -0.00000000000E+00 -0.00000000000E+00 -0.51827397639E+02  0.52040072502E+02  0.47000000000E+01 0. -1.
         25    2    1    2    0    0 -0.10590966786E+02  0.38119682049E+02  0.16254259118E+03  0.20882947830E+03  0.12499751326E+03 0.  0.
         25    2    1    2    0    0  0.10590966786E+02 -0.38119682049E+02  0.12036567391E+03  0.17797925150E+03  0.12499375892E+03 0.  0.
          5    1    3    3  502    0 -0.16549361411E+02  0.20634956069E+01 -0.17753077977E+02  0.24807280280E+02  0.47000000000E+01 0.  1.
         -5    1    3    3    0  502  0.59583946249E+01  0.36056186442E+02  0.18029566915E+03  0.18402219802E+03  0.47000000000E+01 0.  1.
          5    1    4    4  503    0 -0.27542636548E+02  0.17337750946E+02 -0.72085331271E+01  0.33663739925E+02  0.47000000000E+01 0.  1.
         -5    1    4    4    0  503  0.38133603334E+02 -0.55457432995E+02  0.12757420704E+03  0.14431551157E+03  0.47000000000E+01 0.  1.
<mgrwt>
<rscale>  0 0.13110844E+03</rscale>
<asrwt>0</asrwt>
<pdfrwt beam="1">  1        5 0.51516692E-01 0.13110933E+03</pdfrwt>
<pdfrwt beam="2">  1       -5 0.79923435E-02 0.13110933E+03</pdfrwt>
<totfact> 0.30104694E+02</totfact>
</mgrwt>
</event>
<event>
 8    1  0.3588496E-007  0.1562523E+03  0.7546771E-02  0.1192994E+00
         -5   -1    0    0    0  501 -0.00000000000E+00  0.00000000000E+00  0.12744854642E+03  0.12753517940E+03  0.47000000000E+01 0.  1.
          5   -1    0    0  501    0  0.00000000000E+00 -0.00000000000E+00 -0.19275631705E+03  0.19281360886E+03  0.47000000000E+01 0.  1.
         25    2    1    2    0    0 -0.91975907426E+02 -0.18164220210E+02 -0.19144786113E+02  0.15742076826E+03  0.12500107600E+03 0.  0.
         25    2    1    2    0    0  0.91975907426E+02  0.18164220210E+02 -0.46162984510E+02  0.16292802001E+03  0.12500004849E+03 0.  0.
          5    1    3    3  502    0  0.25041698232E+01 -0.14594781999E+02  0.41962944541E+02  0.44746589174E+02  0.47000000000E+01 0. -1.
         -5    1    3    3    0  502 -0.94480077250E+02 -0.35694382119E+01 -0.61107730654E+02  0.11267417908E+03  0.47000000000E+01 0. -1.
          5    1    4    4  503    0  0.10805047228E+03 -0.20978503960E+02 -0.48318003992E+02  0.12029846923E+03  0.47000000000E+01 0. -1.
         -5    1    4    4    0  503 -0.16074564855E+02  0.39142724170E+02  0.21550194819E+01  0.42629550780E+02  0.47000000000E+01 0. -1.
<mgrwt>
<rscale>  0 0.15625208E+03</rscale>
<asrwt>0</asrwt>
<pdfrwt beam="2">  1        5 0.29665889E-01 0.15625228E+03</pdfrwt>
<pdfrwt beam="1">  1       -5 0.19618540E-01 0.15625228E+03</pdfrwt>
<totfact> 0.19864841E+02</totfact>
</mgrwt>
</event>
<event>
 8    1  0.3588496E-007  0.1326600E+03  0.7546771E-02  0.1223563E+00
          5   -1    0    0  501    0  0.00000000000E+00  0.00000000000E+00  0.37034494804E+02  0.37331539018E+02  0.47000000000E+01 0.  1.
         -5   -1    0    0    0  501 -0.00000000000E+00 -0.00000000000E+00 -0.47831009439E+03  0.47833318554E+03  0.47000000000E+01 0.  1.
         25    2    1    2    0    0 -0.31666120515E+02  0.31166245573E+02 -0.24787910137E+03  0.28114537964E+03  0.12499839018E+03 0.  0.
         25    2    1    2    0    0  0.31666120515E+02 -0.31166245573E+02 -0.19339649821E+03  0.23451934492E+03  0.12499215803E+03 0.  0.
          5    1    3    3  502    0 -0.32123203091E+02  0.69188012798E+02 -0.87156077887E+02  0.11591873535E+03  0.47000000000E+01 0.  1.
         -5    1    3    3    0  502  0.45708257647E+00 -0.38021767226E+02 -0.16072302348E+03  0.16522664429E+03  0.47000000000E+01 0.  1.
          5    1    4    4  503    0 -0.38282167768E+02 -0.46590170443E+02 -0.97414371884E+02  0.11466393592E+03  0.47000000000E+01 0.  1.
         -5    1    4    4    0  503  0.69948288283E+02  0.15423924870E+02 -0.95982126330E+02  0.11985540900E+03  0.47000000000E+01 0.  1.
<mgrwt>
<rscale>  0 0.13265853E+03</rscale>
<asrwt>0</asrwt>
<pdfrwt beam="1">  1        5 0.57222407E-02 0.13266000E+03</pdfrwt>
<pdfrwt beam="2">  1       -5 0.73610790E-01 0.13266000E+03</pdfrwt>
<totfact> 0.24291225E+02</totfact>
</mgrwt>
</event>
<event>
 8    1  0.3588496E-007  0.1568716E+03  0.7546771E-02  0.1192278E+00
          5   -1    0    0  501    0  0.00000000000E+00  0.00000000000E+00  0.64821907231E+03  0.64823611108E+03  0.47000000000E+01 0.  1.
         -5   -1    0    0    0  501 -0.00000000000E+00 -0.00000000000E+00 -0.39276477324E+02  0.39556689333E+02  0.47000000000E+01 0.  1.
         25    2    1    2    0    0  0.49991060756E+02 -0.80509344984E+02  0.23801524184E+03  0.28506133356E+03  0.12501139051E+03 0.  0.
         25    2    1    2    0    0 -0.49991060756E+02  0.80509344984E+02  0.37092735315E+03  0.40273146685E+03  0.12499868917E+03 0.  0.
          5    1    4    4  502    0  0.20587119048E+02 -0.11869470455E+02  0.16016770127E+03  0.16198918584E+03  0.47000000000E+01 0.  1.
         -5    1    4    4    0  502 -0.70578179804E+02  0.92378815439E+02  0.21075965188E+03  0.24074228101E+03  0.47000000000E+01 0.  1.
          5    1    3    3  503    0  0.57510432646E+02  0.11932791533E+02  0.58958543143E+02  0.83354910992E+02  0.47000000000E+01 0.  1.
         -5    1    3    3    0  503 -0.75193718900E+01 -0.92442136517E+02  0.17905669870E+03  0.20170642257E+03  0.47000000000E+01 0.  1.
<mgrwt>
<rscale>  0 0.15686910E+03</rscale>
<asrwt>0</asrwt>
<pdfrwt beam="1">  1        5 0.99748867E-01 0.15687163E+03</pdfrwt>
<pdfrwt beam="2">  1       -5 0.60654010E-02 0.15687163E+03</pdfrwt>
<totfact> 0.11385705E+02</totfact>
</mgrwt>
</event>
<event>
 8    1  0.3588496E-007  0.1412271E+03  0.7546771E-02  0.1211704E+00
         -5   -1    0    0    0  501 -0.00000000000E+00  0.00000000000E+00  0.31752750296E+02  0.32098709497E+02  0.47000000000E+01 0.  1.
          5   -1    0    0  501    0  0.00000000000E+00 -0.00000000000E+00 -0.66604062574E+03  0.66605720861E+03  0.47000000000E+01 0.  1.
         25    2    1    2    0    0  0.53572725941E+02  0.37901570503E+02 -0.22957337933E+03  0.26950812580E+03  0.12499650940E+03 0.  0.
         25    2    1    2    0    0 -0.53572725941E+02 -0.37901570503E+02 -0.40471449611E+03  0.42864779231E+03  0.12505415016E+03 0.  0.
          5    1    4    4  502    0 -0.45250611984E+02  0.41255997704E+02 -0.18327599823E+03  0.19329215390E+03  0.47000000000E+01 0.  1.
         -5    1    4    4    0  502 -0.83221139574E+01 -0.79157568208E+02 -0.22143849788E+03  0.23535563840E+03  0.47000000000E+01 0.  1.
          5    1    3    3  503    0  0.50446806797E+02 -0.78492845898E+01 -0.20176111687E+02  0.55096797251E+02  0.47000000000E+01 0. -1.
         -5    1    3    3    0  503  0.31259191440E+01  0.45750855093E+02 -0.20939726765E+03  0.21441132855E+03  0.47000000000E+01 0. -1.
<mgrwt>
<rscale>  0 0.14121438E+03</rscale>
<asrwt>0</asrwt>
<pdfrwt beam="2">  1        5 0.10249567E+00 0.14122714E+03</pdfrwt>
<pdfrwt beam="1">  1       -5 0.49129269E-02 0.14122714E+03</pdfrwt>
<totfact> 0.14658139E+02</totfact>
</mgrwt>
</event>
<event>
 8    1  0.3588496E-007  0.1412726E+03  0.7546771E-02  0.1211629E+00
          5   -1    0    0  501    0  0.00000000000E+00  0.00000000000E+00  0.75917855799E+02  0.76063202858E+02  0.47000000000E+01 0. -1.
         -5   -1    0    0    0  501 -0.00000000000E+00 -0.00000000000E+00 -0.26302133644E+03  0.26306332587E+03  0.47000000000E+01 0. -1.
         25    2    1    2    0    0  0.14425630417E+02 -0.64201741785E+02 -0.10139417402E+03  0.17388721400E+03  0.12500408875E+03 0.  0.
         25    2    1    2    0    0 -0.14425630417E+02  0.64201741785E+02 -0.85709306613E+02  0.16523931474E+03  0.12501193316E+03 0.  0.
          5    1    3    3  502    0  0.11063287673E+01 -0.81064867595E+02 -0.12320678443E+02  0.82137846568E+02  0.47000000000E+01 0.  1.
         -5    1    3    3    0  502  0.13319301649E+02  0.16863125809E+02 -0.89073495581E+02  0.91749367428E+02  0.47000000000E+01 0.  1.
          5    1    4    4  503    0 -0.51913156867E+02  0.62871760257E+02 -0.96019467885E+02  0.12605420384E+03  0.47000000000E+01 0. -1.
         -5    1    4    4    0  503  0.37487526451E+02  0.13299815281E+01  0.10310161272E+02  0.39185110893E+02  0.47000000000E+01 0. -1.
<mgrwt>
<rscale>  0 0.14127086E+03</rscale>
<asrwt>0</asrwt>
<pdfrwt beam="1">  1        5 0.11694081E-01 0.14127259E+03</pdfrwt>
<pdfrwt beam="2">  1       -5 0.40479231E-01 0.14127259E+03</pdfrwt>
<totfact> 0.26351160E+02</totfact>
</mgrwt>
</event>
<event>
 8    1  0.3588496E-007  0.1488012E+03  0.7546771E-02  0.1201955E+00
         -5   -1    0    0    0  501 -0.00000000000E+00  0.00000000000E+00  0.63496811840E+02  0.63670519975E+02  0.47000000000E+01 0. -1.
          5   -1    0    0  501    0  0.00000000000E+00 -0.00000000000E+00 -0.41916797141E+03  0.41919432040E+03  0.47000000000E+01 0. -1.
         25    2    1    2    0    0  0.43338076870E+02 -0.68105560331E+02 -0.78397953742E+02  0.16818686773E+03  0.12499610822E+03 0.  0.
         25    2    1    2    0    0 -0.43338076870E+02  0.68105560331E+02 -0.27727320582E+03  0.31467797264E+03  0.12500095818E+03 0.  0.
          5    1    3    3  502    0  0.48117520573E+02 -0.71810400023E+02 -0.10754055084E+03  0.13805466096E+03  0.47000000000E+01 0. -1.
         -5    1    3    3    0  502 -0.47794437031E+01  0.37048396920E+01  0.29142597096E+02  0.30132206769E+02  0.47000000000E+01 0. -1.
          5    1    4    4  503    0 -0.38043144355E+02 -0.29141485268E+02 -0.12398292476E+03  0.13300512257E+03  0.47000000000E+01 0. -1.
         -5    1    4    4    0  503 -0.52949325145E+01  0.97247045599E+02 -0.15329028106E+03  0.18167285008E+03  0.47000000000E+01 0. -1.
<mgrwt>
<rscale>  0 0.14880018E+03</rscale>
<asrwt>0</asrwt>
<pdfrwt beam="2">  1        5 0.64502768E-01 0.14880120E+03</pdfrwt>
<pdfrwt beam="1">  1       -5 0.97841295E-02 0.14880120E+03</pdfrwt>
<totfact> 0.13582163E+02</totfact>
</mgrwt>
</event>
<event>
 8    1  0.3588496E-007  0.1384473E+03  0.7546771E-02  0.1215450E+00
          5   -1    0    0  501    0  0.00000000000E+00  0.00000000000E+00  0.53655221311E+02  0.53860679293E+02  0.47000000000E+01 0. -1.
         -5   -1    0    0    0  501 -0.00000000000E+00 -0.00000000000E+00 -0.41082613736E+03  0.41085302133E+03  0.47000000000E+01 0. -1.
         25    2    1    2    0    0 -0.52433569810E+02  0.28198191438E+02 -0.26325259724E+03  0.29741664086E+03  0.12494123044E+03 0.  0.
         25    2    1    2    0    0  0.52433569810E+02 -0.28198191438E+02 -0.93918318811E+02  0.16729705977E+03  0.12499295322E+03 0.  0.
          5    1    4    4  502    0  0.53742690420E+02  0.27244836634E+01  0.13276783705E+02  0.55624298381E+02  0.47000000000E+01 0. -1.
         -5    1    4    4    0  502 -0.13091206095E+01 -0.30922675101E+02 -0.10719510252E+03  0.11167276139E+03  0.47000000000E+01 0. -1.
          5    1    3    3  503    0 -0.52789565078E+02  0.39840951630E+02 -0.48137214124E+02  0.81934858219E+02  0.47000000000E+01 0.  1.
         -5    1    3    3    0  503  0.35599526733E+00 -0.11642760192E+02 -0.21511538311E+03  0.21548178264E+03  0.47000000000E+01 0.  1.
<mgrwt>
<rscale>  0 0.13843563E+03</rscale>
<asrwt>0</asrwt>
<pdfrwt beam="1">  1        5 0.82725222E-02 0.13844730E+03</pdfrwt>
<pdfrwt beam="2">  1       -5 0.63221892E-01 0.13844730E+03</pdfrwt>
<totfact> 0.18546096E+02</totfact>
</mgrwt>
</event>
<event>
 8    1  0.3588496E-007  0.1714759E+03  0.7546771E-02  0.1176332E+00
         -5   -1    0    0    0  501 -0.00000000000E+00  0.00000000000E+00  0.39157262117E+03  0.39160082693E+03  0.47000000000E+01 0.  1.
          5   -1    0    0  501    0  0.00000000000E+00 -0.00000000000E+00 -0.10122881648E+03  0.10133786699E+03  0.47000000000E+01 0.  1.
         25    2    1    2    0    0  0.28091279220E+02  0.11397062365E+03  0.27060466676E+03  0.32033040076E+03  0.12492500532E+03 0.  0.
         25    2    1    2    0    0 -0.28091279220E+02 -0.11397062365E+03  0.19739137937E+02  0.17260829316E+03  0.12500226509E+03 0.  0.
          5    1    3    3  502    0 -0.37014506348E+02  0.52039917043E+02  0.47390372098E+02  0.79662814497E+02  0.47000000000E+01 0. -1.
         -5    1    3    3    0  502  0.65105785568E+02  0.61930706607E+02  0.22321429466E+03  0.24066758626E+03  0.47000000000E+01 0. -1.
          5    1    4    4  503    0 -0.26892556470E+02 -0.47147289540E+01 -0.39487782340E+02  0.48237052322E+02  0.47000000000E+01 0.  1.
         -5    1    4    4    0  503 -0.11987227502E+01 -0.10925589470E+03  0.59226920276E+02  0.12437124084E+03  0.47000000000E+01 0.  1.
<mgrwt>
<rscale>  0 0.17146183E+03</rscale>
<asrwt>0</asrwt>
<pdfrwt beam="2">  1        5 0.15584222E-01 0.17147591E+03</pdfrwt>
<pdfrwt beam="1">  1       -5 0.60252499E-01 0.17147591E+03</pdfrwt>
<totfact> 0.71900712E+01</totfact>
</mgrwt>
</event>
<event>
 8    1  0.3588496E-007  0.1275528E+03  0.7546771E-02  0.1231134E+00
          5   -1    0    0  501    0  0.00000000000E+00  0.00000000000E+00  0.49547998699E+03  0.49550227801E+03  0.47000000000E+01 0.  1.
         -5   -1    0    0    0  501 -0.00000000000E+00 -0.00000000000E+00 -0.35282258131E+02  0.35593928398E+02  0.47000000000E+01 0.  1.
         25    2    1    2    0    0  0.14509637861E+02 -0.20817786170E+02  0.15784045034E+03  0.20293520845E+03  0.12500072502E+03 0.  0.
         25    2    1    2    0    0 -0.14509637861E+02  0.20817786170E+02  0.30235727852E+03  0.32816099795E+03  0.12500322752E+03 0.  0.
          5    1    3    3  502    0  0.48847036991E+02  0.16836743580E+02  0.19486189777E+02  0.55419405890E+02  0.47000000000E+01 0.  1.
         -5    1    3    3    0  502 -0.34337399130E+02 -0.37654529750E+02  0.13835426056E+03  0.14751580256E+03  0.47000000000E+01 0.  1.
          5    1    4    4  503    0 -0.67966593596E+02  0.23868606142E+02  0.14701099040E+03  0.16377878221E+03  0.47000000000E+01 0.  1.
         -5    1    4    4    0  503  0.53456955735E+02 -0.30508199719E+01  0.15534628812E+03  0.16438221574E+03  0.47000000000E+01 0.  1.
<mgrwt>
<rscale>  0 0.12755219E+03</rscale>
<asrwt>0</asrwt>
<pdfrwt beam="1">  1        5 0.76253383E-01 0.12755280E+03</pdfrwt>
<pdfrwt beam="2">  1       -5 0.54537288E-02 0.12755280E+03</pdfrwt>
<totfact> 0.23950606E+02</totfact>
</mgrwt>
</event>
<event>
 8    1  0.3588496E-007  0.1542370E+03  0.7546771E-02  0.1195364E+00
          5   -1    0    0  501    0  0.00000000000E+00  0.00000000000E+00  0.10287888199E+04  0.10287995558E+04  0.47000000000E+01 0. -1.
         -5   -1    0    0    0  501 -0.00000000000E+00 -0.00000000000E+00 -0.23143022792E+02  0.23615450535E+02  0.47000000000E+01 0. -1.
         25    2    1    2    0    0  0.89775653975E+02  0.10114083071E+02  0.44647386483E+03  0.47236130050E+03  0.12499729401E+03 0.  0.
         25    2    1    2    0    0 -0.89775653975E+02 -0.10114083071E+02  0.55917193227E+03  0.58005370580E+03  0.12500835592E+03 0.  0.
          5    1    4    4  502    0  0.36555959509E+01  0.39631271071E+02  0.82118267094E+02  0.91375602975E+02  0.47000000000E+01 0. -1.
         -5    1    4    4    0  502 -0.93431249926E+02 -0.49745354142E+02  0.47705366518E+03  0.48867810282E+03  0.47000000000E+01 0. -1.
          5    1    3    3  503    0  0.43428422726E+02 -0.50586652561E+02  0.12326890809E+03  0.14022250540E+03  0.47000000000E+01 0. -1.
         -5    1    3    3    0  503  0.46347231249E+02  0.60700735632E+02  0.32320495674E+03  0.33213879511E+03  0.47000000000E+01 0. -1.
<mgrwt>
<rscale>  0 0.15423476E+03</rscale>
<asrwt>0</asrwt>
<pdfrwt beam="1">  1        5 0.15831236E+00 0.15423700E+03</pdfrwt>
<pdfrwt beam="2">  1       -5 0.35976317E-02 0.15423700E+03</pdfrwt>
<totfact> 0.81148717E+01</totfact>
</mgrwt>
</event>
<event>
 8    1  0.3588496E-007  0.1262503E+03  0.7546771E-02  0.1233130E+00
         -5   -1    0    0    0  501 -0.00000000000E+00  0.00000000000E+00  0.18154915968E+02  0.18753425655E+02  0.47000000000E+01 0.  1.
          5   -1    0    0  501    0  0.00000000000E+00 -0.00000000000E+00 -0.95485445181E+03  0.95486601895E+03  0.47000000000E+01 0.  1.
         25    2    1    2    0    0  0.10158684036E+02 -0.14449389480E+02 -0.31745841410E+03  0.34163945511E+03  0.12500275553E+03 0.  0.
         25    2    1    2    0    0 -0.10158684036E+02  0.14449389480E+02 -0.61924112174E+03  0.63197998949E+03  0.12500862587E+03 0.  0.
          5    1    3    3  502    0 -0.30170949784E+01 -0.62983778745E+01  0.10400899175E+02  0.13380625158E+02  0.47000000000E+01 0. -1.
         -5    1    3    3    0  502  0.13175779015E+02 -0.81510116052E+01 -0.32785931327E+03  0.32825882995E+03  0.47000000000E+01 0. -1.
          5    1    4    4  503    0 -0.60361852761E+02  0.29222693361E+02 -0.44304289852E+03  0.44811451550E+03  0.47000000000E+01 0. -1.
         -5    1    4    4    0  503  0.50203168725E+02 -0.14773303881E+02 -0.17619822322E+03  0.18386547399E+03  0.47000000000E+01 0. -1.
<mgrwt>
<rscale>  0 0.12624885E+03</rscale>
<asrwt>0</asrwt>
<pdfrwt beam="2">  1        5 0.14694758E+00 0.12625031E+03</pdfrwt>
<pdfrwt beam="1">  1       -5 0.28399937E-02 0.12625031E+03</pdfrwt>
<totfact> 0.13725347E+02</totfact>
</mgrwt>
</event>
<event>
 8    1  0.3588496E-007  0.1400774E+03  0.7546771E-02  0.1213226E+00
          5   -1    0    0  501    0  0.00000000000E+00  0.00000000000E+00  0.11409339917E+03  0.11419016479E+03  0.47000000000E+01 0. -1.
         -5   -1    0    0    0  501 -0.00000000000E+00 -0.00000000000E+00 -0.17657597112E+03  0.17663851102E+03  0.47000000000E+01 0. -1.
         25    2    1    2    0    0  0.48387653178E+02  0.40644625790E+02 -0.55213153675E+02  0.15056612649E+03  0.12501326138E+03 0.  0.
         25    2    1    2    0    0 -0.48387653178E+02 -0.40644625790E+02 -0.72694182726E+01  0.14026254933E+03  0.12500955050E+03 0.  0.
          5    1    3    3  502    0  0.36181572296E+02 -0.41047145562E+02 -0.85462817277E+01  0.55579701906E+02  0.47000000000E+01 0.  1.
         -5    1    3    3    0  502  0.12206080883E+02  0.81691771352E+02 -0.46666871948E+02  0.94986424580E+02  0.47000000000E+01 0.  1.
          5    1    4    4  503    0 -0.78213996860E+02  0.12047861380E+02 -0.62749107071E+01  0.79523862916E+02  0.47000000000E+01 0.  1.
         -5    1    4    4    0  503  0.29826343682E+02 -0.52692487170E+02 -0.99450756552E+00  0.60738686410E+02  0.47000000000E+01 0.  1.
<mgrwt>
<rscale>  0 0.14007653E+03</rscale>
<asrwt>0</asrwt>
<pdfrwt beam="1">  1        5 0.17565085E-01 0.14007736E+03</pdfrwt>
<pdfrwt beam="2">  1       -5 0.27177788E-01 0.14007736E+03</pdfrwt>
<totfact> 0.27890212E+02</totfact>
</mgrwt>
</event>
<event>
 8    1  0.3588496E-007  0.1507757E+03  0.7546771E-02  0.1199537E+00
         -5   -1    0    0    0  501 -0.00000000000E+00  0.00000000000E+00  0.93266581013E+03  0.93267765245E+03  0.47000000000E+01 0.  1.
          5   -1    0    0  501    0  0.00000000000E+00 -0.00000000000E+00 -0.24588167713E+02  0.25033337601E+02  0.47000000000E+01 0.  1.
         25    2    1    2    0    0  0.79645377296E+01 -0.83902846018E+02  0.51884793402E+03  0.54029863479E+03  0.12496525393E+03 0.  0.
         25    2    1    2    0    0 -0.79645377296E+01  0.83902846018E+02  0.38922970840E+03  0.41741235526E+03  0.12502074626E+03 0.  0.
          5    1    3    3  502    0  0.22052055930E+02 -0.56039522480E+02  0.79637160953E+02  0.99954432894E+02  0.47000000000E+01 0. -1.
         -5    1    3    3    0  502 -0.14087518200E+02 -0.27863323538E+02  0.43921077307E+03  0.44034420190E+03  0.47000000000E+01 0. -1.
          5    1    4    4  503    0 -0.31058104290E+02  0.30333118961E+02  0.28907628168E+02  0.52368357949E+02  0.47000000000E+01 0. -1.
         -5    1    4    4    0  503  0.23093566560E+02  0.53569727058E+02  0.36032208023E+03  0.36504399731E+03  0.47000000000E+01 0. -1.
<mgrwt>
<rscale>  0 0.15076419E+03</rscale>
<asrwt>0</asrwt>
<pdfrwt beam="2">  1        5 0.38179502E-02 0.15077569E+03</pdfrwt>
<pdfrwt beam="1">  1       -5 0.14352219E+00 0.15077569E+03</pdfrwt>
<totfact> 0.95709428E+01</totfact>
</mgrwt>
</event>
<event>
 8    1  0.3588496E-007  0.1282064E+03  0.7546771E-02  0.1230147E+00
         -5   -1    0    0    0  501 -0.00000000000E+00  0.00000000000E+00  0.41102211156E+02  0.41370058761E+02  0.47000000000E+01 0. -1.
          5   -1    0    0  501    0  0.00000000000E+00 -0.00000000000E+00 -0.40424275421E+03  0.40427007598E+03  0.47000000000E+01 0. -1.
         25    2    1    2    0    0  0.11283967205E+02 -0.26139298528E+02 -0.15452984124E+03  0.20078931046E+03  0.12500513796E+03 0.  0.
         25    2    1    2    0    0 -0.11283967205E+02  0.26139298528E+02 -0.20861070182E+03  0.24485082428E+03  0.12499164130E+03 0.  0.
          5    1    4    4  502    0  0.42514652678E+01 -0.70840596735E+01 -0.20764467535E+03  0.20786211791E+03  0.47000000000E+01 0. -1.
         -5    1    4    4    0  502 -0.15535432473E+02  0.33223358201E+02 -0.96602646541E+00  0.36988706377E+02  0.47000000000E+01 0. -1.
          5    1    3    3  503    0 -0.47868116627E+02 -0.22388495515E+02 -0.25805125988E+02  0.58996574885E+02  0.47000000000E+01 0.  1.
         -5    1    3    3    0  503  0.59152083832E+02 -0.37508030123E+01 -0.12872471525E+03  0.14179273557E+03  0.47000000000E+01 0.  1.
<mgrwt>
<rscale>  0 0.12820309E+03</rscale>
<asrwt>0</asrwt>
<pdfrwt beam="2">  1        5 0.62213895E-01 0.12820638E+03</pdfrwt>
<pdfrwt beam="1">  1       -5 0.63461227E-02 0.12820638E+03</pdfrwt>
<totfact> 0.29376282E+02</totfact>
</mgrwt>
</event>
<event>
 8    1  0.3588496E-007  0.1630110E+03  0.7546771E-02  0.1185340E+00
         -5   -1    0    0    0  501 -0.00000000000E+00  0.00000000000E+00  0.50076310191E+03  0.50078515776E+03  0.47000000000E+01 0.  1.
          5   -1    0    0  501    0  0.00000000000E+00 -0.00000000000E+00 -0.53701393845E+02  0.53906675847E+02  0.47000000000E+01 0.  1.
         25    2    1    2    0    0 -0.91164253704E+02 -0.51335550222E+02  0.25659238877E+03  0.30399383654E+03  0.12500535514E+03 0.  0.
         25    2    1    2    0    0  0.91164253704E+02  0.51335550222E+02  0.19046931930E+03  0.25069799707E+03  0.12499865707E+03 0.  0.
          5    1    3    3  502    0 -0.89796843024E+02 -0.18301926266E+02  0.72639250358E+02  0.11703411560E+03  0.47000000000E+01 0. -1.
         -5    1    3    3    0  502 -0.13674106796E+01 -0.33033623955E+02  0.18395313841E+03  0.18695972094E+03  0.47000000000E+01 0. -1.
          5    1    4    4  503    0  0.71222020850E+02 -0.77268804631E+01  0.17061620805E+03  0.18510608144E+03  0.47000000000E+01 0.  1.
         -5    1    4    4    0  503  0.19942232853E+02  0.59062430685E+02  0.19853111247E+02  0.65591915628E+02  0.47000000000E+01 0.  1.
<mgrwt>
<rscale>  0 0.16300975E+03</rscale>
<asrwt>0</asrwt>
<pdfrwt beam="2">  1        5 0.82792406E-02 0.16301104E+03</pdfrwt>
<pdfrwt beam="1">  1       -5 0.77057964E-01 0.16301104E+03</pdfrwt>
<totfact> 0.12487828E+02</totfact>
</mgrwt>
</event>
<event>
 8    1  0.3588496E-007  0.1438803E+03  0.7546771E-02  0.1208204E+00
         -5   -1    0    0    0  501 -0.00000000000E+00  0.00000000000E+00  0.10983242030E+03  0.10993293660E+03  0.47000000000E+01 0. -1.
          5   -1    0    0  501    0  0.00000000000E+00 -0.00000000000E+00 -0.19692378614E+03  0.19697986585E+03  0.47000000000E+01 0. -1.
         25    2    1    2    0    0 -0.62453751123E+02 -0.34283124759E+02 -0.11364925008E+02  0.14432840947E+03  0.12500289832E+03 0.  0.
         25    2    1    2    0    0  0.62453751123E+02  0.34283124759E+02 -0.75726440834E+02  0.16258439297E+03  0.12499354913E+03 0.  0.
          5    1    4    4  502    0  0.30657567163E+02 -0.46012279044E+02 -0.16977596545E+02  0.58028829314E+02  0.47000000000E+01 0.  1.
         -5    1    4    4    0  502  0.31796183960E+02  0.80295403802E+02 -0.58748844290E+02  0.10455556366E+03  0.47000000000E+01 0.  1.
          5    1    3    3  503    0  0.32481051548E+02  0.94906858992E+01 -0.19550433653E+02  0.39362434942E+02  0.47000000000E+01 0.  1.
         -5    1    3    3    0  503 -0.94934802671E+02 -0.43773810658E+02  0.81855086450E+01  0.10496597453E+03  0.47000000000E+01 0.  1.
<mgrwt>
<rscale>  0 0.14387823E+03</rscale>
<asrwt>0</asrwt>
<pdfrwt beam="2">  1        5 0.30308013E-01 0.14388026E+03</pdfrwt>
<pdfrwt beam="1">  1       -5 0.16909341E-01 0.14388026E+03</pdfrwt>
<totfact> 0.24396087E+02</totfact>
</mgrwt>
</event>
<event>
 8    1  0.3588496E-007  0.1258798E+03  0.7546771E-02  0.1233701E+00
          5   -1    0    0  501    0  0.00000000000E+00  0.00000000000E+00  0.15023453491E+02  0.15741478800E+02  0.47000000000E+01 0.  1.
         -5   -1    0    0    0  501 -0.00000000000E+00 -0.00000000000E+00 -0.10487028934E+04  0.10487134254E+04  0.47000000000E+01 0.  1.
         25    2    1    2    0    0  0.13888529617E+01 -0.14792673491E+02 -0.58906353589E+03  0.60236288920E+03  0.12499779549E+03 0.  0.
         25    2    1    2    0    0 -0.13888529617E+01  0.14792673491E+02 -0.44461590400E+03  0.46209201498E+03  0.12499990446E+03 0.  0.
          5    1    4    4  502    0  0.61289725222E+02  0.13886574530E+02 -0.22275014915E+03  0.23149295090E+03  0.47000000000E+01 0. -1.
         -5    1    4    4    0  502 -0.62678578184E+02  0.90609896158E+00 -0.22186575485E+03  0.23059906408E+03  0.47000000000E+01 0. -1.
          5    1    3    3  503    0  0.61045447828E+02  0.19528576183E+01 -0.35199757851E+03  0.35728804294E+03  0.47000000000E+01 0. -1.
         -5    1    3    3    0  503 -0.59656594866E+02 -0.16745531110E+02 -0.23706595738E+03  0.24507484626E+03  0.47000000000E+01 0. -1.
<mgrwt>
<rscale>  0 0.12587929E+03</rscale>
<asrwt>0</asrwt>
<pdfrwt beam="1">  1        5 0.23673442E-02 0.12587982E+03</pdfrwt>
<pdfrwt beam="2">  1       -5 0.16139489E+00 0.12587982E+03</pdfrwt>
<totfact> 0.14181055E+02</totfact>
</mgrwt>
</event>
<event>
 8    1  0.3588496E-007  0.1431486E+03  0.7546771E-02  0.1209154E+00
         -5   -1    0    0    0  501 -0.00000000000E+00  0.00000000000E+00  0.46951212687E+02  0.47185870478E+02  0.47000000000E+01 0. -1.
          5   -1    0    0  501    0  0.00000000000E+00 -0.00000000000E+00 -0.43919348425E+03  0.43921863190E+03  0.47000000000E+01 0. -1.
         25    2    1    2    0    0 -0.84428802802E+01  0.69257845227E+02 -0.17265839776E+03  0.22428124275E+03  0.12499288851E+03 0.  0.
         25    2    1    2    0    0  0.84428802802E+01 -0.69257845227E+02 -0.21958387380E+03  0.26212325963E+03  0.12499437689E+03 0.  0.
          5    1    3    3  502    0 -0.12694916197E+02  0.26962325859E+02 -0.17857548205E+03  0.18110610344E+03  0.47000000000E+01 0. -1.
         -5    1    3    3    0  502  0.42520359166E+01  0.42295519368E+02  0.59170842865E+01  0.43175139310E+02  0.47000000000E+01 0. -1.
          5    1    4    4  503    0  0.99383831038E+00  0.22096904576E+01  0.15437496494E+02  0.16317988372E+02  0.47000000000E+01 0.  1.
         -5    1    4    4    0  503  0.74490419698E+01 -0.71467535685E+02 -0.23502137029E+03  0.24580527126E+03  0.47000000000E+01 0.  1.
<mgrwt>
<rscale>  0 0.14314829E+03</rscale>
<asrwt>0</asrwt>
<pdfrwt beam="2">  1        5 0.67588211E-01 0.14314861E+03</pdfrwt>
<pdfrwt beam="1">  1       -5 0.72432488E-02 0.14314861E+03</pdfrwt>
<totfact> 0.20289922E+02</totfact>
</mgrwt>
</event>
<event>
 8    1  0.3588496E-007  0.1562772E+03  0.7546771E-02  0.1192966E+00
          5   -1    0    0  501    0  0.00000000000E+00  0.00000000000E+00  0.31542824904E+03  0.31546326298E+03  0.47000000000E+01 0. -1.
         -5   -1    0    0    0  501 -0.00000000000E+00 -0.00000000000E+00 -0.98377260270E+02  0.98489468159E+02  0.47000000000E+01 0. -1.
         25    2    1    2    0    0 -0.29618579365E+02 -0.88994182228E+02  0.12833536488E+02  0.15680036744E+03  0.12499772341E+03 0.  0.
         25    2    1    2    0    0  0.29618579365E+02  0.88994182228E+02  0.20421745228E+03  0.25715236370E+03  0.12500138250E+03 0.  0.
          5    1    3    3  502    0  0.44485689475E+02 -0.92301400485E+01 -0.64573323682E+01  0.46129808093E+02  0.47000000000E+01 0.  1.
         -5    1    3    3    0  502 -0.74104268839E+02 -0.79764042180E+02  0.19290868856E+02  0.11067055935E+03  0.47000000000E+01 0.  1.
          5    1    4    4  503    0 -0.18272410743E+02 -0.15256290620E+01  0.12804114638E+03  0.12943273815E+03  0.47000000000E+01 0.  1.
         -5    1    4    4    0  503  0.47890990108E+02  0.90519811290E+02  0.76176305893E+02  0.12771962554E+03  0.47000000000E+01 0.  1.
<mgrwt>
<rscale>  0 0.15627649E+03</rscale>
<asrwt>0</asrwt>
<pdfrwt beam="1">  1        5 0.48538747E-01 0.15627722E+03</pdfrwt>
<pdfrwt beam="2">  1       -5 0.15146288E-01 0.15627722E+03</pdfrwt>
<totfact> 0.11740068E+02</totfact>
</mgrwt>
</event>
<event>
 8    1  0.3588496E-007  0.1838824E+03  0.7546771E-02  0.1164099E+00
         -5   -1    0    0    0  501 -0.00000000000E+00  0.00000000000E+00  0.32871436073E+03  0.32874795961E+03  0.47000000000E+01 0. -1.
          5   -1    0    0  501    0  0.00000000000E+00 -0.00000000000E+00 -0.10549207380E+03  0.10559672170E+03  0.47000000000E+01 0. -1.
         25    2    1    2    0    0  0.54680506887E+02  0.12327098345E+03  0.14648932118E+03  0.23509965822E+03  0.12500813925E+03 0.  0.
         25    2    1    2    0    0 -0.54680506887E+02 -0.12327098345E+03  0.76732965753E+02  0.19924502310E+03  0.12499975200E+03 0.  0.
          5    1    4    4  502    0 -0.66246321336E+01 -0.18794044513E+01  0.67786092903E+02  0.68296868911E+02  0.47000000000E+01 0.  1.
         -5    1    4    4    0  502 -0.48055874753E+02 -0.12139157900E+03  0.89468728497E+01  0.13094815419E+03  0.47000000000E+01 0.  1.
          5    1    3    3  503    0  0.43801556292E+02  0.81951691175E+02  0.16410442589E+03  0.18864519240E+03  0.47000000000E+01 0.  1.
         -5    1    3    3    0  503  0.10878950594E+02  0.41319292280E+02 -0.17615104706E+02  0.46454465817E+02  0.47000000000E+01 0.  1.
<mgrwt>
<rscale>  0 0.18388095E+03</rscale>
<asrwt>0</asrwt>
<pdfrwt beam="2">  1        5 0.16240184E-01 0.18388238E+03</pdfrwt>
<pdfrwt beam="1">  1       -5 0.50582075E-01 0.18388238E+03</pdfrwt>
<totfact> 0.99388803E+01</totfact>
</mgrwt>
</event>
<event>
 8    1  0.3588496E-007  0.1577621E+03  0.7546771E-02  0.1191249E+00
          5   -1    0    0  501    0  0.00000000000E+00  0.00000000000E+00  0.42928903577E+03  0.42931476359E+03  0.47000000000E+01 0.  1.
         -5   -1    0    0    0  501 -0.00000000000E+00 -0.00000000000E+00 -0.64855010567E+02  0.65025090509E+02  0.47000000000E+01 0.  1.
         25    2    1    2    0    0 -0.81961163831E+02  0.50452098558E+02  0.10112078818E+03  0.18738263225E+03  0.12499516167E+03 0.  0.
         25    2    1    2    0    0  0.81961163831E+02 -0.50452098558E+02  0.26331323702E+03  0.30695722184E+03  0.12500331446E+03 0.  0.
          5    1    3    3  502    0 -0.10986245662E+03  0.55035200887E+02  0.10033821005E+03  0.15870878711E+03  0.47000000000E+01 0.  1.
         -5    1    3    3    0  502  0.27901292793E+02 -0.45831023283E+01  0.78257813553E+00  0.28673845138E+02  0.47000000000E+01 0.  1.
          5    1    4    4  503    0  0.70860299341E+02 -0.84995556656E+02  0.14106278095E+03  0.17934944896E+03  0.47000000000E+01 0.  1.
         -5    1    4    4    0  503  0.11100864490E+02  0.34543458097E+02  0.12225045607E+03  0.12760777288E+03  0.47000000000E+01 0.  1.
<mgrwt>
<rscale>  0 0.15776047E+03</rscale>
<asrwt>0</asrwt>
<pdfrwt beam="1">  1        5 0.66059529E-01 0.15776208E+03</pdfrwt>
<pdfrwt beam="2">  1       -5 0.99927561E-02 0.15776208E+03</pdfrwt>
<totfact> 0.12647112E+02</totfact>
</mgrwt>
</event>
<event>
 8    1  0.3588496E-007  0.1445103E+03  0.7546771E-02  0.1207386E+00
          5   -1    0    0  501    0  0.00000000000E+00  0.00000000000E+00  0.61501335490E+03  0.61503131359E+03  0.47000000000E+01 0.  1.
         -5   -1    0    0    0  501 -0.00000000000E+00 -0.00000000000E+00 -0.38502961742E+02  0.38788762070E+02  0.47000000000E+01 0.  1.
         25    2    1    2    0    0  0.22877258005E+02  0.68809788850E+02  0.17417103234E+03  0.22631563327E+03  0.12500024552E+03 0.  0.
         25    2    1    2    0    0 -0.22877258005E+02 -0.68809788850E+02  0.40233936081E+03  0.42750444239E+03  0.12499972412E+03 0.  0.
          5    1    3    3  502    0 -0.42530724434E+02  0.49351270179E+02  0.42472974570E+02  0.77913118010E+02  0.47000000000E+01 0.  1.
         -5    1    3    3    0  502  0.65407982439E+02  0.19458518671E+02  0.13169805777E+03  0.14840251526E+03  0.47000000000E+01 0.  1.
          5    1    4    4  503    0 -0.54020889046E+02 -0.71991493908E+02  0.37499273522E+03  0.38567171677E+03  0.47000000000E+01 0. -1.
         -5    1    4    4    0  503  0.31143631042E+02  0.31817050588E+01  0.27346625592E+02  0.41832725620E+02  0.47000000000E+01 0. -1.
<mgrwt>
<rscale>  0 0.14451015E+03</rscale>
<asrwt>0</asrwt>
<pdfrwt beam="1">  1        5 0.94640797E-01 0.14451027E+03</pdfrwt>
<pdfrwt beam="2">  1       -5 0.59468992E-02 0.14451027E+03</pdfrwt>
<totfact> 0.13024551E+02</totfact>
</mgrwt>
</event>
<event>
 8    1  0.3588496E-007  0.1307899E+03  0.7546771E-02  0.1226289E+00
          5   -1    0    0  501    0  0.00000000000E+00  0.00000000000E+00  0.11821008265E+03  0.11830348110E+03  0.47000000000E+01 0. -1.
         -5   -1    0    0    0  501 -0.00000000000E+00 -0.00000000000E+00 -0.18376408362E+03  0.18382417803E+03  0.47000000000E+01 0. -1.
         25    2    1    2    0    0 -0.25373958037E+02 -0.28930370490E+02 -0.10255688744E+03  0.16620414034E+03  0.12500038809E+03 0.  0.
         25    2    1    2    0    0  0.25373958037E+02  0.28930370490E+02  0.37002886469E+02  0.13592351878E+03  0.12500074107E+03 0.  0.
          5    1    4    4  502    0  0.50685481450E+01  0.47184176896E+02  0.75012806891E+02  0.88887839030E+02  0.47000000000E+01 0. -1.
         -5    1    4    4    0  502  0.20305409892E+02 -0.18253806406E+02 -0.38009920422E+02  0.47035679752E+02  0.47000000000E+01 0. -1.
          5    1    3    3  503    0 -0.53887484804E+02  0.35218112661E+01 -0.10951538858E+03  0.12219645866E+03  0.47000000000E+01 0.  1.
         -5    1    3    3    0  503  0.28513526767E+02 -0.32452181756E+02  0.69585011348E+01  0.44007681687E+02  0.47000000000E+01 0.  1.
<mgrwt>
<rscale>  0 0.13078978E+03</rscale>
<asrwt>0</asrwt>
<pdfrwt beam="1">  1        5 0.18197974E-01 0.13078987E+03</pdfrwt>
<pdfrwt beam="2">  1       -5 0.28283205E-01 0.13078987E+03</pdfrwt>
<totfact> 0.23618813E+02</totfact>
</mgrwt>
</event>
<event>
 8    1  0.3588496E-007  0.1391058E+03  0.7546771E-02  0.1214538E+00
         -5   -1    0    0    0  501 -0.00000000000E+00  0.00000000000E+00  0.38321019088E+02  0.38608166285E+02  0.47000000000E+01 0.  1.
          5   -1    0    0  501    0  0.00000000000E+00 -0.00000000000E+00 -0.52769171664E+03  0.52771264701E+03  0.47000000000E+01 0.  1.
         25    2    1    2    0    0 -0.56170252582E+02 -0.23878513915E+02 -0.18316469120E+03  0.22999939389E+03  0.12500054554E+03 0.  0.
         25    2    1    2    0    0  0.56170252582E+02  0.23878513915E+02 -0.30620600636E+03  0.33632141941E+03  0.12499879248E+03 0.  0.
          5    1    3    3  502    0 -0.99131497110E+01 -0.64144727098E+02 -0.14138907355E+03  0.15564631917E+03  0.47000000000E+01 0.  1.
         -5    1    3    3    0  502 -0.46257102871E+02  0.40266213183E+02 -0.41775617649E+02  0.74353074719E+02  0.47000000000E+01 0.  1.
          5    1    4    4  503    0  0.44286958247E+02 -0.17147842653E+01 -0.30441373396E+03  0.30765904274E+03  0.47000000000E+01 0. -1.
         -5    1    4    4    0  503  0.11883294336E+02  0.25593298180E+02 -0.17922723989E+01  0.28662376670E+02  0.47000000000E+01 0. -1.
<mgrwt>
<rscale>  0 0.13910538E+03</rscale>
<asrwt>0</asrwt>
<pdfrwt beam="2">  1        5 0.81207034E-01 0.13910578E+03</pdfrwt>
<pdfrwt beam="1">  1       -5 0.59192401E-02 0.13910578E+03</pdfrwt>
<totfact> 0.18608723E+02</totfact>
</mgrwt>
</event>
<event>
 8    1  0.3588496E-007  0.1622513E+03  0.7546771E-02  0.1186180E+00
         -5   -1    0    0    0  501 -0.00000000000E+00  0.00000000000E+00  0.17631246986E+04  0.17631309631E+04  0.47000000000E+01 0. -1.
          5   -1    0    0  501    0  0.00000000000E+00 -0.00000000000E+00 -0.15037327899E+02  0.15754720891E+02  0.47000000000E+01 0. -1.
         25    2    1    2    0    0 -0.79465565495E+02  0.66210041492E+02  0.10296992854E+04  0.10424028760E+04  0.12499836664E+03 0.  0.
         25    2    1    2    0    0  0.79465565495E+02 -0.66210041492E+02  0.71838808529E+03  0.73648280801E+03  0.12500775858E+03 0.  0.
          5    1    4    4  502    0  0.37153778863E+02 -0.89140075044E+02  0.61239724022E+03  0.61998292403E+03  0.47000000000E+01 0. -1.
         -5    1    4    4    0  502  0.42311786633E+02  0.22930033552E+02  0.10599084507E+03  0.11649988397E+03  0.47000000000E+01 0. -1.
          5    1    3    3  503    0  0.22629398034E+02  0.51676181267E+02  0.45470630448E+03  0.45821657620E+03  0.47000000000E+01 0.  1.
         -5    1    3    3    0  503 -0.10209496353E+03  0.14533860225E+02  0.57499298097E+03  0.58418629977E+03  0.47000000000E+01 0.  1.
<mgrwt>
<rscale>  0 0.16224949E+03</rscale>
<asrwt>0</asrwt>
<pdfrwt beam="2">  1        5 0.23691008E-02 0.16225130E+03</pdfrwt>
<pdfrwt beam="1">  1       -5 0.27130565E+00 0.16225130E+03</pdfrwt>
<totfact> 0.28024795E+01</totfact>
</mgrwt>
</event>
<event>
 8    1  0.3588496E-007  0.1356477E+03  0.7546771E-02  0.1219326E+00
         -5   -1    0    0    0  501 -0.00000000000E+00  0.00000000000E+00  0.11362602952E+04  0.11362700157E+04  0.47000000000E+01 0.  1.
          5   -1    0    0  501    0  0.00000000000E+00 -0.00000000000E+00 -0.16747207538E+02  0.17394222038E+02  0.47000000000E+01 0.  1.
         25    2    1    2    0    0  0.26314838198E+02 -0.45646696892E+02  0.69152807218E+03  0.70469713490E+03  0.12494352993E+03 0.  0.
         25    2    1    2    0    0 -0.26314838198E+02  0.45646696892E+02  0.42798501552E+03  0.44896710282E+03  0.12499677700E+03 0.  0.
          5    1    3    3  502    0  0.15397027474E+02  0.89021795490E+01  0.10100475251E+02  0.20986349279E+02  0.47000000000E+01 0.  1.
         -5    1    3    3    0  502  0.10917810723E+02 -0.54548876441E+02  0.68142759693E+03  0.68371078562E+03  0.47000000000E+01 0.  1.
          5    1    4    4  503    0 -0.42744498624E+02  0.45129703959E+01  0.38379683501E+03  0.38622475274E+03  0.47000000000E+01 0. -1.
         -5    1    4    4    0  503  0.16429660426E+02  0.41133726496E+02  0.44188180505E+02  0.62742350080E+02  0.47000000000E+01 0. -1.
<mgrwt>
<rscale>  0 0.13563539E+03</rscale>
<asrwt>0</asrwt>
<pdfrwt beam="2">  1        5 0.26270118E-02 0.13564765E+03</pdfrwt>
<pdfrwt beam="1">  1       -5 0.17485978E+00 0.13564765E+03</pdfrwt>
<totfact> 0.97878502E+01</totfact>
</mgrwt>
</event>
<event>
 8    1  0.3588496E-007  0.1470717E+03  0.7546771E-02  0.1204121E+00
          5   -1    0    0  501    0  0.00000000000E+00  0.00000000000E+00  0.18808288593E+02  0.19386637661E+02  0.47000000000E+01 0. -1.
         -5   -1    0    0    0  501 -0.00000000000E+00 -0.00000000000E+00 -0.12806328714E+04  0.12806414960E+04  0.47000000000E+01 0. -1.
         25    2    1    2    0    0  0.63675595235E+02 -0.44141329066E+02 -0.85235489862E+03  0.86495026047E+03  0.12500816584E+03 0.  0.
         25    2    1    2    0    0 -0.63675595235E+02  0.44141329066E+02 -0.40946968417E+03  0.43507787319E+03  0.12499718046E+03 0.  0.
          5    1    3    3  502    0  0.28157689452E+02 -0.61327738024E+01 -0.33531320839E+02  0.44462409595E+02  0.47000000000E+01 0. -1.
         -5    1    3    3    0  502  0.35517905783E+02 -0.38008555263E+02 -0.81882357778E+03  0.82048785088E+03  0.47000000000E+01 0. -1.
          5    1    4    4  503    0 -0.35415916309E+02  0.74748547263E+02 -0.36367393713E+03  0.37299122643E+03  0.47000000000E+01 0.  1.
         -5    1    4    4    0  503 -0.28259678926E+02 -0.30607218197E+02 -0.45795747047E+02  0.62086646764E+02  0.47000000000E+01 0.  1.
<mgrwt>
<rscale>  0 0.14706935E+03</rscale>
<asrwt>0</asrwt>
<pdfrwt beam="1">  1        5 0.29387357E-02 0.14707168E+03</pdfrwt>
<pdfrwt beam="2">  1       -5 0.19706553E+00 0.14707168E+03</pdfrwt>
<totfact> 0.58488286E+01</totfact>
</mgrwt>
</event>
<event>
 8    1  0.3588496E-007  0.1352957E+03  0.7546771E-02  0.1219807E+00
         -5   -1    0    0    0  501 -0.00000000000E+00  0.00000000000E+00  0.67836173043E+03  0.67837801211E+03  0.47000000000E+01 0.  1.
          5   -1    0    0  501    0  0.00000000000E+00 -0.00000000000E+00 -0.29247067633E+02  0.29622305196E+02  0.47000000000E+01 0.  1.
         25    2    1    2    0    0  0.13429427258E+02 -0.49984677947E+02  0.42705725424E+03  0.44797258963E+03  0.12499090013E+03 0.  0.
         25    2    1    2    0    0 -0.13429427258E+02  0.49984677947E+02  0.22205740856E+03  0.26002772767E+03  0.12500443560E+03 0.  0.
          5    1    4    4  502    0 -0.40648839855E+02 -0.27374206646E+02  0.11494586940E+03  0.12504526486E+03  0.47000000000E+01 0.  1.
         -5    1    4    4    0  502  0.27219412597E+02  0.77358884593E+02  0.10711153916E+03  0.13498246282E+03  0.47000000000E+01 0.  1.
          5    1    3    3  503    0  0.21199669090E+02 -0.51423231012E+02  0.43328613483E+03  0.43686695834E+03  0.47000000000E+01 0. -1.
         -5    1    3    3    0  503 -0.77702418324E+01  0.14385530646E+01 -0.62288805839E+01  0.11105631292E+02  0.47000000000E+01 0. -1.
<mgrwt>
<rscale>  0 0.13529257E+03</rscale>
<asrwt>0</asrwt>
<pdfrwt beam="2">  1        5 0.45296663E-02 0.13529570E+03</pdfrwt>
<pdfrwt beam="1">  1       -5 0.10439345E+00 0.13529570E+03</pdfrwt>
<totfact> 0.15807163E+02</totfact>
</mgrwt>
</event>
<event>
 8    1  0.3588496E-007  0.1250742E+03  0.7546771E-02  0.1234957E+00
         -5   -1    0    0    0  501 -0.00000000000E+00  0.00000000000E+00  0.48919272593E+02  0.49144534091E+02  0.47000000000E+01 0.  1.
          5   -1    0    0  501    0  0.00000000000E+00 -0.00000000000E+00 -0.37829303526E+03  0.37832223108E+03  0.47000000000E+01 0.  1.
         25    2    1    2    0    0  0.42668275498E+01  0.14131377674E+01 -0.79940197551E+02  0.14843154869E+03  0.12498514586E+03 0.  0.
         25    2    1    2    0    0 -0.42668275498E+01 -0.14131377674E+01 -0.24943356512E+03  0.27903521648E+03  0.12499338323E+03 0.  0.
          5    1    3    3  502    0 -0.38665853968E+02 -0.46256584278E+02 -0.33875234432E+02  0.69313356288E+02  0.47000000000E+01 0. -1.
         -5    1    3    3    0  502  0.42932681517E+02  0.47669722045E+02 -0.46064963119E+02  0.79118192404E+02  0.47000000000E+01 0. -1.
          5    1    4    4  503    0 -0.38574438996E+02  0.48472064382E+02 -0.99905456801E+02  0.11764658375E+03  0.47000000000E+01 0.  1.
         -5    1    4    4    0  503  0.34307611446E+02 -0.49885202150E+02 -0.14952810832E+03  0.16138863273E+03  0.47000000000E+01 0.  1.
<mgrwt>
<rscale>  0 0.12507211E+03</rscale>
<asrwt>0</asrwt>
<pdfrwt beam="2">  1        5 0.58218500E-01 0.12507417E+03</pdfrwt>
<pdfrwt beam="1">  1       -5 0.75456158E-02 0.12507417E+03</pdfrwt>
<totfact> 0.25102604E+02</totfact>
</mgrwt>
</event>
<event>
 8    1  0.3588496E-007  0.1463271E+03  0.7546771E-02  0.1205062E+00
          5   -1    0    0  501    0  0.00000000000E+00  0.00000000000E+00  0.97534697117E+02  0.97647873206E+02  0.47000000000E+01 0.  1.
         -5   -1    0    0    0  501 -0.00000000000E+00 -0.00000000000E+00 -0.32525305646E+03  0.32528701286E+03  0.47000000000E+01 0.  1.
         25    2    1    2    0    0 -0.43292961300E+02 -0.62550469004E+02 -0.23454912522E+03  0.27644846123E+03  0.12499447149E+03 0.  0.
         25    2    1    2    0    0  0.43292961300E+02  0.62550469004E+02  0.68307658808E+01  0.14648642484E+03  0.12499908651E+03 0.  0.
          5    1    4    4  502    0  0.28519641367E+02  0.81638025802E+02  0.47639176034E+02  0.98841885321E+02  0.47000000000E+01 0.  1.
         -5    1    4    4    0  502  0.14773319933E+02 -0.19087556798E+02 -0.40808410153E+02  0.47644539515E+02  0.47000000000E+01 0.  1.
          5    1    3    3  503    0 -0.20162265953E+02  0.16035661337E+02 -0.17011544074E+03  0.17211918133E+03  0.47000000000E+01 0. -1.
         -5    1    3    3    0  503 -0.23130695347E+02 -0.78586130341E+02 -0.64433684485E+02  0.10432927991E+03  0.47000000000E+01 0. -1.
<mgrwt>
<rscale>  0 0.14632609E+03</rscale>
<asrwt>0</asrwt>
<pdfrwt beam="1">  1        5 0.15016656E-01 0.14632708E+03</pdfrwt>
<pdfrwt beam="2">  1       -5 0.50050249E-01 0.14632708E+03</pdfrwt>
<totfact> 0.10943056E+02</totfact>
</mgrwt>
</event>
<event>
 8    1  0.3588496E-007  0.1501271E+03  0.7546771E-02  0.1200317E+00
         -5   -1    0    0    0  501 -0.00000000000E+00  0.00000000000E+00  0.45972574877E+03  0.45974977333E+03  0.47000000000E+01 0.  1.
          5   -1    0    0  501    0  0.00000000000E+00 -0.00000000000E+00 -0.58446471602E+02  0.58635143410E+02  0.47000000000E+01 0.  1.
         25    2    1    2    0    0  0.45157382503E+02 -0.69806080656E+02  0.30525689547E+03  0.34017588937E+03  0.12500314150E+03 0.  0.
         25    2    1    2    0    0 -0.45157382503E+02  0.69806080656E+02  0.96022381699E+02  0.17820902738E+03  0.12500432617E+03 0.  0.
          5    1    3    3  502    0  0.71918402970E+02 -0.48689422528E+02  0.28958290399E+03  0.30236280333E+03  0.47000000000E+01 0. -1.
         -5    1    3    3    0  502 -0.26761020468E+02 -0.21116658128E+02  0.15673991474E+02  0.37813086038E+02  0.47000000000E+01 0. -1.
          5    1    4    4  503    0 -0.27664384784E+02  0.10350038466E+03  0.88906034137E+02  0.13929831556E+03  0.47000000000E+01 0. -1.
         -5    1    4    4    0  503 -0.17492997719E+02 -0.33694304007E+02  0.71163475625E+01  0.38910711820E+02  0.47000000000E+01 0. -1.
<mgrwt>
<rscale>  0 0.15012690E+03</rscale>
<asrwt>0</asrwt>
<pdfrwt beam="2">  1        5 0.90081261E-02 0.15012714E+03</pdfrwt>
<pdfrwt beam="1">  1       -5 0.70743400E-01 0.15012714E+03</pdfrwt>
<totfact> 0.12785621E+02</totfact>
</mgrwt>
</event>
<event>
 8    1  0.3588496E-007  0.1523534E+03  0.7546771E-02  0.1197613E+00
          5   -1    0    0  501    0  0.00000000000E+00  0.00000000000E+00  0.29164006346E+02  0.29540299020E+02  0.47000000000E+01 0.  1.
         -5   -1    0    0    0  501 -0.00000000000E+00 -0.00000000000E+00 -0.79413509374E+03  0.79414900183E+03  0.47000000000E+01 0.  1.
         25    2    1    2    0    0  0.30410666868E+02 -0.81618491326E+02 -0.35416830343E+03  0.38554733002E+03  0.12500067897E+03 0.  0.
         25    2    1    2    0    0 -0.30410666868E+02  0.81618491326E+02 -0.41080278396E+03  0.43814197083E+03  0.12499228979E+03 0.  0.
          5    1    4    4  502    0 -0.50624050391E+02  0.93887185620E+02 -0.20695405677E+03  0.23287264699E+03  0.47000000000E+01 0.  1.
         -5    1    4    4    0  502  0.20213383522E+02 -0.12268694295E+02 -0.20384872720E+03  0.20526932385E+03  0.47000000000E+01 0.  1.
          5    1    3    3  503    0  0.71208194598E+02 -0.85187783208E+02 -0.25741478442E+03  0.28037836333E+03  0.47000000000E+01 0. -1.
         -5    1    3    3    0  503 -0.40797527730E+02  0.35692918822E+01 -0.96753519010E+02  0.10516896669E+03  0.47000000000E+01 0. -1.
<mgrwt>
<rscale>  0 0.15235167E+03</rscale>
<asrwt>0</asrwt>
<pdfrwt beam="1">  1        5 0.45167863E-02 0.15235339E+03</pdfrwt>
<pdfrwt beam="2">  1       -5 0.12220463E+00 0.15235339E+03</pdfrwt>
<totfact> 0.11109466E+02</totfact>
</mgrwt>
</event>
<event>
 8    1  0.3588496E-007  0.1283634E+03  0.7546771E-02  0.1229906E+00
         -5   -1    0    0    0  501 -0.00000000000E+00  0.00000000000E+00  0.17948072252E+02  0.18553255713E+02  0.47000000000E+01 0. -1.
          5   -1    0    0  501    0  0.00000000000E+00 -0.00000000000E+00 -0.90524274639E+03  0.90525494746E+03  0.47000000000E+01 0. -1.
         25    2    1    2    0    0 -0.24697886409E+01 -0.29075100881E+02 -0.41680608397E+03  0.43612438053E+03  0.12500280920E+03 0.  0.
         25    2    1    2    0    0  0.24697886409E+01  0.29075100881E+02 -0.47048859017E+03  0.48768382264E+03  0.12499814415E+03 0.  0.
          5    1    4    4  502    0  0.69751825783E+01  0.94799024020E+01 -0.46647715836E+03  0.46664928050E+03  0.47000000000E+01 0. -1.
         -5    1    4    4    0  502 -0.45053939375E+01  0.19595198479E+02 -0.40114318107E+01  0.21034542142E+02  0.47000000000E+01 0. -1.
          5    1    3    3  503    0  0.52384891357E+02 -0.46886687396E+02 -0.22355767518E+03  0.23439851200E+03  0.47000000000E+01 0. -1.
         -5    1    3    3    0  503 -0.54854679998E+02  0.17811586515E+02 -0.19324840880E+03  0.20172586853E+03  0.47000000000E+01 0. -1.
<mgrwt>
<rscale>  0 0.12836227E+03</rscale>
<asrwt>0</asrwt>
<pdfrwt beam="2">  1        5 0.13931557E+00 0.12836340E+03</pdfrwt>
<pdfrwt beam="1">  1       -5 0.28087337E-02 0.12836340E+03</pdfrwt>
<totfact> 0.16211263E+02</totfact>
</mgrwt>
</event>
<event>
 8    1  0.3588496E-007  0.1339299E+03  0.7546771E-02  0.1221741E+00
         -5   -1    0    0    0  501 -0.00000000000E+00  0.00000000000E+00  0.26525253315E+02  0.26938430976E+02  0.47000000000E+01 0.  1.
          5   -1    0    0  501    0  0.00000000000E+00 -0.00000000000E+00 -0.76129258108E+03  0.76130708916E+03  0.47000000000E+01 0.  1.
         25    2    1    2    0    0 -0.47094841450E+02  0.96445353490E+01 -0.23136052290E+03  0.26732919978E+03  0.12500507327E+03 0.  0.
         25    2    1    2    0    0  0.47094841450E+02 -0.96445353490E+01 -0.50340680486E+03  0.52091632036E+03  0.12499784191E+03 0.  0.
          5    1    3    3  502    0  0.12350456579E+02  0.68712700374E+01  0.10491851079E+02  0.18218591293E+02  0.47000000000E+01 0. -1.
         -5    1    3    3    0  502 -0.59445298029E+02  0.27732653116E+01 -0.24185237398E+03  0.24911060848E+03  0.47000000000E+01 0. -1.
          5    1    4    4  503    0 -0.12337112890E+00 -0.60081506276E+02 -0.30149836853E+03  0.30746245111E+03  0.47000000000E+01 0.  1.
         -5    1    4    4    0  503  0.47218212579E+02  0.50436970927E+02 -0.20190843633E+03  0.21345386925E+03  0.47000000000E+01 0.  1.
<mgrwt>
<rscale>  0 0.13392818E+03</rscale>
<asrwt>0</asrwt>
<pdfrwt beam="2">  1        5 0.11715482E+00 0.13392987E+03</pdfrwt>
<pdfrwt beam="1">  1       -5 0.41137077E-02 0.13392987E+03</pdfrwt>
<totfact> 0.13856662E+02</totfact>
</mgrwt>
</event>
<event>
 8    1  0.3588496E-007  0.1481038E+03  0.7546771E-02  0.1202823E+00
          5   -1    0    0  501    0  0.00000000000E+00  0.00000000000E+00  0.37538853811E+03  0.37541795980E+03  0.47000000000E+01 0.  1.
         -5   -1    0    0    0  501 -0.00000000000E+00 -0.00000000000E+00 -0.59020635635E+02  0.59207477828E+02  0.47000000000E+01 0.  1.
         25    2    1    2    0    0  0.20108147529E+02 -0.76843681475E+02  0.13429683990E+03  0.19992433534E+03  0.12499923869E+03 0.  0.
         25    2    1    2    0    0 -0.20108147529E+02  0.76843681475E+02  0.18207106257E+03  0.23470110229E+03  0.12500178644E+03 0.  0.
          5    1    3    3  502    0  0.11996471448E+02 -0.81916242002E+02  0.15547972926E+03  0.17621073248E+03  0.47000000000E+01 0.  1.
         -5    1    3    3    0  502  0.81116760810E+01  0.50725605270E+01 -0.21182889353E+02  0.23713602858E+02  0.47000000000E+01 0.  1.
          5    1    4    4  503    0 -0.34195105754E+02  0.10531384591E+03  0.16376005063E+03  0.19773658129E+03  0.47000000000E+01 0.  1.
         -5    1    4    4    0  503  0.14086958224E+02 -0.28470164433E+02  0.18311011937E+02  0.36964521003E+02  0.47000000000E+01 0.  1.
<mgrwt>
<rscale>  0 0.14810326E+03</rscale>
<asrwt>0</asrwt>
<pdfrwt beam="1">  1        5 0.57768717E-01 0.14810380E+03</pdfrwt>
<pdfrwt beam="2">  1       -5 0.90967337E-02 0.14810380E+03</pdfrwt>
<totfact> 0.19616540E+02</totfact>
</mgrwt>
</event>
<event>
 8    1  0.3588496E-007  0.1551257E+03  0.7546771E-02  0.1194318E+00
         -5   -1    0    0    0  501 -0.00000000000E+00  0.00000000000E+00  0.61660911702E+03  0.61662702924E+03  0.47000000000E+01 0. -1.
          5   -1    0    0  501    0  0.00000000000E+00 -0.00000000000E+00 -0.39218131840E+02  0.39498757765E+02  0.47000000000E+01 0. -1.
         25    2    1    2    0    0 -0.85662895608E+02 -0.33196768393E+02  0.31986173618E+03  0.35548430891E+03  0.12496962227E+03 0.  0.
         25    2    1    2    0    0  0.85662895608E+02  0.33196768393E+02  0.25752924899E+03  0.30064147810E+03  0.12499530851E+03 0.  0.
          5    1    3    3  502    0  0.14619281876E+02  0.25057010079E+02  0.24940179867E+02  0.38544516192E+02  0.47000000000E+01 0.  1.
         -5    1    3    3    0  502 -0.10028217748E+03 -0.58253778472E+02  0.29492155632E+03  0.31693979272E+03  0.47000000000E+01 0.  1.
          5    1    4    4  503    0 -0.18591758293E+02  0.97096632645E+01  0.14032079213E+03  0.14195754908E+03  0.47000000000E+01 0.  1.
         -5    1    4    4    0  503  0.10425465390E+03  0.23487105128E+02  0.11720845686E+03  0.15868392901E+03  0.47000000000E+01 0.  1.
<mgrwt>
<rscale>  0 0.15512053E+03</rscale>
<asrwt>0</asrwt>
<pdfrwt beam="2">  1        5 0.60565234E-02 0.15512570E+03</pdfrwt>
<pdfrwt beam="1">  1       -5 0.94885902E-01 0.15512570E+03</pdfrwt>
<totfact> 0.12837117E+02</totfact>
</mgrwt>
</event>
<event>
 8    1  0.3588496E-007  0.1717936E+03  0.7546771E-02  0.1175993E+00
         -5   -1    0    0    0  501 -0.00000000000E+00  0.00000000000E+00  0.68838798433E+02  0.68999059194E+02  0.47000000000E+01 0.  1.
          5   -1    0    0  501    0  0.00000000000E+00 -0.00000000000E+00 -0.47346663212E+03  0.47348995948E+03  0.47000000000E+01 0.  1.
         25    2    1    2    0    0 -0.11753967528E+03  0.83599944524E+01 -0.11829317146E+03  0.20857197048E+03  0.12499411060E+03 0.  0.
         25    2    1    2    0    0  0.11753967528E+03 -0.83599944524E+01 -0.28633466223E+03  0.33391704820E+03  0.12501036560E+03 0.  0.
          5    1    3    3  502    0 -0.99218491874E+02  0.60447790252E+02 -0.76948784477E+02  0.13943259988E+03  0.47000000000E+01 0. -1.
         -5    1    3    3    0  502 -0.18321183409E+02 -0.52087795800E+02 -0.41344386979E+02  0.69139370603E+02  0.47000000000E+01 0. -1.
          5    1    4    4  503    0  0.88454489086E+02  0.12135851575E+02 -0.28423543966E+03  0.29796535149E+03  0.47000000000E+01 0.  1.
         -5    1    4    4    0  503  0.29085186197E+02 -0.20495846027E+02 -0.20992225757E+01  0.35951696704E+02  0.47000000000E+01 0.  1.
<mgrwt>
<rscale>  0 0.17179069E+03</rscale>
<asrwt>0</asrwt>
<pdfrwt beam="2">  1        5 0.72855140E-01 0.17179364E+03</pdfrwt>
<pdfrwt beam="1">  1       -5 0.10604707E-01 0.17179364E+03</pdfrwt>
<totfact> 0.93697510E+01</totfact>
</mgrwt>
</event>
<event>
 8    1  0.3588496E-007  0.2117138E+03  0.7546771E-02  0.1140217E+00
          5   -1    0    0  501    0  0.00000000000E+00  0.00000000000E+00  0.14782951092E+03  0.14790420649E+03  0.47000000000E+01 0. -1.
         -5   -1    0    0    0  501 -0.00000000000E+00 -0.00000000000E+00 -0.31368815953E+03  0.31372336768E+03  0.47000000000E+01 0. -1.
         25    2    1    2    0    0  0.16851684312E+03 -0.28232570782E+02 -0.12547737982E+03  0.24610425775E+03  0.12501091299E+03 0.  0.
         25    2    1    2    0    0 -0.16851684312E+03  0.28232570782E+02 -0.40381268793E+02  0.21552331643E+03  0.12499859434E+03 0.  0.
          5    1    3    3  502    0  0.20293805482E+02 -0.11834752307E+02  0.24699950950E+02  0.34410426909E+02  0.47000000000E+01 0. -1.
         -5    1    3    3    0  502  0.14822303764E+03 -0.16397818475E+02 -0.15017733077E+03  0.21169383084E+03  0.47000000000E+01 0. -1.
          5    1    4    4  503    0 -0.10722651552E+02 -0.35692269160E+02  0.81307738024E+01  0.38433225427E+02  0.47000000000E+01 0. -1.
         -5    1    4    4    0  503 -0.15779419157E+03  0.63924839942E+02 -0.48512042595E+02  0.17709009100E+03  0.47000000000E+01 0. -1.
<mgrwt>
<rscale>  0 0.21171198E+03</rscale>
<asrwt>0</asrwt>
<pdfrwt beam="1">  1        5 0.22751456E-01 0.21171380E+03</pdfrwt>
<pdfrwt beam="2">  1       -5 0.48268171E-01 0.21171380E+03</pdfrwt>
<totfact> 0.60733865E+01</totfact>
</mgrwt>
</event>
<event>
 8    1  0.3588496E-007  0.1350971E+03  0.7546771E-02  0.1220083E+00
         -5   -1    0    0    0  501 -0.00000000000E+00  0.00000000000E+00  0.13899520631E+03  0.13907464678E+03  0.47000000000E+01 0. -1.
          5   -1    0    0  501    0  0.00000000000E+00 -0.00000000000E+00 -0.16531626409E+03  0.16538306193E+03  0.47000000000E+01 0. -1.
         25    2    1    2    0    0 -0.29844662161E+02  0.41651958764E+02  0.56014825443E+02  0.14624941551E+03  0.12500256533E+03 0.  0.
         25    2    1    2    0    0  0.29844662161E+02 -0.41651958764E+02 -0.82335883217E+02  0.15820829321E+03  0.12500030738E+03 0.  0.
          5    1    3    3  502    0  0.24549561699E+02  0.40809378513E+01 -0.28968470031E+02  0.38478530238E+02  0.47000000000E+01 0. -1.
         -5    1    3    3    0  502 -0.54394223860E+02  0.37571020913E+02  0.84983295474E+02  0.10777088527E+03  0.47000000000E+01 0. -1.
          5    1    4    4  503    0  0.20565478868E+02  0.16043526888E+02  0.24661598271E+02  0.36202459935E+02  0.47000000000E+01 0.  1.
         -5    1    4    4    0  503  0.92791832935E+01 -0.57695485652E+02 -0.10699748149E+03  0.12200583327E+03  0.47000000000E+01 0.  1.
<mgrwt>
<rscale>  0 0.13509659E+03</rscale>
<asrwt>0</asrwt>
<pdfrwt beam="2">  1        5 0.25444520E-01 0.13509712E+03</pdfrwt>
<pdfrwt beam="1">  1       -5 0.21395127E-01 0.13509712E+03</pdfrwt>
<totfact> 0.21676162E+02</totfact>
</mgrwt>
</event>
<event>
 8    1  0.3588496E-007  0.1399770E+03  0.7546771E-02  0.1213362E+00
         -5   -1    0    0    0  501 -0.00000000000E+00  0.00000000000E+00  0.39426338010E+03  0.39429139338E+03  0.47000000000E+01 0.  1.
          5   -1    0    0  501    0  0.00000000000E+00 -0.00000000000E+00 -0.52410733904E+02  0.52621051190E+02  0.47000000000E+01 0.  1.
         25    2    1    2    0    0  0.38425128786E+02 -0.49903686703E+02  0.22297744550E+03  0.26326911328E+03  0.12499926535E+03 0.  0.
         25    2    1    2    0    0 -0.38425128786E+02  0.49903686703E+02  0.11887520070E+03  0.18364333128E+03  0.12500676508E+03 0.  0.
          5    1    4    4  502    0  0.60330135505E+01 -0.39139008169E+02  0.27403927956E+02  0.48387234684E+02  0.47000000000E+01 0. -1.
         -5    1    4    4    0  502 -0.44458142336E+02  0.89042694873E+02  0.91471272740E+02  0.13525609660E+03  0.47000000000E+01 0. -1.
          5    1    3    3  503    0  0.36606156696E+02  0.28091766451E+02  0.14748202995E+03  0.15460335446E+03  0.47000000000E+01 0.  1.
         -5    1    3    3    0  503  0.18189720900E+01 -0.77995453154E+02  0.75495415550E+02  0.10866575883E+03  0.47000000000E+01 0.  1.
<mgrwt>
<rscale>  0 0.13997532E+03</rscale>
<asrwt>0</asrwt>
<pdfrwt beam="2">  1        5 0.80815227E-02 0.13997700E+03</pdfrwt>
<pdfrwt beam="1">  1       -5 0.60674240E-01 0.13997700E+03</pdfrwt>
<totfact> 0.21212595E+02</totfact>
</mgrwt>
</event>
<event>
 8    1  0.3588496E-007  0.1521383E+03  0.7546771E-02  0.1197870E+00
          5   -1    0    0  501    0  0.00000000000E+00  0.00000000000E+00  0.29452232516E+03  0.29455982417E+03  0.47000000000E+01 0. -1.
         -5   -1    0    0    0  501 -0.00000000000E+00 -0.00000000000E+00 -0.80109830768E+02  0.80247585545E+02  0.47000000000E+01 0. -1.
         25    2    1    2    0    0 -0.58517345907E+02 -0.64000347614E+02  0.80465408231E+02  0.17210678779E+03  0.12500296082E+03 0.  0.
         25    2    1    2    0    0  0.58517345907E+02  0.64000347614E+02  0.13394708616E+03  0.20270062193E+03  0.12500158389E+03 0.  0.
          5    1    3    3  502    0 -0.28266253716E+02 -0.46498269860E+02 -0.25609252324E+02  0.60324074827E+02  0.47000000000E+01 0.  1.
         -5    1    3    3    0  502 -0.30251092191E+02 -0.17502077754E+02  0.10607466056E+03  0.11178271296E+03  0.47000000000E+01 0.  1.
          5    1    4    4  503    0  0.43231973246E+01 -0.36550820429E+02  0.41567373210E+02  0.55718839047E+02  0.47000000000E+01 0.  1.
         -5    1    4    4    0  503  0.54194148583E+02  0.10055116804E+03  0.92379712947E+02  0.14698178288E+03  0.47000000000E+01 0.  1.
<mgrwt>
<rscale>  0 0.15213802E+03</rscale>
<asrwt>0</asrwt>
<pdfrwt beam="1">  1        5 0.45324608E-01 0.15213831E+03</pdfrwt>
<pdfrwt beam="2">  1       -5 0.12338070E-01 0.15213831E+03</pdfrwt>
<totfact> 0.19434449E+02</totfact>
</mgrwt>
</event>
<event>
 8    1  0.3588496E-007  0.1579851E+03  0.7546771E-02  0.1190991E+00
         -5   -1    0    0    0  501 -0.00000000000E+00  0.00000000000E+00  0.23065140509E+03  0.23069928624E+03  0.47000000000E+01 0.  1.
          5   -1    0    0  501    0  0.00000000000E+00 -0.00000000000E+00 -0.10977187983E+03  0.10987245152E+03  0.47000000000E+01 0.  1.
         25    2    1    2    0    0 -0.19332074343E+02 -0.94660184067E+02  0.81429196548E+02  0.17773554080E+03  0.12499971546E+03 0.  0.
         25    2    1    2    0    0  0.19332074343E+02  0.94660184067E+02  0.39450328710E+02  0.16283619696E+03  0.12500007623E+03 0.  0.
          5    1    3    3  502    0 -0.72308315510E+02 -0.45841416631E+02  0.42027359013E+02  0.95489878397E+02  0.47000000000E+01 0. -1.
         -5    1    3    3    0  502  0.52976241168E+02 -0.48818767436E+02  0.39401837536E+02  0.82245662399E+02  0.47000000000E+01 0. -1.
          5    1    4    4  503    0 -0.51115486880E+02  0.57484703623E+02  0.96916854956E+01  0.77674338860E+02  0.47000000000E+01 0.  1.
         -5    1    4    4    0  503  0.70447561223E+02  0.37175480444E+02  0.29758643214E+02  0.85161858097E+02  0.47000000000E+01 0.  1.
<mgrwt>
<rscale>  0 0.15798505E+03</rscale>
<asrwt>0</asrwt>
<pdfrwt beam="2">  1        5 0.16899401E-01 0.15798512E+03</pdfrwt>
<pdfrwt beam="1">  1       -5 0.35496251E-01 0.15798512E+03</pdfrwt>
<totfact> 0.18392648E+02</totfact>
</mgrwt>
</event>
<event>
 8    1  0.3588496E-007  0.1326016E+03  0.7546771E-02  0.1223653E+00
          5   -1    0    0  501    0  0.00000000000E+00  0.00000000000E+00  0.45570623094E+03  0.45573046740E+03  0.47000000000E+01 0. -1.
         -5   -1    0    0    0  501 -0.00000000000E+00 -0.00000000000E+00 -0.54606045498E+02  0.54807939251E+02  0.47000000000E+01 0. -1.
         25    2    1    2    0    0  0.39791928855E+02  0.19309521659E+02  0.61880751203E+02  0.14632978648E+03  0.12500769502E+03 0.  0.
         25    2    1    2    0    0 -0.39791928855E+02 -0.19309521659E+02  0.33921943424E+03  0.36420862017E+03  0.12498735621E+03 0.  0.
          5    1    3    3  502    0  0.56925361256E+02  0.63097644820E+02  0.35581619478E+02  0.92249396641E+02  0.47000000000E+01 0.  1.
         -5    1    3    3    0  502 -0.17133432402E+02 -0.43788123161E+02  0.26299131725E+02  0.54080389841E+02  0.47000000000E+01 0.  1.
          5    1    4    4  503    0  0.14132119882E+02 -0.43143122067E+02  0.44968097166E+02  0.64072346272E+02  0.47000000000E+01 0. -1.
         -5    1    4    4    0  503 -0.53924048737E+02  0.23833600407E+02  0.29425133707E+03  0.30013627390E+03  0.47000000000E+01 0. -1.
<mgrwt>
<rscale>  0 0.13259679E+03</rscale>
<asrwt>0</asrwt>
<pdfrwt beam="1">  1        5 0.70126047E-01 0.13260158E+03</pdfrwt>
<pdfrwt beam="2">  1       -5 0.84183245E-02 0.13260158E+03</pdfrwt>
<totfact> 0.14080605E+02</totfact>
</mgrwt>
</event>
<event>
 8    1  0.3588496E-007  0.1697969E+03  0.7546771E-02  0.1178060E+00
          5   -1    0    0  501    0  0.00000000000E+00  0.00000000000E+00  0.10391024174E+04  0.10391130467E+04  0.47000000000E+01 0.  1.
         -5   -1    0    0    0  501 -0.00000000000E+00 -0.00000000000E+00 -0.29544793050E+02  0.29916296502E+02  0.47000000000E+01 0.  1.
         25    2    1    2    0    0  0.51069087779E+02  0.10294548044E+03  0.36632904558E+03  0.40376718640E+03  0.12500059004E+03 0.  0.
         25    2    1    2    0    0 -0.51069087779E+02 -0.10294548044E+03  0.64322857879E+03  0.66526215683E+03  0.12499963628E+03 0.  0.
          5    1    3    3  502    0 -0.40210689204E+02  0.19578581185E+02  0.78302881455E+02  0.90297572568E+02  0.47000000000E+01 0.  1.
         -5    1    3    3    0  502  0.91279776984E+02  0.83366899254E+02  0.28802616412E+03  0.31346961383E+03  0.47000000000E+01 0.  1.
          5    1    4    4  503    0  0.35155325173E+02 -0.67548029483E+02  0.30447767283E+03  0.31389070778E+03  0.47000000000E+01 0. -1.
         -5    1    4    4    0  503 -0.86224412952E+02 -0.35397450956E+02  0.33875090596E+03  0.35137144906E+03  0.47000000000E+01 0. -1.
<mgrwt>
<rscale>  0 0.16979668E+03</rscale>
<asrwt>0</asrwt>
<pdfrwt beam="1">  1        5 0.15989130E+00 0.16979685E+03</pdfrwt>
<pdfrwt beam="2">  1       -5 0.45747477E-02 0.16979685E+03</pdfrwt>
<totfact> 0.54588506E+01</totfact>
</mgrwt>
</event>
<event>
 8    1  0.3588496E-007  0.1663150E+03  0.7546771E-02  0.1181747E+00
         -5   -1    0    0    0  501 -0.00000000000E+00  0.00000000000E+00  0.61668322613E+02  0.61847166579E+02  0.47000000000E+01 0.  1.
          5   -1    0    0  501    0  0.00000000000E+00 -0.00000000000E+00 -0.50448922188E+03  0.50451111484E+03  0.47000000000E+01 0.  1.
         25    2    1    2    0    0 -0.66759268267E+02  0.87050443199E+02 -0.12640769959E+03  0.20889782403E+03  0.12499925923E+03 0.  0.
         25    2    1    2    0    0  0.66759268267E+02 -0.87050443199E+02 -0.31641319968E+03  0.35746045738E+03  0.12500434434E+03 0.  0.
          5    1    4    4  502    0  0.94028037838E+02 -0.49786488763E+02 -0.14521342881E+03  0.18008052718E+03  0.47000000000E+01 0. -1.
         -5    1    4    4    0  502 -0.27268769571E+02 -0.37263954436E+02 -0.17119977087E+03  0.17737993020E+03  0.47000000000E+01 0. -1.
          5    1    3    3  503    0  0.13444353474E+02  0.82268756148E+02 -0.81770628393E+02  0.11686498426E+03  0.47000000000E+01 0.  1.
         -5    1    3    3    0  503 -0.80203621740E+02  0.47816870510E+01 -0.44637071200E+02  0.92032839773E+02  0.47000000000E+01 0.  1.
<mgrwt>
<rscale>  0 0.16631400E+03</rscale>
<asrwt>0</asrwt>
<pdfrwt beam="2">  1        5 0.77629165E-01 0.16631496E+03</pdfrwt>
<pdfrwt beam="1">  1       -5 0.95028759E-02 0.16631496E+03</pdfrwt>
<totfact> 0.97244265E+01</totfact>
</mgrwt>
</event>
<event>
 8    1  0.3588496E-007  0.1296282E+03  0.7546771E-02  0.1228008E+00
         -5   -1    0    0    0  501 -0.00000000000E+00  0.00000000000E+00  0.24557486184E+03  0.24561983382E+03  0.47000000000E+01 0. -1.
          5   -1    0    0  501    0  0.00000000000E+00 -0.00000000000E+00 -0.73052620228E+02  0.73203656481E+02  0.47000000000E+01 0. -1.
         25    2    1    2    0    0  0.13001793626E+01  0.34305837543E+02  0.12689522561E+03  0.18139974161E+03  0.12499954808E+03 0.  0.
         25    2    1    2    0    0 -0.13001793626E+01 -0.34305837543E+02  0.45627016006E+02  0.13742374869E+03  0.12499952464E+03 0.  0.
          5    1    3    3  502    0  0.11272823744E+02  0.37191247441E+02  0.15032890141E+03  0.15534199059E+03  0.47000000000E+01 0. -1.
         -5    1    3    3    0  502 -0.99726443811E+01 -0.28854098974E+01 -0.23433675808E+02  0.26057751018E+02  0.47000000000E+01 0. -1.
          5    1    4    4  503    0  0.61575535516E+01 -0.52533855776E+02  0.80889143467E+02  0.96761898490E+02  0.47000000000E+01 0. -1.
         -5    1    4    4    0  503 -0.74577329142E+01  0.18228018232E+02 -0.35262127461E+02  0.40661850204E+02  0.47000000000E+01 0. -1.
<mgrwt>
<rscale>  0 0.12962819E+03</rscale>
<asrwt>0</asrwt>
<pdfrwt beam="2">  1        5 0.11253942E-01 0.12962819E+03</pdfrwt>
<pdfrwt beam="1">  1       -5 0.37795826E-01 0.12962819E+03</pdfrwt>
<totfact> 0.31472065E+02</totfact>
</mgrwt>
</event>
<event>
 8    1  0.3588496E-007  0.1617444E+03  0.7546771E-02  0.1186742E+00
         -5   -1    0    0    0  501 -0.00000000000E+00  0.00000000000E+00  0.22336565710E+02  0.22825690958E+02  0.47000000000E+01 0. -1.
          5   -1    0    0  501    0  0.00000000000E+00 -0.00000000000E+00 -0.13773102305E+04  0.13773182498E+04  0.47000000000E+01 0. -1.
         25    2    1    2    0    0 -0.76504142566E+02 -0.68430201063E+02 -0.39818847349E+03  0.42978361692E+03  0.12499728282E+03 0.  0.
         25    2    1    2    0    0  0.76504142566E+02  0.68430201063E+02 -0.95678519134E+03  0.97036032380E+03  0.12500271753E+03 0.  0.
          5    1    3    3  502    0 -0.55085101561E+02 -0.88358718675E+02 -0.38211156687E+03  0.39607192669E+03  0.47000000000E+01 0.  1.
         -5    1    3    3    0  502 -0.21419041004E+02  0.19928517612E+02 -0.16076906616E+02  0.33711690229E+02  0.47000000000E+01 0.  1.
          5    1    4    4  503    0  0.73958097344E+02  0.91076946471E+02 -0.52595364193E+03  0.53890085712E+03  0.47000000000E+01 0. -1.
         -5    1    4    4    0  503  0.25460452212E+01 -0.22646745408E+02 -0.43083154941E+03  0.43145946668E+03  0.47000000000E+01 0. -1.
<mgrwt>
<rscale>  0 0.16174336E+03</rscale>
<asrwt>0</asrwt>
<pdfrwt beam="2">  1        5 0.21193206E+00 0.16174441E+03</pdfrwt>
<pdfrwt beam="1">  1       -5 0.34746377E-02 0.16174441E+03</pdfrwt>
<totfact> 0.36327394E+01</totfact>
</mgrwt>
</event>
<event>
 8    1  0.3588496E-007  0.1418605E+03  0.7546771E-02  0.1210850E+00
          5   -1    0    0  501    0  0.00000000000E+00  0.00000000000E+00  0.23476710229E+02  0.23942554650E+02  0.47000000000E+01 0.  1.
         -5   -1    0    0    0  501 -0.00000000000E+00 -0.00000000000E+00 -0.95621661337E+03  0.95622816403E+03  0.47000000000E+01 0.  1.
         25    2    1    2    0    0 -0.51831128995E+01 -0.66856833793E+02 -0.63101141277E+03  0.64676101109E+03  0.12501080567E+03 0.  0.
         25    2    1    2    0    0  0.51831128995E+01  0.66856833793E+02 -0.30172849036E+03  0.33340970758E+03  0.12500100132E+03 0.  0.
          5    1    4    4  502    0 -0.19537243220E+02 -0.22539004124E+02 -0.18660980860E+02  0.35496940519E+02  0.47000000000E+01 0. -1.
         -5    1    4    4    0  502  0.24720356119E+02  0.89395837917E+02 -0.28306750950E+03  0.29791276706E+03  0.47000000000E+01 0. -1.
          5    1    3    3  503    0  0.35691248867E+02 -0.86523075927E+02 -0.36322367008E+03  0.37511815794E+03  0.47000000000E+01 0.  1.
         -5    1    3    3    0  503 -0.40874361766E+02  0.19666242134E+02 -0.26778774270E+03  0.27164285315E+03  0.47000000000E+01 0.  1.
<mgrwt>
<rscale>  0 0.14185834E+03</rscale>
<asrwt>0</asrwt>
<pdfrwt beam="1">  1        5 0.36485250E-02 0.14186050E+03</pdfrwt>
<pdfrwt beam="2">  1       -5 0.14714694E+00 0.14186050E+03</pdfrwt>
<totfact> 0.94588656E+01</totfact>
</mgrwt>
</event>
<event>
 8    1  0.3588496E-007  0.1434793E+03  0.7546771E-02  0.1208723E+00
         -5   -1    0    0    0  501 -0.00000000000E+00  0.00000000000E+00  0.46720176725E+03  0.46722540740E+03  0.47000000000E+01 0.  1.
          5   -1    0    0  501    0  0.00000000000E+00 -0.00000000000E+00 -0.48549844240E+02  0.48776811865E+02  0.47000000000E+01 0.  1.
         25    2    1    2    0    0  0.65839225031E+02 -0.25025804476E+02  0.28885163181E+03  0.32252245313E+03  0.12499749251E+03 0.  0.
         25    2    1    2    0    0 -0.65839225031E+02  0.25025804476E+02  0.12980029120E+03  0.19347976614E+03  0.12500083946E+03 0.  0.
          5    1    3    3  502    0  0.21124351968E+02 -0.51241401959E+02  0.40577049351E+02  0.68851335897E+02  0.47000000000E+01 0.  1.
         -5    1    3    3    0  502  0.44714873063E+02  0.26215597483E+02  0.24827458245E+03  0.25367111723E+03  0.47000000000E+01 0.  1.
          5    1    4    4  503    0 -0.27162081753E+02 -0.26151105314E+01  0.14159305152E+03  0.14427508353E+03  0.47000000000E+01 0.  1.
         -5    1    4    4    0  503 -0.38677143278E+02  0.27640915007E+02 -0.11792760318E+02  0.49204682608E+02  0.47000000000E+01 0.  1.
<mgrwt>
<rscale>  0 0.14347855E+03</rscale>
<asrwt>0</asrwt>
<pdfrwt beam="2">  1        5 0.74884844E-02 0.14347928E+03</pdfrwt>
<pdfrwt beam="1">  1       -5 0.71896472E-01 0.14347928E+03</pdfrwt>
<totfact> 0.16691298E+02</totfact>
</mgrwt>
</event>
<event>
 8    1  0.3588496E-007  0.1256434E+03  0.7546771E-02  0.1234069E+00
         -5   -1    0    0    0  501 -0.00000000000E+00  0.00000000000E+00  0.83037010024E+02  0.83169916639E+02  0.47000000000E+01 0. -1.
          5   -1    0    0  501    0  0.00000000000E+00 -0.00000000000E+00 -0.23269038940E+03  0.23273785107E+03  0.47000000000E+01 0. -1.
         25    2    1    2    0    0  0.75720040272E+01 -0.10197540869E+02 -0.70313138151E+01  0.12583591412E+03  0.12499565122E+03 0.  0.
         25    2    1    2    0    0 -0.75720040272E+01  0.10197540869E+02 -0.14262206556E+03  0.19007185359E+03  0.12499972342E+03 0.  0.
          5    1    3    3  502    0 -0.45790898849E+02 -0.25705180755E+02  0.28279667488E+02  0.59828022934E+02  0.47000000000E+01 0. -1.
         -5    1    3    3    0  502  0.53362902876E+02  0.15507639886E+02 -0.35310981303E+02  0.66007891186E+02  0.47000000000E+01 0. -1.
          5    1    4    4  503    0 -0.93967673815E+01  0.30304701170E+02  0.11866219280E+02  0.34198995749E+02  0.47000000000E+01 0.  1.
         -5    1    4    4    0  503  0.18247633544E+01 -0.20107160302E+02 -0.15448828484E+03  0.15587285784E+03  0.47000000000E+01 0.  1.
<mgrwt>
<rscale>  0 0.12564236E+03</rscale>
<asrwt>0</asrwt>
<pdfrwt beam="2">  1        5 0.35812396E-01 0.12564337E+03</pdfrwt>
<pdfrwt beam="1">  1       -5 0.12788799E-01 0.12564337E+03</pdfrwt>
<totfact> 0.27663358E+02</totfact>
</mgrwt>
</event>
<event>
 8    1  0.3588496E-007  0.1390900E+03  0.7546771E-02  0.1214559E+00
          5   -1    0    0  501    0  0.00000000000E+00  0.00000000000E+00  0.20602576332E+02  0.21131875248E+02  0.47000000000E+01 0.  1.
         -5   -1    0    0    0  501 -0.00000000000E+00 -0.00000000000E+00 -0.11892653288E+04  0.11892746160E+04  0.47000000000E+01 0.  1.
         25    2    1    2    0    0  0.39640883388E+02 -0.46369091178E+02 -0.86870867126E+03  0.87977306064E+03  0.12499756184E+03 0.  0.
         25    2    1    2    0    0 -0.39640883388E+02  0.46369091178E+02 -0.29995408116E+03  0.33063343057E+03  0.12499808938E+03 0.  0.
          5    1    3    3  502    0 -0.12530386475E+02 -0.17804448047E+01 -0.67870922375E+01  0.15110764043E+02  0.47000000000E+01 0. -1.
         -5    1    3    3    0  502  0.52171269863E+02 -0.44588646374E+02 -0.86192157902E+03  0.86466229660E+03  0.47000000000E+01 0. -1.
          5    1    4    4  503    0 -0.76846323142E+02  0.55037022796E+02 -0.25173080186E+03  0.26893292447E+03  0.47000000000E+01 0. -1.
         -5    1    4    4    0  503  0.37205439754E+02 -0.86679316178E+01 -0.48223279301E+02  0.61700506094E+02  0.47000000000E+01 0. -1.
<mgrwt>
<rscale>  0 0.13908983E+03</rscale>
<asrwt>0</asrwt>
<pdfrwt beam="1">  1        5 0.32110578E-02 0.13908995E+03</pdfrwt>
<pdfrwt beam="2">  1       -5 0.18300527E+00 0.13908995E+03</pdfrwt>
<totfact> 0.62406338E+01</totfact>
</mgrwt>
</event>
<event>
 8    1  0.3588496E-007  0.1289527E+03  0.7546771E-02  0.1229019E+00
         -5   -1    0    0    0  501 -0.00000000000E+00  0.00000000000E+00  0.50954747867E+03  0.50956915431E+03  0.47000000000E+01 0. -1.
          5   -1    0    0  501    0  0.00000000000E+00 -0.00000000000E+00 -0.32557727956E+02  0.32895222292E+02  0.47000000000E+01 0. -1.
         25    2    1    2    0    0 -0.25810841016E+02  0.18369408012E+02  0.22241296351E+03  0.25709205772E+03  0.12500066056E+03 0.  0.
         25    2    1    2    0    0  0.25810841016E+02 -0.18369408012E+02  0.25457678721E+03  0.28537231888E+03  0.12499754051E+03 0.  0.
          5    1    4    4  502    0  0.65458193988E+02 -0.45327631519E+02  0.17555856117E+03  0.19282704099E+03  0.47000000000E+01 0.  1.
         -5    1    4    4    0  502 -0.39647352971E+02  0.26958223507E+02  0.79018226039E+02  0.92545277884E+02  0.47000000000E+01 0.  1.
          5    1    3    3  503    0 -0.14600310307E+02  0.44482578912E+02  0.17557886893E+02  0.50221890445E+02  0.47000000000E+01 0. -1.
         -5    1    3    3    0  503 -0.11210530709E+02 -0.26113170900E+02  0.20485507662E+03  0.20687016728E+03  0.47000000000E+01 0. -1.
<mgrwt>
<rscale>  0 0.12895195E+03</rscale>
<asrwt>0</asrwt>
<pdfrwt beam="2">  1        5 0.50365096E-02 0.12895270E+03</pdfrwt>
<pdfrwt beam="1">  1       -5 0.78419549E-01 0.12895270E+03</pdfrwt>
<totfact> 0.25740316E+02</totfact>
</mgrwt>
</event>
<event>
 8    1  0.3588496E-007  0.1427389E+03  0.7546771E-02  0.1209691E+00
          5   -1    0    0  501    0  0.00000000000E+00  0.00000000000E+00  0.51627484407E+03  0.51629623727E+03  0.47000000000E+01 0.  1.
         -5   -1    0    0    0  501 -0.00000000000E+00 -0.00000000000E+00 -0.43202012616E+02  0.43456919979E+02  0.47000000000E+01 0.  1.
         25    2    1    2    0    0  0.66738333204E+02  0.17194739595E+02  0.15271534549E+03  0.20903488380E+03  0.12499576676E+03 0.  0.
         25    2    1    2    0    0 -0.66738333204E+02 -0.17194739595E+02  0.32035748596E+03  0.35071827344E+03  0.12499889731E+03 0.  0.
          5    1    4    4  502    0  0.29397901581E+02  0.23039999443E+02  0.69660860164E+02  0.79182091602E+02  0.47000000000E+01 0. -1.
         -5    1    4    4    0  502 -0.96136234786E+02 -0.40234739038E+02  0.25069662579E+03  0.27153618184E+03  0.47000000000E+01 0. -1.
          5    1    3    3  503    0 -0.15763975492E+02 -0.27294308600E+02  0.25706653732E+01  0.31971558075E+02  0.47000000000E+01 0.  1.
         -5    1    3    3    0  503  0.82502308697E+02  0.44489048195E+02  0.15014468012E+03  0.17706332573E+03  0.47000000000E+01 0.  1.
<mgrwt>
<rscale>  0 0.14273820E+03</rscale>
<asrwt>0</asrwt>
<pdfrwt beam="1">  1        5 0.79448155E-01 0.14273888E+03</pdfrwt>
<pdfrwt beam="2">  1       -5 0.66677172E-02 0.14273888E+03</pdfrwt>
<totfact> 0.16151407E+02</totfact>
</mgrwt>
</event>
<event>
 8    1  0.3588496E-007  0.1262770E+03  0.7546771E-02  0.1233103E+00
          5   -1    0    0  501    0  0.00000000000E+00  0.00000000000E+00  0.10215329663E+03  0.10226136129E+03  0.47000000000E+01 0. -1.
         -5   -1    0    0    0  501 -0.00000000000E+00 -0.00000000000E+00 -0.15981264050E+03  0.15988173774E+03  0.47000000000E+01 0. -1.
         25    2    1    2    0    0  0.17880552688E+02 -0.13880955169E+01 -0.81199349602E+01  0.12649640797E+03  0.12495505957E+03 0.  0.
         25    2    1    2    0    0 -0.17880552688E+02  0.13880955169E+01 -0.49539408905E+02  0.13564669106E+03  0.12499692311E+03 0.  0.
          5    1    4    4  502    0 -0.34911809634E+02 -0.55633283533E+02 -0.33257651540E+02  0.73770306184E+02  0.47000000000E+01 0. -1.
         -5    1    4    4    0  502  0.17031256946E+02  0.57021379050E+02 -0.16281757365E+02  0.61876384872E+02  0.47000000000E+01 0. -1.
          5    1    3    3  503    0 -0.21121160815E+02 -0.42460425919E+02  0.31579640856E+02  0.57169527897E+02  0.47000000000E+01 0.  1.
         -5    1    3    3    0  503  0.39001713503E+02  0.41072330402E+02 -0.39699575816E+02  0.69326880074E+02  0.47000000000E+01 0.  1.
<mgrwt>
<rscale>  0 0.12626660E+03</rscale>
<asrwt>0</asrwt>
<pdfrwt beam="1">  1        5 0.15729520E-01 0.12627696E+03</pdfrwt>
<pdfrwt beam="2">  1       -5 0.24600188E-01 0.12627696E+03</pdfrwt>
<totfact> 0.39836912E+02</totfact>
</mgrwt>
</event>
<event>
 8    1  0.3588496E-007  0.1705100E+03  0.7546771E-02  0.1177319E+00
         -5   -1    0    0    0  501 -0.00000000000E+00  0.00000000000E+00  0.45696707740E+02  0.45937774198E+02  0.47000000000E+01 0. -1.
          5   -1    0    0  501    0  0.00000000000E+00 -0.00000000000E+00 -0.73060214329E+03  0.73061726080E+03  0.47000000000E+01 0. -1.
         25    2    1    2    0    0 -0.25156166085E+02  0.11319169510E+03 -0.20150061165E+03  0.26396239980E+03  0.12501383716E+03 0.  0.
         25    2    1    2    0    0  0.25156166085E+02 -0.11319169510E+03 -0.48340482390E+03  0.51259263520E+03  0.12500317340E+03 0.  0.
          5    1    3    3  502    0 -0.72453908058E+02  0.47267334262E+02 -0.12682606604E+03  0.15359267791E+03  0.47000000000E+01 0.  1.
         -5    1    3    3    0  502  0.47297741972E+02  0.65924360836E+02 -0.74674545613E+02  0.11036972189E+03  0.47000000000E+01 0.  1.
          5    1    4    4  503    0 -0.36075806864E+02 -0.64998749693E+02 -0.35161004701E+03  0.35941343389E+03  0.47000000000E+01 0.  1.
         -5    1    4    4    0  503  0.61231972950E+02 -0.48192945404E+02 -0.13179477689E+03  0.15317920131E+03  0.47000000000E+01 0.  1.
<mgrwt>
<rscale>  0 0.17050802E+03</rscale>
<asrwt>0</asrwt>
<pdfrwt beam="2">  1        5 0.11242003E+00 0.17050998E+03</pdfrwt>
<pdfrwt beam="1">  1       -5 0.70499697E-02 0.17050998E+03</pdfrwt>
<totfact> 0.67197880E+01</totfact>
</mgrwt>
</event>
<event>
 8    1  0.3588496E-007  0.1332703E+03  0.7546771E-02  0.1222683E+00
         -5   -1    0    0    0  501 -0.00000000000E+00  0.00000000000E+00  0.35213332023E+03  0.35216468479E+03  0.47000000000E+01 0. -1.
          5   -1    0    0  501    0  0.00000000000E+00 -0.00000000000E+00 -0.66336827821E+02  0.66503118163E+02  0.47000000000E+01 0. -1.
         25    2    1    2    0    0  0.42393234605E+02  0.18421497979E+02  0.24566694429E+03  0.27948743673E+03  0.12499776736E+03 0.  0.
         25    2    1    2    0    0 -0.42393234605E+02 -0.18421497979E+02  0.40129548116E+02  0.13918036622E+03  0.12499702309E+03 0.  0.
          5    1    4    4  502    0 -0.79933114585E+02 -0.37654548074E+02  0.39072919581E+02  0.96726164209E+02  0.47000000000E+01 0. -1.
         -5    1    4    4    0  502  0.37539879980E+02  0.19233050096E+02  0.10566285356E+01  0.42454202016E+02  0.47000000000E+01 0. -1.
          5    1    3    3  503    0 -0.14593728934E+02  0.58966787358E+02  0.89035777096E+02  0.10788660037E+03  0.47000000000E+01 0. -1.
         -5    1    3    3    0  503  0.56986963539E+02 -0.40545289379E+02  0.15663116719E+03  0.17160083636E+03  0.47000000000E+01 0. -1.
<mgrwt>
<rscale>  0 0.13327015E+03</rscale>
<asrwt>0</asrwt>
<pdfrwt beam="2">  1        5 0.10220870E-01 0.13327033E+03</pdfrwt>
<pdfrwt beam="1">  1       -5 0.54189560E-01 0.13327033E+03</pdfrwt>
<totfact> 0.17758458E+02</totfact>
</mgrwt>
</event>
<event>
 8    1  0.3588496E-007  0.1288217E+03  0.7546771E-02  0.1229217E+00
          5   -1    0    0  501    0  0.00000000000E+00  0.00000000000E+00  0.33595046849E+03  0.33598334375E+03  0.47000000000E+01 0. -1.
         -5   -1    0    0    0  501 -0.00000000000E+00 -0.00000000000E+00 -0.50919778880E+02  0.51136228656E+02  0.47000000000E+01 0. -1.
         25    2    1    2    0    0  0.16930252064E+02 -0.26095214227E+02  0.10751962850E+03  0.16779059761E+03  0.12500248194E+03 0.  0.
         25    2    1    2    0    0 -0.16930252064E+02  0.26095214227E+02  0.17751106110E+03  0.21932897480E+03  0.12500971455E+03 0.  0.
          5    1    3    3  502    0  0.13441729467E+02  0.47689664463E+02  0.21240429023E+02  0.54113122371E+02  0.47000000000E+01 0. -1.
         -5    1    3    3    0  502  0.34885225966E+01 -0.73784878690E+02  0.86279199481E+02  0.11367747524E+03  0.47000000000E+01 0. -1.
          5    1    4    4  503    0  0.19579968683E+02 -0.10092812087E+02 -0.10144462081E+02  0.24703039092E+02  0.47000000000E+01 0.  1.
         -5    1    4    4    0  503 -0.36510220747E+02  0.36188026314E+02  0.18765552318E+03  0.19462593570E+03  0.47000000000E+01 0.  1.
<mgrwt>
<rscale>  0 0.12881991E+03</rscale>
<asrwt>0</asrwt>
<pdfrwt beam="1">  1        5 0.51703866E-01 0.12882167E+03</pdfrwt>
<pdfrwt beam="2">  1       -5 0.78529910E-02 0.12882167E+03</pdfrwt>
<totfact> 0.30590070E+02</totfact>
</mgrwt>
</event>
<event>
 8    1  0.3588496E-007  0.1856434E+03  0.7546771E-02  0.1162451E+00
         -5   -1    0    0    0  501 -0.00000000000E+00  0.00000000000E+00  0.49975938237E+03  0.49978148252E+03  0.47000000000E+01 0. -1.
          5   -1    0    0  501    0  0.00000000000E+00 -0.00000000000E+00 -0.79395227723E+02  0.79534220214E+02  0.47000000000E+01 0. -1.
         25    2    1    2    0    0  0.13290163675E+03  0.34293741163E+02  0.31560111010E+03  0.36615234390E+03  0.12499829006E+03 0.  0.
         25    2    1    2    0    0 -0.13290163675E+03 -0.34293741163E+02  0.10476304455E+03  0.21316335883E+03  0.12499766523E+03 0.  0.
          5    1    3    3  502    0  0.13224022971E+03  0.43575373619E+02  0.16828525482E+03  0.21846809499E+03  0.47000000000E+01 0.  1.
         -5    1    3    3    0  502  0.66140704258E+00 -0.92816324563E+01  0.14731585528E+03  0.14768424891E+03  0.47000000000E+01 0.  1.
          5    1    4    4  503    0 -0.20209214357E+02 -0.39734697519E+02  0.88328864157E+02  0.99052192177E+02  0.47000000000E+01 0. -1.
         -5    1    4    4    0  503 -0.11269242239E+03  0.54409563565E+01  0.16434180398E+02  0.11411116666E+03  0.47000000000E+01 0. -1.
<mgrwt>
<rscale>  0 0.18564331E+03</rscale>
<asrwt>0</asrwt>
<pdfrwt beam="2">  1        5 0.12227042E-01 0.18564342E+03</pdfrwt>
<pdfrwt beam="1">  1       -5 0.76898451E-01 0.18564342E+03</pdfrwt>
<totfact> 0.65752424E+01</totfact>
</mgrwt>
</event>
<event>
 8    1  0.3588496E-007  0.1712847E+03  0.7546771E-02  0.1176516E+00
         -5   -1    0    0    0  501 -0.00000000000E+00  0.00000000000E+00  0.20866631705E+03  0.20871924173E+03  0.47000000000E+01 0.  1.
          5   -1    0    0  501    0  0.00000000000E+00 -0.00000000000E+00 -0.14264074446E+03  0.14271815575E+03  0.47000000000E+01 0.  1.
         25    2    1    2    0    0  0.10116150127E+03  0.58987055918E+02  0.54602855601E+02  0.17977226267E+03  0.12499388977E+03 0.  0.
         25    2    1    2    0    0 -0.10116150127E+03 -0.58987055918E+02  0.11422716981E+02  0.17166513482E+03  0.12500127177E+03 0.  0.
          5    1    4    4  502    0 -0.12021114265E+03 -0.72073832497E+02 -0.89132244608E+01  0.14052363402E+03  0.47000000000E+01 0. -1.
         -5    1    4    4    0  502  0.19049641374E+02  0.13086776579E+02  0.20335941442E+02  0.31141500799E+02  0.47000000000E+01 0. -1.
          5    1    3    3  503    0  0.25225009017E+02  0.55870003657E+01 -0.39545074323E+02  0.47470185972E+02  0.47000000000E+01 0.  1.
         -5    1    3    3    0  503  0.75936492255E+02  0.53400055553E+02  0.94147929924E+02  0.13230207670E+03  0.47000000000E+01 0.  1.
<mgrwt>
<rscale>  0 0.17128333E+03</rscale>
<asrwt>0</asrwt>
<pdfrwt beam="2">  1        5 0.21954756E-01 0.17128468E+03</pdfrwt>
<pdfrwt beam="1">  1       -5 0.32112536E-01 0.17128468E+03</pdfrwt>
<totfact> 0.14142892E+02</totfact>
</mgrwt>
</event>
<event>
 8    1  0.3588496E-007  0.1820932E+03  0.7546771E-02  0.1165793E+00
         -5   -1    0    0    0  501 -0.00000000000E+00  0.00000000000E+00  0.29749020507E+02  0.30118004933E+02  0.47000000000E+01 0. -1.
          5   -1    0    0  501    0  0.00000000000E+00 -0.00000000000E+00 -0.11957534162E+04  0.11957626530E+04  0.47000000000E+01 0. -1.
         25    2    1    2    0    0 -0.36820652622E+02  0.12718943570E+03 -0.41635283832E+03  0.45443047514E+03  0.12499783098E+03 0.  0.
         25    2    1    2    0    0  0.36820652622E+02 -0.12718943570E+03 -0.74965155735E+03  0.77145018279E+03  0.12500005627E+03 0.  0.
          5    1    4    4  502    0 -0.17629639292E+01 -0.20679203445E+02 -0.10639804832E+02  0.23791446862E+02  0.47000000000E+01 0. -1.
         -5    1    4    4    0  502  0.38583616551E+02 -0.10651023225E+03 -0.73901175252E+03  0.74765873593E+03  0.47000000000E+01 0. -1.
          5    1    3    3  503    0 -0.64902739367E+02  0.26384117022E+02 -0.23203580584E+03  0.24242770551E+03  0.47000000000E+01 0.  1.
         -5    1    3    3    0  503  0.28082086745E+02  0.10080531868E+03 -0.18431703248E+03  0.21200276963E+03  0.47000000000E+01 0.  1.
<mgrwt>
<rscale>  0 0.18209280E+03</rscale>
<asrwt>0</asrwt>
<pdfrwt beam="2">  1        5 0.18399112E+00 0.18209318E+03</pdfrwt>
<pdfrwt beam="1">  1       -5 0.46058672E-02 0.18209318E+03</pdfrwt>
<totfact> 0.36550930E+01</totfact>
</mgrwt>
</event>
<event>
 8    1  0.3588496E-007  0.1812619E+03  0.7546771E-02  0.1166588E+00
         -5   -1    0    0    0  501 -0.00000000000E+00  0.00000000000E+00  0.56540007912E+02  0.56735020003E+02  0.47000000000E+01 0.  1.
          5   -1    0    0  501    0  0.00000000000E+00 -0.00000000000E+00 -0.59341482219E+03  0.59343343451E+03  0.47000000000E+01 0.  1.
         25    2    1    2    0    0  0.13058355052E+03  0.13343428700E+02 -0.31751378926E+03  0.36561031082E+03  0.12500312896E+03 0.  0.
         25    2    1    2    0    0 -0.13058355052E+03 -0.13343428700E+02 -0.21936102501E+03  0.28455814369E+03  0.12499586829E+03 0.  0.
          5    1    4    4  502    0 -0.97249757317E+02 -0.66782596856E+02 -0.14548086207E+03  0.18736115331E+03  0.47000000000E+01 0. -1.
         -5    1    4    4    0  502 -0.33333793202E+02  0.53439168156E+02 -0.73880162944E+02  0.97196990381E+02  0.47000000000E+01 0. -1.
          5    1    3    3  503    0  0.14612694269E+03  0.15048427346E+02 -0.20685291922E+03  0.25375137189E+03  0.47000000000E+01 0. -1.
         -5    1    3    3    0  503 -0.15543392169E+02 -0.17049986466E+01 -0.11066087004E+03  0.11185893893E+03  0.47000000000E+01 0. -1.
<mgrwt>
<rscale>  0 0.18126069E+03</rscale>
<asrwt>0</asrwt>
<pdfrwt beam="2">  1        5 0.91311017E-01 0.18126195E+03</pdfrwt>
<pdfrwt beam="1">  1       -5 0.87148958E-02 0.18126195E+03</pdfrwt>
<totfact> 0.79118573E+01</totfact>
</mgrwt>
</event>
<event>
 8    1  0.3588496E-007  0.1315360E+03  0.7546771E-02  0.1225197E+00
         -5   -1    0    0    0  501 -0.00000000000E+00  0.00000000000E+00  0.26845896137E+03  0.26850010045E+03  0.47000000000E+01 0.  1.
          5   -1    0    0  501    0  0.00000000000E+00 -0.00000000000E+00 -0.68867141773E+02  0.69027336730E+02  0.47000000000E+01 0.  1.
         25    2    1    2    0    0  0.37993400144E+02  0.15270865530E+02  0.14313201493E+03  0.19439265089E+03  0.12500012493E+03 0.  0.
         25    2    1    2    0    0 -0.37993400144E+02 -0.15270865530E+02  0.56459804672E+02  0.14313478629E+03  0.12499263864E+03 0.  0.
          5    1    4    4  502    0 -0.19811417396E+02 -0.43332819586E+02  0.85896583721E+02  0.98338896717E+02  0.47000000000E+01 0.  1.
         -5    1    4    4    0  502 -0.18181982748E+02  0.28061954056E+02 -0.29436779049E+02  0.44795889576E+02  0.47000000000E+01 0.  1.
          5    1    3    3  503    0  0.30326781336E+02  0.50935605056E+01  0.16540538388E+03  0.16830534466E+03  0.47000000000E+01 0.  1.
         -5    1    3    3    0  503  0.76666188077E+01  0.10177305024E+02 -0.22273368954E+02  0.26087306225E+02  0.47000000000E+01 0.  1.
<mgrwt>
<rscale>  0 0.13153426E+03</rscale>
<asrwt>0</asrwt>
<pdfrwt beam="2">  1        5 0.10610432E-01 0.13153604E+03</pdfrwt>
<pdfrwt beam="1">  1       -5 0.41316865E-01 0.13153604E+03</pdfrwt>
<totfact> 0.29259174E+02</totfact>
</mgrwt>
</event>
<event>
 8    1  0.3588496E-007  0.1260330E+03  0.7546771E-02  0.1233466E+00
         -5   -1    0    0    0  501 -0.00000000000E+00  0.00000000000E+00  0.50584571034E+03  0.50586754459E+03  0.47000000000E+01 0.  1.
          5   -1    0    0  501    0  0.00000000000E+00 -0.00000000000E+00 -0.34112155434E+02  0.34434418078E+02  0.47000000000E+01 0.  1.
         25    2    1    2    0    0  0.52214174960E+01  0.15232647768E+02  0.31437200929E+03  0.33869467110E+03  0.12500009300E+03 0.  0.
         25    2    1    2    0    0 -0.52214174960E+01 -0.15232647768E+02  0.15736154562E+03  0.20160729157E+03  0.12499418872E+03 0.  0.
          5    1    4    4  502    0  0.37333559377E+02  0.32294432346E+02  0.27151872342E+02  0.56533522692E+02  0.47000000000E+01 0.  1.
         -5    1    4    4    0  502 -0.42554976873E+02 -0.47527080114E+02  0.13020967328E+03  0.14507376887E+03  0.47000000000E+01 0.  1.
          5    1    3    3  503    0  0.57422745136E+02  0.30032889303E+02  0.11571997988E+03  0.13271228218E+03  0.47000000000E+01 0. -1.
         -5    1    3    3    0  503 -0.52201327640E+02 -0.14800241535E+02  0.19865202941E+03  0.20598238892E+03  0.47000000000E+01 0. -1.
<mgrwt>
<rscale>  0 0.12603155E+03</rscale>
<asrwt>0</asrwt>
<pdfrwt beam="2">  1        5 0.52744934E-02 0.12603301E+03</pdfrwt>
<pdfrwt beam="1">  1       -5 0.77848878E-01 0.12603301E+03</pdfrwt>
<totfact> 0.24044482E+02</totfact>
</mgrwt>
</event>
<event>
 8    1  0.3588496E-007  0.1267554E+03  0.7546771E-02  0.1232352E+00
         -5   -1    0    0    0  501 -0.00000000000E+00  0.00000000000E+00  0.61438188232E+03  0.61439985948E+03  0.47000000000E+01 0.  1.
          5   -1    0    0  501    0  0.00000000000E+00 -0.00000000000E+00 -0.26074877540E+02  0.26495079520E+02  0.47000000000E+01 0.  1.
         25    2    1    2    0    0 -0.41713015035E+01  0.20603509544E+02  0.26977741664E+03  0.29807179779E+03  0.12500015098E+03 0.  0.
         25    2    1    2    0    0  0.41713015035E+01 -0.20603509544E+02  0.31852958814E+03  0.34282314121E+03  0.12499881306E+03 0.  0.
          5    1    3    3  502    0  0.17744644853E+02  0.98031324903E+01  0.27227225765E+03  0.27306637676E+03  0.47000000000E+01 0. -1.
         -5    1    3    3    0  502 -0.21915946356E+02  0.10800377054E+02 -0.24948410135E+01  0.25005421029E+02  0.47000000000E+01 0. -1.
          5    1    4    4  503    0  0.54736681158E+02 -0.16153034835E+02  0.76923585343E+02  0.95897616136E+02  0.47000000000E+01 0. -1.
         -5    1    4    4    0  503 -0.50565379655E+02 -0.44504747091E+01  0.24160600280E+03  0.24692552508E+03  0.47000000000E+01 0. -1.
<mgrwt>
<rscale>  0 0.12675511E+03</rscale>
<asrwt>0</asrwt>
<pdfrwt beam="2">  1        5 0.40452262E-02 0.12675544E+03</pdfrwt>
<pdfrwt beam="1">  1       -5 0.94553984E-01 0.12675544E+03</pdfrwt>
<totfact> 0.23674636E+02</totfact>
</mgrwt>
</event>
<event>
 8    1  0.3588496E-007  0.1593512E+03  0.7546771E-02  0.1189432E+00
          5   -1    0    0  501    0  0.00000000000E+00  0.00000000000E+00  0.92895566167E+02  0.93014387132E+02  0.47000000000E+01 0.  1.
         -5   -1    0    0    0  501 -0.00000000000E+00 -0.00000000000E+00 -0.34320472727E+03  0.34323690772E+03  0.47000000000E+01 0.  1.
         25    2    1    2    0    0 -0.42409597518E+02  0.89272034365E+02 -0.22376427382E+03  0.27470424972E+03  0.12499561790E+03 0.  0.
         25    2    1    2    0    0  0.42409597518E+02 -0.89272034365E+02 -0.26544887279E+02  0.16154704513E+03  0.12499898667E+03 0.  0.
          5    1    3    3  502    0  0.13973347900E+02 -0.17618052888E+02 -0.32485286316E+01  0.23201146036E+02  0.47000000000E+01 0. -1.
         -5    1    3    3    0  502 -0.56382945419E+02  0.10689008725E+03 -0.22051574519E+03  0.25150310369E+03  0.47000000000E+01 0. -1.
          5    1    4    4  503    0 -0.21453470532E+02  0.19513687764E+02 -0.19207068280E+02  0.35100382903E+02  0.47000000000E+01 0. -1.
         -5    1    4    4    0  503  0.63863068050E+02 -0.10878572213E+03 -0.73378189994E+01  0.12644666222E+03  0.47000000000E+01 0. -1.
<mgrwt>
<rscale>  0 0.15935058E+03</rscale>
<asrwt>0</asrwt>
<pdfrwt beam="1">  1        5 0.14303241E-01 0.15935124E+03</pdfrwt>
<pdfrwt beam="2">  1       -5 0.52812342E-01 0.15935124E+03</pdfrwt>
<totfact> 0.10948426E+02</totfact>
</mgrwt>
</event>
<event>
 8    1  0.3588496E-007  0.1399803E+03  0.7546771E-02  0.1213356E+00
          5   -1    0    0  501    0  0.00000000000E+00  0.00000000000E+00  0.20300063106E+03  0.20305503247E+03  0.47000000000E+01 0.  1.
         -5   -1    0    0    0  501 -0.00000000000E+00 -0.00000000000E+00 -0.96720548818E+02  0.96834676453E+02  0.47000000000E+01 0.  1.
         25    2    1    2    0    0  0.62747816685E+02 -0.55922959139E+01  0.61771888895E+02  0.15300386418E+03  0.12500341565E+03 0.  0.
         25    2    1    2    0    0 -0.62747816685E+02  0.55922959139E+01  0.44508193344E+02  0.14688584474E+03  0.12500363930E+03 0.  0.
          5    1    3    3  502    0  0.86875852420E+02 -0.64655165766E+01  0.78800131689E+00  0.87246361439E+02  0.47000000000E+01 0. -1.
         -5    1    3    3    0  502 -0.24128035734E+02  0.87322066269E+00  0.60983887578E+02  0.65757502742E+02  0.47000000000E+01 0. -1.
          5    1    4    4  503    0  0.28983820421E+02 -0.27352480314E+00  0.46303577224E+02  0.54829261583E+02  0.47000000000E+01 0.  1.
         -5    1    4    4    0  503 -0.91731637107E+02  0.58658207171E+01 -0.17953838795E+01  0.92056583155E+02  0.47000000000E+01 0.  1.
<mgrwt>
<rscale>  0 0.13998021E+03</rscale>
<asrwt>0</asrwt>
<pdfrwt beam="1">  1        5 0.31243830E-01 0.13998026E+03</pdfrwt>
<pdfrwt beam="2">  1       -5 0.14893048E-01 0.13998026E+03</pdfrwt>
<totfact> 0.28688531E+02</totfact>
</mgrwt>
</event>
<event>
 8    1  0.3588496E-007  0.1587224E+03  0.7546771E-02  0.1190148E+00
         -5   -1    0    0    0  501 -0.00000000000E+00  0.00000000000E+00  0.53275989767E+02  0.53482904611E+02  0.47000000000E+01 0.  1.
          5   -1    0    0  501    0  0.00000000000E+00 -0.00000000000E+00 -0.48732165905E+03  0.48734432322E+03  0.47000000000E+01 0.  1.
         25    2    1    2    0    0 -0.97567834557E+02  0.67510970407E+01 -0.16865512201E+03  0.23159736174E+03  0.12501091205E+03 0.  0.
         25    2    1    2    0    0  0.97567834557E+02 -0.67510970407E+01 -0.26539054727E+03  0.30922986609E+03  0.12500363136E+03 0.  0.
          5    1    4    4  502    0  0.14683051895E+02  0.46862750374E+02 -0.14675498400E+03  0.15482514239E+03  0.47000000000E+01 0. -1.
         -5    1    4    4    0  502  0.82884782662E+02 -0.53613847415E+02 -0.11863556326E+03  0.15440472371E+03  0.47000000000E+01 0. -1.
          5    1    3    3  503    0 -0.61505245976E+02  0.29657282533E+02 -0.12424210872E+02  0.69562207452E+02  0.47000000000E+01 0. -1.
         -5    1    3    3    0  503 -0.36062588581E+02 -0.22906185492E+02 -0.15623091114E+03  0.16203515429E+03  0.47000000000E+01 0. -1.
<mgrwt>
<rscale>  0 0.15872093E+03</rscale>
<asrwt>0</asrwt>
<pdfrwt beam="2">  1        5 0.74990220E-01 0.15872236E+03</pdfrwt>
<pdfrwt beam="1">  1       -5 0.82139664E-02 0.15872236E+03</pdfrwt>
<totfact> 0.13366929E+02</totfact>
</mgrwt>
</event>
<event>
 8    1  0.3588496E-007  0.1331687E+03  0.7546771E-02  0.1222829E+00
          5   -1    0    0  501    0  0.00000000000E+00  0.00000000000E+00  0.29196867607E+03  0.29200650302E+03  0.47000000000E+01 0.  1.
         -5   -1    0    0    0  501 -0.00000000000E+00 -0.00000000000E+00 -0.61316063638E+02  0.61495932061E+02  0.47000000000E+01 0.  1.
         25    2    1    2    0    0 -0.11993814730E+02 -0.44337816743E+02  0.96329529890E+02  0.16435716754E+03  0.12499682638E+03 0.  0.
         25    2    1    2    0    0  0.11993814730E+02  0.44337816743E+02  0.13432308255E+03  0.18914526755E+03  0.12499419245E+03 0.  0.
          5    1    3    3  502    0 -0.37209785973E+02 -0.28492213270E+02  0.11811516194E+03  0.12715996174E+03  0.47000000000E+01 0.  1.
         -5    1    3    3    0  502  0.25215971243E+02 -0.15845603473E+02 -0.21785632052E+02  0.37197205796E+02  0.47000000000E+01 0.  1.
          5    1    4    4  503    0  0.32980060476E+02  0.82364210813E+02  0.98496760780E+02  0.13264708627E+03  0.47000000000E+01 0. -1.
         -5    1    4    4    0  503 -0.20986245746E+02 -0.38026394070E+02  0.35826321765E+02  0.56498181278E+02  0.47000000000E+01 0. -1.
<mgrwt>
<rscale>  0 0.13316807E+03</rscale>
<asrwt>0</asrwt>
<pdfrwt beam="1">  1        5 0.44935004E-01 0.13316869E+03</pdfrwt>
<pdfrwt beam="2">  1       -5 0.94499863E-02 0.13316869E+03</pdfrwt>
<totfact> 0.30236096E+02</totfact>
</mgrwt>
</event>
<event>
 8    1  0.3588496E-007  0.1535522E+03  0.7546771E-02  0.1196178E+00
         -5   -1    0    0    0  501 -0.00000000000E+00  0.00000000000E+00  0.22230203177E+03  0.22235171088E+03  0.47000000000E+01 0. -1.
          5   -1    0    0  501    0  0.00000000000E+00 -0.00000000000E+00 -0.10600548119E+03  0.10610962276E+03  0.47000000000E+01 0. -1.
         25    2    1    2    0    0 -0.84191815098E+02  0.29350166916E+02  0.54169130759E+02  0.16282679853E+03  0.12501430945E+03 0.  0.
         25    2    1    2    0    0  0.84191815098E+02 -0.29350166916E+02  0.62127419820E+02  0.16563453510E+03  0.12500115559E+03 0.  0.
          5    1    4    4  502    0  0.12837813149E+02 -0.62084677150E+02 -0.28257071538E+01  0.63634826976E+02  0.47000000000E+01 0.  1.
         -5    1    4    4    0  502  0.71354001948E+02  0.32734510234E+02  0.64953126974E+02  0.10199970813E+03  0.47000000000E+01 0.  1.
          5    1    3    3  503    0 -0.11202701909E+03  0.40172878911E+02  0.26882368155E+02  0.12210104391E+03  0.47000000000E+01 0. -1.
         -5    1    3    3    0  503  0.27835203994E+02 -0.10822711995E+02  0.27286762604E+02  0.40725754624E+02  0.47000000000E+01 0. -1.
<mgrwt>
<rscale>  0 0.15354950E+03</rscale>
<asrwt>0</asrwt>
<pdfrwt beam="2">  1        5 0.16320368E-01 0.15355218E+03</pdfrwt>
<pdfrwt beam="1">  1       -5 0.34212145E-01 0.15355218E+03</pdfrwt>
<totfact> 0.20916547E+02</totfact>
</mgrwt>
</event>
<event>
 8    1  0.3588496E-007  0.1665507E+03  0.7546771E-02  0.1181497E+00
         -5   -1    0    0    0  501 -0.00000000000E+00  0.00000000000E+00  0.14840608413E+03  0.14848048965E+03  0.47000000000E+01 0. -1.
          5   -1    0    0  501    0  0.00000000000E+00 -0.00000000000E+00 -0.19063106627E+03  0.19068899661E+03  0.47000000000E+01 0. -1.
         25    2    1    2    0    0  0.63993188379E+02 -0.89535429320E+02  0.30807497695E+01  0.16656665379E+03  0.12499295129E+03 0.  0.
         25    2    1    2    0    0 -0.63993188379E+02  0.89535429320E+02 -0.45305731910E+02  0.17260283247E+03  0.12500962832E+03 0.  0.
          5    1    4    4  502    0  0.93495007799E+01  0.66853097104E+02 -0.64335722957E+02  0.93369829205E+02  0.47000000000E+01 0.  1.
         -5    1    4    4    0  502 -0.73342689159E+02  0.22682332216E+02  0.19029991048E+02  0.79233003269E+02  0.47000000000E+01 0.  1.
          5    1    3    3  503    0  0.21476851796E+01 -0.82543645489E+02  0.42255657093E+02  0.92874627959E+02  0.47000000000E+01 0.  1.
         -5    1    3    3    0  503  0.61845503199E+02 -0.69917838313E+01 -0.39174907324E+02  0.73692025830E+02  0.47000000000E+01 0.  1.
<mgrwt>
<rscale>  0 0.16654755E+03</rscale>
<asrwt>0</asrwt>
<pdfrwt beam="2">  1        5 0.29338036E-01 0.16655068E+03</pdfrwt>
<pdfrwt beam="1">  1       -5 0.22841885E-01 0.16655068E+03</pdfrwt>
<totfact> 0.15551241E+02</totfact>
</mgrwt>
</event>
<event>
 8    1  0.3588496E-007  0.1493648E+03  0.7546771E-02  0.1201258E+00
          5   -1    0    0  501    0  0.00000000000E+00  0.00000000000E+00  0.17909258416E+02  0.18515710546E+02  0.47000000000E+01 0.  1.
         -5   -1    0    0    0  501 -0.00000000000E+00 -0.00000000000E+00 -0.12445351919E+04  0.12445440667E+04  0.47000000000E+01 0.  1.
         25    2    1    2    0    0 -0.65187015150E+02  0.49331470804E+02 -0.69383272159E+03  0.70972789869E+03  0.12500761448E+03 0.  0.
         25    2    1    2    0    0  0.65187015150E+02 -0.49331470804E+02 -0.53279321191E+03  0.55333187854E+03  0.12499848076E+03 0.  0.
          5    1    3    3  502    0 -0.78428102489E+02  0.39013863958E+02 -0.23947829517E+03  0.25503919836E+03  0.47000000000E+01 0.  1.
         -5    1    3    3    0  502  0.13241087339E+02  0.10317606846E+02 -0.45435442642E+03  0.45468870033E+03  0.47000000000E+01 0.  1.
          5    1    4    4  503    0 -0.22009627261E+02  0.65214766645E+01 -0.22047653852E+02  0.32173628804E+02  0.47000000000E+01 0. -1.
         -5    1    4    4    0  503  0.87196642411E+02 -0.55852947468E+02 -0.51074555806E+03  0.52115824973E+03  0.47000000000E+01 0. -1.
<mgrwt>
<rscale>  0 0.14936289E+03</rscale>
<asrwt>0</asrwt>
<pdfrwt beam="1">  1        5 0.28026043E-02 0.14936480E+03</pdfrwt>
<pdfrwt beam="2">  1       -5 0.19151422E+00 0.14936480E+03</pdfrwt>
<totfact> 0.69234370E+01</totfact>
</mgrwt>
</event>
<event>
 8    1  0.3588496E-007  0.1254825E+03  0.7546771E-02  0.1234322E+00
          5   -1    0    0  501    0  0.00000000000E+00  0.00000000000E+00  0.21279452876E+03  0.21284642696E+03  0.47000000000E+01 0. -1.
         -5   -1    0    0    0  501 -0.00000000000E+00 -0.00000000000E+00 -0.86411861708E+02  0.86539585415E+02  0.47000000000E+01 0. -1.
         25    2    1    2    0    0 -0.50359048235E+01 -0.96355778389E+01  0.61883390839E+01  0.12563497931E+03  0.12501059070E+03 0.  0.
         25    2    1    2    0    0  0.50359048235E+01  0.96355778389E+01  0.12019432797E+03  0.17375103307E+03  0.12499816126E+03 0.  0.
          5    1    4    4  502    0  0.58118279944E+02  0.29287041498E+02  0.84141009893E+02  0.10647659278E+03  0.47000000000E+01 0. -1.
         -5    1    4    4    0  502 -0.53082375120E+02 -0.19651463660E+02  0.36053318074E+02  0.67274440291E+02  0.47000000000E+01 0. -1.
          5    1    3    3  503    0  0.19322410438E+02 -0.14158427460E+02  0.60780980731E+02  0.65499879632E+02  0.47000000000E+01 0.  1.
         -5    1    3    3    0  503 -0.24358315262E+02  0.45228496207E+01 -0.54592641647E+02  0.60135099676E+02  0.47000000000E+01 0.  1.
<mgrwt>
<rscale>  0 0.12547938E+03</rscale>
<asrwt>0</asrwt>
<pdfrwt beam="1">  1        5 0.32751437E-01 0.12548248E+03</pdfrwt>
<pdfrwt beam="2">  1       -5 0.13307950E-01 0.12548248E+03</pdfrwt>
<totfact> 0.30782237E+02</totfact>
</mgrwt>
</event>
<event>
 8    1  0.3588496E-007  0.1256961E+03  0.7546771E-02  0.1233986E+00
          5   -1    0    0  501    0  0.00000000000E+00  0.00000000000E+00  0.17102406327E+02  0.17736468143E+02  0.47000000000E+01 0. -1.
         -5   -1    0    0    0  501 -0.00000000000E+00 -0.00000000000E+00 -0.92644815059E+03  0.92646007239E+03  0.47000000000E+01 0. -1.
         25    2    1    2    0    0  0.11801699128E+02  0.59900727556E+01 -0.52417213658E+03  0.53903241602E+03  0.12499742273E+03 0.  0.
         25    2    1    2    0    0 -0.11801699128E+02 -0.59900727556E+01 -0.38517360769E+03  0.40516412451E+03  0.12499639457E+03 0.  0.
          5    1    4    4  502    0 -0.14546760249E+02 -0.60398129530E+02 -0.12948395615E+03  0.14369317028E+03  0.47000000000E+01 0.  1.
         -5    1    4    4    0  502  0.27450611213E+01  0.54408056775E+02 -0.25568965154E+03  0.26147095424E+03  0.47000000000E+01 0.  1.
          5    1    3    3  503    0 -0.51882238922E+01  0.14349901231E+02 -0.15447447616E+01  0.16040996505E+02  0.47000000000E+01 0. -1.
         -5    1    3    3    0  503  0.16989923020E+02 -0.83598284751E+01 -0.52262739181E+03  0.52299141952E+03  0.47000000000E+01 0. -1.
<mgrwt>
<rscale>  0 0.12569587E+03</rscale>
<asrwt>0</asrwt>
<pdfrwt beam="1">  1        5 0.26808312E-02 0.12569613E+03</pdfrwt>
<pdfrwt beam="2">  1       -5 0.14258014E+00 0.12569613E+03</pdfrwt>
<totfact> 0.16306039E+02</totfact>
</mgrwt>
</event>
<event>
 8    1  0.3588496E-007  0.1388066E+03  0.7546771E-02  0.1214957E+00
          5   -1    0    0  501    0  0.00000000000E+00  0.00000000000E+00  0.38824472474E+03  0.38827317225E+03  0.47000000000E+01 0.  1.
         -5   -1    0    0    0  501 -0.00000000000E+00 -0.00000000000E+00 -0.53423434031E+02  0.53629780007E+02  0.47000000000E+01 0.  1.
         25    2    1    2    0    0 -0.66946445655E+01 -0.59892762406E+02  0.10747239959E+03  0.17554936289E+03  0.12504119674E+03 0.  0.
         25    2    1    2    0    0  0.66946445655E+01  0.59892762406E+02  0.22734889111E+03  0.26635358937E+03  0.12499902009E+03 0.  0.
          5    1    4    4  502    0  0.54407167746E+02  0.40375014020E+02  0.19203661208E+03  0.20369200288E+03  0.47000000000E+01 0. -1.
         -5    1    4    4    0  502 -0.47712523181E+02  0.19517748385E+02  0.35312279037E+02  0.62661586487E+02  0.47000000000E+01 0. -1.
          5    1    3    3  503    0  0.19822548277E+02  0.18093262434E+02  0.86118179444E+02  0.90325690678E+02  0.47000000000E+01 0. -1.
         -5    1    3    3    0  503 -0.26517192842E+02 -0.77986024840E+02  0.21354220149E+02  0.85223672209E+02  0.47000000000E+01 0. -1.
<mgrwt>
<rscale>  0 0.13879706E+03</rscale>
<asrwt>0</asrwt>
<pdfrwt beam="1">  1        5 0.59748019E-01 0.13880656E+03</pdfrwt>
<pdfrwt beam="2">  1       -5 0.82370508E-02 0.13880656E+03</pdfrwt>
<totfact> 0.21173488E+02</totfact>
</mgrwt>
</event>
<event>
 8    1  0.3588496E-007  0.1387662E+03  0.7546771E-02  0.1214999E+00
          5   -1    0    0  501    0  0.00000000000E+00  0.00000000000E+00  0.83052567915E+02  0.83185449672E+02  0.47000000000E+01 0.  1.
         -5   -1    0    0    0  501 -0.00000000000E+00 -0.00000000000E+00 -0.41778175281E+03  0.41780818922E+03  0.47000000000E+01 0.  1.
         25    2    1    2    0    0 -0.32157965892E+02 -0.50962182376E+02 -0.33459348644E+03  0.36222762131E+03  0.12499907868E+03 0.  0.
         25    2    1    2    0    0  0.32157965892E+02  0.50962182376E+02 -0.13569846160E+00  0.13876601759E+03  0.12499884168E+03 0.  0.
          5    1    4    4  502    0  0.40563093750E+02  0.28973685820E+02  0.57551871202E+02  0.76283333196E+02  0.47000000000E+01 0. -1.
         -5    1    4    4    0  502 -0.84051278586E+01  0.21988496556E+02 -0.57687569664E+02  0.62482684392E+02  0.47000000000E+01 0. -1.
          5    1    3    3  503    0  0.29185410359E+02 -0.33559935768E+02 -0.37596333518E+02  0.58426293401E+02  0.47000000000E+01 0.  1.
         -5    1    3    3    0  503 -0.61343376251E+02 -0.17402246608E+02 -0.29699715292E+03  0.30380132791E+03  0.47000000000E+01 0.  1.
<mgrwt>
<rscale>  0 0.13876611E+03</rscale>
<asrwt>0</asrwt>
<pdfrwt beam="1">  1        5 0.12789574E-01 0.13876616E+03</pdfrwt>
<pdfrwt beam="2">  1       -5 0.64286370E-01 0.13876616E+03</pdfrwt>
<totfact> 0.83447548E+01</totfact>
</mgrwt>
</event>
<event>
 8    1  0.3588496E-007  0.1468876E+03  0.7546771E-02  0.1204352E+00
          5   -1    0    0  501    0  0.00000000000E+00  0.00000000000E+00  0.18206148101E+02  0.18803027114E+02  0.47000000000E+01 0. -1.
         -5   -1    0    0    0  501 -0.00000000000E+00 -0.00000000000E+00 -0.13713967075E+04  0.13714047613E+04  0.47000000000E+01 0. -1.
         25    2    1    2    0    0  0.24323524627E+02  0.73201373766E+02 -0.94598107902E+03  0.95731716682E+03  0.12500352415E+03 0.  0.
         25    2    1    2    0    0 -0.24323524627E+02 -0.73201373766E+02 -0.40720948035E+03  0.43289062157E+03  0.12499861755E+03 0.  0.
          5    1    4    4  502    0 -0.31093910166E+02 -0.99253784224E+02 -0.21650809536E+03  0.24024152490E+03  0.47000000000E+01 0. -1.
         -5    1    4    4    0  502  0.67703855395E+01  0.26052410458E+02 -0.19070138499E+03  0.19264909667E+03  0.47000000000E+01 0. -1.
          5    1    3    3  503    0  0.41169540150E+02  0.69799500681E+02 -0.29142476307E+03  0.30251840251E+03  0.47000000000E+01 0.  1.
         -5    1    3    3    0  503 -0.16846015523E+02  0.34018730841E+01 -0.65455631595E+03  0.65479876430E+03  0.47000000000E+01 0.  1.
<mgrwt>
<rscale>  0 0.14688652E+03</rscale>
<asrwt>0</asrwt>
<pdfrwt beam="1">  1        5 0.28474802E-02 0.14688756E+03</pdfrwt>
<pdfrwt beam="2">  1       -5 0.21103056E+00 0.14688756E+03</pdfrwt>
<totfact> 0.49574451E+01</totfact>
</mgrwt>
</event>
<event>
 8    1  0.3588496E-007  0.1652357E+03  0.7546771E-02  0.1182911E+00
          5   -1    0    0  501    0  0.00000000000E+00  0.00000000000E+00  0.10508374284E+03  0.10518879697E+03  0.47000000000E+01 0.  1.
         -5   -1    0    0    0  501 -0.00000000000E+00 -0.00000000000E+00 -0.27839015017E+03  0.27842982188E+03  0.47000000000E+01 0.  1.
         25    2    1    2    0    0  0.70059612333E+02 -0.82260280091E+02 -0.13653768889E+03  0.21434870958E+03  0.12501090294E+03 0.  0.
         25    2    1    2    0    0 -0.70059612333E+02  0.82260280091E+02 -0.36768718444E+02  0.16926990927E+03  0.12500104226E+03 0.  0.
          5    1    4    4  502    0 -0.57227618001E+02 -0.75165448549E+01 -0.51225773028E+02  0.77315383533E+02  0.47000000000E+01 0. -1.
         -5    1    4    4    0  502 -0.12831994333E+02  0.89776824946E+02  0.14457054583E+02  0.91954525735E+02  0.47000000000E+01 0. -1.
          5    1    3    3  503    0 -0.93434589984E+01 -0.40283321421E+02  0.96379005162E+01  0.42720315274E+02  0.47000000000E+01 0.  1.
         -5    1    3    3    0  503  0.79403071332E+02 -0.41976958671E+02 -0.14617558940E+03  0.17162839431E+03  0.47000000000E+01 0.  1.
<mgrwt>
<rscale>  0 0.16523381E+03</rscale>
<asrwt>0</asrwt>
<pdfrwt beam="1">  1        5 0.16177863E-01 0.16523568E+03</pdfrwt>
<pdfrwt beam="2">  1       -5 0.42840386E-01 0.16523568E+03</pdfrwt>
<totfact> 0.13756784E+02</totfact>
</mgrwt>
</event>
<event>
 8    1  0.3588496E-007  0.1333267E+03  0.7546771E-02  0.1222606E+00
          5   -1    0    0  501    0  0.00000000000E+00  0.00000000000E+00  0.46735634047E+02  0.46971368830E+02  0.47000000000E+01 0.  1.
         -5   -1    0    0    0  501 -0.00000000000E+00 -0.00000000000E+00 -0.38528451480E+03  0.38531318086E+03  0.47000000000E+01 0.  1.
         25    2    1    2    0    0 -0.15164407208E+02 -0.43831028415E+02 -0.19662533958E+03  0.23755831287E+03  0.12498523733E+03 0.  0.
         25    2    1    2    0    0  0.15164407208E+02  0.43831028415E+02 -0.14192354117E+03  0.19472623682E+03  0.12499958988E+03 0.  0.
          5    1    4    4  502    0  0.21582233457E+01  0.27701277560E+02 -0.16263300329E+03  0.16505636148E+03  0.47000000000E+01 0.  1.
         -5    1    4    4    0  502  0.13006183863E+02  0.16129750855E+02  0.20709462118E+02  0.29669875338E+02  0.47000000000E+01 0.  1.
          5    1    3    3  503    0 -0.29444179856E+01 -0.28897411690E+02  0.91593970567E+01  0.30817439123E+02  0.47000000000E+01 0.  1.
         -5    1    3    3    0  503 -0.12219989223E+02 -0.14933616725E+02 -0.20578473664E+03  0.20674087375E+03  0.47000000000E+01 0.  1.
<mgrwt>
<rscale>  0 0.13332336E+03</rscale>
<asrwt>0</asrwt>
<pdfrwt beam="1">  1        5 0.72104363E-02 0.13332673E+03</pdfrwt>
<pdfrwt beam="2">  1       -5 0.59294877E-01 0.13332673E+03</pdfrwt>
<totfact> 0.26665263E+02</totfact>
</mgrwt>
</event>
<event>
 8    1  0.3588496E-007  0.1273201E+03  0.7546771E-02  0.1231488E+00
         -5   -1    0    0    0  501 -0.00000000000E+00  0.00000000000E+00  0.98674246038E+02  0.98786116591E+02  0.47000000000E+01 0.  1.
          5   -1    0    0  501    0  0.00000000000E+00 -0.00000000000E+00 -0.28695828807E+03  0.28699677540E+03  0.47000000000E+01 0.  1.
         25    2    1    2    0    0  0.12427921450E+01  0.24153257855E+02  0.32066208528E+02  0.13129389044E+03  0.12499967816E+03 0.  0.
         25    2    1    2    0    0 -0.12427921450E+01 -0.24153257855E+02 -0.22035025056E+03  0.25448900155E+03  0.12500197836E+03 0.  0.
          5    1    4    4  502    0 -0.13362173866E+02  0.45597220741E+02 -0.46196871448E+02  0.66437151966E+02  0.47000000000E+01 0.  1.
         -5    1    4    4    0  502  0.12119381721E+02 -0.69750478596E+02 -0.17415337911E+03  0.18805184959E+03  0.47000000000E+01 0.  1.
          5    1    3    3  503    0  0.34582812701E+02 -0.14157085662E+02  0.61714698334E+02  0.72299294596E+02  0.47000000000E+01 0.  1.
         -5    1    3    3    0  503 -0.33340020556E+02  0.38310343516E+02 -0.29648489806E+02  0.58994595844E+02  0.47000000000E+01 0.  1.
<mgrwt>
<rscale>  0 0.12731958E+03</rscale>
<asrwt>0</asrwt>
<pdfrwt beam="2">  1        5 0.44158994E-01 0.12732014E+03</pdfrwt>
<pdfrwt beam="1">  1       -5 0.15192219E-01 0.12732014E+03</pdfrwt>
<totfact> 0.13307426E+02</totfact>
</mgrwt>
</event>
<event>
 8    1  0.3588496E-007  0.1780022E+03  0.7546771E-02  0.1169761E+00
          5   -1    0    0  501    0  0.00000000000E+00  0.00000000000E+00  0.10144226862E+04  0.10144335742E+04  0.47000000000E+01 0.  1.
         -5   -1    0    0    0  501 -0.00000000000E+00 -0.00000000000E+00 -0.40097450440E+02  0.40371964676E+02  0.47000000000E+01 0.  1.
         25    2    1    2    0    0 -0.12399694492E+03  0.25933578433E+02  0.23744748002E+03  0.29673323212E+03  0.12498604897E+03 0.  0.
         25    2    1    2    0    0  0.12399694492E+03 -0.25933578433E+02  0.73687775579E+03  0.75807230671E+03  0.12504800035E+03 0.  0.
          5    1    3    3  502    0 -0.10638977014E+03  0.13706177069E+02  0.24955203546E+03  0.27167066621E+03  0.47000000000E+01 0. -1.
         -5    1    3    3    0  502 -0.17607174775E+02  0.12227401364E+02 -0.12104555433E+02  0.25062565908E+02  0.47000000000E+01 0. -1.
          5    1    4    4  503    0  0.12328106345E+03  0.13852665785E+02  0.65790741345E+03  0.66951801441E+03  0.47000000000E+01 0.  1.
         -5    1    4    4    0  503  0.71588146934E+00 -0.39786244219E+02  0.78970342336E+02  0.88554292296E+02  0.47000000000E+01 0.  1.
<mgrwt>
<rscale>  0 0.17799135E+03</rscale>
<asrwt>0</asrwt>
<pdfrwt beam="1">  1        5 0.15608698E+00 0.17800223E+03</pdfrwt>
<pdfrwt beam="2">  1       -5 0.61907927E-02 0.17800223E+03</pdfrwt>
<totfact> 0.35634987E+01</totfact>
</mgrwt>
</event>
<event>
 8    1  0.3588496E-007  0.1297406E+03  0.7546771E-02  0.1227844E+00
         -5   -1    0    0    0  501 -0.00000000000E+00  0.00000000000E+00  0.17906184150E+03  0.17912351348E+03  0.47000000000E+01 0. -1.
          5   -1    0    0  501    0  0.00000000000E+00 -0.00000000000E+00 -0.10230273610E+03  0.10241064307E+03  0.47000000000E+01 0. -1.
         25    2    1    2    0    0  0.19673112322E+02 -0.28625994400E+02  0.78776644699E+02  0.15177788780E+03  0.12499715426E+03 0.  0.
         25    2    1    2    0    0 -0.19673112322E+02  0.28625994400E+02 -0.20175393048E+01  0.12975626874E+03  0.12500455955E+03 0.  0.
          5    1    3    3  502    0 -0.17250297872E+02  0.28808505387E+02  0.76069382337E+02  0.83283513906E+02  0.47000000000E+01 0. -1.
         -5    1    3    3    0  502  0.36923410194E+02 -0.57434499787E+02  0.27072623623E+01  0.68494373898E+02  0.47000000000E+01 0. -1.
          5    1    4    4  503    0  0.30962790737E+02  0.57782456901E+02  0.17429850042E+02  0.67995561680E+02  0.47000000000E+01 0. -1.
         -5    1    4    4    0  503 -0.50635903060E+02 -0.29156462501E+02 -0.19447389347E+02  0.61760707061E+02  0.47000000000E+01 0. -1.
<mgrwt>
<rscale>  0 0.12973880E+03</rscale>
<asrwt>0</asrwt>
<pdfrwt beam="2">  1        5 0.15751927E-01 0.12974058E+03</pdfrwt>
<pdfrwt beam="1">  1       -5 0.27561020E-01 0.12974058E+03</pdfrwt>
<totfact> 0.32252846E+02</totfact>
</mgrwt>
</event>
<event>
 8    1  0.3588496E-007  0.1455329E+03  0.7546771E-02  0.1206076E+00
          5   -1    0    0  501    0  0.00000000000E+00  0.00000000000E+00  0.45863345211E+03  0.45865753389E+03  0.47000000000E+01 0.  1.
         -5   -1    0    0    0  501 -0.00000000000E+00 -0.00000000000E+00 -0.46038069250E+02  0.46277357533E+02  0.47000000000E+01 0.  1.
         25    2    1    2    0    0 -0.71513293885E+02 -0.20918902598E+02  0.20331775252E+03  0.25002913325E+03  0.12499882918E+03 0.  0.
         25    2    1    2    0    0  0.71513293885E+02  0.20918902598E+02  0.20927763034E+03  0.25490575817E+03  0.12501226860E+03 0.  0.
          5    1    3    3  502    0  0.26419546610E+01  0.45274932132E+02  0.72853926146E+02  0.85945238139E+02  0.47000000000E+01 0.  1.
         -5    1    3    3    0  502 -0.74155248546E+02 -0.66193834730E+02  0.13046382638E+03  0.16408389512E+03  0.47000000000E+01 0.  1.
          5    1    4    4  503    0  0.35220345400E+02 -0.17122572883E+02  0.19673441410E+03  0.20064938306E+03  0.47000000000E+01 0. -1.
         -5    1    4    4    0  503  0.36292948486E+02  0.38041475480E+02  0.12543216241E+02  0.54256375111E+02  0.47000000000E+01 0. -1.
<mgrwt>
<rscale>  0 0.14552999E+03</rscale>
<asrwt>0</asrwt>
<pdfrwt beam="1">  1        5 0.70579252E-01 0.14553288E+03</pdfrwt>
<pdfrwt beam="2">  1       -5 0.71030391E-02 0.14553288E+03</pdfrwt>
<totfact> 0.19133838E+02</totfact>
</mgrwt>
</event>
<event>
 8    1  0.3588496E-007  0.1739190E+03  0.7546771E-02  0.1173824E+00
         -5   -1    0    0    0  501 -0.00000000000E+00  0.00000000000E+00  0.20329493392E+03  0.20334925660E+03  0.47000000000E+01 0.  1.
          5   -1    0    0  501    0  0.00000000000E+00 -0.00000000000E+00 -0.15942547336E+03  0.15949473833E+03  0.47000000000E+01 0.  1.
         25    2    1    2    0    0  0.29055433428E+02 -0.11738075236E+03  0.69042050923E+02  0.18711272632E+03  0.12498763266E+03 0.  0.
         25    2    1    2    0    0 -0.29055433428E+02  0.11738075236E+03 -0.25172590363E+02  0.17573126861E+03  0.12500144089E+03 0.  0.
          5    1    3    3  502    0 -0.25288271558E+02 -0.83235406807E+02  0.84027457691E+02  0.12103856109E+03  0.47000000000E+01 0. -1.
         -5    1    3    3    0  502  0.54343704986E+02 -0.34145345556E+02 -0.14985406768E+02  0.66074165229E+02  0.47000000000E+01 0. -1.
          5    1    4    4  503    0  0.11973541088E+02  0.22000621539E+02  0.44023232965E+02  0.50867750834E+02  0.47000000000E+01 0.  1.
         -5    1    4    4    0  503 -0.41028974516E+02  0.95380130824E+02 -0.69195823327E+02  0.12486351778E+03  0.47000000000E+01 0.  1.
<mgrwt>
<rscale>  0 0.17391652E+03</rscale>
<asrwt>0</asrwt>
<pdfrwt beam="2">  1        5 0.24536503E-01 0.17391900E+03</pdfrwt>
<pdfrwt beam="1">  1       -5 0.31285651E-01 0.17391900E+03</pdfrwt>
<totfact> 0.12104424E+02</totfact>
</mgrwt>
</event>
<event>
 8    1  0.3588496E-007  0.1599327E+03  0.7546771E-02  0.1188776E+00
          5   -1    0    0  501    0  0.00000000000E+00  0.00000000000E+00  0.73532633409E+02  0.73682685728E+02  0.47000000000E+01 0. -1.
         -5   -1    0    0    0  501 -0.00000000000E+00 -0.00000000000E+00 -0.35283948379E+03  0.35287078558E+03  0.47000000000E+01 0. -1.
         25    2    1    2    0    0  0.24767834569E+02  0.96646053272E+02 -0.16635508164E+03  0.23076497916E+03  0.12499822870E+03 0.  0.
         25    2    1    2    0    0 -0.24767834569E+02 -0.96646053272E+02 -0.11295176873E+03  0.19578849215E+03  0.12498450446E+03 0.  0.
          5    1    4    4  502    0 -0.19287963806E+02 -0.97309845925E+02 -0.18455453878E+02  0.10101448134E+03  0.47000000000E+01 0.  1.
         -5    1    4    4    0  502 -0.54798707628E+01  0.66379265317E+00 -0.94496314856E+02  0.94774010813E+02  0.47000000000E+01 0.  1.
          5    1    3    3  503    0 -0.38136968014E+02 -0.52860899050E+01 -0.53868350420E+02  0.66379667465E+02  0.47000000000E+01 0. -1.
         -5    1    3    3    0  503  0.62904802583E+02  0.10193214318E+03 -0.11248673122E+03  0.16438531170E+03  0.47000000000E+01 0. -1.
<mgrwt>
<rscale>  0 0.15993000E+03</rscale>
<asrwt>0</asrwt>
<pdfrwt beam="1">  1        5 0.11326663E-01 0.15993268E+03</pdfrwt>
<pdfrwt beam="2">  1       -5 0.54296947E-01 0.15993268E+03</pdfrwt>
<totfact> 0.15668888E+02</totfact>
</mgrwt>
</event>
<event>
 8    1  0.3588496E-007  0.1482256E+03  0.7546771E-02  0.1202672E+00
         -5   -1    0    0    0  501 -0.00000000000E+00  0.00000000000E+00  0.14829167326E+04  0.14829241808E+04  0.47000000000E+01 0.  1.
          5   -1    0    0  501    0  0.00000000000E+00 -0.00000000000E+00 -0.17725378537E+02  0.18337912757E+02  0.47000000000E+01 0.  1.
         25    2    1    2    0    0 -0.69611604165E+02  0.38710352675E+02  0.10499215943E+04  0.10603330477E+04  0.12500620425E+03 0.  0.
         25    2    1    2    0    0  0.69611604165E+02 -0.38710352675E+02  0.41526975978E+03  0.44092904578E+03  0.12500073274E+03 0.  0.
          5    1    4    4  502    0  0.55712560689E+02  0.45253577111E+01  0.57757937031E+02  0.80513586251E+02  0.47000000000E+01 0. -1.
         -5    1    4    4    0  502  0.13899043476E+02 -0.43235710386E+02  0.35751182275E+03  0.36041545953E+03  0.47000000000E+01 0. -1.
          5    1    3    3  503    0 -0.48566157062E+02  0.50644647000E+02  0.24137935326E+03  0.25141526219E+03  0.47000000000E+01 0. -1.
         -5    1    3    3    0  503 -0.21045447102E+02 -0.11934294325E+02  0.80854224106E+03  0.80891778556E+03  0.47000000000E+01 0. -1.
<mgrwt>
<rscale>  0 0.14822441E+03</rscale>
<asrwt>0</asrwt>
<pdfrwt beam="2">  1        5 0.27746729E-02 0.14822556E+03</pdfrwt>
<pdfrwt beam="1">  1       -5 0.22818868E+00 0.14822556E+03</pdfrwt>
<totfact> 0.40015150E+01</totfact>
</mgrwt>
</event>
<event>
 8    1  0.3588496E-007  0.1330585E+03  0.7546771E-02  0.1222988E+00
          5   -1    0    0  501    0  0.00000000000E+00  0.00000000000E+00  0.19798420063E+02  0.20348647056E+02  0.47000000000E+01 0.  1.
         -5   -1    0    0    0  501 -0.00000000000E+00 -0.00000000000E+00 -0.95287498421E+03  0.95288657537E+03  0.47000000000E+01 0.  1.
         25    2    1    2    0    0  0.14105589894E+02  0.43376997331E+02 -0.59975915679E+03  0.61434100142E+03  0.12499315306E+03 0.  0.
         25    2    1    2    0    0 -0.14105589894E+02 -0.43376997331E+02 -0.33331740736E+03  0.35889422101E+03  0.12499614499E+03 0.  0.
          5    1    3    3  502    0  0.15778328643E+02  0.98776454384E+01 -0.67288124146E+01  0.20344297744E+02  0.47000000000E+01 0. -1.
         -5    1    3    3    0  502 -0.16727387498E+01  0.33499351892E+02 -0.59303034437E+03  0.59399670367E+03  0.47000000000E+01 0. -1.
          5    1    4    4  503    0  0.14199319078E+02  0.40869249570E+02 -0.12510667318E+03  0.13246012946E+03  0.47000000000E+01 0. -1.
         -5    1    4    4    0  503 -0.28304908972E+02 -0.84246246900E+02 -0.20821073418E+03  0.22643409155E+03  0.47000000000E+01 0. -1.
<mgrwt>
<rscale>  0 0.13305781E+03</rscale>
<asrwt>0</asrwt>
<pdfrwt beam="1">  1        5 0.30891283E-02 0.13305851E+03</pdfrwt>
<pdfrwt beam="2">  1       -5 0.14663933E+00 0.13305851E+03</pdfrwt>
<totfact> 0.12265816E+02</totfact>
</mgrwt>
</event>
<event>
 8    1  0.3588496E-007  0.1311641E+03  0.7546771E-02  0.1225747E+00
         -5   -1    0    0    0  501 -0.00000000000E+00  0.00000000000E+00  0.73875514284E+02  0.74024871569E+02  0.47000000000E+01 0.  1.
          5   -1    0    0  501    0  0.00000000000E+00 -0.00000000000E+00 -0.23276794332E+03  0.23281538918E+03  0.47000000000E+01 0.  1.
         25    2    1    2    0    0 -0.39358583903E+02  0.53576895901E+01 -0.73624231827E+02  0.15041463162E+03  0.12500492362E+03 0.  0.
         25    2    1    2    0    0  0.39358583903E+02 -0.53576895901E+01 -0.85268197209E+02  0.15642562913E+03  0.12498203482E+03 0.  0.
          5    1    4    4  502    0  0.73827531345E+02 -0.33758957177E+02 -0.33643245150E+02  0.88000735898E+02  0.47000000000E+01 0. -1.
         -5    1    4    4    0  502 -0.34468947442E+02  0.28401267587E+02 -0.51624952059E+02  0.68424893229E+02  0.47000000000E+01 0. -1.
          5    1    3    3  503    0  0.33599922644E+02  0.24708168184E+02 -0.60537322276E+02  0.73663462891E+02  0.47000000000E+01 0.  1.
         -5    1    3    3    0  503 -0.72958506548E+02 -0.19350478594E+02 -0.13086909550E+02  0.76751168728E+02  0.47000000000E+01 0.  1.
<mgrwt>
<rscale>  0 0.13115869E+03</rscale>
<asrwt>0</asrwt>
<pdfrwt beam="2">  1        5 0.35825591E-01 0.13116415E+03</pdfrwt>
<pdfrwt beam="1">  1       -5 0.11380603E-01 0.13116415E+03</pdfrwt>
<totfact> 0.34525040E+02</totfact>
</mgrwt>
</event>
<event>
 8    1  0.3588496E-007  0.1268974E+03  0.7546771E-02  0.1232136E+00
         -5   -1    0    0    0  501 -0.00000000000E+00  0.00000000000E+00  0.15430409906E+04  0.15430481485E+04  0.47000000000E+01 0. -1.
          5   -1    0    0  501    0  0.00000000000E+00 -0.00000000000E+00 -0.98985858023E+01  0.10957737033E+02  0.47000000000E+01 0. -1.
         25    2    1    2    0    0  0.19147312741E+02  0.10473524204E+02  0.76694906534E+03  0.77737521777E+03  0.12500018428E+03 0.  0.
         25    2    1    2    0    0 -0.19147312741E+02 -0.10473524204E+02  0.76619333944E+03  0.77663066778E+03  0.12500658558E+03 0.  0.
          5    1    4    4  502    0  0.23046961935E+02  0.15722951082E+02  0.64434011357E+03  0.64496096440E+03  0.47000000000E+01 0.  1.
         -5    1    4    4    0  502 -0.42194274677E+02 -0.26196475286E+02  0.12185322587E+03  0.13166970337E+03  0.47000000000E+01 0.  1.
          5    1    3    3  503    0 -0.45497275066E+02 -0.13725057482E+02  0.47251140876E+03  0.47491841473E+03  0.47000000000E+01 0. -1.
         -5    1    3    3    0  503  0.64644587807E+02  0.24198581686E+02  0.29443765659E+03  0.30245680304E+03  0.47000000000E+01 0. -1.
<mgrwt>
<rscale>  0 0.12689587E+03</rscale>
<asrwt>0</asrwt>
<pdfrwt beam="2">  1        5 0.16048847E-02 0.12689744E+03</pdfrwt>
<pdfrwt beam="1">  1       -5 0.23747271E+00 0.12689744E+03</pdfrwt>
<totfact> 0.79732815E+01</totfact>
</mgrwt>
</event>
<event>
 8    1  0.3588496E-007  0.1445490E+03  0.7546771E-02  0.1207339E+00
          5   -1    0    0  501    0  0.00000000000E+00  0.00000000000E+00  0.22714494607E+03  0.22719356621E+03  0.47000000000E+01 0. -1.
         -5   -1    0    0    0  501 -0.00000000000E+00 -0.00000000000E+00 -0.98874057033E+02  0.98985701767E+02  0.47000000000E+01 0. -1.
         25    2    1    2    0    0 -0.62180394208E+02 -0.37492103528E+02  0.10752684202E+03  0.18014938548E+03  0.12497887854E+03 0.  0.
         25    2    1    2    0    0  0.62180394208E+02  0.37492103528E+02  0.20744047015E+02  0.14602988250E+03  0.12498940693E+03 0.  0.
          5    1    4    4  502    0  0.62461418153E+01  0.69770565373E+02  0.36872641892E+02  0.79300868849E+02  0.47000000000E+01 0.  1.
         -5    1    4    4    0  502  0.55934252392E+02 -0.32278461846E+02 -0.16128594877E+02  0.66729013649E+02  0.47000000000E+01 0.  1.
          5    1    3    3  503    0 -0.99344702926E+02 -0.16967658153E+02  0.65912466491E+02  0.12051479022E+03  0.47000000000E+01 0.  1.
         -5    1    3    3    0  503  0.37164308718E+02 -0.20524445375E+02  0.41614375532E+02  0.59634595256E+02  0.47000000000E+01 0.  1.
<mgrwt>
<rscale>  0 0.14454672E+03</rscale>
<asrwt>0</asrwt>
<pdfrwt beam="1">  1        5 0.34957704E-01 0.14454899E+03</pdfrwt>
<pdfrwt beam="2">  1       -5 0.15223722E-01 0.14454899E+03</pdfrwt>
<totfact> 0.22287759E+02</totfact>
</mgrwt>
</event>
<event>
 8    1  0.3588496E-007  0.1855981E+03  0.7546771E-02  0.1162494E+00
          5   -1    0    0  501    0  0.00000000000E+00  0.00000000000E+00  0.40243915056E+03  0.40246659477E+03  0.47000000000E+01 0.  1.
         -5   -1    0    0    0  501 -0.00000000000E+00 -0.00000000000E+00 -0.91858948114E+02  0.91979108218E+02  0.47000000000E+01 0.  1.
         25    2    1    2    0    0 -0.11218580532E+03  0.78966300105E+02  0.90274301914E+02  0.20638084655E+03  0.12498909061E+03 0.  0.
         25    2    1    2    0    0  0.11218580532E+03 -0.78966300105E+02  0.22030590054E+03  0.28806485643E+03  0.12500136093E+03 0.  0.
          5    1    3    3  502    0 -0.12412375557E+03  0.90341177634E+02  0.10308454451E+03  0.18497769701E+03  0.47000000000E+01 0. -1.
         -5    1    3    3    0  502  0.11937950253E+02 -0.11374877529E+02 -0.12810242599E+02  0.21403149546E+02  0.47000000000E+01 0. -1.
          5    1    4    4  503    0  0.12941023801E+03 -0.91418223530E+02  0.21213080562E+03  0.26481289618E+03  0.47000000000E+01 0. -1.
         -5    1    4    4    0  503 -0.17224432691E+02  0.12451923425E+02  0.81750949207E+01  0.23251960250E+02  0.47000000000E+01 0. -1.
<mgrwt>
<rscale>  0 0.18559608E+03</rscale>
<asrwt>0</asrwt>
<pdfrwt beam="1">  1        5 0.61925070E-01 0.18559815E+03</pdfrwt>
<pdfrwt beam="2">  1       -5 0.14143500E-01 0.18559815E+03</pdfrwt>
<totfact> 0.82575120E+01</totfact>
</mgrwt>
</event>
<event>
 8    1  0.3588496E-007  0.1317930E+03  0.7546771E-02  0.1224841E+00
         -5   -1    0    0    0  501 -0.00000000000E+00  0.00000000000E+00  0.27179523571E+03  0.27183586989E+03  0.47000000000E+01 0.  1.
          5   -1    0    0  501    0  0.00000000000E+00 -0.00000000000E+00 -0.76229668312E+02  0.76374421968E+02  0.47000000000E+01 0.  1.
         25    2    1    2    0    0  0.41051657850E+02 -0.66093016805E+01  0.16816773339E+03  0.21365810821E+03  0.12506190135E+03 0.  0.
         25    2    1    2    0    0 -0.41051657850E+02  0.66093016805E+01  0.27397834015E+02  0.13455218365E+03  0.12499890933E+03 0.  0.
          5    1    4    4  502    0 -0.80565570601E+02 -0.19392823974E+02  0.26073895162E+02  0.86999027562E+02  0.47000000000E+01 0.  1.
         -5    1    4    4    0  502  0.39513912751E+02  0.26002125654E+02  0.13239388528E+01  0.47553156084E+02  0.47000000000E+01 0.  1.
          5    1    3    3  503    0  0.69215533922E+02 -0.18128486318E+02  0.40544525230E+02  0.82373422161E+02  0.47000000000E+01 0.  1.
         -5    1    3    3    0  503 -0.28163876073E+02  0.11519184638E+02  0.12762320816E+03  0.13128468605E+03  0.47000000000E+01 0.  1.
<mgrwt>
<rscale>  0 0.13177808E+03</rscale>
<asrwt>0</asrwt>
<pdfrwt beam="2">  1        5 0.11741902E-01 0.13179302E+03</pdfrwt>
<pdfrwt beam="1">  1       -5 0.41828912E-01 0.13179302E+03</pdfrwt>
<totfact> 0.23885184E+02</totfact>
</mgrwt>
</event>
<event>
 8    1  0.3588496E-007  0.1435014E+03  0.7546771E-02  0.1208705E+00
          5   -1    0    0  501    0  0.00000000000E+00  0.00000000000E+00  0.10576482543E+04  0.10576586973E+04  0.47000000000E+01 0. -1.
         -5   -1    0    0    0  501 -0.00000000000E+00 -0.00000000000E+00 -0.24494076353E+02  0.24940925732E+02  0.47000000000E+01 0. -1.
         25    2    1    2    0    0 -0.69001180547E+02 -0.14329934900E+02  0.26691378605E+03  0.30304393204E+03  0.12500458236E+03 0.  0.
         25    2    1    2    0    0  0.69001180547E+02  0.14329934900E+02  0.76624039195E+03  0.77955569097E+03  0.12496490356E+03 0.  0.
          5    1    3    3  502    0 -0.54088938574E+02  0.47854303355E+02  0.94056985831E+02  0.11867794323E+03  0.47000000000E+01 0. -1.
         -5    1    3    3    0  502 -0.14912241973E+02 -0.62184238256E+02  0.17285680021E+03  0.18436598881E+03  0.47000000000E+01 0. -1.
          5    1    4    4  503    0  0.84869307448E+02  0.17678939241E+02  0.75328925594E+03  0.75827576603E+03  0.47000000000E+01 0.  1.
         -5    1    4    4    0  503 -0.15868126901E+02 -0.33490043409E+01  0.12951136007E+02  0.21279924936E+02  0.47000000000E+01 0.  1.
<mgrwt>
<rscale>  0 0.14349277E+03</rscale>
<asrwt>0</asrwt>
<pdfrwt beam="1">  1        5 0.16275028E+00 0.14350141E+03</pdfrwt>
<pdfrwt beam="2">  1       -5 0.38034961E-02 0.14350141E+03</pdfrwt>
<totfact> 0.67109677E+01</totfact>
</mgrwt>
</event>
<event>
 8    1  0.3588496E-007  0.1267846E+03  0.7546771E-02  0.1232314E+00
         -5   -1    0    0    0  501 -0.00000000000E+00  0.00000000000E+00  0.98410738581E+03  0.98411860911E+03  0.47000000000E+01 0. -1.
          5   -1    0    0  501    0  0.00000000000E+00 -0.00000000000E+00 -0.49889330611E+02  0.50110231578E+02  0.47000000000E+01 0. -1.
         25    2    1    2    0    0 -0.73211102964E+01  0.19829342967E+02  0.89146056478E+03  0.90042850192E+03  0.12499098773E+03 0.  0.
         25    2    1    2    0    0  0.73211102964E+01 -0.19829342967E+02  0.42757490419E+02  0.13380033877E+03  0.12501010427E+03 0.  0.
          5    1    4    4  502    0 -0.29654755189E+02  0.40991092969E+02  0.35742116720E+02  0.62122967699E+02  0.47000000000E+01 0.  1.
         -5    1    4    4    0  502  0.36975865485E+02 -0.60820435936E+02  0.70153736988E+01  0.71677371073E+02  0.47000000000E+01 0.  1.
          5    1    3    3  503    0 -0.26373831727E+02  0.39303679704E+02  0.84519139921E+03  0.84652876474E+03  0.47000000000E+01 0. -1.
         -5    1    3    3    0  503  0.19052721431E+02 -0.19474336737E+02  0.46269165566E+02  0.53899737174E+02  0.47000000000E+01 0. -1.
<mgrwt>
<rscale>  0 0.12677986E+03</rscale>
<asrwt>0</asrwt>
<pdfrwt beam="2">  1        5 0.76931376E-02 0.12678457E+03</pdfrwt>
<pdfrwt beam="1">  1       -5 0.15141899E+00 0.12678457E+03</pdfrwt>
<totfact> 0.24379072E+01</totfact>
</mgrwt>
</event>
<event>
 8    1  0.3588496E-007  0.1364116E+03  0.7546771E-02  0.1218253E+00
         -5   -1    0    0    0  501 -0.00000000000E+00  0.00000000000E+00  0.69777229652E+02  0.69935339978E+02  0.47000000000E+01 0.  1.
          5   -1    0    0  501    0  0.00000000000E+00 -0.00000000000E+00 -0.67615118119E+03  0.67616751609E+03  0.47000000000E+01 0.  1.
         25    2    1    2    0    0 -0.45800617154E+02 -0.29708952058E+02 -0.12739666048E+02  0.13700520309E+03  0.12501123237E+03 0.  0.
         25    2    1    2    0    0  0.45800617154E+02  0.29708952058E+02 -0.59363428549E+03  0.60909765298E+03  0.12497186723E+03 0.  0.
          5    1    3    3  502    0 -0.62829751970E+01 -0.71136932283E+02  0.15138966194E+02  0.73152014390E+02  0.47000000000E+01 0. -1.
         -5    1    3    3    0  502 -0.39517641957E+02  0.41427980225E+02 -0.27878632242E+02  0.63853188700E+02  0.47000000000E+01 0. -1.
          5    1    4    4  503    0  0.22282519322E+02  0.67698946333E+02 -0.50185268437E+03  0.50691011512E+03  0.47000000000E+01 0. -1.
         -5    1    4    4    0  503  0.23518097833E+02 -0.37989994275E+02 -0.91781601115E+02  0.10218753786E+03  0.47000000000E+01 0. -1.
<mgrwt>
<rscale>  0 0.13640259E+03</rscale>
<asrwt>0</asrwt>
<pdfrwt beam="2">  1        5 0.10403667E+00 0.13641161E+03</pdfrwt>
<pdfrwt beam="1">  1       -5 0.10748378E-01 0.13641161E+03</pdfrwt>
<totfact> 0.36806547E+01</totfact>
</mgrwt>
</event>
<event>
 8    1  0.3588496E-007  0.1626650E+03  0.7546771E-02  0.1185736E+00
         -5   -1    0    0    0  501 -0.00000000000E+00  0.00000000000E+00  0.15741201929E+03  0.15748216984E+03  0.47000000000E+01 0. -1.
          5   -1    0    0  501    0  0.00000000000E+00 -0.00000000000E+00 -0.18423981539E+03  0.18429975468E+03  0.47000000000E+01 0. -1.
         25    2    1    2    0    0  0.10392671551E+03 -0.41503247126E+01  0.37465056142E+02  0.16692368839E+03  0.12506758141E+03 0.  0.
         25    2    1    2    0    0 -0.10392671551E+03  0.41503247126E+01 -0.64292852245E+02  0.17485823613E+03  0.12499537792E+03 0.  0.
          5    1    3    3  502    0  0.59954293705E+02  0.58415716832E+02  0.33246640911E+02  0.90190589523E+02  0.47000000000E+01 0.  1.
         -5    1    3    3    0  502  0.43972421808E+02 -0.62566041545E+02  0.42184152312E+01  0.76733098864E+02  0.47000000000E+01 0.  1.
          5    1    4    4  503    0  0.23502168149E+02  0.21791780790E+02 -0.22776250454E+02  0.39599005069E+02  0.47000000000E+01 0.  1.
         -5    1    4    4    0  503 -0.12742888366E+03 -0.17641456077E+02 -0.41516601791E+02  0.13525923106E+03  0.47000000000E+01 0.  1.
<mgrwt>
<rscale>  0 0.16265108E+03</rscale>
<asrwt>0</asrwt>
<pdfrwt beam="2">  1        5 0.28354594E-01 0.16266495E+03</pdfrwt>
<pdfrwt beam="1">  1       -5 0.24227241E-01 0.16266495E+03</pdfrwt>
<totfact> 0.14752598E+02</totfact>
</mgrwt>
</event>
<event>
 8    1  0.3588496E-007  0.1381943E+03  0.7546771E-02  0.1215780E+00
          5   -1    0    0  501    0  0.00000000000E+00  0.00000000000E+00  0.45582603633E+03  0.45585026642E+03  0.47000000000E+01 0.  1.
         -5   -1    0    0    0  501 -0.00000000000E+00 -0.00000000000E+00 -0.48876961631E+02  0.49102417235E+02  0.47000000000E+01 0.  1.
         25    2    1    2    0    0 -0.58509029195E+02  0.70373930298E+01  0.10725661471E+03  0.17493323436E+03  0.12499929475E+03 0.  0.
         25    2    1    2    0    0  0.58509029195E+02 -0.70373930298E+01  0.29969245999E+03  0.33001944929E+03  0.12499773972E+03 0.  0.
          5    1    3    3  502    0 -0.79667870704E+02  0.41284267139E+02  0.44604100904E+02  0.10031438657E+03  0.47000000000E+01 0. -1.
         -5    1    3    3    0  502  0.21158841508E+02 -0.34246874109E+02  0.62652513801E+02  0.74618847792E+02  0.47000000000E+01 0. -1.
          5    1    4    4  503    0  0.50567753862E+02  0.53672403611E+02  0.12964125800E+03  0.14922054287E+03  0.47000000000E+01 0. -1.
         -5    1    4    4    0  503  0.79412753330E+01 -0.60709796641E+02  0.17005120199E+03  0.18079890642E+03  0.47000000000E+01 0. -1.
<mgrwt>
<rscale>  0 0.13819391E+03</rscale>
<asrwt>0</asrwt>
<pdfrwt beam="1">  1        5 0.70146286E-01 0.13819427E+03</pdfrwt>
<pdfrwt beam="2">  1       -5 0.75387395E-02 0.13819427E+03</pdfrwt>
<totfact> 0.17233388E+02</totfact>
</mgrwt>
</event>
<event>
 8    1  0.3588496E-007  0.1681026E+03  0.7546771E-02  0.1179842E+00
         -5   -1    0    0    0  501 -0.00000000000E+00  0.00000000000E+00  0.59481734547E+02  0.59667132869E+02  0.47000000000E+01 0.  1.
          5   -1    0    0  501    0  0.00000000000E+00 -0.00000000000E+00 -0.52538964140E+03  0.52541066348E+03  0.47000000000E+01 0.  1.
         25    2    1    2    0    0  0.10778749479E+03  0.31844600107E+02 -0.14159735431E+03  0.21978913657E+03  0.12500092487E+03 0.  0.
         25    2    1    2    0    0 -0.10778749479E+03 -0.31844600107E+02 -0.32431055255E+03  0.36528865978E+03  0.12500499140E+03 0.  0.
          5    1    3    3  502    0 -0.13993393021E+02 -0.13554560559E+02 -0.66842818877E+02  0.69782473413E+02  0.47000000000E+01 0. -1.
         -5    1    3    3    0  502  0.12178088781E+03  0.45399160666E+02 -0.74754535429E+02  0.15000666316E+03  0.47000000000E+01 0. -1.
          5    1    4    4  503    0 -0.10801594658E+03  0.25937026703E+01 -0.30886710170E+03  0.32725395112E+03  0.47000000000E+01 0. -1.
         -5    1    4    4    0  503  0.22845179704E+00 -0.34438302778E+02 -0.15443450851E+02  0.38034708657E+02  0.47000000000E+01 0. -1.
<mgrwt>
<rscale>  0 0.16810180E+03</rscale>
<asrwt>0</asrwt>
<pdfrwt beam="2">  1        5 0.80845051E-01 0.16810256E+03</pdfrwt>
<pdfrwt beam="1">  1       -5 0.91669149E-02 0.16810256E+03</pdfrwt>
<totfact> 0.94529642E+01</totfact>
</mgrwt>
</event>
<event>
 8    1  0.3588496E-007  0.1472625E+03  0.7546771E-02  0.1203878E+00
          5   -1    0    0  501    0  0.00000000000E+00  0.00000000000E+00  0.49219850873E+03  0.49222094835E+03  0.47000000000E+01 0. -1.
         -5   -1    0    0    0  501 -0.00000000000E+00 -0.00000000000E+00 -0.51227227836E+02  0.51442384001E+02  0.47000000000E+01 0. -1.
         25    2    1    2    0    0  0.77574992632E+02  0.65797833723E+01  0.11800982967E+03  0.18871294209E+03  0.12500032634E+03 0.  0.
         25    2    1    2    0    0 -0.77574992632E+02 -0.65797833723E+01  0.32296145123E+03  0.35495039026E+03  0.12499803013E+03 0.  0.
          5    1    3    3  502    0 -0.32904554536E+02 -0.91197433662E+01  0.18462900873E+02  0.39100487681E+02  0.47000000000E+01 0.  1.
         -5    1    3    3    0  502  0.11047954717E+03  0.15699526738E+02  0.99546928797E+02  0.14961245441E+03  0.47000000000E+01 0.  1.
          5    1    4    4  503    0 -0.58522053303E+02  0.27462420342E+02  0.30488479174E+03  0.31169831807E+03  0.47000000000E+01 0.  1.
         -5    1    4    4    0  503 -0.19052939329E+02 -0.34042203714E+02  0.18076659492E+02  0.43252072195E+02  0.47000000000E+01 0.  1.
<mgrwt>
<rscale>  0 0.14726205E+03</rscale>
<asrwt>0</asrwt>
<pdfrwt beam="1">  1        5 0.75741125E-01 0.14726254E+03</pdfrwt>
<pdfrwt beam="2">  1       -5 0.78993884E-02 0.14726254E+03</pdfrwt>
<totfact> 0.13642522E+02</totfact>
</mgrwt>
</event>
<event>
 8    1  0.3588496E-007  0.1362071E+03  0.7546771E-02  0.1218531E+00
         -5   -1    0    0    0  501 -0.00000000000E+00  0.00000000000E+00  0.47454576535E+03  0.47456903967E+03  0.47000000000E+01 0. -1.
          5   -1    0    0  501    0  0.00000000000E+00 -0.00000000000E+00 -0.43784272696E+02  0.44035809695E+02  0.47000000000E+01 0. -1.
         25    2    1    2    0    0  0.27041271866E+02 -0.46817873593E+02  0.30148604279E+03  0.33082656423E+03  0.12501695057E+03 0.  0.
         25    2    1    2    0    0 -0.27041271866E+02  0.46817873593E+02  0.12927544986E+03  0.18777828513E+03  0.12500159502E+03 0.  0.
          5    1    3    3  502    0  0.24126278244E+02  0.21678937348E+02  0.22750400567E+03  0.22985259673E+03  0.47000000000E+01 0.  1.
         -5    1    3    3    0  502  0.29149936227E+01 -0.68496810941E+02  0.73982037126E+02  0.10097396751E+03  0.47000000000E+01 0.  1.
          5    1    4    4  503    0 -0.12320350781E+02  0.59830506594E+02  0.14803327222E+03  0.16021054974E+03  0.47000000000E+01 0. -1.
         -5    1    4    4    0  503 -0.14720921086E+02 -0.13012633001E+02 -0.18757822358E+02  0.27567735396E+02  0.47000000000E+01 0. -1.
<mgrwt>
<rscale>  0 0.13620360E+03</rscale>
<asrwt>0</asrwt>
<pdfrwt beam="2">  1        5 0.67571813E-02 0.13620713E+03</pdfrwt>
<pdfrwt beam="1">  1       -5 0.73028180E-01 0.13620713E+03</pdfrwt>
<totfact> 0.18860911E+02</totfact>
</mgrwt>
</event>
<event>
 8    1  0.3588496E-007  0.1726947E+03  0.7546771E-02  0.1175073E+00
          5   -1    0    0  501    0  0.00000000000E+00  0.00000000000E+00  0.63323016379E+03  0.63324760586E+03  0.47000000000E+01 0. -1.
         -5   -1    0    0    0  501 -0.00000000000E+00 -0.00000000000E+00 -0.47095575499E+02  0.47329517550E+02  0.47000000000E+01 0. -1.
         25    2    1    2    0    0 -0.11879012570E+03 -0.90679885601E+01  0.31161104666E+03  0.35625221731E+03  0.12498350114E+03 0.  0.
         25    2    1    2    0    0  0.11879012570E+03  0.90679885601E+01  0.27452354163E+03  0.32432490610E+03  0.12502058802E+03 0.  0.
          5    1    4    4  502    0  0.32112879025E+02 -0.54078294003E+02  0.12793534331E+03  0.14263674474E+03  0.47000000000E+01 0.  1.
         -5    1    4    4    0  502  0.86677246679E+02  0.63146282563E+02  0.14658819831E+03  0.18168816136E+03  0.47000000000E+01 0.  1.
          5    1    3    3  503    0 -0.80894055911E+02 -0.32193295004E+02  0.29660459612E+03  0.30915470717E+03  0.47000000000E+01 0.  1.
         -5    1    3    3    0  503 -0.37896069792E+02  0.23125306444E+02  0.15006450542E+02  0.47097510143E+02  0.47000000000E+01 0.  1.
<mgrwt>
<rscale>  0 0.17268802E+03</rscale>
<asrwt>0</asrwt>
<pdfrwt beam="1">  1        5 0.97439352E-01 0.17269473E+03</pdfrwt>
<pdfrwt beam="2">  1       -5 0.72648112E-02 0.17269473E+03</pdfrwt>
<totfact> 0.91275032E+01</totfact>
</mgrwt>
</event>
<event>
 8    1  0.3588496E-007  0.1454149E+03  0.7546771E-02  0.1206226E+00
          5   -1    0    0  501    0  0.00000000000E+00  0.00000000000E+00  0.33050793376E+03  0.33054135033E+03  0.47000000000E+01 0.  1.
         -5   -1    0    0    0  501 -0.00000000000E+00 -0.00000000000E+00 -0.71892421197E+02  0.72045889720E+02  0.47000000000E+01 0.  1.
         25    2    1    2    0    0  0.70490192471E+02  0.23452910749E+02  0.62074071843E+02  0.15809994056E+03  0.12499397806E+03 0.  0.
         25    2    1    2    0    0 -0.70490192471E+02 -0.23452910749E+02  0.19654144072E+03  0.24448729949E+03  0.12500638158E+03 0.  0.
          5    1    3    3  502    0  0.42516630593E+01 -0.23272930907E+02 -0.27915873665E+02  0.36892979742E+02  0.47000000000E+01 0. -1.
         -5    1    3    3    0  502  0.66238529412E+02  0.46725841656E+02  0.89989945508E+02  0.12120696081E+03  0.47000000000E+01 0. -1.
          5    1    4    4  503    0 -0.41059598272E+02 -0.26176256919E+02  0.33969380020E+01  0.49037905995E+02  0.47000000000E+01 0. -1.
         -5    1    4    4    0  503 -0.29430594199E+02  0.27233461694E+01  0.19314450272E+03  0.19544939350E+03  0.47000000000E+01 0. -1.
<mgrwt>
<rscale>  0 0.14541226E+03</rscale>
<asrwt>0</asrwt>
<pdfrwt beam="1">  1        5 0.50861750E-01 0.14541493E+03</pdfrwt>
<pdfrwt beam="2">  1       -5 0.11074748E-01 0.14541493E+03</pdfrwt>
<totfact> 0.18182430E+02</totfact>
</mgrwt>
</event>
<event>
 8    1  0.3588496E-007  0.1336289E+03  0.7546771E-02  0.1222169E+00
          5   -1    0    0  501    0  0.00000000000E+00  0.00000000000E+00  0.75813281245E+02  0.75958828408E+02  0.47000000000E+01 0. -1.
         -5   -1    0    0    0  501 -0.00000000000E+00 -0.00000000000E+00 -0.23662894748E+03  0.23667561933E+03  0.47000000000E+01 0. -1.
         25    2    1    2    0    0 -0.13580254545E+02  0.45241610635E+02 -0.92818446374E+02  0.16270202061E+03  0.12500182749E+03 0.  0.
         25    2    1    2    0    0  0.13580254545E+02 -0.45241610635E+02 -0.67997219865E+02  0.14993242714E+03  0.12499953660E+03 0.  0.
          5    1    4    4  502    0  0.60816357632E+02 -0.22853912492E+02 -0.14175616116E+01  0.65153895914E+02  0.47000000000E+01 0. -1.
         -5    1    4    4    0  502 -0.47236103087E+02 -0.22387698143E+02 -0.66579658253E+02  0.84778531222E+02  0.47000000000E+01 0. -1.
          5    1    3    3  503    0  0.29504129238E+02 -0.28657128366E+02 -0.55543299575E+02  0.69273896786E+02  0.47000000000E+01 0. -1.
         -5    1    3    3    0  503 -0.43084383783E+02  0.73898739001E+02 -0.37275146799E+02  0.93428123821E+02  0.47000000000E+01 0. -1.
<mgrwt>
<rscale>  0 0.13362837E+03</rscale>
<asrwt>0</asrwt>
<pdfrwt beam="1">  1        5 0.11678368E-01 0.13362890E+03</pdfrwt>
<pdfrwt beam="2">  1       -5 0.36419239E-01 0.13362890E+03</pdfrwt>
<totfact> 0.32126240E+02</totfact>
</mgrwt>
</event>
<event>
 8    1  0.3588496E-007  0.1354797E+03  0.7546771E-02  0.1219549E+00
         -5   -1    0    0    0  501 -0.00000000000E+00  0.00000000000E+00  0.11487011416E+02  0.12411342847E+02  0.47000000000E+01 0.  1.
          5   -1    0    0  501    0  0.00000000000E+00 -0.00000000000E+00 -0.15648084186E+04  0.15648154769E+04  0.47000000000E+01 0.  1.
         25    2    1    2    0    0 -0.44153778845E+02  0.27900017407E+02 -0.88552143200E+03  0.89582528743E+03  0.12500708745E+03 0.  0.
         25    2    1    2    0    0  0.44153778845E+02 -0.27900017407E+02 -0.66779997515E+03  0.68140153233E+03  0.12499309702E+03 0.  0.
          5    1    4    4  502    0  0.71574501960E+02 -0.58698072569E+02 -0.41561871780E+03  0.42582787795E+03  0.47000000000E+01 0.  1.
         -5    1    4    4    0  502 -0.27420723114E+02  0.30798055162E+02 -0.25218125735E+03  0.25557365439E+03  0.47000000000E+01 0.  1.
          5    1    3    3  503    0  0.43104193281E+02  0.10875197055E+01 -0.32914659603E+03  0.33199205692E+03  0.47000000000E+01 0.  1.
         -5    1    3    3    0  503 -0.87257972127E+02  0.26812497701E+02 -0.55637483597E+03  0.56383323051E+03  0.47000000000E+01 0.  1.
<mgrwt>
<rscale>  0 0.13547644E+03</rscale>
<asrwt>0</asrwt>
<pdfrwt beam="2">  1        5 0.24081124E+00 0.13547966E+03</pdfrwt>
<pdfrwt beam="1">  1       -5 0.18388791E-02 0.13547966E+03</pdfrwt>
<totfact> 0.62459283E+01</totfact>
</mgrwt>
</event>
<event>
 8    1  0.3588496E-007  0.2050898E+03  0.7546771E-02  0.1145515E+00
         -5   -1    0    0    0  501 -0.00000000000E+00  0.00000000000E+00  0.75875991683E+02  0.76021418783E+02  0.47000000000E+01 0. -1.
          5   -1    0    0  501    0  0.00000000000E+00 -0.00000000000E+00 -0.59900601126E+03  0.59902444986E+03  0.47000000000E+01 0. -1.
         25    2    1    2    0    0 -0.10446821880E+03  0.12459180409E+03 -0.16871392624E+03  0.26556772036E+03  0.12500039522E+03 0.  0.
         25    2    1    2    0    0  0.10446821880E+03 -0.12459180409E+03 -0.35441609334E+03  0.40947814828E+03  0.12499944125E+03 0.  0.
          5    1    3    3  502    0 -0.12325528965E+03  0.86970417055E+02 -0.16418560738E+03  0.22301283269E+03  0.47000000000E+01 0. -1.
         -5    1    3    3    0  502  0.18787070852E+02  0.37621387034E+02 -0.45283188566E+01  0.42554887678E+02  0.47000000000E+01 0. -1.
          5    1    4    4  503    0  0.84103965179E+02 -0.70576963123E+02 -0.32781422199E+03  0.34574389195E+03  0.47000000000E+01 0. -1.
         -5    1    4    4    0  503  0.20364253623E+02 -0.54014840966E+02 -0.26601871347E+02  0.63734256326E+02  0.47000000000E+01 0. -1.
<mgrwt>
<rscale>  0 0.20508965E+03</rscale>
<asrwt>0</asrwt>
<pdfrwt beam="2">  1        5 0.92167373E-01 0.20508980E+03</pdfrwt>
<pdfrwt beam="1">  1       -5 0.11685835E-01 0.20508980E+03</pdfrwt>
<totfact> 0.47762104E+01</totfact>
</mgrwt>
</event>
<event>
 8    1  0.3588496E-007  0.1766759E+03  0.7546771E-02  0.1171064E+00
          5   -1    0    0  501    0  0.00000000000E+00  0.00000000000E+00  0.40921914548E+02  0.41190934564E+02  0.47000000000E+01 0. -1.
         -5   -1    0    0    0  501 -0.00000000000E+00 -0.00000000000E+00 -0.79155848955E+03  0.79157244291E+03  0.47000000000E+01 0. -1.
         25    2    1    2    0    0 -0.11039123539E+03  0.58339843318E+02 -0.45851547581E+03  0.49137047857E+03  0.12497497144E+03 0.  0.
         25    2    1    2    0    0  0.11039123539E+03 -0.58339843318E+02 -0.29212109919E+03  0.34139289890E+03  0.12499845063E+03 0.  0.
          5    1    4    4  502    0 -0.75242085853E+01  0.28453944419E+02 -0.58217185011E+02  0.65403144408E+02  0.47000000000E+01 0. -1.
         -5    1    4    4    0  502  0.11791544397E+03 -0.86793787737E+02 -0.23390391418E+03  0.27598975450E+03  0.47000000000E+01 0. -1.
          5    1    3    3  503    0 -0.83325124553E+02  0.97609341548E+02 -0.34650610775E+03  0.36953921665E+03  0.47000000000E+01 0. -1.
         -5    1    3    3    0  503 -0.27066110836E+02 -0.39269498230E+02 -0.11200936806E+03  0.12183126192E+03  0.47000000000E+01 0. -1.
<mgrwt>
<rscale>  0 0.17667175E+03</rscale>
<asrwt>0</asrwt>
<pdfrwt beam="1">  1        5 0.63174469E-02 0.17667590E+03</pdfrwt>
<pdfrwt beam="2">  1       -5 0.12179998E+00 0.17667590E+03</pdfrwt>
<totfact> 0.66715579E+01</totfact>
</mgrwt>
</event>
<event>
 8    1  0.3588496E-007  0.1268443E+03  0.7546771E-02  0.1232216E+00
         -5   -1    0    0    0  501 -0.00000000000E+00  0.00000000000E+00  0.84696814914E+03  0.84698118967E+03  0.47000000000E+01 0. -1.
          5   -1    0    0  501    0  0.00000000000E+00 -0.00000000000E+00 -0.19994608565E+02  0.20539580610E+02  0.47000000000E+01 0. -1.
         25    2    1    2    0    0  0.18246665748E+02  0.11471297486E+02  0.52263845109E+03  0.53781077621E+03  0.12499979588E+03 0.  0.
         25    2    1    2    0    0 -0.18246665748E+02 -0.11471297486E+02  0.30433508948E+03  0.32970999407E+03  0.12499720806E+03 0.  0.
          5    1    4    4  502    0  0.15102979538E+02 -0.47955692646E+02  0.51803102329E+02  0.72342932337E+02  0.47000000000E+01 0. -1.
         -5    1    4    4    0  502 -0.33349645285E+02  0.36484395160E+02  0.25253198715E+03  0.25736706173E+03  0.47000000000E+01 0. -1.
          5    1    3    3  503    0 -0.39358157800E+02  0.32241231344E+02  0.36622674098E+03  0.36977381924E+03  0.47000000000E+01 0.  1.
         -5    1    3    3    0  503  0.57604823547E+02 -0.20769933858E+02  0.15641171011E+03  0.16803695697E+03  0.47000000000E+01 0.  1.
<mgrwt>
<rscale>  0 0.12684368E+03</rscale>
<asrwt>0</asrwt>
<pdfrwt beam="2">  1        5 0.31190172E-02 0.12684432E+03</pdfrwt>
<pdfrwt beam="1">  1       -5 0.13034574E+00 0.12684432E+03</pdfrwt>
<totfact> 0.16238966E+02</totfact>
</mgrwt>
</event>
<event>
 8    1  0.3588496E-007  0.1854023E+03  0.7546771E-02  0.1162675E+00
         -5   -1    0    0    0  501 -0.00000000000E+00  0.00000000000E+00  0.26082020896E+03  0.26086255270E+03  0.47000000000E+01 0. -1.
          5   -1    0    0  501    0  0.00000000000E+00 -0.00000000000E+00 -0.20160814408E+03  0.20166292113E+03  0.47000000000E+01 0. -1.
         25    2    1    2    0    0  0.38737473081E+02 -0.13133643743E+03  0.16575196225E+03  0.24869205027E+03  0.12499668500E+03 0.  0.
         25    2    1    2    0    0 -0.38737473081E+02  0.13133643743E+03 -0.10653989737E+03  0.21383342356E+03  0.12499652668E+03 0.  0.
          5    1    3    3  502    0  0.50661915958E+01 -0.13978324532E+03  0.93261815747E+02  0.16818108766E+03  0.47000000000E+01 0.  1.
         -5    1    3    3    0  502  0.33671281485E+02  0.84468078940E+01  0.72490146506E+02  0.80510962614E+02  0.47000000000E+01 0.  1.
          5    1    4    4  503    0 -0.57214089903E+02  0.11712945807E+03 -0.12730393723E+03  0.18226668501E+03  0.47000000000E+01 0.  1.
         -5    1    4    4    0  503  0.18476616822E+02  0.14206979357E+02  0.20764039854E+02  0.31566738550E+02  0.47000000000E+01 0.  1.
<mgrwt>
<rscale>  0 0.18540230E+03</rscale>
<asrwt>0</asrwt>
<pdfrwt beam="2">  1        5 0.31024108E-01 0.18540233E+03</pdfrwt>
<pdfrwt beam="1">  1       -5 0.40133657E-01 0.18540233E+03</pdfrwt>
<totfact> 0.47190414E+01</totfact>
</mgrwt>
</event>
<event>
 8    1  0.3588496E-007  0.1386812E+03  0.7546771E-02  0.1215118E+00
          5   -1    0    0  501    0  0.00000000000E+00  0.00000000000E+00  0.22066000946E+03  0.22071005816E+03  0.47000000000E+01 0. -1.
         -5   -1    0    0    0  501 -0.00000000000E+00 -0.00000000000E+00 -0.88086666836E+02  0.88211965596E+02  0.47000000000E+01 0. -1.
         25    2    1    2    0    0 -0.55223967618E+02  0.23573198692E+02  0.49376402788E+02  0.14720901673E+03  0.12500833235E+03 0.  0.
         25    2    1    2    0    0  0.55223967618E+02 -0.23573198692E+02  0.83196939833E+02  0.16171300703E+03  0.12499593413E+03 0.  0.
          5    1    4    4  502    0  0.20007978012E+02  0.51298604824E+02  0.26402190087E+02  0.61245666642E+02  0.47000000000E+01 0.  1.
         -5    1    4    4    0  502  0.35215989606E+02 -0.74871803517E+02  0.56794749746E+02  0.10046734039E+03  0.47000000000E+01 0.  1.
          5    1    3    3  503    0 -0.22834290857E+02  0.56174042337E+02  0.73251186458E+02  0.95209002668E+02  0.47000000000E+01 0.  1.
         -5    1    3    3    0  503 -0.32389676760E+02 -0.32600843645E+02 -0.23874783670E+02  0.52000014060E+02  0.47000000000E+01 0.  1.
<mgrwt>
<rscale>  0 0.13867837E+03</rscale>
<asrwt>0</asrwt>
<pdfrwt beam="1">  1        5 0.33961182E-01 0.13868116E+03</pdfrwt>
<pdfrwt beam="2">  1       -5 0.13565283E-01 0.13868116E+03</pdfrwt>
<totfact> 0.28673849E+02</totfact>
</mgrwt>
</event>
<event>
 8    1  0.3588496E-007  0.1739290E+03  0.7546771E-02  0.1173812E+00
          5   -1    0    0  501    0  0.00000000000E+00  0.00000000000E+00  0.18147422371E+04  0.18147483234E+04  0.47000000000E+01 0.  1.
         -5   -1    0    0    0  501 -0.00000000000E+00 -0.00000000000E+00 -0.20200438918E+02  0.20740003194E+02  0.47000000000E+01 0.  1.
         25    2    1    2    0    0  0.79104671943E+02  0.91477840963E+02  0.50155413268E+03  0.53085489660E+03  0.12499851489E+03 0.  0.
         25    2    1    2    0    0 -0.79104671943E+02 -0.91477840963E+02  0.12929876655E+04  0.13046334300E+04  0.12500215553E+03 0.  0.
          5    1    3    3  502    0  0.10843135623E+03  0.42358634066E+02  0.33226055662E+03  0.35209484572E+03  0.47000000000E+01 0.  1.
         -5    1    3    3    0  502 -0.29326684283E+02  0.49119206897E+02  0.16929357605E+03  0.17876005088E+03  0.47000000000E+01 0.  1.
          5    1    4    4  503    0  0.15268915385E+02  0.78440531364E+01  0.46760762753E+03  0.46794620660E+03  0.47000000000E+01 0.  1.
         -5    1    4    4    0  503 -0.94373587328E+02 -0.99321894100E+02  0.82538003800E+03  0.83668722337E+03  0.47000000000E+01 0.  1.
<mgrwt>
<rscale>  0 0.17392831E+03</rscale>
<asrwt>0</asrwt>
<pdfrwt beam="1">  1        5 0.27923310E+00 0.17392896E+03</pdfrwt>
<pdfrwt beam="2">  1       -5 0.31497328E-02 0.17392896E+03</pdfrwt>
<totfact> 0.16010561E+01</totfact>
</mgrwt>
</event>
<event>
 8    1  0.3588496E-007  0.1820069E+03  0.7546771E-02  0.1165875E+00
          5   -1    0    0  501    0  0.00000000000E+00  0.00000000000E+00  0.35866587953E+03  0.35869667288E+03  0.47000000000E+01 0. -1.
         -5   -1    0    0    0  501 -0.00000000000E+00 -0.00000000000E+00 -0.92332426441E+02  0.92451971166E+02  0.47000000000E+01 0. -1.
         25    2    1    2    0    0 -0.12978940205E+03  0.25607117100E+02  0.13925815712E+03  0.22917103001E+03  0.12500205335E+03 0.  0.
         25    2    1    2    0    0  0.12978940205E+03 -0.25607117100E+02  0.12707529597E+03  0.22197761404E+03  0.12499966783E+03 0.  0.
          5    1    3    3  502    0 -0.12836560802E+03 -0.24690224824E+02  0.91424384452E+02  0.15958647999E+03  0.47000000000E+01 0. -1.
         -5    1    3    3    0  502 -0.14237940339E+01  0.50297341924E+02  0.47833772666E+02  0.69584550020E+02  0.47000000000E+01 0. -1.
          5    1    4    4  503    0  0.20454282358E+01  0.68762486251E+01 -0.21594527992E+02  0.23235322486E+02  0.47000000000E+01 0. -1.
         -5    1    4    4    0  503  0.12774397381E+03 -0.32483365725E+02  0.14866982396E+03  0.19874229155E+03  0.47000000000E+01 0. -1.
<mgrwt>
<rscale>  0 0.18200653E+03</rscale>
<asrwt>0</asrwt>
<pdfrwt beam="1">  1        5 0.55190930E-01 0.18200694E+03</pdfrwt>
<pdfrwt beam="2">  1       -5 0.14216553E-01 0.18200694E+03</pdfrwt>
<totfact> 0.10468354E+02</totfact>
</mgrwt>
</event>
<event>
 8    1  0.3588496E-007  0.1277821E+03  0.7546771E-02  0.1230808E+00
         -5   -1    0    0    0  501 -0.00000000000E+00  0.00000000000E+00  0.65258893660E+01  0.80422156162E+01  0.47000000000E+01 0. -1.
          5   -1    0    0  501    0  0.00000000000E+00 -0.00000000000E+00 -0.22896403871E+04  0.22896452110E+04  0.47000000000E+01 0. -1.
         25    2    1    2    0    0 -0.57041298499E+01 -0.25902500635E+02 -0.97110937649E+03  0.97948031489E+03  0.12499915812E+03 0.  0.
         25    2    1    2    0    0  0.57041298499E+01  0.25902500635E+02 -0.13120051213E+04  0.13182071117E+04  0.12493628203E+03 0.  0.
          5    1    4    4  502    0 -0.26753093033E+02  0.61675739840E+02 -0.47029505817E+03  0.47509910188E+03  0.47000000000E+01 0. -1.
         -5    1    4    4    0  502  0.32457222883E+02 -0.35773239205E+02 -0.84171006310E+03  0.84310800986E+03  0.47000000000E+01 0. -1.
          5    1    3    3  503    0 -0.53547972818E+02  0.22691343332E+02 -0.38451513029E+03  0.38891677501E+03  0.47000000000E+01 0.  1.
         -5    1    3    3    0  503  0.47843842968E+02 -0.48593843967E+02 -0.58659424619E+03  0.59056353989E+03  0.47000000000E+01 0.  1.
<mgrwt>
<rscale>  0 0.12776672E+03</rscale>
<asrwt>0</asrwt>
<pdfrwt beam="2">  1        5 0.35236880E+00 0.12778210E+03</pdfrwt>
<pdfrwt beam="1">  1       -5 0.11209964E-02 0.12778210E+03</pdfrwt>
<totfact> 0.26032190E+01</totfact>
</mgrwt>
</event>
<event>
 8    1  0.3588496E-007  0.1453513E+03  0.7546771E-02  0.1206305E+00
          5   -1    0    0  501    0  0.00000000000E+00  0.00000000000E+00  0.59802089924E+03  0.59803936821E+03  0.47000000000E+01 0.  1.
         -5   -1    0    0    0  501 -0.00000000000E+00 -0.00000000000E+00 -0.35314700952E+02  0.35626087399E+02  0.47000000000E+01 0.  1.
         25    2    1    2    0    0  0.13483600770E+01 -0.74164353556E+02  0.25998724157E+03  0.29785962441E+03  0.12499928264E+03 0.  0.
         25    2    1    2    0    0 -0.13483600770E+01  0.74164353556E+02  0.30271895672E+03  0.33580583120E+03  0.12499848038E+03 0.  0.
          5    1    3    3  502    0 -0.32128395368E+02  0.17344449717E+02  0.28175376674E+02  0.46357368083E+02  0.47000000000E+01 0.  1.
         -5    1    3    3    0  502  0.33476755445E+02 -0.91508803273E+02  0.23181186489E+03  0.25150225632E+03  0.47000000000E+01 0.  1.
          5    1    4    4  503    0 -0.15447468366E+02  0.95228492276E+02  0.13430227112E+03  0.16542756738E+03  0.47000000000E+01 0. -1.
         -5    1    4    4    0  503  0.14099108289E+02 -0.21064138720E+02  0.16841668560E+03  0.17037826383E+03  0.47000000000E+01 0. -1.
<mgrwt>
<rscale>  0 0.14535109E+03</rscale>
<asrwt>0</asrwt>
<pdfrwt beam="1">  1        5 0.92028583E-01 0.14535126E+03</pdfrwt>
<pdfrwt beam="2">  1       -5 0.54584047E-02 0.14535126E+03</pdfrwt>
<totfact> 0.16108919E+02</totfact>
</mgrwt>
</event>
<event>
 8    1  0.3588496E-007  0.1415667E+03  0.7546771E-02  0.1211241E+00
         -5   -1    0    0    0  501 -0.00000000000E+00  0.00000000000E+00  0.14161822060E+03  0.14169619051E+03  0.47000000000E+01 0. -1.
          5   -1    0    0  501    0  0.00000000000E+00 -0.00000000000E+00 -0.14243450081E+03  0.14251202413E+03  0.47000000000E+01 0. -1.
         25    2    1    2    0    0 -0.51862998928E+02  0.41541379167E+02  0.12017641962E+02  0.14206100503E+03  0.12498579356E+03 0.  0.
         25    2    1    2    0    0  0.51862998928E+02 -0.41541379167E+02 -0.12833922171E+02  0.14214720961E+03  0.12500265117E+03 0.  0.
          5    1    3    3  502    0  0.94986949158E+01 -0.33605229690E+02  0.26187407003E+02  0.43902243145E+02  0.47000000000E+01 0. -1.
         -5    1    3    3    0  502 -0.61361693844E+02  0.75146608857E+02 -0.14169765041E+02  0.98158761888E+02  0.47000000000E+01 0. -1.
          5    1    4    4  503    0  0.91013220168E+02 -0.37765674026E+02 -0.22908201769E+02  0.10127451846E+03  0.47000000000E+01 0. -1.
         -5    1    4    4    0  503 -0.39150221240E+02 -0.37757051404E+01  0.10074279598E+02  0.40872691151E+02  0.47000000000E+01 0. -1.
<mgrwt>
<rscale>  0 0.14156294E+03</rscale>
<asrwt>0</asrwt>
<pdfrwt beam="2">  1        5 0.21924961E-01 0.14156666E+03</pdfrwt>
<pdfrwt beam="1">  1       -5 0.21799380E-01 0.14156666E+03</pdfrwt>
<totfact> 0.28222701E+02</totfact>
</mgrwt>
</event>
<event>
 8    1  0.3588496E-007  0.1324934E+03  0.7546771E-02  0.1223809E+00
          5   -1    0    0  501    0  0.00000000000E+00  0.00000000000E+00  0.83893554890E+01  0.96161991202E+01  0.47000000000E+01 0.  1.
         -5   -1    0    0    0  501 -0.00000000000E+00 -0.00000000000E+00 -0.19798983741E+04  0.19799039526E+04  0.47000000000E+01 0.  1.
         25    2    1    2    0    0  0.43253090872E+02 -0.75614523956E+01 -0.11111579011E+04  0.11190268811E+04  0.12498509560E+03 0.  0.
         25    2    1    2    0    0 -0.43253090872E+02  0.75614523956E+01 -0.86035111748E+03  0.87049327061E+03  0.12500593339E+03 0.  0.
          5    1    4    4  502    0  0.24837231733E+01  0.19033624011E+02 -0.75167862466E+03  0.75193835684E+03  0.47000000000E+01 0. -1.
         -5    1    4    4    0  502 -0.45736814046E+02 -0.11472171615E+02 -0.10867249283E+03  0.11855491377E+03  0.47000000000E+01 0. -1.
          5    1    3    3  503    0  0.15217226020E+02 -0.32502150055E+02 -0.10157895971E+04  0.10164342327E+04  0.47000000000E+01 0.  1.
         -5    1    3    3    0  503  0.28035864853E+02  0.24940697660E+02 -0.95368303987E+02  0.10259264848E+03  0.47000000000E+01 0.  1.
<mgrwt>
<rscale>  0 0.13248844E+03</rscale>
<asrwt>0</asrwt>
<pdfrwt beam="1">  1        5 0.13854734E-02 0.13249335E+03</pdfrwt>
<pdfrwt beam="2">  1       -5 0.30469421E+00 0.13249335E+03</pdfrwt>
<totfact> 0.38331152E+01</totfact>
</mgrwt>
</event>
<event>
 8    1  0.3588496E-007  0.1382346E+03  0.7546771E-02  0.1215726E+00
          5   -1    0    0  501    0  0.00000000000E+00  0.00000000000E+00  0.95362114295E+03  0.95363272505E+03  0.47000000000E+01 0. -1.
         -5   -1    0    0    0  501 -0.00000000000E+00 -0.00000000000E+00 -0.22441458718E+02  0.22928346416E+02  0.47000000000E+01 0. -1.
         25    2    1    2    0    0  0.53184706366E+02 -0.25573507964E+02  0.29846325552E+03  0.32892114117E+03  0.12500473955E+03 0.  0.
         25    2    1    2    0    0 -0.53184706366E+02  0.25573507964E+02  0.63271642871E+03  0.64763993030E+03  0.12499913140E+03 0.  0.
          5    1    3    3  502    0  0.76145623328E+02 -0.10307448543E+02  0.89327482903E+02  0.11792323202E+03  0.47000000000E+01 0.  1.
         -5    1    3    3    0  502 -0.22960916962E+02 -0.15266059420E+02  0.20913577262E+03  0.21099790915E+03  0.47000000000E+01 0.  1.
          5    1    4    4  503    0 -0.86563871562E+02  0.12620493098E+02  0.28779288549E+03  0.30083120790E+03  0.47000000000E+01 0.  1.
         -5    1    4    4    0  503  0.33379165196E+02  0.12953014866E+02  0.34492354322E+03  0.34680872240E+03  0.47000000000E+01 0.  1.
<mgrwt>
<rscale>  0 0.13823332E+03</rscale>
<asrwt>0</asrwt>
<pdfrwt beam="1">  1        5 0.14674925E+00 0.13823459E+03</pdfrwt>
<pdfrwt beam="2">  1       -5 0.34908769E-02 0.13823459E+03</pdfrwt>
<totfact> 0.10158830E+02</totfact>
</mgrwt>
</event>
<event>
 8    1  0.3588496E-007  0.1287218E+03  0.7546771E-02  0.1229366E+00
          5   -1    0    0  501    0  0.00000000000E+00  0.00000000000E+00  0.51359233470E+03  0.51361383963E+03  0.47000000000E+01 0. -1.
         -5   -1    0    0    0  501 -0.00000000000E+00 -0.00000000000E+00 -0.33917989186E+02  0.34242079236E+02  0.47000000000E+01 0. -1.
         25    2    1    2    0    0  0.92180372459E+01  0.29308761017E+02  0.17618811366E+03  0.21820068947E+03  0.12500125523E+03 0.  0.
         25    2    1    2    0    0 -0.92180372459E+01 -0.29308761017E+02  0.30348623186E+03  0.32965522940E+03  0.12499880663E+03 0.  0.
          5    1    3    3  502    0 -0.24715246150E+02 -0.23764248495E+02  0.40566456048E+01  0.34844357826E+02  0.47000000000E+01 0.  1.
         -5    1    3    3    0  502  0.33933283396E+02  0.53073009512E+02  0.17213146805E+03  0.18335633165E+03  0.47000000000E+01 0.  1.
          5    1    4    4  503    0  0.33624088501E+02 -0.88221177007E+01  0.26774757479E+03  0.27003566967E+03  0.47000000000E+01 0. -1.
         -5    1    4    4    0  503 -0.42842125747E+02 -0.20486643316E+02  0.35738657062E+02  0.59619559722E+02  0.47000000000E+01 0. -1.
<mgrwt>
<rscale>  0 0.12872116E+03</rscale>
<asrwt>0</asrwt>
<pdfrwt beam="1">  1        5 0.79040783E-01 0.12872175E+03</pdfrwt>
<pdfrwt beam="2">  1       -5 0.52447368E-02 0.12872175E+03</pdfrwt>
<totfact> 0.23615891E+02</totfact>
</mgrwt>
</event>
<event>
 8    1  0.3588496E-007  0.1774682E+03  0.7546771E-02  0.1170276E+00
         -5   -1    0    0    0  501 -0.00000000000E+00  0.00000000000E+00  0.15466868514E+04  0.15466939924E+04  0.47000000000E+01 0. -1.
          5   -1    0    0  501    0  0.00000000000E+00 -0.00000000000E+00 -0.25070595013E+02  0.25507346673E+02  0.47000000000E+01 0. -1.
         25    2    1    2    0    0  0.53844293917E+02  0.11388862143E+03  0.11079611284E+04  0.11220841503E+04  0.12500060843E+03 0.  0.
         25    2    1    2    0    0 -0.53844293917E+02 -0.11388862143E+03  0.41365512794E+03  0.45011718884E+03  0.12500037094E+03 0.  0.
          5    1    4    4  502    0  0.31596189065E+02 -0.39941354075E+02  0.60108828406E+02  0.78922697502E+02  0.47000000000E+01 0.  1.
         -5    1    4    4    0  502 -0.85440482982E+02 -0.73947267352E+02  0.35354629954E+03  0.37119449133E+03  0.47000000000E+01 0.  1.
          5    1    3    3  503    0  0.25259022712E+02 -0.21767311319E+02  0.12805147310E+03  0.13240507481E+03  0.47000000000E+01 0. -1.
         -5    1    3    3    0  503  0.28585271205E+02  0.13565593275E+03  0.97990965531E+03  0.98967907545E+03  0.47000000000E+01 0. -1.
<mgrwt>
<rscale>  0 0.17746820E+03</rscale>
<asrwt>0</asrwt>
<pdfrwt beam="2">  1        5 0.38911599E-02 0.17746825E+03</pdfrwt>
<pdfrwt beam="1">  1       -5 0.23798599E+00 0.17746825E+03</pdfrwt>
<totfact> 0.20850509E+01</totfact>
</mgrwt>
</event>
<event>
 8    1  0.3588496E-007  0.1376032E+03  0.7546771E-02  0.1216592E+00
          5   -1    0    0  501    0  0.00000000000E+00  0.00000000000E+00  0.11678106598E+03  0.11687560640E+03  0.47000000000E+01 0. -1.
         -5   -1    0    0    0  501 -0.00000000000E+00 -0.00000000000E+00 -0.16354814469E+03  0.16361566439E+03  0.47000000000E+01 0. -1.
         25    2    1    2    0    0  0.45535005991E+02 -0.35171132888E+02 -0.37288226943E+02  0.14256593245E+03  0.12499675143E+03 0.  0.
         25    2    1    2    0    0 -0.45535005991E+02  0.35171132888E+02 -0.94788517714E+01  0.13792533833E+03  0.12499241963E+03 0.  0.
          5    1    4    4  502    0 -0.78387071908E+02  0.25170353828E+02 -0.40081519719E+02  0.91688047079E+02  0.47000000000E+01 0.  1.
         -5    1    4    4    0  502  0.32852065918E+02  0.10000779060E+02  0.30602667948E+02  0.46237291253E+02  0.47000000000E+01 0.  1.
          5    1    3    3  503    0 -0.32728024957E+02 -0.43625420710E+02  0.13379181087E+01  0.54755647878E+02  0.47000000000E+01 0. -1.
         -5    1    3    3    0  503  0.78263030947E+02  0.84542878222E+01 -0.38626145052E+02  0.87810284575E+02  0.47000000000E+01 0. -1.
<mgrwt>
<rscale>  0 0.13760219E+03</rscale>
<asrwt>0</asrwt>
<pdfrwt beam="1">  1        5 0.17978784E-01 0.13760317E+03</pdfrwt>
<pdfrwt beam="2">  1       -5 0.25173719E-01 0.13760317E+03</pdfrwt>
<totfact> 0.30781905E+02</totfact>
</mgrwt>
</event>
<event>
 8    1  0.3588496E-007  0.1410644E+03  0.7546771E-02  0.1211904E+00
         -5   -1    0    0    0  501 -0.00000000000E+00  0.00000000000E+00  0.44134465681E+02  0.44384018081E+02  0.47000000000E+01 0. -1.
          5   -1    0    0  501    0  0.00000000000E+00 -0.00000000000E+00 -0.44969611386E+03  0.44972067422E+03  0.47000000000E+01 0. -1.
         25    2    1    2    0    0  0.63335099175E+02  0.16210348558E+02 -0.19581873340E+03  0.24133751145E+03  0.12499883156E+03 0.  0.
         25    2    1    2    0    0 -0.63335099175E+02 -0.16210348558E+02 -0.20974291477E+03  0.25276718085E+03  0.12500018892E+03 0.  0.
          5    1    3    3  502    0  0.41179253053E+02  0.39916020047E+02 -0.17665969217E+02  0.60192989681E+02  0.47000000000E+01 0.  1.
         -5    1    3    3    0  502  0.22155846122E+02 -0.23705671489E+02 -0.17815276419E+03  0.18114452177E+03  0.47000000000E+01 0.  1.
          5    1    4    4  503    0 -0.53602316352E+02  0.27812277729E+02 -0.30375627761E+02  0.67760607086E+02  0.47000000000E+01 0.  1.
         -5    1    4    4    0  503 -0.97327828228E+01 -0.44022626287E+02 -0.17936728701E+03  0.18500657377E+03  0.47000000000E+01 0.  1.
<mgrwt>
<rscale>  0 0.14106407E+03</rscale>
<asrwt>0</asrwt>
<pdfrwt beam="2">  1        5 0.69205100E-01 0.14106437E+03</pdfrwt>
<pdfrwt beam="1">  1       -5 0.68110037E-02 0.14106437E+03</pdfrwt>
<totfact> 0.21259261E+02</totfact>
</mgrwt>
</event>
<event>
 8    1  0.3588496E-007  0.1361527E+03  0.7546771E-02  0.1218602E+00
          5   -1    0    0  501    0  0.00000000000E+00  0.00000000000E+00  0.87000317662E+02  0.87127178729E+02  0.47000000000E+01 0.  1.
         -5   -1    0    0    0  501 -0.00000000000E+00 -0.00000000000E+00 -0.24689755341E+03  0.24694228451E+03  0.47000000000E+01 0.  1.
         25    2    1    2    0    0 -0.33884223241E+02  0.42000701208E+02 -0.14203185032E+03  0.19674962950E+03  0.12500068287E+03 0.  0.
         25    2    1    2    0    0  0.33884223241E+02 -0.42000701208E+02 -0.17865385433E+02  0.13731983374E+03  0.12500146101E+03 0.  0.
          5    1    4    4  502    0 -0.22153713340E+02  0.18398369729E+02  0.30056337838E+02  0.41889861156E+02  0.47000000000E+01 0.  1.
         -5    1    4    4    0  502  0.56037936581E+02 -0.60399070937E+02 -0.47921723271E+02  0.95429972585E+02  0.47000000000E+01 0.  1.
          5    1    3    3  503    0  0.19112454615E+02 -0.36406397047E+02 -0.44359265010E+02  0.60667504148E+02  0.47000000000E+01 0. -1.
         -5    1    3    3    0  503 -0.52996677855E+02  0.78407098255E+02 -0.97672585307E+02  0.13608212535E+03  0.47000000000E+01 0. -1.
<mgrwt>
<rscale>  0 0.13615255E+03</rscale>
<asrwt>0</asrwt>
<pdfrwt beam="1">  1        5 0.13397864E-01 0.13615273E+03</pdfrwt>
<pdfrwt beam="2">  1       -5 0.37997438E-01 0.13615273E+03</pdfrwt>
<totfact> 0.23243117E+02</totfact>
</mgrwt>
</event>
<event>
 8    1  0.3588496E-007  0.1732982E+03  0.7546771E-02  0.1174462E+00
          5   -1    0    0  501    0  0.00000000000E+00  0.00000000000E+00  0.28242658146E+03  0.28246568626E+03  0.47000000000E+01 0.  1.
         -5   -1    0    0    0  501 -0.00000000000E+00 -0.00000000000E+00 -0.11292075644E+03  0.11301852607E+03  0.47000000000E+01 0.  1.
         25    2    1    2    0    0  0.22033067079E+02 -0.11793067822E+03  0.36596871237E+02  0.17712025605E+03  0.12505660002E+03 0.  0.
         25    2    1    2    0    0 -0.22033067079E+02  0.11793067822E+03  0.13290895378E+03  0.21836395628E+03  0.12499970598E+03 0.  0.
          5    1    3    3  502    0 -0.15267170564E+02 -0.13100014197E+03  0.37873906627E+02  0.13729765656E+03  0.47000000000E+01 0. -1.
         -5    1    3    3    0  502  0.37300237644E+02  0.13069463747E+02 -0.12770353907E+01  0.39822599492E+02  0.47000000000E+01 0. -1.
          5    1    4    4  503    0 -0.61873430582E+02  0.50182321271E+02  0.22792989105E+02  0.82995163308E+02  0.47000000000E+01 0.  1.
         -5    1    4    4    0  503  0.39840363503E+02  0.67748356952E+02  0.11011596468E+03  0.13536879297E+03  0.47000000000E+01 0.  1.
<mgrwt>
<rscale>  0 0.17328790E+03</rscale>
<asrwt>0</asrwt>
<pdfrwt beam="1">  1        5 0.43460772E-01 0.17329817E+03</pdfrwt>
<pdfrwt beam="2">  1       -5 0.17382953E-01 0.17329817E+03</pdfrwt>
<totfact> 0.11867999E+02</totfact>
</mgrwt>
</event>
<event>
 8    1  0.3588496E-007  0.1282798E+03  0.7546771E-02  0.1230031E+00
          5   -1    0    0  501    0  0.00000000000E+00  0.00000000000E+00  0.22248238927E+03  0.22253202811E+03  0.47000000000E+01 0. -1.
         -5   -1    0    0    0  501 -0.00000000000E+00 -0.00000000000E+00 -0.99897406021E+02  0.10000790834E+03  0.47000000000E+01 0. -1.
         25    2    1    2    0    0  0.26193979401E+02  0.12009859499E+02 -0.21012288897E+02  0.12998892767E+03  0.12500097500E+03 0.  0.
         25    2    1    2    0    0 -0.26193979401E+02 -0.12009859499E+02  0.14359727215E+03  0.19255100878E+03  0.12500141252E+03 0.  0.
          5    1    4    4  502    0  0.28772665963E+02 -0.50852066697E+02  0.49241385235E+02  0.76554575394E+02  0.47000000000E+01 0. -1.
         -5    1    4    4    0  502 -0.54966645365E+02  0.38842207198E+02  0.94355886914E+02  0.11599643338E+03  0.47000000000E+01 0. -1.
          5    1    3    3  503    0 -0.43106303703E+02  0.11756204040E+02 -0.37589372620E+02  0.58578261210E+02  0.47000000000E+01 0. -1.
         -5    1    3    3    0  503  0.69300283105E+02  0.25365545831E+00  0.16577083723E+02  0.71410666460E+02  0.47000000000E+01 0. -1.
<mgrwt>
<rscale>  0 0.12827972E+03</rscale>
<asrwt>0</asrwt>
<pdfrwt beam="1">  1        5 0.34240378E-01 0.12827983E+03</pdfrwt>
<pdfrwt beam="2">  1       -5 0.15381150E-01 0.12827983E+03</pdfrwt>
<totfact> 0.21889099E+02</totfact>
</mgrwt>
</event>
<event>
 8    1  0.3588496E-007  0.1289864E+03  0.7546771E-02  0.1228972E+00
         -5   -1    0    0    0  501 -0.00000000000E+00  0.00000000000E+00  0.72660473682E+02  0.72812323378E+02  0.47000000000E+01 0. -1.
          5   -1    0    0  501    0  0.00000000000E+00 -0.00000000000E+00 -0.29526379465E+03  0.29530119950E+03  0.47000000000E+01 0. -1.
         25    2    1    2    0    0 -0.28227583951E+02 -0.14617515992E+02 -0.23839398043E+02  0.13117091588E+03  0.12500809575E+03 0.  0.
         25    2    1    2    0    0  0.28227583951E+02  0.14617515992E+02 -0.19876392292E+03  0.23694260700E+03  0.12499693472E+03 0.  0.
          5    1    4    4  502    0 -0.72221766917E+00 -0.38530194186E+02 -0.16063111120E+03  0.16525598733E+03  0.47000000000E+01 0.  1.
         -5    1    4    4    0  502  0.28949801620E+02  0.53147710177E+02 -0.38132811720E+02  0.71686619676E+02  0.47000000000E+01 0.  1.
          5    1    3    3  503    0  0.46725003043E+02  0.25003138638E+01 -0.26725584152E+02  0.54090889501E+02  0.47000000000E+01 0.  1.
         -5    1    3    3    0  503 -0.74952586994E+02 -0.17117829856E+02  0.28861861087E+01  0.77080026377E+02  0.47000000000E+01 0.  1.
<mgrwt>
<rscale>  0 0.12898370E+03</rscale>
<asrwt>0</asrwt>
<pdfrwt beam="2">  1        5 0.45439757E-01 0.12898640E+03</pdfrwt>
<pdfrwt beam="1">  1       -5 0.11193093E-01 0.12898640E+03</pdfrwt>
<totfact> 0.21725932E+02</totfact>
</mgrwt>
</event>
<event>
 8    1  0.3588496E-007  0.1312492E+03  0.7546771E-02  0.1225618E+00
         -5   -1    0    0    0  501 -0.00000000000E+00  0.00000000000E+00  0.29070222549E+03  0.29074021721E+03  0.47000000000E+01 0.  1.
          5   -1    0    0  501    0  0.00000000000E+00 -0.00000000000E+00 -0.70711513816E+02  0.70867539721E+02  0.47000000000E+01 0.  1.
         25    2    1    2    0    0 -0.78327281617E+01 -0.39229030583E+02  0.18309595484E+03  0.22527149846E+03  0.12499140318E+03 0.  0.
         25    2    1    2    0    0  0.78327281617E+01  0.39229030583E+02  0.36894756836E+02  0.13633625847E+03  0.12500433521E+03 0.  0.
          5    1    4    4  502    0 -0.17184828087E+02 -0.42116894615E+02  0.86371899956E+01  0.46538609557E+02  0.47000000000E+01 0.  1.
         -5    1    4    4    0  502  0.25017556249E+02  0.81345925199E+02  0.28257566841E+02  0.89797648916E+02  0.47000000000E+01 0.  1.
          5    1    3    3  503    0  0.42507187111E+02  0.46188539874E+01  0.17094224631E+02  0.46287117906E+02  0.47000000000E+01 0. -1.
         -5    1    3    3    0  503 -0.50339915273E+02 -0.43847884571E+02  0.16600173021E+03  0.17898438056E+03  0.47000000000E+01 0. -1.
<mgrwt>
<rscale>  0 0.13124612E+03</rscale>
<asrwt>0</asrwt>
<pdfrwt beam="2">  1        5 0.10893619E-01 0.13124920E+03</pdfrwt>
<pdfrwt beam="1">  1       -5 0.44738343E-01 0.13124920E+03</pdfrwt>
<totfact> 0.23683855E+02</totfact>
</mgrwt>
</event>
<event>
 8    1  0.3588496E-007  0.1506518E+03  0.7546771E-02  0.1199675E+00
         -5   -1    0    0    0  501 -0.00000000000E+00  0.00000000000E+00  0.12595299679E+04  0.12595387371E+04  0.47000000000E+01 0.  1.
          5   -1    0    0  501    0  0.00000000000E+00 -0.00000000000E+00 -0.22831862968E+02  0.23310597732E+02  0.47000000000E+01 0.  1.
         25    2    1    2    0    0  0.50836104465E+02 -0.66982339512E+02  0.91870791485E+03  0.93097808239E+03  0.12500005504E+03 0.  0.
         25    2    1    2    0    0 -0.50836104465E+02  0.66982339512E+02  0.31799019013E+03  0.35187125240E+03  0.12499869569E+03 0.  0.
          5    1    4    4  502    0 -0.39820597448E+02  0.60536140768E+02  0.61885026582E+02  0.95405192915E+02  0.47000000000E+01 0.  1.
         -5    1    4    4    0  502 -0.11015507017E+02  0.64461987445E+01  0.25610516354E+03  0.25646605948E+03  0.47000000000E+01 0.  1.
          5    1    3    3  503    0 -0.19546821871E+02 -0.74813410395E+02  0.55825293874E+03  0.56360230502E+03  0.47000000000E+01 0. -1.
         -5    1    3    3    0  503  0.70382926336E+02  0.78310708825E+01  0.36045497611E+03  0.36737577737E+03  0.47000000000E+01 0. -1.
<mgrwt>
<rscale>  0 0.15065149E+03</rscale>
<asrwt>0</asrwt>
<pdfrwt beam="2">  1        5 0.35500948E-02 0.15065177E+03</pdfrwt>
<pdfrwt beam="1">  1       -5 0.19381133E+00 0.15065177E+03</pdfrwt>
<totfact> 0.45607322E+01</totfact>
</mgrwt>
</event>
<event>
 8    1  0.3588496E-007  0.1684927E+03  0.7546771E-02  0.1179439E+00
          5   -1    0    0  501    0  0.00000000000E+00  0.00000000000E+00  0.42338422565E+03  0.42341031226E+03  0.47000000000E+01 0. -1.
         -5   -1    0    0    0  501 -0.00000000000E+00 -0.00000000000E+00 -0.68248383154E+02  0.68410027066E+02  0.47000000000E+01 0. -1.
         25    2    1    2    0    0 -0.92030849686E+02 -0.65439678716E+02  0.14343788830E+03  0.22127857654E+03  0.12505099676E+03 0.  0.
         25    2    1    2    0    0  0.92030849686E+02  0.65439678716E+02  0.21169795419E+03  0.27054176279E+03  0.12499917103E+03 0.  0.
          5    1    4    4  502    0  0.71634650419E+02  0.21260862449E+02  0.20851798571E+03  0.22155222359E+03  0.47000000000E+01 0.  1.
         -5    1    4    4    0  502  0.20396199266E+02  0.44178816267E+02  0.31799684833E+01  0.48989539198E+02  0.47000000000E+01 0.  1.
          5    1    3    3  503    0 -0.52873784999E+02 -0.46835999467E+02  0.15974152257E+03  0.17472461766E+03  0.47000000000E+01 0.  1.
         -5    1    3    3    0  503 -0.39157064686E+02 -0.18603679249E+02 -0.16303634267E+02  0.46553958873E+02  0.47000000000E+01 0.  1.
<mgrwt>
<rscale>  0 0.16848306E+03</rscale>
<asrwt>0</asrwt>
<pdfrwt beam="1">  1        5 0.65150475E-01 0.16849267E+03</pdfrwt>
<pdfrwt beam="2">  1       -5 0.10514192E-01 0.16849267E+03</pdfrwt>
<totfact> 0.12170218E+02</totfact>
</mgrwt>
</event>
<event>
 8    1  0.3588496E-007  0.1267122E+03  0.7546771E-02  0.1232422E+00
         -5   -1    0    0    0  501 -0.00000000000E+00  0.00000000000E+00  0.91277679354E+02  0.91398603645E+02  0.47000000000E+01 0.  1.
          5   -1    0    0  501    0  0.00000000000E+00 -0.00000000000E+00 -0.23395916139E+03  0.23400636573E+03  0.47000000000E+01 0.  1.
         25    2    1    2    0    0 -0.20606282922E+02 -0.19615759097E+01  0.98746512735E+01  0.12709639392E+03  0.12501007133E+03 0.  0.
         25    2    1    2    0    0  0.20606282922E+02  0.19615759097E+01 -0.15255613331E+03  0.19830857545E+03  0.12499780242E+03 0.  0.
          5    1    4    4  502    0  0.36672160930E+02 -0.42629295098E+02 -0.24197356127E+02  0.61397933445E+02  0.47000000000E+01 0.  1.
         -5    1    4    4    0  502 -0.16065878008E+02  0.44590871008E+02 -0.12835877719E+03  0.13691064201E+03  0.47000000000E+01 0.  1.
          5    1    3    3  503    0 -0.42360253169E+02  0.20611414917E+02 -0.43971166314E+02  0.64612498330E+02  0.47000000000E+01 0.  1.
         -5    1    3    3    0  503  0.21753970247E+02 -0.22572990827E+02  0.53845817588E+02  0.62483895590E+02  0.47000000000E+01 0.  1.
<mgrwt>
<rscale>  0 0.12670919E+03</rscale>
<asrwt>0</asrwt>
<pdfrwt beam="2">  1        5 0.36006650E-01 0.12671221E+03</pdfrwt>
<pdfrwt beam="1">  1       -5 0.14055653E-01 0.12671221E+03</pdfrwt>
<totfact> 0.23183099E+02</totfact>
</mgrwt>
</event>
<event>
 8    1  0.3588496E-007  0.1257557E+03  0.7546771E-02  0.1233895E+00
         -5   -1    0    0    0  501 -0.00000000000E+00  0.00000000000E+00  0.84109245189E+02  0.84240460150E+02  0.47000000000E+01 0. -1.
          5   -1    0    0  501    0  0.00000000000E+00 -0.00000000000E+00 -0.19133590549E+03  0.19139362249E+03  0.47000000000E+01 0. -1.
         25    2    1    2    0    0  0.79094753280E+01 -0.11236944754E+02 -0.34647326677E+02  0.13043681968E+03  0.12499799180E+03 0.  0.
         25    2    1    2    0    0 -0.79094753280E+01  0.11236944754E+02 -0.72579333623E+02  0.14519726296E+03  0.12500262707E+03 0.  0.
          5    1    3    3  502    0 -0.36873017588E+01 -0.14926604136E+02  0.46006435587E+02  0.48734811179E+02  0.47000000000E+01 0.  1.
         -5    1    3    3    0  502  0.11596777087E+02  0.36896593818E+01 -0.80653762263E+02  0.81702008497E+02  0.47000000000E+01 0.  1.
          5    1    4    4  503    0 -0.84377912377E+01  0.27096408383E+02 -0.10496099072E+03  0.10883157281E+03  0.47000000000E+01 0.  1.
         -5    1    4    4    0  503  0.52831590969E+00 -0.15859463629E+02  0.32381657092E+02  0.36365690153E+02  0.47000000000E+01 0.  1.
<mgrwt>
<rscale>  0 0.12575451E+03</rscale>
<asrwt>0</asrwt>
<pdfrwt beam="2">  1        5 0.29450826E-01 0.12575566E+03</pdfrwt>
<pdfrwt beam="1">  1       -5 0.12954417E-01 0.12575566E+03</pdfrwt>
<totfact> 0.39839721E+02</totfact>
</mgrwt>
</event>
<event>
 8    1  0.3588496E-007  0.1326381E+03  0.7546771E-02  0.1223595E+00
          5   -1    0    0  501    0  0.00000000000E+00  0.00000000000E+00  0.25088428880E+03  0.25092830922E+03  0.47000000000E+01 0.  1.
         -5   -1    0    0    0  501 -0.00000000000E+00 -0.00000000000E+00 -0.70670606368E+02  0.70826722389E+02  0.47000000000E+01 0.  1.
         25    2    1    2    0    0  0.38180666868E+02  0.22512985502E+02  0.10585036439E+03  0.16969726387E+03  0.12501305486E+03 0.  0.
         25    2    1    2    0    0 -0.38180666868E+02 -0.22512985502E+02  0.74363318047E+02  0.15205776774E+03  0.12500825501E+03 0.  0.
          5    1    3    3  502    0 -0.16083788776E+02  0.83538154762E+01  0.11156936283E+03  0.11312951524E+03  0.47000000000E+01 0.  1.
         -5    1    3    3    0  502  0.54264455644E+02  0.14159170026E+02 -0.57189984456E+01  0.56567748633E+02  0.47000000000E+01 0.  1.
          5    1    4    4  503    0 -0.68309158277E+02 -0.17958150034E+02 -0.82759101006E+00  0.70791321248E+02  0.47000000000E+01 0. -1.
         -5    1    4    4    0  503  0.30128491409E+02 -0.45548354682E+01  0.75190909057E+02  0.81266446492E+02  0.47000000000E+01 0. -1.
<mgrwt>
<rscale>  0 0.13263695E+03</rscale>
<asrwt>0</asrwt>
<pdfrwt beam="1">  1        5 0.38612978E-01 0.13263809E+03</pdfrwt>
<pdfrwt beam="2">  1       -5 0.10887796E-01 0.13263809E+03</pdfrwt>
<totfact> 0.32208235E+02</totfact>
</mgrwt>
</event>
<event>
 8    1  0.3588496E-007  0.1758303E+03  0.7546771E-02  0.1171902E+00
         -5   -1    0    0    0  501 -0.00000000000E+00  0.00000000000E+00  0.15977836023E+03  0.15984747229E+03  0.47000000000E+01 0.  1.
          5   -1    0    0  501    0  0.00000000000E+00 -0.00000000000E+00 -0.19414832519E+03  0.19420520636E+03  0.47000000000E+01 0.  1.
         25    2    1    2    0    0  0.91843578116E+02 -0.82794428149E+02 -0.58399203464E+01  0.17592279074E+03  0.12499825382E+03 0.  0.
         25    2    1    2    0    0 -0.91843578116E+02  0.82794428149E+02 -0.28530044615E+02  0.17812988791E+03  0.12500453330E+03 0.  0.
          5    1    4    4  502    0 -0.86541894787E+02  0.11183089394E+03 -0.76891169303E+01  0.14169284002E+03  0.47000000000E+01 0. -1.
         -5    1    4    4    0  502 -0.53016833291E+01 -0.29036465794E+02 -0.20840927685E+02  0.36437047887E+02  0.47000000000E+01 0. -1.
          5    1    3    3  503    0  0.62095270499E+02 -0.92965643592E+02 -0.49137463553E+02  0.12220889424E+03  0.47000000000E+01 0.  1.
         -5    1    3    3    0  503  0.29748307617E+02  0.10171215442E+02  0.43297543207E+02  0.53713896502E+02  0.47000000000E+01 0.  1.
<mgrwt>
<rscale>  0 0.17582918E+03</rscale>
<asrwt>0</asrwt>
<pdfrwt beam="2">  1        5 0.29878665E-01 0.17583030E+03</pdfrwt>
<pdfrwt beam="1">  1       -5 0.24590978E-01 0.17583030E+03</pdfrwt>
<totfact> 0.13243149E+02</totfact>
</mgrwt>
</event>
<event>
 8    1  0.3588496E-007  0.1351405E+03  0.7546771E-02  0.1220021E+00
          5   -1    0    0  501    0  0.00000000000E+00  0.00000000000E+00  0.25410874060E+02  0.25841875328E+02  0.47000000000E+01 0. -1.
         -5   -1    0    0    0  501 -0.00000000000E+00 -0.00000000000E+00 -0.89289375963E+03  0.89290612944E+03  0.47000000000E+01 0. -1.
         25    2    1    2    0    0  0.28868965698E+02  0.42478340561E+02 -0.64032765785E+03  0.65443293592E+03  0.12500052646E+03 0.  0.
         25    2    1    2    0    0 -0.28868965698E+02 -0.42478340561E+02 -0.22715522773E+03  0.26431506885E+03  0.12500052616E+03 0.  0.
          5    1    4    4  502    0  0.48491817479E+02 -0.15100682954E+02 -0.10943850925E+03  0.12074089736E+03  0.47000000000E+01 0. -1.
         -5    1    4    4    0  502 -0.77360783177E+02 -0.27377657607E+02 -0.11771671847E+03  0.14357417149E+03  0.47000000000E+01 0. -1.
          5    1    3    3  503    0  0.16948517770E+02  0.58944856096E+02 -0.62624876523E+03  0.62926254796E+03  0.47000000000E+01 0.  1.
         -5    1    3    3    0  503  0.11920447929E+02 -0.16466515535E+02 -0.14078892617E+02  0.25170387959E+02  0.47000000000E+01 0.  1.
<mgrwt>
<rscale>  0 0.13514051E+03</rscale>
<asrwt>0</asrwt>
<pdfrwt beam="1">  1        5 0.39434714E-02 0.13514051E+03</pdfrwt>
<pdfrwt beam="2">  1       -5 0.13740235E+00 0.13514051E+03</pdfrwt>
<totfact> 0.98631971E+01</totfact>
</mgrwt>
</event>
<event>
 8    1  0.3588496E-007  0.1295270E+03  0.7546771E-02  0.1228164E+00
         -5   -1    0    0    0  501 -0.00000000000E+00  0.00000000000E+00  0.28640025314E+03  0.28643881545E+03  0.47000000000E+01 0.  1.
          5   -1    0    0  501    0  0.00000000000E+00 -0.00000000000E+00 -0.58659799084E+02  0.58847786947E+02  0.47000000000E+01 0.  1.
         25    2    1    2    0    0 -0.28517504199E+01  0.33778871774E+02  0.12449040881E+03  0.17965276417E+03  0.12501243590E+03 0.  0.
         25    2    1    2    0    0  0.28517504199E+01 -0.33778871774E+02  0.10325004524E+03  0.16563383822E+03  0.12499940745E+03 0.  0.
          5    1    3    3  502    0  0.13425595114E+02  0.68274392168E+02  0.12275438463E+03  0.14118203914E+03  0.47000000000E+01 0.  1.
         -5    1    3    3    0  502 -0.16277345534E+02 -0.34495520394E+02  0.17360241837E+01  0.38470725036E+02  0.47000000000E+01 0.  1.
          5    1    4    4  503    0  0.23227756879E+02  0.38191178491E+02  0.10083052280E+02  0.46063572890E+02  0.47000000000E+01 0.  1.
         -5    1    4    4    0  503 -0.20376006459E+02 -0.71970050265E+02  0.93166992962E+02  0.11957026533E+03  0.47000000000E+01 0.  1.
<mgrwt>
<rscale>  0 0.12952390E+03</rscale>
<asrwt>0</asrwt>
<pdfrwt beam="2">  1        5 0.90420111E-02 0.12952704E+03</pdfrwt>
<pdfrwt beam="1">  1       -5 0.44079006E-01 0.12952704E+03</pdfrwt>
<totfact> 0.33631338E+02</totfact>
</mgrwt>
</event>
<event>
 8    1  0.3588496E-007  0.2662991E+03  0.7546771E-02  0.1103418E+00
         -5   -1    0    0    0  501 -0.00000000000E+00  0.00000000000E+00  0.99873000059E+03  0.99874105957E+03  0.47000000000E+01 0.  1.
          5   -1    0    0  501    0  0.00000000000E+00 -0.00000000000E+00 -0.91009831503E+02  0.91131111209E+02  0.47000000000E+01 0.  1.
         25    2    1    2    0    0 -0.10344638735E+03  0.21116147552E+03  0.70971059169E+03  0.75802432222E+03  0.12498570043E+03 0.  0.
         25    2    1    2    0    0  0.10344638735E+03 -0.21116147552E+03  0.19800957739E+03  0.33184784856E+03  0.12499951222E+03 0.  0.
          5    1    4    4  502    0  0.83964721318E+01 -0.12163062985E+03  0.14832359675E+03  0.19205855934E+03  0.47000000000E+01 0.  1.
         -5    1    4    4    0  502  0.95049915218E+02 -0.89530845670E+02  0.49685980647E+02  0.13978928923E+03  0.47000000000E+01 0.  1.
          5    1    3    3  503    0 -0.12288475943E+03  0.12583510876E+03  0.52219335350E+03  0.55103822656E+03  0.47000000000E+01 0.  1.
         -5    1    3    3    0  503  0.19438372077E+02  0.85326366767E+02  0.18751723819E+03  0.20698609566E+03  0.47000000000E+01 0.  1.
<mgrwt>
<rscale>  0 0.26629746E+03</rscale>
<asrwt>0</asrwt>
<pdfrwt beam="2">  1        5 0.14011693E-01 0.26629908E+03</pdfrwt>
<pdfrwt beam="1">  1       -5 0.15366095E+00 0.26629908E+03</pdfrwt>
<totfact> 0.97478820E+00</totfact>
</mgrwt>
</event>
<event>
 8    1  0.3588496E-007  0.1935841E+03  0.7546771E-02  0.1155269E+00
          5   -1    0    0  501    0  0.00000000000E+00  0.00000000000E+00  0.39770966754E+03  0.39773743809E+03  0.47000000000E+01 0. -1.
         -5   -1    0    0    0  501 -0.00000000000E+00 -0.00000000000E+00 -0.94159633746E+02  0.94276861569E+02  0.47000000000E+01 0. -1.
         25    2    1    2    0    0  0.14679240924E+03 -0.17341603794E+02  0.15571807152E+03  0.24843869013E+03  0.12499968930E+03 0.  0.
         25    2    1    2    0    0 -0.14679240924E+03  0.17341603794E+02  0.14783196228E+03  0.24357560952E+03  0.12500418333E+03 0.  0.
          5    1    4    4  502    0 -0.13379426769E+03  0.53948569804E+02  0.79371943620E+02  0.16472203764E+03  0.47000000000E+01 0. -1.
         -5    1    4    4    0  502 -0.12998141555E+02 -0.36606966009E+02  0.68460018659E+02  0.78853571885E+02  0.47000000000E+01 0. -1.
          5    1    3    3  503    0  0.84744611275E+02 -0.62600305093E+02  0.47529077471E+02  0.11567865206E+03  0.47000000000E+01 0.  1.
         -5    1    3    3    0  503  0.62047797966E+02  0.45258701299E+02  0.10818899405E+03  0.13276003807E+03  0.47000000000E+01 0.  1.
<mgrwt>
<rscale>  0 0.19358334E+03</rscale>
<asrwt>0</asrwt>
<pdfrwt beam="1">  1        5 0.61197255E-01 0.19358406E+03</pdfrwt>
<pdfrwt beam="2">  1       -5 0.14497251E-01 0.19358406E+03</pdfrwt>
<totfact> 0.82024065E+01</totfact>
</mgrwt>
</event>
<event>
 8    1  0.3588496E-007  0.1494194E+03  0.7546771E-02  0.1201189E+00
          5   -1    0    0  501    0  0.00000000000E+00  0.00000000000E+00  0.44321282155E+02  0.44569788556E+02  0.47000000000E+01 0. -1.
         -5   -1    0    0    0  501 -0.00000000000E+00 -0.00000000000E+00 -0.50385149163E+03  0.50387341230E+03  0.47000000000E+01 0. -1.
         25    2    1    2    0    0  0.77217590735E+02 -0.27157319852E+02 -0.21339163915E+03  0.26050164026E+03  0.12500014633E+03 0.  0.
         25    2    1    2    0    0 -0.77217590735E+02  0.27157319852E+02 -0.24613857033E+03  0.28794156059E+03  0.12500428061E+03 0.  0.
          5    1    3    3  502    0 -0.26725078001E+02  0.20960915687E+02 -0.58405886310E+02  0.67726858308E+02  0.47000000000E+01 0.  1.
         -5    1    3    3    0  502  0.10394266874E+03 -0.48118235539E+02 -0.15498575284E+03  0.19277478196E+03  0.47000000000E+01 0.  1.
          5    1    4    4  503    0 -0.81085214706E+02 -0.15701972518E+02 -0.75843596929E+02  0.11223058932E+03  0.47000000000E+01 0. -1.
         -5    1    4    4    0  503  0.38676239711E+01  0.42859292370E+02 -0.17029497340E+03  0.17571097126E+03  0.47000000000E+01 0. -1.
<mgrwt>
<rscale>  0 0.14941850E+03</rscale>
<asrwt>0</asrwt>
<pdfrwt beam="1">  1        5 0.68394612E-02 0.14941936E+03</pdfrwt>
<pdfrwt beam="2">  1       -5 0.77536412E-01 0.14941936E+03</pdfrwt>
<totfact> 0.16608646E+02</totfact>
</mgrwt>
</event>
<event>
 8    1  0.3588496E-007  0.1370749E+03  0.7546771E-02  0.1217323E+00
          5   -1    0    0  501    0  0.00000000000E+00  0.00000000000E+00  0.13949584389E+03  0.13957499942E+03  0.47000000000E+01 0. -1.
         -5   -1    0    0    0  501 -0.00000000000E+00 -0.00000000000E+00 -0.13727244037E+03  0.13735287724E+03  0.47000000000E+01 0. -1.
         25    2    1    2    0    0 -0.25533450374E+02 -0.50125862003E+02 -0.18446872287E+02  0.13830326077E+03  0.12499178258E+03 0.  0.
         25    2    1    2    0    0  0.25533450374E+02  0.50125862003E+02  0.20670275812E+02  0.13862461589E+03  0.12499985879E+03 0.  0.
          5    1    3    3  502    0 -0.73079617153E+02 -0.29605934551E+02 -0.30928625885E+02  0.84828130376E+02  0.47000000000E+01 0. -1.
         -5    1    3    3    0  502  0.47546166779E+02 -0.20519927452E+02  0.12481753597E+02  0.53475130396E+02  0.47000000000E+01 0. -1.
          5    1    4    4  503    0  0.73073292379E+02  0.30160701936E+02 -0.77338441334E+01  0.79569317865E+02  0.47000000000E+01 0. -1.
         -5    1    4    4    0  503 -0.47539842005E+02  0.19965160067E+02  0.28404119945E+02  0.59055298020E+02  0.47000000000E+01 0. -1.
<mgrwt>
<rscale>  0 0.13707304E+03</rscale>
<asrwt>0</asrwt>
<pdfrwt beam="1">  1        5 0.21473175E-01 0.13707488E+03</pdfrwt>
<pdfrwt beam="2">  1       -5 0.21131113E-01 0.13707488E+03</pdfrwt>
<totfact> 0.30782331E+02</totfact>
</mgrwt>
</event>
<event>
 8    1  0.3588496E-007  0.1583875E+03  0.7546771E-02  0.1190536E+00
          5   -1    0    0  501    0  0.00000000000E+00  0.00000000000E+00  0.72807163164E+02  0.72958707554E+02  0.47000000000E+01 0. -1.
         -5   -1    0    0    0  501 -0.00000000000E+00 -0.00000000000E+00 -0.88650163458E+03  0.88651409358E+03  0.47000000000E+01 0. -1.
         25    2    1    2    0    0 -0.96393516631E+02  0.12751334887E+02 -0.78209033816E+03  0.79796296112E+03  0.12500113477E+03 0.  0.
         25    2    1    2    0    0  0.96393516631E+02 -0.12751334887E+02 -0.31604133256E+02  0.16150984001E+03  0.12502919895E+03 0.  0.
          5    1    4    4  502    0 -0.24728389814E+02  0.17831596156E+02  0.49991067492E+01  0.31249642439E+02  0.47000000000E+01 0.  1.
         -5    1    4    4    0  502  0.12112190645E+03 -0.30582931043E+02 -0.36603240006E+02  0.13026019757E+03  0.47000000000E+01 0.  1.
          5    1    3    3  503    0  0.64628117509E+01  0.27638247393E+01 -0.45119790528E+03  0.45127712815E+03  0.47000000000E+01 0. -1.
         -5    1    3    3    0  503 -0.10285632838E+03  0.99875101477E+01 -0.33089243288E+03  0.34668583297E+03  0.47000000000E+01 0. -1.
<mgrwt>
<rscale>  0 0.15838198E+03</rscale>
<asrwt>0</asrwt>
<pdfrwt beam="1">  1        5 0.11213718E-01 0.15838752E+03</pdfrwt>
<pdfrwt beam="2">  1       -5 0.13639748E+00 0.15838752E+03</pdfrwt>
<totfact> 0.17886350E+01</totfact>
</mgrwt>
</event>
<event>
 8    1  0.3588496E-007  0.1263889E+03  0.7546771E-02  0.1232917E+00
          5   -1    0    0  501    0  0.00000000000E+00  0.00000000000E+00  0.32929272446E+02  0.33262997216E+02  0.47000000000E+01 0.  1.
         -5   -1    0    0    0  501 -0.00000000000E+00 -0.00000000000E+00 -0.48381253891E+03  0.48383536746E+03  0.47000000000E+01 0.  1.
         25    2    1    2    0    0 -0.17910534788E+02 -0.53454919595E+01 -0.23992024725E+03  0.27117247379E+03  0.12499369569E+03 0.  0.
         25    2    1    2    0    0  0.17910534788E+02  0.53454919595E+01 -0.21096301922E+03  0.24592589088E+03  0.12499914716E+03 0.  0.
          5    1    4    4  502    0 -0.13024145729E+02 -0.45098044882E+02 -0.31059354880E+02  0.56482170193E+02  0.47000000000E+01 0.  1.
         -5    1    4    4    0  502  0.30934680517E+02  0.50443536842E+02 -0.17990366433E+03  0.18944372069E+03  0.47000000000E+01 0.  1.
          5    1    3    3  503    0 -0.62196903579E+02 -0.26407483657E+02 -0.18691167977E+03  0.19880612677E+03  0.47000000000E+01 0.  1.
         -5    1    3    3    0  503  0.44286368792E+02  0.21061991697E+02 -0.53008567478E+02  0.72366347020E+02  0.47000000000E+01 0.  1.
<mgrwt>
<rscale>  0 0.12638753E+03</rscale>
<asrwt>0</asrwt>
<pdfrwt beam="1">  1        5 0.50934694E-02 0.12638888E+03</pdfrwt>
<pdfrwt beam="2">  1       -5 0.74460120E-01 0.12638888E+03</pdfrwt>
<totfact> 0.28239363E+02</totfact>
</mgrwt>
</event>
<event>
 8    1  0.3588496E-007  0.1688922E+03  0.7546771E-02  0.1179008E+00
          5   -1    0    0  501    0  0.00000000000E+00  0.00000000000E+00  0.26349804110E+03  0.26353995458E+03  0.47000000000E+01 0.  1.
         -5   -1    0    0    0  501 -0.00000000000E+00 -0.00000000000E+00 -0.19585613227E+03  0.19591251759E+03  0.47000000000E+01 0.  1.
         25    2    1    2    0    0 -0.11201055010E+03 -0.18760981876E+02 -0.11985981681E+03  0.20710056776E+03  0.12500372677E+03 0.  0.
         25    2    1    2    0    0  0.11201055010E+03  0.18760981876E+02  0.18750172564E+03  0.25235190441E+03  0.12500499497E+03 0.  0.
          5    1    4    4  502    0  0.46255080508E+02  0.26185512951E+02 -0.10607950232E+00  0.53360236264E+02  0.47000000000E+01 0.  1.
         -5    1    4    4    0  502  0.65755469593E+02 -0.74245310751E+01  0.18760780514E+03  0.19899166815E+03  0.47000000000E+01 0.  1.
          5    1    3    3  503    0  0.10559258056E+02 -0.12193425170E+02  0.16516778114E+02  0.23559955589E+02  0.47000000000E+01 0. -1.
         -5    1    3    3    0  503 -0.12256980816E+03 -0.65675567061E+01 -0.13637659493E+03  0.18354061217E+03  0.47000000000E+01 0. -1.
<mgrwt>
<rscale>  0 0.16889200E+03</rscale>
<asrwt>0</asrwt>
<pdfrwt beam="1">  1        5 0.40545722E-01 0.16889223E+03</pdfrwt>
<pdfrwt beam="2">  1       -5 0.30139274E-01 0.16889223E+03</pdfrwt>
<totfact> 0.47674203E+01</totfact>
</mgrwt>
</event>
<event>
 8    1  0.3588496E-007  0.1345921E+03  0.7546771E-02  0.1220817E+00
         -5   -1    0    0    0  501 -0.00000000000E+00  0.00000000000E+00  0.11241131411E+04  0.11241229666E+04  0.47000000000E+01 0. -1.
          5   -1    0    0  501    0  0.00000000000E+00 -0.00000000000E+00 -0.17073668199E+02  0.17708759013E+02  0.47000000000E+01 0. -1.
         25    2    1    2    0    0 -0.22208582089E+01  0.49696204133E+02  0.70926323446E+03  0.72192060467E+03  0.12506149995E+03 0.  0.
         25    2    1    2    0    0  0.22208582089E+01 -0.49696204133E+02  0.39777623846E+03  0.41991112095E+03  0.12499907477E+03 0.  0.
          5    1    3    3  502    0  0.27238110407E+02 -0.11432642567E+02  0.44091431929E+02  0.53280055782E+02  0.47000000000E+01 0.  1.
         -5    1    3    3    0  502 -0.29458968616E+02  0.61128846700E+02  0.66517180253E+03  0.66864054889E+03  0.47000000000E+01 0.  1.
          5    1    4    4  503    0  0.47331135666E+02 -0.35611517166E+02  0.85947777056E+02  0.10448697019E+03  0.47000000000E+01 0. -1.
         -5    1    4    4    0  503 -0.45110277457E+02 -0.14084686967E+02  0.31182846140E+03  0.31542415076E+03  0.47000000000E+01 0. -1.
<mgrwt>
<rscale>  0 0.13457756E+03</rscale>
<asrwt>0</asrwt>
<pdfrwt beam="2">  1        5 0.26763275E-02 0.13459206E+03</pdfrwt>
<pdfrwt beam="1">  1       -5 0.17299007E+00 0.13459206E+03</pdfrwt>
<totfact> 0.97776022E+01</totfact>
</mgrwt>
</event>
<event>
 8    1  0.3588496E-007  0.1531286E+03  0.7546771E-02  0.1196681E+00
          5   -1    0    0  501    0  0.00000000000E+00  0.00000000000E+00  0.11635523957E+03  0.11645012570E+03  0.47000000000E+01 0.  1.
         -5   -1    0    0    0  501 -0.00000000000E+00 -0.00000000000E+00 -0.20306731989E+03  0.20312170344E+03  0.47000000000E+01 0.  1.
         25    2    1    2    0    0  0.35981289630E+02 -0.80798530654E+02 -0.58188150980E+02  0.16380928099E+03  0.12499825544E+03 0.  0.
         25    2    1    2    0    0 -0.35981289630E+02  0.80798530654E+02 -0.28523929347E+02  0.15576254815E+03  0.12500120440E+03 0.  0.
          5    1    3    3  502    0  0.26274148302E+02 -0.40641357806E+02  0.36233113427E+02  0.60638101404E+02  0.47000000000E+01 0. -1.
         -5    1    3    3    0  502  0.97071413283E+01 -0.40157172848E+02 -0.94421264407E+02  0.10317117958E+03  0.47000000000E+01 0. -1.
          5    1    4    4  503    0  0.13770655823E+02  0.42420591802E+02 -0.67964313830E+02  0.81427117872E+02  0.47000000000E+01 0. -1.
         -5    1    4    4    0  503 -0.49751945453E+02  0.38377938852E+02  0.39440384482E+02  0.74335430281E+02  0.47000000000E+01 0. -1.
<mgrwt>
<rscale>  0 0.15312796E+03</rscale>
<asrwt>0</asrwt>
<pdfrwt beam="1">  1        5 0.17912288E-01 0.15312856E+03</pdfrwt>
<pdfrwt beam="2">  1       -5 0.31252608E-01 0.15312856E+03</pdfrwt>
<totfact> 0.21085469E+02</totfact>
</mgrwt>
</event>
<event>
 8    1  0.3588496E-007  0.1343533E+03  0.7546771E-02  0.1221143E+00
          5   -1    0    0  501    0  0.00000000000E+00  0.00000000000E+00  0.11860302876E+03  0.11869611801E+03  0.47000000000E+01 0. -1.
         -5   -1    0    0    0  501 -0.00000000000E+00 -0.00000000000E+00 -0.22362093350E+03  0.22367031966E+03  0.47000000000E+01 0. -1.
         25    2    1    2    0    0 -0.11288242818E+01 -0.49191032362E+02 -0.14936916605E+03  0.20090284014E+03  0.12501908454E+03 0.  0.
         25    2    1    2    0    0  0.11288242818E+01  0.49191032362E+02  0.44351261311E+02  0.14146359754E+03  0.12499553248E+03 0.  0.
          5    1    3    3  502    0  0.35965485884E+02  0.16289271000E+02 -0.78207389927E+01  0.40522962416E+02  0.47000000000E+01 0. -1.
         -5    1    3    3    0  502 -0.37094310166E+02 -0.65480303362E+02 -0.14154842706E+03  0.16037987772E+03  0.47000000000E+01 0. -1.
          5    1    4    4  503    0 -0.34820727968E+02  0.55184614642E+02 -0.19088763079E+02  0.68149069439E+02  0.47000000000E+01 0. -1.
         -5    1    4    4    0  503  0.35949552250E+02 -0.59935822806E+01  0.63440024390E+02  0.73314528097E+02  0.47000000000E+01 0. -1.
<mgrwt>
<rscale>  0 0.13434780E+03</rscale>
<asrwt>0</asrwt>
<pdfrwt beam="1">  1        5 0.18257579E-01 0.13435328E+03</pdfrwt>
<pdfrwt beam="2">  1       -5 0.34414180E-01 0.13435328E+03</pdfrwt>
<totfact> 0.16094494E+02</totfact>
</mgrwt>
</event>
<event>
 8    1  0.3588496E-007  0.1362021E+03  0.7546771E-02  0.1218534E+00
          5   -1    0    0  501    0  0.00000000000E+00  0.00000000000E+00  0.50375832384E+03  0.50378024856E+03  0.47000000000E+01 0. -1.
         -5   -1    0    0    0  501 -0.00000000000E+00 -0.00000000000E+00 -0.37271836076E+02  0.37567003666E+02  0.47000000000E+01 0. -1.
         25    2    1    2    0    0 -0.39249304842E+01 -0.53945590540E+02  0.19846954848E+03  0.24070971839E+03  0.12500190013E+03 0.  0.
         25    2    1    2    0    0  0.39249304842E+01  0.53945590540E+02  0.26801693928E+03  0.30063753383E+03  0.12499726072E+03 0.  0.
          5    1    3    3  502    0  0.36531185740E+02 -0.77126633992E+02  0.99250102418E+02  0.13097983827E+03  0.47000000000E+01 0.  1.
         -5    1    3    3    0  502 -0.40456116224E+02  0.23181043452E+02  0.99219446064E+02  0.10972988013E+03  0.47000000000E+01 0.  1.
          5    1    4    4  503    0  0.35925635419E+02  0.69754745944E+02  0.92134097868E+02  0.12110804206E+03  0.47000000000E+01 0. -1.
         -5    1    4    4    0  503 -0.32000704935E+02 -0.15809155404E+02  0.17588284141E+03  0.17952949177E+03  0.47000000000E+01 0. -1.
<mgrwt>
<rscale>  0 0.13620102E+03</rscale>
<asrwt>0</asrwt>
<pdfrwt beam="1">  1        5 0.77525669E-01 0.13620208E+03</pdfrwt>
<pdfrwt beam="2">  1       -5 0.57585206E-02 0.13620208E+03</pdfrwt>
<totfact> 0.21540884E+02</totfact>
</mgrwt>
</event>
<event>
 8    1  0.3588496E-007  0.1903761E+03  0.7546771E-02  0.1158123E+00
          5   -1    0    0  501    0  0.00000000000E+00  0.00000000000E+00  0.22413555442E+03  0.22418482722E+03  0.47000000000E+01 0. -1.
         -5   -1    0    0    0  501 -0.00000000000E+00 -0.00000000000E+00 -0.16170225585E+03  0.16177054598E+03  0.47000000000E+01 0. -1.
         25    2    1    2    0    0  0.12813612532E+03 -0.64799790878E+02  0.26366042821E+02  0.19219285034E+03  0.12500017598E+03 0.  0.
         25    2    1    2    0    0 -0.12813612532E+03  0.64799790878E+02  0.36067255756E+02  0.19376252287E+03  0.12500075527E+03 0.  0.
          5    1    3    3  502    0  0.92913106920E+02  0.10872546839E+02  0.48826732541E+02  0.10562763617E+03  0.47000000000E+01 0.  1.
         -5    1    3    3    0  502  0.35223018401E+02 -0.75672337717E+02 -0.22460689719E+02  0.86565214166E+02  0.47000000000E+01 0.  1.
          5    1    4    4  503    0 -0.14054783649E+03  0.80682726808E+02  0.12816687941E+02  0.16263380411E+03  0.47000000000E+01 0.  1.
         -5    1    4    4    0  503  0.12411711172E+02 -0.15882935930E+02  0.23250567814E+02  0.31128718760E+02  0.47000000000E+01 0.  1.
<mgrwt>
<rscale>  0 0.19037603E+03</rscale>
<asrwt>0</asrwt>
<pdfrwt beam="1">  1        5 0.34491436E-01 0.19037612E+03</pdfrwt>
<pdfrwt beam="2">  1       -5 0.24886314E-01 0.19037612E+03</pdfrwt>
<totfact> 0.99536900E+01</totfact>
</mgrwt>
</event>
<event>
 8    1  0.3588496E-007  0.1320080E+03  0.7546771E-02  0.1224507E+00
         -5   -1    0    0    0  501 -0.00000000000E+00  0.00000000000E+00  0.63096711833E+03  0.63098462296E+03  0.47000000000E+01 0. -1.
          5   -1    0    0  501    0  0.00000000000E+00 -0.00000000000E+00 -0.29019846707E+02  0.29397984674E+02  0.47000000000E+01 0. -1.
         25    2    1    2    0    0  0.14674515086E+02 -0.39805777186E+02  0.37845053550E+03  0.40081282368E+03  0.12500508198E+03 0.  0.
         25    2    1    2    0    0 -0.14674515086E+02  0.39805777186E+02  0.22349673612E+03  0.25956978395E+03  0.12500336152E+03 0.  0.
          5    1    4    4  502    0  0.39695555818E+02 -0.23947659130E+02  0.61868618801E+02  0.77453492638E+02  0.47000000000E+01 0.  1.
         -5    1    4    4    0  502 -0.54370070905E+02  0.63753436316E+02  0.16162811732E+03  0.18211629131E+03  0.47000000000E+01 0.  1.
          5    1    3    3  503    0  0.25013873513E+02  0.16571964517E+02  0.16979418453E+02  0.34795323351E+02  0.47000000000E+01 0.  1.
         -5    1    3    3    0  503 -0.10339358427E+02 -0.56377741702E+02  0.36147111705E+03  0.36601750033E+03  0.47000000000E+01 0.  1.
<mgrwt>
<rscale>  0 0.13200759E+03</rscale>
<asrwt>0</asrwt>
<pdfrwt beam="2">  1        5 0.44950263E-02 0.13200800E+03</pdfrwt>
<pdfrwt beam="1">  1       -5 0.97102288E-01 0.13200800E+03</pdfrwt>
<totfact> 0.18944559E+02</totfact>
</mgrwt>
</event>
<event>
 8    1  0.3588496E-007  0.1294419E+03  0.7546771E-02  0.1228307E+00
         -5   -1    0    0    0  501 -0.00000000000E+00  0.00000000000E+00  0.51712464912E+03  0.51714600716E+03  0.47000000000E+01 0. -1.
          5   -1    0    0  501    0  0.00000000000E+00 -0.00000000000E+00 -0.32350493918E+02  0.32690127818E+02  0.47000000000E+01 0. -1.
         25    2    1    2    0    0  0.14555070761E+02  0.30360885885E+02  0.26142740431E+03  0.29171817417E+03  0.12498628701E+03 0.  0.
         25    2    1    2    0    0 -0.14555070761E+02 -0.30360885885E+02  0.22334675089E+03  0.25811796081E+03  0.12492988867E+03 0.  0.
          5    1    3    3  502    0  0.65931412040E+02 -0.59312266638E+01  0.13368137804E+03  0.14924788568E+03  0.47000000000E+01 0.  1.
         -5    1    3    3    0  502 -0.51376341279E+02  0.36292112549E+02  0.12774602627E+03  0.14247028849E+03  0.47000000000E+01 0.  1.
          5    1    4    4  503    0 -0.23403325204E+02 -0.72852093718E+02  0.92271007180E+02  0.11996321084E+03  0.47000000000E+01 0. -1.
         -5    1    4    4    0  503  0.88482544423E+01  0.42491207833E+02  0.13107574371E+03  0.13815474997E+03  0.47000000000E+01 0. -1.
<mgrwt>
<rscale>  0 0.12942828E+03</rscale>
<asrwt>0</asrwt>
<pdfrwt beam="2">  1        5 0.50047678E-02 0.12944190E+03</pdfrwt>
<pdfrwt beam="1">  1       -5 0.79585405E-01 0.12944190E+03</pdfrwt>
<totfact> 0.25176196E+02</totfact>
</mgrwt>
</event>
<event>
 8    1  0.3588496E-007  0.1459931E+03  0.7546771E-02  0.1205485E+00
         -5   -1    0    0    0  501 -0.00000000000E+00  0.00000000000E+00  0.16446834472E+03  0.16453548680E+03  0.47000000000E+01 0. -1.
          5   -1    0    0  501    0  0.00000000000E+00 -0.00000000000E+00 -0.13164615952E+03  0.13173003195E+03  0.47000000000E+01 0. -1.
         25    2    1    2    0    0  0.60915158949E+02 -0.44480017766E+02  0.35504855918E+02  0.15024842437E+03  0.12499946264E+03 0.  0.
         25    2    1    2    0    0 -0.60915158949E+02  0.44480017766E+02 -0.26826707180E+01  0.14601709438E+03  0.12499866623E+03 0.  0.
          5    1    4    4  502    0  0.45935995800E+01  0.55820268896E+02  0.38080068898E+02  0.67890980432E+02  0.47000000000E+01 0.  1.
         -5    1    4    4    0  502 -0.65508758529E+02 -0.11340251130E+02 -0.40762739616E+02  0.78126113948E+02  0.47000000000E+01 0.  1.
          5    1    3    3  503    0  0.59671074925E+02 -0.84853481206E+02  0.34999511115E+02  0.10958013613E+03  0.47000000000E+01 0. -1.
         -5    1    3    3    0  503  0.12440840240E+01  0.40373463439E+02  0.50534480296E+00  0.40668288242E+02  0.47000000000E+01 0. -1.
<mgrwt>
<rscale>  0 0.14599296E+03</rscale>
<asrwt>0</asrwt>
<pdfrwt beam="2">  1        5 0.20264872E-01 0.14599313E+03</pdfrwt>
<pdfrwt beam="1">  1       -5 0.25314439E-01 0.14599313E+03</pdfrwt>
<totfact> 0.24877345E+02</totfact>
</mgrwt>
</event>
<event>
 8    1  0.3588496E-007  0.1943395E+03  0.7546771E-02  0.1154605E+00
          5   -1    0    0  501    0  0.00000000000E+00  0.00000000000E+00  0.15249064372E+03  0.15256305720E+03  0.47000000000E+01 0. -1.
         -5   -1    0    0    0  501 -0.00000000000E+00 -0.00000000000E+00 -0.33362717568E+03  0.33366027986E+03  0.47000000000E+01 0. -1.
         25    2    1    2    0    0 -0.14779594021E+03 -0.17262793304E+02 -0.21405810234E+03  0.28911507858E+03  0.12500005403E+03 0.  0.
         25    2    1    2    0    0  0.14779594021E+03  0.17262793304E+02  0.32921570370E+02  0.19710825848E+03  0.12500476707E+03 0.  0.
          5    1    4    4  502    0  0.16474459629E+03 -0.49408940318E+01  0.20416272965E+02  0.16614484236E+03  0.47000000000E+01 0.  1.
         -5    1    4    4    0  502 -0.16948656085E+02  0.22203687336E+02  0.12505297405E+02  0.30963416116E+02  0.47000000000E+01 0.  1.
          5    1    3    3  503    0 -0.81057477540E+02 -0.53301599393E+02 -0.18268831156E+03  0.20690211295E+03  0.47000000000E+01 0.  1.
         -5    1    3    3    0  503 -0.66738462668E+02  0.36038806089E+02 -0.31369790781E+02  0.82212965627E+02  0.47000000000E+01 0.  1.
<mgrwt>
<rscale>  0 0.19433873E+03</rscale>
<asrwt>0</asrwt>
<pdfrwt beam="1">  1        5 0.23468216E-01 0.19433949E+03</pdfrwt>
<pdfrwt beam="2">  1       -5 0.51335375E-01 0.19433949E+03</pdfrwt>
<totfact> 0.49087661E+01</totfact>
</mgrwt>
</event>
<event>
 8    1  0.3588496E-007  0.1250642E+03  0.7546771E-02  0.1234976E+00
         -5   -1    0    0    0  501 -0.00000000000E+00  0.00000000000E+00  0.15623710659E+03  0.15630778444E+03  0.47000000000E+01 0.  1.
          5   -1    0    0  501    0  0.00000000000E+00 -0.00000000000E+00 -0.12287574683E+03  0.12296560152E+03  0.47000000000E+01 0.  1.
         25    2    1    2    0    0 -0.28339000034E+01 -0.20103160395E+01  0.76956988958E+02  0.14684489486E+03  0.12501588954E+03 0.  0.
         25    2    1    2    0    0  0.28339000034E+01  0.20103160395E+01 -0.43595629196E+02  0.13242849110E+03  0.12499861603E+03 0.  0.
          5    1    4    4  502    0 -0.23035717243E+02 -0.48243624707E+02  0.97735683469E+01  0.54550015876E+02  0.47000000000E+01 0. -1.
         -5    1    4    4    0  502  0.25869617246E+02  0.50253940747E+02 -0.53369197543E+02  0.77878475225E+02  0.47000000000E+01 0. -1.
          5    1    3    3  503    0  0.40507471013E+02 -0.76754184105E+01  0.91557464834E+02  0.10052177188E+03  0.47000000000E+01 0.  1.
         -5    1    3    3    0  503 -0.43341371017E+02  0.56651023710E+01 -0.14600475876E+02  0.46323122976E+02  0.47000000000E+01 0.  1.
<mgrwt>
<rscale>  0 0.12505985E+03</rscale>
<asrwt>0</asrwt>
<pdfrwt beam="2">  1        5 0.18916310E-01 0.12506416E+03</pdfrwt>
<pdfrwt beam="1">  1       -5 0.24048826E-01 0.12506416E+03</pdfrwt>
<totfact> 0.29554993E+02</totfact>
</mgrwt>
</event>
<event>
 8    1  0.3588496E-007  0.1370897E+03  0.7546771E-02  0.1217303E+00
         -5   -1    0    0    0  501 -0.00000000000E+00  0.00000000000E+00  0.19187177207E+03  0.19192932793E+03  0.47000000000E+01 0.  1.
          5   -1    0    0  501    0  0.00000000000E+00 -0.00000000000E+00 -0.15401813582E+03  0.15408983147E+03  0.47000000000E+01 0.  1.
         25    2    1    2    0    0 -0.42296187055E+02  0.37113911113E+02  0.12338876133E+03  0.18443377113E+03  0.12499847868E+03 0.  0.
         25    2    1    2    0    0  0.42296187055E+02 -0.37113911113E+02 -0.85535125076E+02  0.16158538827E+03  0.12500868067E+03 0.  0.
          5    1    3    3  502    0 -0.54774392395E+02  0.58463395581E+02  0.26783248217E+02  0.84602807697E+02  0.47000000000E+01 0. -1.
         -5    1    3    3    0  502  0.12478205340E+02 -0.21349484469E+02  0.96605513112E+02  0.99830963429E+02  0.47000000000E+01 0. -1.
          5    1    4    4  503    0  0.43939814625E+01 -0.79537565290E+02 -0.45438638983E+02  0.91827508286E+02  0.47000000000E+01 0.  1.
         -5    1    4    4    0  503  0.37902205593E+02  0.42423654178E+02 -0.40096486093E+02  0.69757879982E+02  0.47000000000E+01 0.  1.
<mgrwt>
<rscale>  0 0.13708735E+03</rscale>
<asrwt>0</asrwt>
<pdfrwt beam="2">  1        5 0.23705040E-01 0.13708968E+03</pdfrwt>
<pdfrwt beam="1">  1       -5 0.29528677E-01 0.13708968E+03</pdfrwt>
<totfact> 0.13444498E+02</totfact>
</mgrwt>
</event>
<event>
 8    1  0.3588496E-007  0.1375118E+03  0.7546771E-02  0.1216718E+00
         -5   -1    0    0    0  501 -0.00000000000E+00  0.00000000000E+00  0.18413278261E+03  0.18419275673E+03  0.47000000000E+01 0.  1.
          5   -1    0    0  501    0  0.00000000000E+00 -0.00000000000E+00 -0.10281467928E+03  0.10292204951E+03  0.47000000000E+01 0.  1.
         25    2    1    2    0    0 -0.23722655942E+02  0.52164748153E+02  0.47786397701E+02  0.14557830171E+03  0.12500230706E+03 0.  0.
         25    2    1    2    0    0  0.23722655942E+02 -0.52164748153E+02  0.33531705627E+02  0.14153650452E+03  0.12499712587E+03 0.  0.
          5    1    4    4  502    0 -0.16771840096E+01 -0.26185242945E+02 -0.46454603187E+02  0.53559313397E+02  0.47000000000E+01 0.  1.
         -5    1    4    4    0  502  0.25399839951E+02 -0.25979505208E+02  0.79986308815E+02  0.87977191125E+02  0.47000000000E+01 0.  1.
          5    1    3    3  503    0 -0.27856885852E+02  0.42497104776E+02 -0.35073814920E+02  0.61921502701E+02  0.47000000000E+01 0. -1.
         -5    1    3    3    0  503  0.41342299098E+01  0.96676433765E+01  0.82860212622E+02  0.83656799013E+02  0.47000000000E+01 0. -1.
<mgrwt>
<rscale>  0 0.13751065E+03</rscale>
<asrwt>0</asrwt>
<pdfrwt beam="2">  1        5 0.15830516E-01 0.13751183E+03</pdfrwt>
<pdfrwt beam="1">  1       -5 0.28340993E-01 0.13751183E+03</pdfrwt>
<totfact> 0.30901821E+02</totfact>
</mgrwt>
</event>
<event>
 8    1  0.3588496E-007  0.1414982E+03  0.7546771E-02  0.1211328E+00
          5   -1    0    0  501    0  0.00000000000E+00  0.00000000000E+00  0.32519651900E+02  0.32857537335E+02  0.47000000000E+01 0.  1.
         -5   -1    0    0    0  501 -0.00000000000E+00 -0.00000000000E+00 -0.82333805015E+03  0.82335146494E+03  0.47000000000E+01 0.  1.
         25    2    1    2    0    0  0.61825340373E+02 -0.23972130425E+02 -0.61218147442E+03  0.62832109864E+03  0.12499683845E+03 0.  0.
         25    2    1    2    0    0 -0.61825340373E+02  0.23972130425E+02 -0.17863692383E+03  0.22788790364E+03  0.12499884127E+03 0.  0.
          5    1    4    4  502    0 -0.84876657426E+02  0.50922051445E+02 -0.96581120414E+02  0.13837306501E+03  0.47000000000E+01 0. -1.
         -5    1    4    4    0  502  0.23051317052E+02 -0.26949921021E+02 -0.82055803415E+02  0.89514838630E+02  0.47000000000E+01 0. -1.
          5    1    3    3  503    0 -0.51771725545E+01  0.39211845642E+02 -0.30520686583E+03  0.30779488772E+03  0.47000000000E+01 0.  1.
         -5    1    3    3    0  503  0.67002512927E+02 -0.63183976067E+02 -0.30697460858E+03  0.32052621092E+03  0.47000000000E+01 0.  1.
<mgrwt>
<rscale>  0 0.14149778E+03</rscale>
<asrwt>0</asrwt>
<pdfrwt beam="1">  1        5 0.50300471E-02 0.14149822E+03</pdfrwt>
<pdfrwt beam="2">  1       -5 0.12669440E+00 0.14149822E+03</pdfrwt>
<totfact> 0.82768171E+01</totfact>
</mgrwt>
</event>
<event>
 8    1  0.3588496E-007  0.1467815E+03  0.7546771E-02  0.1204486E+00
         -5   -1    0    0    0  501 -0.00000000000E+00  0.00000000000E+00  0.87965913243E+03  0.87967168834E+03  0.47000000000E+01 0.  1.
          5   -1    0    0  501    0  0.00000000000E+00 -0.00000000000E+00 -0.24253086375E+02  0.24704295147E+02  0.47000000000E+01 0.  1.
         25    2    1    2    0    0 -0.75362474873E+02  0.15473228936E+02  0.42809500653E+03  0.45255953930E+03  0.12500351420E+03 0.  0.
         25    2    1    2    0    0  0.75362474873E+02 -0.15473228936E+02  0.42731103952E+03  0.45181644418E+03  0.12499780520E+03 0.  0.
          5    1    3    3  502    0 -0.10610744842E+03 -0.44068483990E+01  0.35646262308E+03  0.37197567471E+03  0.47000000000E+01 0. -1.
         -5    1    3    3    0  502  0.30744973550E+02  0.19880077335E+02  0.71632383447E+02  0.80583864587E+02  0.47000000000E+01 0. -1.
          5    1    4    4  503    0  0.96010042544E+02 -0.38861460011E+02  0.38687681740E+03  0.40052952848E+03  0.47000000000E+01 0. -1.
         -5    1    4    4    0  503 -0.20647567671E+02  0.23388231075E+02  0.40434222117E+02  0.51286915698E+02  0.47000000000E+01 0. -1.
<mgrwt>
<rscale>  0 0.14678026E+03</rscale>
<asrwt>0</asrwt>
<pdfrwt beam="2">  1        5 0.37669184E-02 0.14678148E+03</pdfrwt>
<pdfrwt beam="1">  1       -5 0.13536784E+00 0.14678148E+03</pdfrwt>
<totfact> 0.11344957E+02</totfact>
</mgrwt>
</event>
<event>
 8    1  0.3588496E-007  0.1372123E+03  0.7546771E-02  0.1217134E+00
          5   -1    0    0  501    0  0.00000000000E+00  0.00000000000E+00  0.12898014002E+04  0.12898099635E+04  0.47000000000E+01 0.  1.
         -5   -1    0    0    0  501 -0.00000000000E+00 -0.00000000000E+00 -0.32238441488E+02  0.32579243539E+02  0.47000000000E+01 0.  1.
         25    2    1    2    0    0  0.49902366572E+02 -0.26692350748E+02  0.13852305661E+03  0.19496847183E+03  0.12498535922E+03 0.  0.
         25    2    1    2    0    0 -0.49902366572E+02  0.26692350748E+02  0.11190399021E+04  0.11274207353E+04  0.12499793563E+03 0.  0.
          5    1    4    4  502    0 -0.14835182930E+02  0.17058599000E+02  0.10403533319E+04  0.10406095443E+04  0.47000000000E+01 0. -1.
         -5    1    4    4    0  502 -0.35067183642E+02  0.96337517476E+01  0.78686570236E+02  0.86811190965E+02  0.47000000000E+01 0. -1.
          5    1    3    3  503    0  0.45955199353E+02 -0.62919252000E+02  0.13761879141E+03  0.15821420407E+03  0.47000000000E+01 0. -1.
         -5    1    3    3    0  503  0.39471672188E+01  0.36226901252E+02  0.90426520161E+00  0.36754267765E+02  0.47000000000E+01 0. -1.
<mgrwt>
<rscale>  0 0.13720942E+03</rscale>
<asrwt>0</asrwt>
<pdfrwt beam="1">  1        5 0.19845789E+00 0.13721229E+03</pdfrwt>
<pdfrwt beam="2">  1       -5 0.49866338E-02 0.13721229E+03</pdfrwt>
<totfact> 0.23624645E+01</totfact>
</mgrwt>
</event>
<event>
 8    1  0.3588496E-007  0.1316429E+03  0.7546771E-02  0.1225041E+00
         -5   -1    0    0    0  501 -0.00000000000E+00  0.00000000000E+00  0.11353115773E+03  0.11362840215E+03  0.47000000000E+01 0. -1.
          5   -1    0    0  501    0  0.00000000000E+00 -0.00000000000E+00 -0.17884185133E+03  0.17890359914E+03  0.47000000000E+01 0. -1.
         25    2    1    2    0    0  0.68788232385E+01  0.40683698829E+02  0.23523104738E+02  0.13371984560E+03  0.12500071637E+03 0.  0.
         25    2    1    2    0    0 -0.68788232385E+01 -0.40683698829E+02 -0.88833798338E+02  0.15881215569E+03  0.12500950167E+03 0.  0.
          5    1    3    3  502    0  0.15327881254E+02  0.75300800505E+02 -0.17731949914E+02  0.79004218546E+02  0.47000000000E+01 0. -1.
         -5    1    3    3    0  502 -0.84490580152E+01 -0.34617101676E+02  0.41255054652E+02  0.54715627056E+02  0.47000000000E+01 0. -1.
          5    1    4    4  503    0  0.30796947955E+02 -0.62242475612E+02 -0.91621593824E+02  0.11506165403E+03  0.47000000000E+01 0.  1.
         -5    1    4    4    0  503 -0.37675771193E+02  0.21558776783E+02  0.27877954862E+01  0.43750501655E+02  0.47000000000E+01 0.  1.
<mgrwt>
<rscale>  0 0.13164083E+03</rscale>
<asrwt>0</asrwt>
<pdfrwt beam="2">  1        5 0.27526361E-01 0.13164291E+03</pdfrwt>
<pdfrwt beam="1">  1       -5 0.17478562E-01 0.13164291E+03</pdfrwt>
<totfact> 0.26878024E+02</totfact>
</mgrwt>
</event>
<event>
 8    1  0.3588496E-007  0.1252590E+03  0.7546771E-02  0.1234669E+00
          5   -1    0    0  501    0  0.00000000000E+00  0.00000000000E+00  0.39462448453E+02  0.39741349221E+02  0.47000000000E+01 0.  1.
         -5   -1    0    0    0  501 -0.00000000000E+00 -0.00000000000E+00 -0.44937203039E+03  0.44939660846E+03  0.47000000000E+01 0.  1.
         25    2    1    2    0    0 -0.45500283665E+01  0.66642178834E+01 -0.28931062342E+03  0.31525889517E+03  0.12498967798E+03 0.  0.
         25    2    1    2    0    0  0.45500283665E+01 -0.66642178834E+01 -0.12059895852E+03  0.17387906252E+03  0.12499882010E+03 0.  0.
          5    1    3    3  502    0 -0.48616016031E+02  0.39402324468E+02 -0.20624939662E+03  0.21558516599E+03  0.47000000000E+01 0. -1.
         -5    1    3    3    0  502  0.44065987665E+02 -0.32738106584E+02 -0.83061226799E+02  0.99673729181E+02  0.47000000000E+01 0. -1.
          5    1    4    4  503    0 -0.62251936261E+01 -0.65105046301E+02 -0.66209037252E+02  0.93183403583E+02  0.47000000000E+01 0. -1.
         -5    1    4    4    0  503  0.10775221993E+02  0.58440828417E+02 -0.54389921272E+02  0.80695658936E+02  0.47000000000E+01 0. -1.
<mgrwt>
<rscale>  0 0.12525673E+03</rscale>
<asrwt>0</asrwt>
<pdfrwt beam="1">  1        5 0.60944908E-02 0.12525901E+03</pdfrwt>
<pdfrwt beam="2">  1       -5 0.69157499E-01 0.12525901E+03</pdfrwt>
<totfact> 0.24650887E+02</totfact>
</mgrwt>
</event>
<event>
 8    1  0.3588496E-007  0.1488620E+03  0.7546771E-02  0.1201884E+00
          5   -1    0    0  501    0  0.00000000000E+00  0.00000000000E+00  0.35540358410E+03  0.35543466009E+03  0.47000000000E+01 0. -1.
         -5   -1    0    0    0  501 -0.00000000000E+00 -0.00000000000E+00 -0.64302628298E+02  0.64474165415E+02  0.47000000000E+01 0. -1.
         25    2    1    2    0    0  0.80079426172E+02 -0.10837187727E+02  0.10783372277E+03  0.18380127228E+03  0.12499854716E+03 0.  0.
         25    2    1    2    0    0 -0.80079426172E+02  0.10837187727E+02  0.18326723303E+03  0.23610755322E+03  0.12501895396E+03 0.  0.
          5    1    3    3  502    0  0.93918027172E+02 -0.99246803093E+01  0.22470393794E+02  0.97191068028E+02  0.47000000000E+01 0.  1.
         -5    1    3    3    0  502 -0.13838601000E+02 -0.91250741793E+00  0.85363328974E+02  0.86610204255E+02  0.47000000000E+01 0.  1.
          5    1    4    4  503    0  0.21709902595E+02  0.12250894288E+02  0.10386610320E+03  0.10691894909E+03  0.47000000000E+01 0.  1.
         -5    1    4    4    0  503 -0.10178932877E+03 -0.14137065604E+01  0.79401129836E+02  0.12918860413E+03  0.47000000000E+01 0.  1.
<mgrwt>
<rscale>  0 0.14885773E+03</rscale>
<asrwt>0</asrwt>
<pdfrwt beam="1">  1        5 0.54693059E-01 0.14886201E+03</pdfrwt>
<pdfrwt beam="2">  1       -5 0.99082979E-02 0.14886201E+03</pdfrwt>
<totfact> 0.19064521E+02</totfact>
</mgrwt>
</event>
<event>
 8    1  0.3588496E-007  0.1315410E+03  0.7546771E-02  0.1225224E+00
          5   -1    0    0  501    0  0.00000000000E+00  0.00000000000E+00  0.14343448490E+03  0.14351146804E+03  0.47000000000E+01 0. -1.
         -5   -1    0    0    0  501 -0.00000000000E+00 -0.00000000000E+00 -0.12081043145E+03  0.12090182111E+03  0.47000000000E+01 0. -1.
         25    2    1    2    0    0  0.20266859012E+02  0.35315140840E+02  0.19155453602E+02  0.13292839887E+03  0.12508046641E+03 0.  0.
         25    2    1    2    0    0 -0.20266859012E+02 -0.35315140840E+02  0.34685998453E+01  0.13148489028E+03  0.12497335892E+03 0.  0.
          5    1    3    3  502    0 -0.31972723797E+00  0.37027092532E+02 -0.48976642317E+02  0.61578480815E+02  0.47000000000E+01 0. -1.
         -5    1    3    3    0  502  0.20586586250E+02 -0.17119516911E+01  0.68132095919E+02  0.71349918054E+02  0.47000000000E+01 0. -1.
          5    1    4    4  503    0  0.31666309993E+02 -0.15429860932E+01 -0.43193985611E+02  0.53786117053E+02  0.47000000000E+01 0.  1.
         -5    1    4    4    0  503 -0.51933169005E+02 -0.33772154747E+02  0.46662585456E+02  0.77698773225E+02  0.47000000000E+01 0.  1.
<mgrwt>
<rscale>  0 0.13151551E+03</rscale>
<asrwt>0</asrwt>
<pdfrwt beam="1">  1        5 0.22079795E-01 0.13154097E+03</pdfrwt>
<pdfrwt beam="2">  1       -5 0.18599172E-01 0.13154097E+03</pdfrwt>
<totfact> 0.36522299E+02</totfact>
</mgrwt>
</event>
<event>
 8    1  0.3588496E-007  0.1652537E+03  0.7546771E-02  0.1182895E+00
          5   -1    0    0  501    0  0.00000000000E+00  0.00000000000E+00  0.46533135656E+03  0.46535509173E+03  0.47000000000E+01 0.  1.
         -5   -1    0    0    0  501 -0.00000000000E+00 -0.00000000000E+00 -0.63627135927E+02  0.63800489232E+02  0.47000000000E+01 0.  1.
         25    2    1    2    0    0 -0.49221096836E+02 -0.96209849860E+02  0.12632510777E+03  0.20800673773E+03  0.12501887260E+03 0.  0.
         25    2    1    2    0    0  0.49221096836E+02  0.96209849860E+02  0.27537911286E+03  0.32114884323E+03  0.12499548840E+03 0.  0.
          5    1    4    4  502    0 -0.19784421107E+02  0.31220684068E+01 -0.18345326044E+01  0.20654930151E+02  0.47000000000E+01 0.  1.
         -5    1    4    4    0  502  0.69005517943E+02  0.93087781454E+02  0.27721364547E+03  0.30049391308E+03  0.47000000000E+01 0.  1.
          5    1    3    3  503    0  0.58619757284E+01 -0.82596669420E+01 -0.23310464952E+02  0.25846714176E+02  0.47000000000E+01 0. -1.
         -5    1    3    3    0  503 -0.55083072564E+02 -0.87950182918E+02  0.14963557272E+03  0.18216002356E+03  0.47000000000E+01 0. -1.
<mgrwt>
<rscale>  0 0.16524923E+03</rscale>
<asrwt>0</asrwt>
<pdfrwt beam="1">  1        5 0.71604599E-01 0.16525365E+03</pdfrwt>
<pdfrwt beam="2">  1       -5 0.98039509E-02 0.16525365E+03</pdfrwt>
<totfact> 0.11059279E+02</totfact>
</mgrwt>
</event>
<event>
 8    1  0.3588496E-007  0.1982541E+03  0.7546771E-02  0.1151221E+00
         -5   -1    0    0    0  501 -0.00000000000E+00  0.00000000000E+00  0.78606887843E+03  0.78608292924E+03  0.47000000000E+01 0. -1.
          5   -1    0    0  501    0  0.00000000000E+00 -0.00000000000E+00 -0.50955828175E+02  0.51172125469E+02  0.47000000000E+01 0. -1.
         25    2    1    2    0    0 -0.12553895675E+03 -0.88995709493E+02  0.42835872873E+03  0.47201144064E+03  0.12499333440E+03 0.  0.
         25    2    1    2    0    0  0.12553895675E+03  0.88995709493E+02  0.30675432153E+03  0.36524361407E+03  0.12499767147E+03 0.  0.
          5    1    3    3  502    0  0.17684663377E+02 -0.44634850264E+02  0.10349517553E+03  0.11418563191E+03  0.47000000000E+01 0. -1.
         -5    1    3    3    0  502 -0.14322362013E+03 -0.44360859230E+02  0.32486355320E+03  0.35782580873E+03  0.47000000000E+01 0. -1.
          5    1    4    4  503    0  0.44457451010E+02  0.99461323875E+02  0.22230953522E+03  0.24761389167E+03  0.47000000000E+01 0.  1.
         -5    1    4    4    0  503  0.81081505740E+02 -0.10465614382E+02  0.84444786303E+02  0.11762972240E+03  0.47000000000E+01 0.  1.
<mgrwt>
<rscale>  0 0.19825341E+03</rscale>
<asrwt>0</asrwt>
<pdfrwt beam="2">  1        5 0.78570773E-02 0.19825409E+03</pdfrwt>
<pdfrwt beam="1">  1       -5 0.12095139E+00 0.19825409E+03</pdfrwt>
<totfact> 0.48266458E+01</totfact>
</mgrwt>
</event>
<event>
 8    1  0.3588496E-007  0.1444420E+03  0.7546771E-02  0.1207475E+00
          5   -1    0    0  501    0  0.00000000000E+00  0.00000000000E+00  0.16394881673E+03  0.16401617148E+03  0.47000000000E+01 0.  1.
         -5   -1    0    0    0  501 -0.00000000000E+00 -0.00000000000E+00 -0.13911938821E+03  0.13919875781E+03  0.47000000000E+01 0.  1.
         25    2    1    2    0    0  0.23442449602E+02  0.68476427135E+02 -0.32091385083E+02  0.14796202919E+03  0.12499734225E+03 0.  0.
         25    2    1    2    0    0 -0.23442449602E+02 -0.68476427135E+02  0.56920813610E+02  0.15525290010E+03  0.12499965780E+03 0.  0.
          5    1    4    4  502    0 -0.17238954798E+02 -0.69996692029E+02 -0.22324259414E+02  0.75612042797E+02  0.47000000000E+01 0. -1.
         -5    1    4    4    0  502 -0.62034948040E+01  0.15202648933E+01  0.79245073025E+02  0.79640857302E+02  0.47000000000E+01 0. -1.
          5    1    3    3  503    0 -0.17634970902E+02  0.54505970770E+02 -0.69704807995E+02  0.90347901502E+02  0.47000000000E+01 0. -1.
         -5    1    3    3    0  503  0.41077420504E+02  0.13970456365E+02  0.37613422912E+02  0.57614127690E+02  0.47000000000E+01 0. -1.
<mgrwt>
<rscale>  0 0.14444147E+03</rscale>
<asrwt>0</asrwt>
<pdfrwt beam="1">  1        5 0.25234181E-01 0.14444197E+03</pdfrwt>
<pdfrwt beam="2">  1       -5 0.21414269E-01 0.14444197E+03</pdfrwt>
<totfact> 0.22486943E+02</totfact>
</mgrwt>
</event>
<event>
 8    1  0.3588496E-007  0.1716097E+03  0.7546771E-02  0.1176180E+00
         -5   -1    0    0    0  501 -0.00000000000E+00  0.00000000000E+00  0.15685801918E+03  0.15692841738E+03  0.47000000000E+01 0.  1.
          5   -1    0    0  501    0  0.00000000000E+00 -0.00000000000E+00 -0.20069103106E+03  0.20074605837E+03  0.47000000000E+01 0.  1.
         25    2    1    2    0    0  0.83582489510E+02 -0.82692657558E+02  0.23738040306E+02  0.17324369663E+03  0.12500310275E+03 0.  0.
         25    2    1    2    0    0 -0.83582489510E+02  0.82692657558E+02 -0.67571052193E+02  0.18443077911E+03  0.12499902809E+03 0.  0.
          5    1    3    3  502    0  0.38425599183E+02 -0.91051583071E+02  0.58962128231E+02  0.11517612608E+03  0.47000000000E+01 0.  1.
         -5    1    3    3    0  502  0.45156890327E+02  0.83589255135E+01 -0.35224087924E+02  0.58067570552E+02  0.47000000000E+01 0.  1.
          5    1    4    4  503    0 -0.46581764546E+02  0.48423501761E+02 -0.10268075850E+03  0.12280115829E+03  0.47000000000E+01 0. -1.
         -5    1    4    4    0  503 -0.37000724964E+02  0.34269155796E+02  0.35109706303E+02  0.61629620829E+02  0.47000000000E+01 0. -1.
<mgrwt>
<rscale>  0 0.17160894E+03</rscale>
<asrwt>0</asrwt>
<pdfrwt beam="2">  1        5 0.30885191E-01 0.17160968E+03</pdfrwt>
<pdfrwt beam="1">  1       -5 0.24141651E-01 0.17160968E+03</pdfrwt>
<totfact> 0.12758790E+02</totfact>
</mgrwt>
</event>
<event>
 8    1  0.3588496E-007  0.1351522E+03  0.7546771E-02  0.1220013E+00
          5   -1    0    0  501    0  0.00000000000E+00  0.00000000000E+00  0.31756933306E+02  0.32102847429E+02  0.47000000000E+01 0. -1.
         -5   -1    0    0    0  501 -0.00000000000E+00 -0.00000000000E+00 -0.58779254227E+03  0.58781133261E+03  0.47000000000E+01 0. -1.
         25    2    1    2    0    0 -0.48752564314E+02 -0.16091933231E+02 -0.32943644012E+03  0.35608213026E+03  0.12502140843E+03 0.  0.
         25    2    1    2    0    0  0.48752564314E+02  0.16091933231E+02 -0.22659916884E+03  0.26383204978E+03  0.12499761730E+03 0.  0.
          5    1    3    3  502    0  0.32051001359E+02 -0.39271928807E+02 -0.12886373213E+03  0.13855505237E+03  0.47000000000E+01 0.  1.
         -5    1    3    3    0  502 -0.80803565673E+02  0.23179995576E+02 -0.20057270800E+03  0.21752707789E+03  0.47000000000E+01 0.  1.
          5    1    4    4  503    0  0.63288088398E+02  0.60240252377E+02 -0.13266978861E+03  0.15892650172E+03  0.47000000000E+01 0.  1.
         -5    1    4    4    0  503 -0.14535524084E+02 -0.44148319145E+02 -0.93929380235E+02  0.10490554807E+03  0.47000000000E+01 0.  1.
<mgrwt>
<rscale>  0 0.13514669E+03</rscale>
<asrwt>0</asrwt>
<pdfrwt beam="1">  1        5 0.49137367E-02 0.13515219E+03</pdfrwt>
<pdfrwt beam="2">  1       -5 0.90457668E-01 0.13515219E+03</pdfrwt>
<totfact> 0.19523375E+02</totfact>
</mgrwt>
</event>
<event>
 8    1  0.3588496E-007  0.1250977E+03  0.7546771E-02  0.1234927E+00
         -5   -1    0    0    0  501 -0.00000000000E+00  0.00000000000E+00  0.60394639616E+02  0.60577244030E+02  0.47000000000E+01 0. -1.
          5   -1    0    0  501    0  0.00000000000E+00 -0.00000000000E+00 -0.26171092373E+03  0.26175312338E+03  0.47000000000E+01 0. -1.
         25    2    1    2    0    0 -0.38363125837E+01  0.15505096240E+01 -0.82714439143E+02  0.14994756630E+03  0.12500189128E+03 0.  0.
         25    2    1    2    0    0  0.38363125837E+01 -0.15505096240E+01 -0.11860184497E+03  0.17238280110E+03  0.12502924103E+03 0.  0.
          5    1    3    3  502    0  0.34544987131E+02 -0.49124378649E+02 -0.30339367722E+02  0.67447223422E+02  0.47000000000E+01 0. -1.
         -5    1    3    3    0  502 -0.38381299715E+02  0.50674888273E+02 -0.52375071422E+02  0.82500342882E+02  0.47000000000E+01 0. -1.
          5    1    4    4  503    0  0.49593776932E+02 -0.31082205910E+02 -0.24640133497E+02  0.63677880095E+02  0.47000000000E+01 0.  1.
         -5    1    4    4    0  503 -0.45757464349E+02  0.29531696286E+02 -0.93961711470E+02  0.10870492101E+03  0.47000000000E+01 0.  1.
<mgrwt>
<rscale>  0 0.12509086E+03</rscale>
<asrwt>0</asrwt>
<pdfrwt beam="2">  1        5 0.40280511E-01 0.12509769E+03</pdfrwt>
<pdfrwt beam="1">  1       -5 0.93087758E-02 0.12509769E+03</pdfrwt>
<totfact> 0.38009891E+02</totfact>
</mgrwt>
</event>
<event>
 8    1  0.3588496E-007  0.1433609E+03  0.7546771E-02  0.1208889E+00
         -5   -1    0    0    0  501 -0.00000000000E+00  0.00000000000E+00  0.98420834130E+02  0.98532992398E+02  0.47000000000E+01 0. -1.
          5   -1    0    0  501    0  0.00000000000E+00 -0.00000000000E+00 -0.21519803234E+03  0.21524935104E+03  0.47000000000E+01 0. -1.
         25    2    1    2    0    0  0.33424902411E+02 -0.61637549439E+02 -0.30748495436E+02  0.14662137419E+03  0.12504377551E+03 0.  0.
         25    2    1    2    0    0 -0.33424902411E+02  0.61637549439E+02 -0.86028702773E+02  0.16716096925E+03  0.12500176134E+03 0.  0.
          5    1    4    4  502    0 -0.14777042226E+02  0.82389046667E+02 -0.80651926964E+01  0.84222641379E+02  0.47000000000E+01 0. -1.
         -5    1    4    4    0  502 -0.18647860185E+02 -0.20751497229E+02 -0.77963510076E+02  0.82938327872E+02  0.47000000000E+01 0. -1.
          5    1    3    3  503    0  0.77174544207E+00 -0.44210956509E+02  0.44326656520E+02  0.62786517221E+02  0.47000000000E+01 0. -1.
         -5    1    3    3    0  503  0.32653156969E+02 -0.17426592930E+02 -0.75075151955E+02  0.83834856965E+02  0.47000000000E+01 0. -1.
<mgrwt>
<rscale>  0 0.14335177E+03</rscale>
<asrwt>0</asrwt>
<pdfrwt beam="2">  1        5 0.33119964E-01 0.14336093E+03</pdfrwt>
<pdfrwt beam="1">  1       -5 0.15154242E-01 0.14336093E+03</pdfrwt>
<totfact> 0.24965354E+02</totfact>
</mgrwt>
</event>
<event>
 8    1  0.3588496E-007  0.1268280E+03  0.7546771E-02  0.1232242E+00
          5   -1    0    0  501    0  0.00000000000E+00  0.00000000000E+00  0.53352151012E+03  0.53354221179E+03  0.47000000000E+01 0.  1.
         -5   -1    0    0    0  501 -0.00000000000E+00 -0.00000000000E+00 -0.30095042144E+02  0.30459835221E+02  0.47000000000E+01 0.  1.
         25    2    1    2    0    0  0.11512221515E+02 -0.18077777143E+02  0.27159695212E+03  0.29975031439E+03  0.12500403715E+03 0.  0.
         25    2    1    2    0    0 -0.11512221515E+02  0.18077777143E+02  0.23182951586E+03  0.26425173262E+03  0.12499886600E+03 0.  0.
          5    1    3    3  502    0  0.43744103969E+02 -0.58640568670E+02  0.18094695870E+03  0.19523359032E+03  0.47000000000E+01 0. -1.
         -5    1    3    3    0  502 -0.32231882454E+02  0.40562791527E+02  0.90649993420E+02  0.10451672407E+03  0.47000000000E+01 0. -1.
          5    1    4    4  503    0 -0.40754158236E+02 -0.22933863431E+02  0.19774259801E+03  0.20325129415E+03  0.47000000000E+01 0.  1.
         -5    1    4    4    0  503  0.29241936721E+02  0.41011640574E+02  0.34086917847E+02  0.61000438475E+02  0.47000000000E+01 0.  1.
<mgrwt>
<rscale>  0 0.12682675E+03</rscale>
<asrwt>0</asrwt>
<pdfrwt beam="1">  1        5 0.82109881E-01 0.12682802E+03</pdfrwt>
<pdfrwt beam="2">  1       -5 0.46596602E-02 0.12682802E+03</pdfrwt>
<totfact> 0.26169274E+02</totfact>
</mgrwt>
</event>
<event>
 8    1  0.3588496E-007  0.1345669E+03  0.7546771E-02  0.1220834E+00
          5   -1    0    0  501    0  0.00000000000E+00  0.00000000000E+00  0.65687362494E+03  0.65689043922E+03  0.47000000000E+01 0. -1.
         -5   -1    0    0    0  501 -0.00000000000E+00 -0.00000000000E+00 -0.29818735086E+02  0.30186867378E+02  0.47000000000E+01 0. -1.
         25    2    1    2    0    0  0.44595115642E+02  0.22201410401E+02  0.21531507166E+03  0.25390535525E+03  0.12500288948E+03 0.  0.
         25    2    1    2    0    0 -0.44595115642E+02 -0.22201410401E+02  0.41173981820E+03  0.43317195135E+03  0.12500653818E+03 0.  0.
          5    1    4    4  502    0 -0.38024110621E+02  0.57388421565E+01  0.26735563080E+02  0.47070666354E+02  0.47000000000E+01 0.  1.
         -5    1    4    4    0  502 -0.65710050207E+01 -0.27940252558E+02  0.38500425512E+03  0.38610128500E+03  0.47000000000E+01 0.  1.
          5    1    3    3  503    0 -0.20804407656E+02 -0.30568973169E+02  0.22544386584E+02  0.43561736249E+02  0.47000000000E+01 0. -1.
         -5    1    3    3    0  503  0.65399523298E+02  0.52770383571E+02  0.19277068507E+03  0.21034361900E+03  0.47000000000E+01 0. -1.
<mgrwt>
<rscale>  0 0.13456609E+03</rscale>
<asrwt>0</asrwt>
<pdfrwt beam="1">  1        5 0.10108708E+00 0.13456694E+03</pdfrwt>
<pdfrwt beam="2">  1       -5 0.46171094E-02 0.13456694E+03</pdfrwt>
<totfact> 0.16545423E+02</totfact>
</mgrwt>
</event>
<event>
 8    1  0.3588496E-007  0.1294929E+03  0.7546771E-02  0.1228214E+00
         -5   -1    0    0    0  501 -0.00000000000E+00  0.00000000000E+00  0.16451664989E+03  0.16458377226E+03  0.47000000000E+01 0. -1.
          5   -1    0    0  501    0  0.00000000000E+00 -0.00000000000E+00 -0.10547721107E+03  0.10558187370E+03  0.47000000000E+01 0. -1.
         25    2    1    2    0    0 -0.27318617399E+02 -0.19916394776E+02  0.54810980468E+02  0.14061526538E+03  0.12500175855E+03 0.  0.
         25    2    1    2    0    0  0.27318617399E+02  0.19916394776E+02  0.42284583586E+01  0.12955038058E+03  0.12498980603E+03 0.  0.
          5    1    4    4  502    0 -0.11335433200E+02  0.63568237832E+02 -0.17638265897E+02  0.67101500213E+02  0.47000000000E+01 0.  1.
         -5    1    4    4    0  502  0.38654050599E+02 -0.43651843057E+02  0.21866724256E+02  0.62448880371E+02  0.47000000000E+01 0.  1.
          5    1    3    3  503    0 -0.22196513626E+02  0.44665149863E+02  0.56663798967E+02  0.75634231290E+02  0.47000000000E+01 0. -1.
         -5    1    3    3    0  503 -0.51221037734E+01 -0.64581544639E+02 -0.18528184995E+01  0.64981034090E+02  0.47000000000E+01 0. -1.
<mgrwt>
<rscale>  0 0.12949001E+03</rscale>
<asrwt>0</asrwt>
<pdfrwt beam="2">  1        5 0.16240477E-01 0.12949289E+03</pdfrwt>
<pdfrwt beam="1">  1       -5 0.25323468E-01 0.12949289E+03</pdfrwt>
<totfact> 0.35891537E+02</totfact>
</mgrwt>
</event>
<event>
 8    1  0.3588496E-007  0.1292802E+03  0.7546771E-02  0.1228528E+00
          5   -1    0    0  501    0  0.00000000000E+00  0.00000000000E+00  0.71064805057E+02  0.71220056990E+02  0.47000000000E+01 0.  1.
         -5   -1    0    0    0  501 -0.00000000000E+00 -0.00000000000E+00 -0.26681138233E+03  0.26685277540E+03  0.47000000000E+01 0.  1.
         25    2    1    2    0    0  0.29260454641E+02  0.15246845933E+02 -0.15645108165E+03  0.20295397257E+03  0.12499893406E+03 0.  0.
         25    2    1    2    0    0 -0.29260454641E+02 -0.15246845933E+02 -0.39295495622E+02  0.13511885982E+03  0.12499731912E+03 0.  0.
          5    1    4    4  502    0  0.60439639068E+01  0.41416745705E+02  0.19146952434E+02  0.46266317252E+02  0.47000000000E+01 0. -1.
         -5    1    4    4    0  502 -0.35304418548E+02 -0.56663591638E+02 -0.58442448056E+02  0.88852542570E+02  0.47000000000E+01 0. -1.
          5    1    3    3  503    0  0.76815973098E+02  0.64423036951E+01 -0.11783010356E+03  0.14088371200E+03  0.47000000000E+01 0. -1.
         -5    1    3    3    0  503 -0.47555518457E+02  0.88045422380E+01 -0.38620978089E+02  0.62070260578E+02  0.47000000000E+01 0. -1.
<mgrwt>
<rscale>  0 0.12927982E+03</rscale>
<asrwt>0</asrwt>
<pdfrwt beam="1">  1        5 0.10948174E-01 0.12928022E+03</pdfrwt>
<pdfrwt beam="2">  1       -5 0.41063031E-01 0.12928022E+03</pdfrwt>
<totfact> 0.27871335E+02</totfact>
</mgrwt>
</event>
<event>
 8    1  0.3588496E-007  0.1534406E+03  0.7546771E-02  0.1196308E+00
          5   -1    0    0  501    0  0.00000000000E+00  0.00000000000E+00  0.17860602392E+02  0.18468652301E+02  0.47000000000E+01 0.  1.
         -5   -1    0    0    0  501 -0.00000000000E+00 -0.00000000000E+00 -0.13818603796E+04  0.13818683724E+04  0.47000000000E+01 0.  1.
         25    2    1    2    0    0  0.85620122833E+02 -0.24267205610E+02 -0.85697091435E+03  0.87059908067E+03  0.12499563406E+03 0.  0.
         25    2    1    2    0    0 -0.85620122833E+02  0.24267205610E+02 -0.50702886283E+03  0.52973794402E+03  0.12499727553E+03 0.  0.
          5    1    4    4  502    0 -0.27486237007E+02  0.61753603222E+02 -0.13221996921E+03  0.14857055897E+03  0.47000000000E+01 0.  1.
         -5    1    4    4    0  502 -0.58133885826E+02 -0.37486397613E+02 -0.37480889363E+03  0.38116738505E+03  0.47000000000E+01 0.  1.
          5    1    3    3  503    0  0.90884834319E+02 -0.35149464298E+02 -0.34673298147E+03  0.36019631923E+03  0.47000000000E+01 0. -1.
         -5    1    3    3    0  503 -0.52647114858E+01  0.10882258688E+02 -0.51023793288E+03  0.51040276144E+03  0.47000000000E+01 0. -1.
<mgrwt>
<rscale>  0 0.15344028E+03</rscale>
<asrwt>0</asrwt>
<pdfrwt beam="1">  1        5 0.27951740E-02 0.15344061E+03</pdfrwt>
<pdfrwt beam="2">  1       -5 0.21264121E+00 0.15344061E+03</pdfrwt>
<totfact> 0.50435904E+01</totfact>
</mgrwt>
</event>
<event>
 8    1  0.3588496E-007  0.1315632E+03  0.7546771E-02  0.1225157E+00
         -5   -1    0    0    0  501 -0.00000000000E+00  0.00000000000E+00  0.30400680535E+03  0.30404313460E+03  0.47000000000E+01 0. -1.
          5   -1    0    0  501    0  0.00000000000E+00 -0.00000000000E+00 -0.80223165205E+02  0.80360725703E+02  0.47000000000E+01 0. -1.
         25    2    1    2    0    0 -0.37409709349E+02 -0.16810941649E+02  0.21562422393E+03  0.25258789394E+03  0.12499897641E+03 0.  0.
         25    2    1    2    0    0  0.37409709349E+02  0.16810941649E+02  0.81594162096E+01  0.13181596637E+03  0.12500711501E+03 0.  0.
          5    1    3    3  502    0 -0.50020704888E+02  0.28994158138E+02  0.18947249870E+03  0.19815309709E+03  0.47000000000E+01 0.  1.
         -5    1    3    3    0  502  0.12610995538E+02 -0.45805099787E+02  0.26151725236E+02  0.54434796847E+02  0.47000000000E+01 0.  1.
          5    1    4    4  503    0  0.57974612639E+02 -0.38989093066E+02 -0.66862998472E+01  0.70342033624E+02  0.47000000000E+01 0.  1.
         -5    1    4    4    0  503 -0.20564903289E+02  0.55800034715E+02  0.14845716057E+02  0.61473932742E+02  0.47000000000E+01 0.  1.
<mgrwt>
<rscale>  0 0.13156126E+03</rscale>
<asrwt>0</asrwt>
<pdfrwt beam="2">  1        5 0.12355402E-01 0.13156319E+03</pdfrwt>
<pdfrwt beam="1">  1       -5 0.46783654E-01 0.13156319E+03</pdfrwt>
<totfact> 0.17288181E+02</totfact>
</mgrwt>
</event>
<event>
 8    1  0.3588496E-007  0.1340509E+03  0.7546771E-02  0.1221569E+00
         -5   -1    0    0    0  501 -0.00000000000E+00  0.00000000000E+00  0.38625419458E+03  0.38628278868E+03  0.47000000000E+01 0.  1.
          5   -1    0    0  501    0  0.00000000000E+00 -0.00000000000E+00 -0.48970001334E+02  0.49195030548E+02  0.47000000000E+01 0.  1.
         25    2    1    2    0    0  0.35506947358E+02 -0.32917867739E+02  0.21867078901E+03  0.25648404083E+03  0.12499127933E+03 0.  0.
         25    2    1    2    0    0 -0.35506947358E+02  0.32917867739E+02  0.11861340424E+03  0.17899377840E+03  0.12500121485E+03 0.  0.
          5    1    3    3  502    0  0.71279686254E+02  0.15634928452E+02  0.12976944467E+03  0.14895450121E+03  0.47000000000E+01 0. -1.
         -5    1    3    3    0  502 -0.35772738896E+02 -0.48552796192E+02  0.88901344335E+02  0.10752953962E+03  0.47000000000E+01 0. -1.
          5    1    4    4  503    0  0.11655059681E+02  0.67078638785E+01  0.12377160374E+03  0.12458866620E+03  0.47000000000E+01 0. -1.
         -5    1    4    4    0  503 -0.47162007039E+02  0.26210003861E+02 -0.51581995064E+01  0.54405112191E+02  0.47000000000E+01 0. -1.
<mgrwt>
<rscale>  0 0.13404854E+03</rscale>
<asrwt>0</asrwt>
<pdfrwt beam="2">  1        5 0.75533558E-02 0.13405086E+03</pdfrwt>
<pdfrwt beam="1">  1       -5 0.59443232E-01 0.13405086E+03</pdfrwt>
<totfact> 0.24546996E+02</totfact>
</mgrwt>
</event>
<event>
 8    1  0.3588496E-007  0.1498690E+03  0.7546771E-02  0.1200634E+00
         -5   -1    0    0    0  501 -0.00000000000E+00  0.00000000000E+00  0.99767871855E+02  0.99878517482E+02  0.47000000000E+01 0. -1.
          5   -1    0    0  501    0  0.00000000000E+00 -0.00000000000E+00 -0.24096512691E+03  0.24101095906E+03  0.47000000000E+01 0. -1.
         25    2    1    2    0    0  0.47128079164E+02 -0.67930140034E+02 -0.26560130724E+02  0.15220351591E+03  0.12499963976E+03 0.  0.
         25    2    1    2    0    0 -0.47128079164E+02  0.67930140034E+02 -0.11463712433E+03  0.18868596063E+03  0.12500064677E+03 0.  0.
          5    1    4    4  502    0  0.22378198064E+02  0.12618560430E+02 -0.93741809272E+02  0.97312016840E+02  0.47000000000E+01 0.  1.
         -5    1    4    4    0  502 -0.69506277227E+02  0.55311579605E+02 -0.20895315059E+02  0.91373943790E+02  0.47000000000E+01 0.  1.
          5    1    3    3  503    0  0.30658631761E+00  0.25848069887E+02  0.24134534874E+02  0.35676077217E+02  0.47000000000E+01 0.  1.
         -5    1    3    3    0  503  0.46821492846E+02 -0.93778209921E+02 -0.50694665598E+02  0.11652743869E+03  0.47000000000E+01 0.  1.
<mgrwt>
<rscale>  0 0.14986880E+03</rscale>
<asrwt>0</asrwt>
<pdfrwt beam="2">  1        5 0.37083594E-01 0.14986901E+03</pdfrwt>
<pdfrwt beam="1">  1       -5 0.15360940E-01 0.14986901E+03</pdfrwt>
<totfact> 0.19702364E+02</totfact>
</mgrwt>
</event>
<event>
 8    1  0.3588496E-007  0.2169851E+03  0.7546771E-02  0.1136152E+00
         -5   -1    0    0    0  501 -0.00000000000E+00  0.00000000000E+00  0.38418212625E+03  0.38421087456E+03  0.47000000000E+01 0. -1.
          5   -1    0    0  501    0  0.00000000000E+00 -0.00000000000E+00 -0.13486745100E+03  0.13494932138E+03  0.47000000000E+01 0. -1.
         25    2    1    2    0    0  0.16767804802E+02  0.17654215782E+03  0.20332463766E+03  0.29735482730E+03  0.12502276701E+03 0.  0.
         25    2    1    2    0    0 -0.16767804802E+02 -0.17654215782E+03  0.45990037584E+02  0.22180536864E+03  0.12503697548E+03 0.  0.
          5    1    4    4  502    0 -0.47835097763E+02 -0.14921591213E+03  0.72209143345E+02  0.17259732151E+03  0.47000000000E+01 0.  1.
         -5    1    4    4    0  502  0.31067292960E+02 -0.27326245687E+02 -0.26219105762E+02  0.49208047128E+02  0.47000000000E+01 0.  1.
          5    1    3    3  503    0  0.43960035270E+02  0.14159086320E+03  0.20470941171E+03  0.25280128655E+03  0.47000000000E+01 0.  1.
         -5    1    3    3    0  503 -0.27192230468E+02  0.34951294622E+02 -0.13847740439E+01  0.44553540743E+02  0.47000000000E+01 0.  1.
<mgrwt>
<rscale>  0 0.21698306E+03</rscale>
<asrwt>0</asrwt>
<pdfrwt beam="2">  1        5 0.20757348E-01 0.21698511E+03</pdfrwt>
<pdfrwt beam="1">  1       -5 0.59113452E-01 0.21698511E+03</pdfrwt>
<totfact> 0.46937764E+01</totfact>
</mgrwt>
</event>
<event>
 8    1  0.3588496E-007  0.1560582E+03  0.7546771E-02  0.1193222E+00
         -5   -1    0    0    0  501 -0.00000000000E+00  0.00000000000E+00  0.21055457519E+02  0.21573648077E+02  0.47000000000E+01 0.  1.
          5   -1    0    0  501    0  0.00000000000E+00 -0.00000000000E+00 -0.12501343512E+04  0.12501431862E+04  0.47000000000E+01 0.  1.
         25    2    1    2    0    0  0.58599899945E+02 -0.72757476137E+02 -0.42760566256E+03  0.45519158226E+03  0.12500070120E+03 0.  0.
         25    2    1    2    0    0 -0.58599899945E+02  0.72757476137E+02 -0.80147323109E+03  0.81652525201E+03  0.12500619344E+03 0.  0.
          5    1    3    3  502    0  0.67484786157E+02 -0.64456335819E+02 -0.43156729858E+03  0.44156679992E+03  0.47000000000E+01 0.  1.
         -5    1    3    3    0  502 -0.88848862120E+01 -0.83011403182E+01  0.39616360266E+01  0.13624782332E+02  0.47000000000E+01 0.  1.
          5    1    4    4  503    0 -0.72265726326E+02  0.56551268039E+02 -0.28185550345E+03  0.29645403681E+03  0.47000000000E+01 0.  1.
         -5    1    4    4    0  503  0.13665826381E+02  0.16206208098E+02 -0.51961772765E+03  0.52007121520E+03  0.47000000000E+01 0.  1.
<mgrwt>
<rscale>  0 0.15605705E+03</rscale>
<asrwt>0</asrwt>
<pdfrwt beam="2">  1        5 0.19236885E+00 0.15605815E+03</pdfrwt>
<pdfrwt beam="1">  1       -5 0.32798426E-02 0.15605815E+03</pdfrwt>
<totfact> 0.53608333E+01</totfact>
</mgrwt>
</event>
<event>
 8    1  0.3588496E-007  0.1514928E+03  0.7546771E-02  0.1198656E+00
          5   -1    0    0  501    0  0.00000000000E+00  0.00000000000E+00  0.15612375289E+03  0.15619448203E+03  0.47000000000E+01 0.  1.
         -5   -1    0    0    0  501 -0.00000000000E+00 -0.00000000000E+00 -0.14688580113E+03  0.14696097636E+03  0.47000000000E+01 0.  1.
         25    2    1    2    0    0  0.30608047050E+02 -0.79895039731E+02  0.19732085034E+01  0.15148852667E+03  0.12499924097E+03 0.  0.
         25    2    1    2    0    0 -0.30608047050E+02  0.79895039731E+02  0.72647432544E+01  0.15166693172E+03  0.12502004545E+03 0.  0.
          5    1    4    4  502    0 -0.75701437422E+02  0.24080784627E+02  0.30948982824E+01  0.79638308692E+02  0.47000000000E+01 0. -1.
         -5    1    4    4    0  502  0.45093390372E+02  0.55814255104E+02  0.41698449720E+01  0.72028623027E+02  0.47000000000E+01 0. -1.
          5    1    3    3  503    0 -0.11825376849E+02  0.30520942661E+02 -0.72594048304E+00  0.33075436023E+02  0.47000000000E+01 0.  1.
         -5    1    3    3    0  503  0.42433423899E+02 -0.11041598239E+03  0.26991489864E+01  0.11841309065E+03  0.47000000000E+01 0.  1.
<mgrwt>
<rscale>  0 0.15148855E+03</rscale>
<asrwt>0</asrwt>
<pdfrwt beam="1">  1        5 0.24030262E-01 0.15149284E+03</pdfrwt>
<pdfrwt beam="2">  1       -5 0.22609039E-01 0.15149284E+03</pdfrwt>
<totfact> 0.22642539E+02</totfact>
</mgrwt>
</event>
<event>
 8    1  0.3588496E-007  0.1561460E+03  0.7546771E-02  0.1193118E+00
         -5   -1    0    0    0  501 -0.00000000000E+00  0.00000000000E+00  0.20733108183E+02  0.21259157437E+02  0.47000000000E+01 0. -1.
          5   -1    0    0  501    0  0.00000000000E+00 -0.00000000000E+00 -0.11877757121E+04  0.11877850110E+04  0.47000000000E+01 0. -1.
         25    2    1    2    0    0 -0.16460944439E+02 -0.92115135233E+02 -0.67476199128E+03  0.69259304668E+03  0.12500089040E+03 0.  0.
         25    2    1    2    0    0  0.16460944439E+02  0.92115135233E+02 -0.49228061267E+03  0.51645112175E+03  0.12500159484E+03 0.  0.
          5    1    3    3  502    0  0.43051494840E+02 -0.17205716523E+02 -0.37536219952E+03  0.37824375569E+03  0.47000000000E+01 0.  1.
         -5    1    3    3    0  502 -0.59512439279E+02 -0.74909418710E+02 -0.29939979176E+03  0.31434929099E+03  0.47000000000E+01 0.  1.
          5    1    4    4  503    0  0.56116296717E+02  0.51962739060E+02 -0.40653677116E+03  0.41369481664E+03  0.47000000000E+01 0.  1.
         -5    1    4    4    0  503 -0.39655352278E+02  0.40152396173E+02 -0.85743841507E+02  0.10275630511E+03  0.47000000000E+01 0.  1.
<mgrwt>
<rscale>  0 0.15614581E+03</rscale>
<asrwt>0</asrwt>
<pdfrwt beam="2">  1        5 0.18277585E+00 0.15614596E+03</pdfrwt>
<pdfrwt beam="1">  1       -5 0.32308905E-02 0.15614596E+03</pdfrwt>
<totfact> 0.64108461E+01</totfact>
</mgrwt>
</event>
<event>
 8    1  0.3588496E-007  0.1269416E+03  0.7546771E-02  0.1232066E+00
          5   -1    0    0  501    0  0.00000000000E+00  0.00000000000E+00  0.49397233196E+01  0.68184211130E+01  0.47000000000E+01 0. -1.
         -5   -1    0    0    0  501 -0.00000000000E+00 -0.00000000000E+00 -0.27452698540E+04  0.27452738773E+04  0.47000000000E+01 0. -1.
         25    2    1    2    0    0  0.99888846476E+01  0.19728230552E+02 -0.13046530784E+04  0.13108141296E+04  0.12500018588E+03 0.  0.
         25    2    1    2    0    0 -0.99888846476E+01 -0.19728230552E+02 -0.14356770522E+04  0.14412781688E+04  0.12500072206E+03 0.  0.
          5    1    4    4  502    0  0.18531285457E+02  0.40718154929E+02 -0.94221318059E+03  0.94328635332E+03  0.47000000000E+01 0.  1.
         -5    1    4    4    0  502 -0.28520170105E+02 -0.60446385481E+02 -0.49346387164E+03  0.49799181543E+03  0.47000000000E+01 0.  1.
          5    1    3    3  503    0  0.45533580945E+01 -0.41185880475E+02 -0.94862226299E+03  0.94953846561E+03  0.47000000000E+01 0. -1.
         -5    1    3    3    0  503  0.54355265531E+01  0.60914111027E+02 -0.35603081545E+03  0.36127566403E+03  0.47000000000E+01 0. -1.
<mgrwt>
<rscale>  0 0.12694143E+03</rscale>
<asrwt>0</asrwt>
<pdfrwt beam="1">  1        5 0.90478432E-03 0.12694157E+03</pdfrwt>
<pdfrwt beam="2">  1       -5 0.42249301E+00 0.12694157E+03</pdfrwt>
<totfact> 0.11911281E+01</totfact>
</mgrwt>
</event>
<event>
 8    1  0.3588496E-007  0.1253468E+03  0.7546771E-02  0.1234535E+00
          5   -1    0    0  501    0  0.00000000000E+00  0.00000000000E+00  0.64480210041E+02  0.64651275989E+02  0.47000000000E+01 0.  1.
         -5   -1    0    0    0  501 -0.00000000000E+00 -0.00000000000E+00 -0.24694170353E+03  0.24698642664E+03  0.47000000000E+01 0.  1.
         25    2    1    2    0    0 -0.92650076882E+01  0.82030692896E+00 -0.11062153263E+03  0.16717934118E+03  0.12500118146E+03 0.  0.
         25    2    1    2    0    0  0.92650076882E+01 -0.82030692896E+00 -0.71839960860E+02  0.14445836144E+03  0.12498289861E+03 0.  0.
          5    1    4    4  502    0 -0.38120916539E+02  0.42905472717E+02 -0.49869484422E+02  0.76178339070E+02  0.47000000000E+01 0. -1.
         -5    1    4    4    0  502  0.47385924228E+02 -0.43725779646E+02 -0.21970476438E+02  0.68280022375E+02  0.47000000000E+01 0. -1.
          5    1    3    3  503    0 -0.19618104822E+02 -0.59488104240E+02 -0.44595693458E+02  0.77036163312E+02  0.47000000000E+01 0. -1.
         -5    1    3    3    0  503  0.10353097134E+02  0.60308411169E+02 -0.66025839175E+02  0.90143177872E+02  0.47000000000E+01 0. -1.
<mgrwt>
<rscale>  0 0.12534220E+03</rscale>
<asrwt>0</asrwt>
<pdfrwt beam="1">  1        5 0.99366316E-02 0.12534675E+03</pdfrwt>
<pdfrwt beam="2">  1       -5 0.38007630E-01 0.12534675E+03</pdfrwt>
<totfact> 0.38221126E+02</totfact>
</mgrwt>
</event>
<event>
 8    1  0.3588496E-007  0.1400443E+03  0.7546771E-02  0.1213276E+00
          5   -1    0    0  501    0  0.00000000000E+00  0.00000000000E+00  0.37321473624E+03  0.37324432929E+03  0.47000000000E+01 0.  1.
         -5   -1    0    0    0  501 -0.00000000000E+00 -0.00000000000E+00 -0.53081106834E+02  0.53288778394E+02  0.47000000000E+01 0.  1.
         25    2    1    2    0    0  0.26853036970E+02  0.57130663686E+02  0.13604684747E+03  0.19523166701E+03  0.12498664236E+03 0.  0.
         25    2    1    2    0    0 -0.26853036970E+02 -0.57130663686E+02  0.18408678193E+03  0.23130144067E+03  0.12500965901E+03 0.  0.
          5    1    3    3  502    0  0.38476166401E+01  0.67070109338E+02  0.11769095294E+02  0.68365234765E+02  0.47000000000E+01 0.  1.
         -5    1    3    3    0  502  0.23005420330E+02 -0.99394456514E+01  0.12427775218E+03  0.12686643224E+03  0.47000000000E+01 0.  1.
          5    1    4    4  503    0  0.47032799382E+02 -0.35481855795E+02  0.53957164705E+02  0.80028194603E+02  0.47000000000E+01 0. -1.
         -5    1    4    4    0  503 -0.73885836352E+02 -0.21648807891E+02  0.13012961723E+03  0.15127324607E+03  0.47000000000E+01 0. -1.
<mgrwt>
<rscale>  0 0.14003919E+03</rscale>
<asrwt>0</asrwt>
<pdfrwt beam="1">  1        5 0.57435902E-01 0.14004433E+03</pdfrwt>
<pdfrwt beam="2">  1       -5 0.81845754E-02 0.14004433E+03</pdfrwt>
<totfact> 0.23399689E+02</totfact>
</mgrwt>
</event>
<event>
 8    1  0.3588496E-007  0.1449866E+03  0.7546771E-02  0.1206772E+00
         -5   -1    0    0    0  501 -0.00000000000E+00  0.00000000000E+00  0.62376809404E+03  0.62378580069E+03  0.47000000000E+01 0. -1.
          5   -1    0    0  501    0  0.00000000000E+00 -0.00000000000E+00 -0.33595066952E+02  0.33922242312E+02  0.47000000000E+01 0. -1.
         25    2    1    2    0    0  0.50915236185E+02 -0.52947687962E+02  0.31075295531E+03  0.34291177771E+03  0.12500107649E+03 0.  0.
         25    2    1    2    0    0 -0.50915236185E+02  0.52947687962E+02  0.27942007178E+03  0.31479626529E+03  0.12500117276E+03 0.  0.
          5    1    4    4  502    0 -0.34883618633E+02 -0.37027148104E+02  0.74087274148E+02  0.89993837213E+02  0.47000000000E+01 0. -1.
         -5    1    4    4    0  502 -0.16031617552E+02  0.89974836066E+02  0.20533279763E+03  0.22480242808E+03  0.47000000000E+01 0. -1.
          5    1    3    3  503    0  0.92688861569E+02 -0.38289704601E+02  0.22017038870E+03  0.24198019877E+03  0.47000000000E+01 0.  1.
         -5    1    3    3    0  503 -0.41773625383E+02 -0.14657983362E+02  0.90582566607E+02  0.10093157894E+03  0.47000000000E+01 0.  1.
<mgrwt>
<rscale>  0 0.14498657E+03</rscale>
<asrwt>0</asrwt>
<pdfrwt beam="2">  1        5 0.51950015E-02 0.14498659E+03</pdfrwt>
<pdfrwt beam="1">  1       -5 0.95990846E-01 0.14498659E+03</pdfrwt>
<totfact> 0.15800319E+02</totfact>
</mgrwt>
</event>
<event>
 8    1  0.3588496E-007  0.1533795E+03  0.7546771E-02  0.1196383E+00
          5   -1    0    0  501    0  0.00000000000E+00  0.00000000000E+00  0.50705260064E+03  0.50707438292E+03  0.47000000000E+01 0.  1.
         -5   -1    0    0    0  501 -0.00000000000E+00 -0.00000000000E+00 -0.46679222339E+02  0.46915240574E+02  0.47000000000E+01 0.  1.
         25    2    1    2    0    0  0.87227513507E+02 -0.17048482634E+02  0.25659978533E+03  0.29894266465E+03  0.12499590811E+03 0.  0.
         25    2    1    2    0    0 -0.87227513507E+02  0.17048482634E+02  0.20377359298E+03  0.25504695885E+03  0.12500393654E+03 0.  0.
          5    1    3    3  502    0  0.43640599154E+02  0.41607858003E+02  0.46032252431E+02  0.76005091974E+02  0.47000000000E+01 0. -1.
         -5    1    3    3    0  502  0.43586914353E+02 -0.58656340638E+02  0.21056753290E+03  0.22293757267E+03  0.47000000000E+01 0. -1.
          5    1    4    4  503    0 -0.16200125764E+02 -0.18522563441E+02  0.16433634363E+03  0.16623493397E+03  0.47000000000E+01 0. -1.
         -5    1    4    4    0  503 -0.71027387742E+02  0.35571046075E+02  0.39437249340E+02  0.88812024883E+02  0.47000000000E+01 0. -1.
<mgrwt>
<rscale>  0 0.15337787E+03</rscale>
<asrwt>0</asrwt>
<pdfrwt beam="1">  1        5 0.78027924E-01 0.15337951E+03</pdfrwt>
<pdfrwt beam="2">  1       -5 0.72012496E-02 0.15337951E+03</pdfrwt>
<totfact> 0.15120850E+02</totfact>
</mgrwt>
</event>
<event>
 8    1  0.3588496E-007  0.1411279E+03  0.7546771E-02  0.1211825E+00
         -5   -1    0    0    0  501 -0.00000000000E+00  0.00000000000E+00  0.28837998968E+03  0.28841828730E+03  0.47000000000E+01 0.  1.
          5   -1    0    0  501    0  0.00000000000E+00 -0.00000000000E+00 -0.71036877920E+02  0.71192190756E+02  0.47000000000E+01 0.  1.
         25    2    1    2    0    0 -0.44174186298E+01 -0.65379991601E+02  0.13956554872E+03  0.19848333650E+03  0.12499214210E+03 0.  0.
         25    2    1    2    0    0  0.44174186298E+01  0.65379991601E+02  0.77777563040E+02  0.16112714156E+03  0.12497419552E+03 0.  0.
          5    1    4    4  502    0  0.16420200318E+02  0.91515735867E+02  0.18276395119E+02  0.94872912406E+02  0.47000000000E+01 0. -1.
         -5    1    4    4    0  502 -0.12002781688E+02 -0.26135744266E+02  0.59501167921E+02  0.66254229152E+02  0.47000000000E+01 0. -1.
          5    1    3    3  503    0  0.16262061380E+02 -0.98952240580E+02  0.88768400042E+02  0.13400716176E+03  0.47000000000E+01 0.  1.
         -5    1    3    3    0  503 -0.20679480010E+02  0.33572248979E+02  0.50797148678E+02  0.64476174738E+02  0.47000000000E+01 0.  1.
<mgrwt>
<rscale>  0 0.14112396E+03</rscale>
<asrwt>0</asrwt>
<pdfrwt beam="2">  1        5 0.10943644E-01 0.14112793E+03</pdfrwt>
<pdfrwt beam="1">  1       -5 0.44381044E-01 0.14112793E+03</pdfrwt>
<totfact> 0.24487510E+02</totfact>
</mgrwt>
</event>
<event>
 8    1  0.3588496E-007  0.1460125E+03  0.7546771E-02  0.1205464E+00
          5   -1    0    0  501    0  0.00000000000E+00  0.00000000000E+00  0.97593140604E+02  0.97706248996E+02  0.47000000000E+01 0.  1.
         -5   -1    0    0    0  501 -0.00000000000E+00 -0.00000000000E+00 -0.22201998579E+03  0.22206972799E+03  0.47000000000E+01 0.  1.
         25    2    1    2    0    0 -0.65720825047E+02 -0.37079606298E+02 -0.41173243531E+02  0.15170661709E+03  0.12500215053E+03 0.  0.
         25    2    1    2    0    0  0.65720825047E+02  0.37079606298E+02 -0.83253601656E+02  0.16806935990E+03  0.12498809344E+03 0.  0.
          5    1    3    3  502    0 -0.83080835313E+01 -0.47026767914E+02  0.32278652496E+02  0.57832020191E+02  0.47000000000E+01 0. -1.
         -5    1    3    3    0  502 -0.57412741515E+02  0.99471616165E+01 -0.73451896027E+02  0.93874596897E+02  0.47000000000E+01 0. -1.
          5    1    4    4  503    0  0.67436977827E+02 -0.14915483379E+02 -0.91969749991E+02  0.11511186966E+03  0.47000000000E+01 0. -1.
         -5    1    4    4    0  503 -0.17161527807E+01  0.51995089677E+02  0.87161483354E+01  0.52957490242E+02  0.47000000000E+01 0. -1.
<mgrwt>
<rscale>  0 0.14600953E+03</rscale>
<asrwt>0</asrwt>
<pdfrwt beam="1">  1        5 0.15026856E-01 0.14601254E+03</pdfrwt>
<pdfrwt beam="2">  1       -5 0.34169448E-01 0.14601254E+03</pdfrwt>
<totfact> 0.23967390E+02</totfact>
</mgrwt>
</event>
<event>
 8    1  0.3588496E-007  0.1322190E+03  0.7546771E-02  0.1224201E+00
         -5   -1    0    0    0  501 -0.00000000000E+00  0.00000000000E+00  0.44090506152E+02  0.44340305961E+02  0.47000000000E+01 0.  1.
          5   -1    0    0  501    0  0.00000000000E+00 -0.00000000000E+00 -0.40312602927E+03  0.40315342671E+03  0.47000000000E+01 0.  1.
         25    2    1    2    0    0 -0.26469756485E+02  0.34002858418E+02 -0.14796346617E+03  0.19842894852E+03  0.12499607155E+03 0.  0.
         25    2    1    2    0    0  0.26469756485E+02 -0.34002858418E+02 -0.21107205694E+03  0.24906478415E+03  0.12500004437E+03 0.  0.
          5    1    4    4  502    0  0.65928197248E+00 -0.99093301212E+01  0.15893277218E+02  0.19321380305E+02  0.47000000000E+01 0. -1.
         -5    1    4    4    0  502  0.25810474513E+02 -0.24093528297E+02 -0.22696533416E+03  0.22974340385E+03  0.47000000000E+01 0. -1.
          5    1    3    3  503    0 -0.67909698139E+02 -0.12491496484E+02 -0.68732992811E+02  0.97540139873E+02  0.47000000000E+01 0. -1.
         -5    1    3    3    0  503  0.41439941654E+02  0.46494354902E+02 -0.79230473360E+02  0.10088880865E+03  0.47000000000E+01 0. -1.
<mgrwt>
<rscale>  0 0.13221802E+03</rscale>
<asrwt>0</asrwt>
<pdfrwt beam="2">  1        5 0.62040710E-01 0.13221896E+03</pdfrwt>
<pdfrwt beam="1">  1       -5 0.68044779E-02 0.13221896E+03</pdfrwt>
<totfact> 0.26566041E+02</totfact>
</mgrwt>
</event>
<event>
 8    1  0.3588496E-007  0.1519337E+03  0.7546771E-02  0.1198124E+00
         -5   -1    0    0    0  501 -0.00000000000E+00  0.00000000000E+00  0.25628986338E+03  0.25633295549E+03  0.47000000000E+01 0. -1.
          5   -1    0    0  501    0  0.00000000000E+00 -0.00000000000E+00 -0.10667361861E+03  0.10677710853E+03  0.47000000000E+01 0. -1.
         25    2    1    2    0    0 -0.86056059900E+02 -0.69120500206E+01  0.14665948746E+03  0.21117020039E+03  0.12502170368E+03 0.  0.
         25    2    1    2    0    0  0.86056059900E+02  0.69120500206E+01  0.29567573150E+01  0.15193986363E+03  0.12499423133E+03 0.  0.
          5    1    4    4  502    0  0.62216693047E+02 -0.52695669956E+02 -0.19141705869E+02  0.83882330853E+02  0.47000000000E+01 0. -1.
         -5    1    4    4    0  502  0.23839366853E+02  0.59607719977E+02  0.22098463184E+02  0.68057532778E+02  0.47000000000E+01 0. -1.
          5    1    3    3  503    0 -0.61698150279E+02  0.45942585998E+02  0.33906793069E+02  0.84197052040E+02  0.47000000000E+01 0.  1.
         -5    1    3    3    0  503 -0.24357909622E+02 -0.52854636019E+02  0.11275269439E+03  0.12697314835E+03  0.47000000000E+01 0.  1.
<mgrwt>
<rscale>  0 0.15192805E+03</rscale>
<asrwt>0</asrwt>
<pdfrwt beam="2">  1        5 0.16422602E-01 0.15193370E+03</pdfrwt>
<pdfrwt beam="1">  1       -5 0.39440485E-01 0.15193370E+03</pdfrwt>
<totfact> 0.15455706E+02</totfact>
</mgrwt>
</event>
<event>
 8    1  0.3588496E-007  0.1717651E+03  0.7546771E-02  0.1176021E+00
          5   -1    0    0  501    0  0.00000000000E+00  0.00000000000E+00  0.37776009677E+02  0.38067268186E+02  0.47000000000E+01 0.  1.
         -5   -1    0    0    0  501 -0.00000000000E+00 -0.00000000000E+00 -0.78082907160E+03  0.78084321669E+03  0.47000000000E+01 0.  1.
         25    2    1    2    0    0  0.83732522878E+02  0.82856799561E+02 -0.39752569794E+03  0.43304470646E+03  0.12499861057E+03 0.  0.
         25    2    1    2    0    0 -0.83732522878E+02 -0.82856799561E+02 -0.34552736398E+03  0.38586577842E+03  0.12500742009E+03 0.  0.
          5    1    3    3  502    0  0.86259706301E+02  0.39315069851E+01 -0.14949886967E+03  0.17270841239E+03  0.47000000000E+01 0.  1.
         -5    1    3    3    0  502 -0.25271834227E+01  0.78925292576E+02 -0.24802682827E+03  0.26033629406E+03  0.47000000000E+01 0.  1.
          5    1    4    4  503    0 -0.85734602481E+02 -0.66636216836E+02 -0.35143882520E+03  0.36786158446E+03  0.47000000000E+01 0.  1.
         -5    1    4    4    0  503  0.20020796028E+01 -0.16220582725E+02  0.59114612230E+01  0.18004193969E+02  0.47000000000E+01 0.  1.
<mgrwt>
<rscale>  0 0.17176347E+03</rscale>
<asrwt>0</asrwt>
<pdfrwt beam="1">  1        5 0.58351870E-02 0.17176507E+03</pdfrwt>
<pdfrwt beam="2">  1       -5 0.12015103E+00 0.17176507E+03</pdfrwt>
<totfact> 0.78395707E+01</totfact>
</mgrwt>
</event>
<event>
 8    1  0.3588496E-007  0.1275047E+03  0.7546771E-02  0.1231231E+00
         -5   -1    0    0    0  501 -0.00000000000E+00  0.00000000000E+00  0.44428447689E+02  0.44676357999E+02  0.47000000000E+01 0. -1.
          5   -1    0    0  501    0  0.00000000000E+00 -0.00000000000E+00 -0.38653981871E+03  0.38656839169E+03  0.47000000000E+01 0. -1.
         25    2    1    2    0    0  0.75937289554E+01  0.23976657243E+02 -0.11957757846E+03  0.17480345227E+03  0.12499961937E+03 0.  0.
         25    2    1    2    0    0 -0.75937289554E+01 -0.23976657243E+02 -0.22253379256E+03  0.25644129742E+03  0.12493320366E+03 0.  0.
          5    1    4    4  502    0 -0.59255474705E+02  0.16403257891E+02 -0.10459496570E+03  0.12141859413E+03  0.47000000000E+01 0. -1.
         -5    1    4    4    0  502  0.51661745750E+02 -0.40379915134E+02 -0.11793882687E+03  0.13502270329E+03  0.47000000000E+01 0. -1.
          5    1    3    3  503    0 -0.56505541647E+02  0.16119124853E+02 -0.35971771144E+02  0.69056214362E+02  0.47000000000E+01 0. -1.
         -5    1    3    3    0  503  0.64099270602E+02  0.78575323898E+01 -0.83605807317E+02  0.10574723790E+03  0.47000000000E+01 0. -1.
<mgrwt>
<rscale>  0 0.12748842E+03</rscale>
<asrwt>0</asrwt>
<pdfrwt beam="2">  1        5 0.59488930E-01 0.12750470E+03</pdfrwt>
<pdfrwt beam="1">  1       -5 0.68564140E-02 0.12750470E+03</pdfrwt>
<totfact> 0.28379771E+02</totfact>
</mgrwt>
</event>
<event>
 8    1  0.3588496E-007  0.1647766E+03  0.7546771E-02  0.1183413E+00
          5   -1    0    0  501    0  0.00000000000E+00  0.00000000000E+00  0.19656469695E+03  0.19662087907E+03  0.47000000000E+01 0.  1.
         -5   -1    0    0    0  501 -0.00000000000E+00 -0.00000000000E+00 -0.16927956600E+03  0.16934480052E+03  0.47000000000E+01 0.  1.
         25    2    1    2    0    0 -0.19158141154E+02  0.10564810002E+03 -0.64991264216E+02  0.17711050409E+03  0.12496283777E+03 0.  0.
         25    2    1    2    0    0  0.19158141154E+02 -0.10564810002E+03  0.92276395167E+02  0.18885517550E+03  0.12499115488E+03 0.  0.
          5    1    3    3  502    0 -0.24315889868E+02 -0.24237215194E+02 -0.15057673189E+02  0.37782649752E+02  0.47000000000E+01 0.  1.
         -5    1    3    3    0  502  0.51577487135E+01  0.12988531522E+03 -0.49933591028E+02  0.13932785434E+03  0.47000000000E+01 0.  1.
          5    1    4    4  503    0 -0.39428170907E+02  0.43169034917E+01  0.25870936464E+02  0.47587936185E+02  0.47000000000E+01 0.  1.
         -5    1    4    4    0  503  0.58586312062E+02 -0.10996500352E+03  0.66405458703E+02  0.14126723932E+03  0.47000000000E+01 0.  1.
<mgrwt>
<rscale>  0 0.16477128E+03</rscale>
<asrwt>0</asrwt>
<pdfrwt beam="1">  1        5 0.30250062E-01 0.16477665E+03</pdfrwt>
<pdfrwt beam="2">  1       -5 0.26052350E-01 0.16477665E+03</pdfrwt>
<totfact> 0.11343306E+02</totfact>
</mgrwt>
</event>
<event>
 8    1  0.3588496E-007  0.1307365E+03  0.7546771E-02  0.1226375E+00
         -5   -1    0    0    0  501 -0.00000000000E+00  0.00000000000E+00  0.12202935205E+03  0.12211982952E+03  0.47000000000E+01 0.  1.
          5   -1    0    0  501    0  0.00000000000E+00 -0.00000000000E+00 -0.18802034182E+03  0.18807907629E+03  0.47000000000E+01 0.  1.
         25    2    1    2    0    0  0.10405530061E+02  0.36863700203E+02  0.45466983626E+02  0.13841707881E+03  0.12499933463E+03 0.  0.
         25    2    1    2    0    0 -0.10405530061E+02 -0.36863700203E+02 -0.11145797340E+03  0.17178182700E+03  0.12497563284E+03 0.  0.
          5    1    3    3  502    0 -0.89404914946E+01 -0.60848425115E+00  0.81879812129E+02  0.82502704656E+02  0.47000000000E+01 0.  1.
         -5    1    3    3    0  502  0.19346021556E+02  0.37472184454E+02 -0.36412828504E+02  0.55914374158E+02  0.47000000000E+01 0.  1.
          5    1    4    4  503    0 -0.39721958343E+02 -0.46582717443E+02 -0.58818090664E+01  0.61680379513E+02  0.47000000000E+01 0. -1.
         -5    1    4    4    0  503  0.29316428281E+02  0.97190172395E+01 -0.10557616433E+03  0.11010144748E+03  0.47000000000E+01 0. -1.
<mgrwt>
<rscale>  0 0.13073087E+03</rscale>
<asrwt>0</asrwt>
<pdfrwt beam="2">  1        5 0.28937684E-01 0.13073653E+03</pdfrwt>
<pdfrwt beam="1">  1       -5 0.18785224E-01 0.13073653E+03</pdfrwt>
<totfact> 0.21298597E+02</totfact>
</mgrwt>
</event>
<event>
 8    1  0.3588496E-007  0.1366432E+03  0.7546771E-02  0.1217919E+00
          5   -1    0    0  501    0  0.00000000000E+00  0.00000000000E+00  0.24008727995E+03  0.24013327964E+03  0.47000000000E+01 0.  1.
         -5   -1    0    0    0  501 -0.00000000000E+00 -0.00000000000E+00 -0.77821549761E+02  0.77963347845E+02  0.47000000000E+01 0.  1.
         25    2    1    2    0    0  0.44583559753E+02 -0.32538188952E+02  0.73533084253E+02  0.15517242091E+03  0.12499975276E+03 0.  0.
         25    2    1    2    0    0 -0.44583559753E+02  0.32538188952E+02  0.88732645933E+02  0.16292420658E+03  0.12499754835E+03 0.  0.
          5    1    4    4  502    0 -0.26018079770E+02 -0.42359332621E+02  0.65180922150E+02  0.82109050338E+02  0.47000000000E+01 0.  1.
         -5    1    4    4    0  502 -0.18565479983E+02  0.74897521573E+02  0.23551723783E+02  0.80815156239E+02  0.47000000000E+01 0.  1.
          5    1    3    3  503    0  0.67295049051E+02 -0.46057814440E+02  0.53069981744E+01  0.81854750182E+02  0.47000000000E+01 0. -1.
         -5    1    3    3    0  503 -0.22711489298E+02  0.13519625488E+02  0.68226086079E+02  0.73317670729E+02  0.47000000000E+01 0. -1.
<mgrwt>
<rscale>  0 0.13664270E+03</rscale>
<asrwt>0</asrwt>
<pdfrwt beam="1">  1        5 0.36950950E-01 0.13664321E+03</pdfrwt>
<pdfrwt beam="2">  1       -5 0.11986992E-01 0.13664321E+03</pdfrwt>
<totfact> 0.30022472E+02</totfact>
</mgrwt>
</event>
<event>
 8    1  0.3588496E-007  0.1422558E+03  0.7546771E-02  0.1210325E+00
         -5   -1    0    0    0  501 -0.00000000000E+00  0.00000000000E+00  0.39224832514E+02  0.39505410842E+02  0.47000000000E+01 0. -1.
          5   -1    0    0  501    0  0.00000000000E+00 -0.00000000000E+00 -0.55939573655E+03  0.55941548072E+03  0.47000000000E+01 0. -1.
         25    2    1    2    0    0 -0.13670660164E+02 -0.66518918341E+02 -0.17459967791E+03  0.22521490736E+03  0.12500021410E+03 0.  0.
         25    2    1    2    0    0  0.13670660164E+02  0.66518918341E+02 -0.34557122613E+03  0.37370598420E+03  0.12500014741E+03 0.  0.
          5    1    4    4  502    0  0.39985891476E+02 -0.13291408806E+02 -0.46104165544E+02  0.62635590088E+02  0.47000000000E+01 0. -1.
         -5    1    4    4    0  502 -0.26315231312E+02  0.79810327147E+02 -0.29946706058E+03  0.31107039411E+03  0.47000000000E+01 0. -1.
          5    1    3    3  503    0  0.41010926529E+02 -0.54782221091E+02 -0.14796568545E+03  0.16309175918E+03  0.47000000000E+01 0. -1.
         -5    1    3    3    0  503 -0.54681586693E+02 -0.11736697250E+02 -0.26633992460E+02  0.62123148182E+02  0.47000000000E+01 0. -1.
<mgrwt>
<rscale>  0 0.14225577E+03</rscale>
<asrwt>0</asrwt>
<pdfrwt beam="2">  1        5 0.86083979E-01 0.14225578E+03</pdfrwt>
<pdfrwt beam="1">  1       -5 0.60576917E-02 0.14225578E+03</pdfrwt>
<totfact> 0.15734776E+02</totfact>
</mgrwt>
</event>
<event>
 8    1  0.3588496E-007  0.1525332E+03  0.7546771E-02  0.1197397E+00
          5   -1    0    0  501    0  0.00000000000E+00  0.00000000000E+00  0.36237901237E+02  0.36541421511E+02  0.47000000000E+01 0. -1.
         -5   -1    0    0    0  501 -0.00000000000E+00 -0.00000000000E+00 -0.64377095083E+03  0.64378810733E+03  0.47000000000E+01 0. -1.
         25    2    1    2    0    0  0.81064174680E+02  0.32662968378E+02 -0.33301181349E+03  0.36628303214E+03  0.12501248652E+03 0.  0.
         25    2    1    2    0    0 -0.81064174680E+02 -0.32662968378E+02 -0.27452123610E+03  0.31404649670E+03  0.12500009239E+03 0.  0.
          5    1    3    3  502    0  0.45512140026E+02 -0.38507984407E+02 -0.22009412781E+03  0.22807396793E+03  0.47000000000E+01 0. -1.
         -5    1    3    3    0  502  0.35552034654E+02  0.71170952785E+02 -0.11291768569E+03  0.13820906421E+03  0.47000000000E+01 0. -1.
          5    1    4    4  503    0  0.20261422918E+01  0.19546889186E+02  0.22737088922E+01  0.20333368672E+02  0.47000000000E+01 0.  1.
         -5    1    4    4    0  503 -0.83090316972E+02 -0.52209857564E+02 -0.27679494499E+03  0.29371312803E+03  0.47000000000E+01 0.  1.
<mgrwt>
<rscale>  0 0.15253071E+03</rscale>
<asrwt>0</asrwt>
<pdfrwt beam="1">  1        5 0.55997296E-02 0.15253325E+03</pdfrwt>
<pdfrwt beam="2">  1       -5 0.99066344E-01 0.15253325E+03</pdfrwt>
<totfact> 0.13124981E+02</totfact>
</mgrwt>
</event>
<event>
 8    1  0.3588496E-007  0.1572384E+03  0.7546771E-02  0.1191850E+00
          5   -1    0    0  501    0  0.00000000000E+00  0.00000000000E+00  0.42618401194E+03  0.42620992719E+03  0.47000000000E+01 0. -1.
         -5   -1    0    0    0  501 -0.00000000000E+00 -0.00000000000E+00 -0.57891368738E+02  0.58081843758E+02  0.47000000000E+01 0. -1.
         25    2    1    2    0    0  0.61639475996E+02 -0.72796203394E+02  0.18557485773E+03  0.24323219885E+03  0.12500065002E+03 0.  0.
         25    2    1    2    0    0 -0.61639475996E+02  0.72796203394E+02  0.18271778548E+03  0.24105957210E+03  0.12500086376E+03 0.  0.
          5    1    3    3  502    0  0.64634745036E+02  0.16910439502E+02  0.70908660622E+02  0.97538409773E+02  0.47000000000E+01 0.  1.
         -5    1    3    3    0  502 -0.29952690399E+01 -0.89706642896E+02  0.11466619711E+03  0.14569378908E+03  0.47000000000E+01 0.  1.
          5    1    4    4  503    0  0.20587552587E+02 -0.21892182377E+02  0.49018744199E+02  0.57689186627E+02  0.47000000000E+01 0. -1.
         -5    1    4    4    0  503 -0.82227028583E+02  0.94688385772E+02  0.13369904128E+03  0.18337038547E+03  0.47000000000E+01 0. -1.
<mgrwt>
<rscale>  0 0.15723840E+03</rscale>
<asrwt>0</asrwt>
<pdfrwt beam="1">  1        5 0.65583417E-01 0.15723844E+03</pdfrwt>
<pdfrwt beam="2">  1       -5 0.89230098E-02 0.15723844E+03</pdfrwt>
<totfact> 0.15637589E+02</totfact>
</mgrwt>
</event>
<event>
 8    1  0.3588496E-007  0.1895584E+03  0.7546771E-02  0.1158863E+00
         -5   -1    0    0    0  501 -0.00000000000E+00  0.00000000000E+00  0.58435177241E+02  0.58623885398E+02  0.47000000000E+01 0.  1.
          5   -1    0    0  501    0  0.00000000000E+00 -0.00000000000E+00 -0.66434938954E+03  0.66436601462E+03  0.47000000000E+01 0.  1.
         25    2    1    2    0    0 -0.95844050166E+02 -0.10544425830E+03 -0.20313905281E+03  0.27783801491E+03  0.12499565671E+03 0.  0.
         25    2    1    2    0    0  0.95844050166E+02  0.10544425830E+03 -0.40277515949E+03  0.44515188510E+03  0.12501119208E+03 0.  0.
          5    1    4    4  502    0  0.11251305889E+03  0.43021904537E+02 -0.30399623759E+03  0.32702580198E+03  0.47000000000E+01 0.  1.
         -5    1    4    4    0  502 -0.16669008725E+02  0.62422353766E+02 -0.98778921897E+02  0.11812608312E+03  0.47000000000E+01 0.  1.
          5    1    3    3  503    0 -0.30181759361E+02 -0.11458479922E+02  0.11384725916E+02  0.34553398450E+02  0.47000000000E+01 0.  1.
         -5    1    3    3    0  503 -0.65662290805E+02 -0.93985778381E+02 -0.21452377872E+03  0.24328461647E+03  0.47000000000E+01 0.  1.
<mgrwt>
<rscale>  0 0.18955580E+03</rscale>
<asrwt>0</asrwt>
<pdfrwt beam="2">  1        5 0.10222339E+00 0.18955836E+03</pdfrwt>
<pdfrwt beam="1">  1       -5 0.90058226E-02 0.18955836E+03</pdfrwt>
<totfact> 0.57519531E+01</totfact>
</mgrwt>
</event>
<event>
 8    1  0.3588496E-007  0.1287228E+03  0.7546771E-02  0.1229364E+00
          5   -1    0    0  501    0  0.00000000000E+00  0.00000000000E+00  0.13094868841E+03  0.13103300728E+03  0.47000000000E+01 0.  1.
         -5   -1    0    0    0  501 -0.00000000000E+00 -0.00000000000E+00 -0.13150748541E+03  0.13159144623E+03  0.47000000000E+01 0.  1.
         25    2    1    2    0    0  0.30640964413E+02 -0.24826225144E+01 -0.26228912064E+02  0.13136786341E+03  0.12499811036E+03 0.  0.
         25    2    1    2    0    0 -0.30640964413E+02  0.24826225144E+01  0.25670115059E+02  0.13125659009E+03  0.12499722205E+03 0.  0.
          5    1    3    3  502    0  0.35454278221E+02  0.28306421889E+01  0.46166006039E+02  0.58467157388E+02  0.47000000000E+01 0.  1.
         -5    1    3    3    0  502 -0.48133138088E+01 -0.53132647033E+01 -0.72394918104E+02  0.72900706025E+02  0.47000000000E+01 0.  1.
          5    1    4    4  503    0  0.42617477540E+02 -0.21504025695E+02 -0.48611946953E+01  0.48211966635E+02  0.47000000000E+01 0.  1.
         -5    1    4    4    0  503 -0.73258441952E+02  0.23986648210E+02  0.30531309755E+02  0.83044623456E+02  0.47000000000E+01 0.  1.
<mgrwt>
<rscale>  0 0.12872259E+03</rscale>
<asrwt>0</asrwt>
<pdfrwt beam="1">  1        5 0.20158897E-01 0.12872280E+03</pdfrwt>
<pdfrwt beam="2">  1       -5 0.20244866E-01 0.12872280E+03</pdfrwt>
<totfact> 0.36713467E+02</totfact>
</mgrwt>
</event>
<event>
 8    1  0.3588496E-007  0.1479768E+03  0.7546771E-02  0.1202982E+00
         -5   -1    0    0    0  501 -0.00000000000E+00  0.00000000000E+00  0.27306101104E+03  0.27310145689E+03  0.47000000000E+01 0. -1.
          5   -1    0    0  501    0  0.00000000000E+00 -0.00000000000E+00 -0.84648895209E+02  0.84779274944E+02  0.47000000000E+01 0. -1.
         25    2    1    2    0    0  0.70674644167E+01 -0.78882572134E+02  0.13575626839E+03  0.20081554775E+03  0.12499884228E+03 0.  0.
         25    2    1    2    0    0 -0.70674644167E+01  0.78882572134E+02  0.52655847450E+02  0.15706518408E+03  0.12499769814E+03 0.  0.
          5    1    4    4  502    0  0.23483158253E+02  0.10176397816E+03  0.55755898748E+02  0.11848280980E+03  0.47000000000E+01 0. -1.
         -5    1    4    4    0  502 -0.30550622669E+02 -0.22881406028E+02 -0.31000512975E+01  0.38582374283E+02  0.47000000000E+01 0. -1.
          5    1    3    3  503    0 -0.31272831690E+02  0.17444426088E+02  0.67631277075E+02  0.76670578726E+02  0.47000000000E+01 0.  1.
         -5    1    3    3    0  503  0.38340296107E+02 -0.96326998222E+02  0.68124991310E+02  0.12414496902E+03  0.47000000000E+01 0.  1.
<mgrwt>
<rscale>  0 0.14797651E+03</rscale>
<asrwt>0</asrwt>
<pdfrwt beam="2">  1        5 0.13036048E-01 0.14797675E+03</pdfrwt>
<pdfrwt beam="1">  1       -5 0.42022526E-01 0.14797675E+03</pdfrwt>
<totfact> 0.20426496E+02</totfact>
</mgrwt>
</event>
<event>
 8    1  0.3588496E-007  0.1317008E+03  0.7546771E-02  0.1224955E+00
          5   -1    0    0  501    0  0.00000000000E+00  0.00000000000E+00  0.75223950211E+03  0.75225418479E+03  0.47000000000E+01 0.  1.
         -5   -1    0    0    0  501 -0.00000000000E+00 -0.00000000000E+00 -0.23974848176E+02  0.24431196145E+02  0.47000000000E+01 0.  1.
         25    2    1    2    0    0  0.38208850386E+02  0.16109751446E+02  0.27911092575E+03  0.30862109732E+03  0.12499852997E+03 0.  0.
         25    2    1    2    0    0 -0.38208850386E+02 -0.16109751446E+02  0.44915372818E+03  0.46806428362E+03  0.12500264686E+03 0.  0.
          5    1    3    3  502    0  0.25544634121E+02  0.45530185856E+02  0.26992813554E+03  0.27497057027E+03  0.47000000000E+01 0. -1.
         -5    1    3    3    0  502  0.12664216265E+02 -0.29420434410E+02  0.91827902092E+01  0.33650527046E+02  0.47000000000E+01 0. -1.
          5    1    4    4  503    0  0.35504586813E+02 -0.31153084300E+02  0.26262429675E+03  0.26687956383E+03  0.47000000000E+01 0. -1.
         -5    1    4    4    0  503 -0.73713437199E+02  0.15043332854E+02  0.18652943143E+03  0.20118471979E+03  0.47000000000E+01 0. -1.
<mgrwt>
<rscale>  0 0.13169983E+03</rscale>
<asrwt>0</asrwt>
<pdfrwt beam="1">  1        5 0.11576538E+00 0.13170081E+03</pdfrwt>
<pdfrwt beam="2">  1       -5 0.37246714E-02 0.13170081E+03</pdfrwt>
<totfact> 0.16705656E+02</totfact>
</mgrwt>
</event>
<event>
 8    1  0.3588496E-007  0.1337473E+03  0.7546771E-02  0.1222014E+00
         -5   -1    0    0    0  501 -0.00000000000E+00  0.00000000000E+00  0.34481453594E+03  0.34484656616E+03  0.47000000000E+01 0. -1.
          5   -1    0    0  501    0  0.00000000000E+00 -0.00000000000E+00 -0.52715258463E+02  0.52924365606E+02  0.47000000000E+01 0. -1.
         25    2    1    2    0    0 -0.47450915922E+02  0.56706623523E+00  0.17332654629E+03  0.21893019824E+03  0.12504570791E+03 0.  0.
         25    2    1    2    0    0  0.47450915922E+02 -0.56706623523E+00  0.11877273118E+03  0.17884073352E+03  0.12500054124E+03 0.  0.
          5    1    3    3  502    0 -0.59970675874E+02 -0.30736804335E+02  0.17208258433E+03  0.18486681404E+03  0.47000000000E+01 0. -1.
         -5    1    3    3    0  502  0.12519759952E+02  0.31303870570E+02  0.12439619677E+01  0.34063384202E+02  0.47000000000E+01 0. -1.
          5    1    4    4  503    0  0.37860989526E+02  0.59876580332E+02  0.51081830208E+02  0.87464865960E+02  0.47000000000E+01 0. -1.
         -5    1    4    4    0  503  0.95899263963E+01 -0.60443646567E+02  0.67690900973E+02  0.91375867564E+02  0.47000000000E+01 0. -1.
<mgrwt>
<rscale>  0 0.13373674E+03</rscale>
<asrwt>0</asrwt>
<pdfrwt beam="2">  1        5 0.81285890E-02 0.13374730E+03</pdfrwt>
<pdfrwt beam="1">  1       -5 0.53066938E-01 0.13374730E+03</pdfrwt>
<totfact> 0.27645646E+02</totfact>
</mgrwt>
</event>
<event>
 8    1  0.3588496E-007  0.1597175E+03  0.7546771E-02  0.1189019E+00
         -5   -1    0    0    0  501 -0.00000000000E+00  0.00000000000E+00  0.85621958564E+02  0.85750858820E+02  0.47000000000E+01 0. -1.
          5   -1    0    0  501    0  0.00000000000E+00 -0.00000000000E+00 -0.34958551066E+03  0.34961710379E+03  0.47000000000E+01 0. -1.
         25    2    1    2    0    0 -0.26673022786E+02 -0.95765937720E+02 -0.48016378237E+02  0.16677902104E+03  0.12500841695E+03 0.  0.
         25    2    1    2    0    0  0.26673022786E+02  0.95765937720E+02 -0.21594717385E+03  0.26858894156E+03  0.12499709062E+03 0.  0.
          5    1    3    3  502    0  0.22608642546E+02  0.14614335548E+02 -0.36018157488E+02  0.45212024840E+02  0.47000000000E+01 0. -1.
         -5    1    3    3    0  502 -0.49281665332E+02 -0.11038027327E+03 -0.11998220749E+02  0.12156699620E+03  0.47000000000E+01 0. -1.
          5    1    4    4  503    0 -0.41685113832E+02  0.40767833278E+02 -0.36944443768E+02  0.69185597278E+02  0.47000000000E+01 0.  1.
         -5    1    4    4    0  503  0.68358136618E+02  0.54998104441E+02 -0.17900273009E+03  0.19940334429E+03  0.47000000000E+01 0.  1.
<mgrwt>
<rscale>  0 0.15971525E+03</rscale>
<asrwt>0</asrwt>
<pdfrwt beam="2">  1        5 0.53794731E-01 0.15971747E+03</pdfrwt>
<pdfrwt beam="1">  1       -5 0.13184955E-01 0.15971747E+03</pdfrwt>
<totfact> 0.12192683E+02</totfact>
</mgrwt>
</event>
<event>
 8    1  0.3588496E-007  0.1277861E+03  0.7546771E-02  0.1230779E+00
         -5   -1    0    0    0  501 -0.00000000000E+00  0.00000000000E+00  0.75820232283E+02  0.75965766129E+02  0.47000000000E+01 0.  1.
          5   -1    0    0  501    0  0.00000000000E+00 -0.00000000000E+00 -0.22024554531E+03  0.22029568818E+03  0.47000000000E+01 0.  1.
         25    2    1    2    0    0  0.26000526852E+02  0.52763412280E+01 -0.49338640356E+02  0.13697939911E+03  0.12500074870E+03 0.  0.
         25    2    1    2    0    0 -0.26000526852E+02 -0.52763412280E+01 -0.95086672670E+02  0.15928205519E+03  0.12500172244E+03 0.  0.
          5    1    3    3  502    0  0.57120710468E+02 -0.41631134934E+02 -0.21663646420E+02  0.74076518118E+02  0.47000000000E+01 0.  1.
         -5    1    3    3    0  502 -0.31120183616E+02  0.46907476162E+02 -0.27674993936E+02  0.62902880996E+02  0.47000000000E+01 0.  1.
          5    1    4    4  503    0 -0.67263099768E+02 -0.33057612807E+02 -0.40649209636E+02  0.85390740709E+02  0.47000000000E+01 0. -1.
         -5    1    4    4    0  503  0.41262572916E+02  0.27781271579E+02 -0.54437463034E+02  0.73891314481E+02  0.47000000000E+01 0. -1.
<mgrwt>
<rscale>  0 0.12778590E+03</rscale>
<asrwt>0</asrwt>
<pdfrwt beam="2">  1        5 0.33898982E-01 0.12778614E+03</pdfrwt>
<pdfrwt beam="1">  1       -5 0.11679703E-01 0.12778614E+03</pdfrwt>
<totfact> 0.36486949E+02</totfact>
</mgrwt>
</event>
<event>
 8    1  0.3588496E-007  0.1376413E+03  0.7546771E-02  0.1216544E+00
         -5   -1    0    0    0  501 -0.00000000000E+00  0.00000000000E+00  0.66672919049E+02  0.66838373219E+02  0.47000000000E+01 0. -1.
          5   -1    0    0  501    0  0.00000000000E+00 -0.00000000000E+00 -0.65483958968E+03  0.65485645619E+03  0.47000000000E+01 0. -1.
         25    2    1    2    0    0 -0.44509007849E+02  0.36593962056E+02 -0.22427150913E+02  0.13945641637E+03  0.12499978052E+03 0.  0.
         25    2    1    2    0    0  0.44509007849E+02 -0.36593962056E+02 -0.56573951972E+03  0.58223841303E+03  0.12498078094E+03 0.  0.
          5    1    4    4  502    0 -0.15985370390E+02 -0.30192820732E+01 -0.56187285209E+01  0.17841195054E+02  0.47000000000E+01 0. -1.
         -5    1    4    4    0  502  0.60494378239E+02 -0.33574679983E+02 -0.56012079120E+03  0.56439721798E+03  0.47000000000E+01 0. -1.
          5    1    3    3  503    0 -0.47458163543E+02  0.36114153376E+02 -0.69702953132E+02  0.91853693645E+02  0.47000000000E+01 0. -1.
         -5    1    3    3    0  503  0.29491556940E+01  0.47980868000E+00  0.47275802218E+02  0.47602722727E+02  0.47000000000E+01 0. -1.
<mgrwt>
<rscale>  0 0.13763694E+03</rscale>
<asrwt>0</asrwt>
<pdfrwt beam="2">  1        5 0.10075857E+00 0.13764125E+03</pdfrwt>
<pdfrwt beam="1">  1       -5 0.10271397E-01 0.13764125E+03</pdfrwt>
<totfact> 0.43226483E+01</totfact>
</mgrwt>
</event>
<event>
 8    1  0.3588496E-007  0.1894516E+03  0.7546771E-02  0.1158957E+00
          5   -1    0    0  501    0  0.00000000000E+00  0.00000000000E+00  0.86502145998E+01  0.98446032233E+01  0.47000000000E+01 0.  1.
         -5   -1    0    0    0  501 -0.00000000000E+00 -0.00000000000E+00 -0.43706466429E+04  0.43706491700E+04  0.47000000000E+01 0.  1.
         25    2    1    2    0    0 -0.13273528450E+03 -0.51446065852E+02 -0.14473078255E+04  0.14596547038E+04  0.12500623621E+03 0.  0.
         25    2    1    2    0    0  0.13273528450E+03  0.51446065852E+02 -0.29146886028E+04  0.29208390694E+04  0.12500345885E+03 0.  0.
          5    1    4    4  502    0  0.53905625113E+02 -0.40512086275E+02 -0.93109618337E+03  0.93354659136E+03  0.47000000000E+01 0. -1.
         -5    1    4    4    0  502  0.78829659387E+02  0.91958152126E+02 -0.19835924194E+04  0.19872924780E+04  0.47000000000E+01 0. -1.
          5    1    3    3  503    0 -0.53574291207E+02 -0.68795386987E+02 -0.10779858149E+04  0.10815167669E+04  0.47000000000E+01 0. -1.
         -5    1    3    3    0  503 -0.79160993293E+02  0.17349321135E+02 -0.36932201059E+03  0.37813793688E+03  0.47000000000E+01 0. -1.
<mgrwt>
<rscale>  0 0.18945115E+03</rscale>
<asrwt>0</asrwt>
<pdfrwt beam="1">  1        5 0.14228762E-02 0.18945161E+03</pdfrwt>
<pdfrwt beam="2">  1       -5 0.67249760E+00 0.18945161E+03</pdfrwt>
<totfact> 0.47123010E-02</totfact>
</mgrwt>
</event>
<event>
 8    1  0.3588496E-007  0.1263637E+03  0.7546771E-02  0.1232954E+00
          5   -1    0    0  501    0  0.00000000000E+00  0.00000000000E+00  0.21474060189E+03  0.21479202988E+03  0.47000000000E+01 0.  1.
         -5   -1    0    0    0  501 -0.00000000000E+00 -0.00000000000E+00 -0.78293234612E+02  0.78434179961E+02  0.47000000000E+01 0.  1.
         25    2    1    2    0    0  0.15392921398E+02 -0.10284050750E+02  0.34835041376E+02  0.13107728938E+03  0.12500028781E+03 0.  0.
         25    2    1    2    0    0 -0.15392921398E+02  0.10284050750E+02  0.10161232590E+03  0.16214892047E+03  0.12499801560E+03 0.  0.
          5    1    3    3  502    0 -0.75176727023E+01 -0.27304597521E+01 -0.45825715659E+02  0.46755288781E+02  0.47000000000E+01 0. -1.
         -5    1    3    3    0  502  0.22910594101E+02 -0.75535909984E+01  0.80660757035E+02  0.84322000596E+02  0.47000000000E+01 0. -1.
          5    1    4    4  503    0  0.15189711224E+02 -0.21341152349E+02 -0.19640678884E+02  0.33075948628E+02  0.47000000000E+01 0. -1.
         -5    1    4    4    0  503 -0.30582632622E+02  0.31625203100E+02  0.12125300479E+03  0.12907297184E+03  0.47000000000E+01 0. -1.
<mgrwt>
<rscale>  0 0.12636310E+03</rscale>
<asrwt>0</asrwt>
<pdfrwt beam="1">  1        5 0.33051814E-01 0.12636366E+03</pdfrwt>
<pdfrwt beam="2">  1       -5 0.12059911E-01 0.12636366E+03</pdfrwt>
<totfact> 0.36108347E+02</totfact>
</mgrwt>
</event>
<event>
 8    1  0.3588496E-007  0.1544240E+03  0.7546771E-02  0.1195141E+00
          5   -1    0    0  501    0  0.00000000000E+00  0.00000000000E+00  0.18903259510E+03  0.18909101514E+03  0.47000000000E+01 0. -1.
         -5   -1    0    0    0  501 -0.00000000000E+00 -0.00000000000E+00 -0.12619295764E+03  0.12628045201E+03  0.47000000000E+01 0. -1.
         25    2    1    2    0    0 -0.87906304306E+02  0.22198516803E+02  0.37126004883E+02  0.15882128717E+03  0.12500227411E+03 0.  0.
         25    2    1    2    0    0  0.87906304306E+02 -0.22198516803E+02  0.25713632568E+02  0.15655017998E+03  0.12500590173E+03 0.  0.
          5    1    4    4  502    0  0.10000446760E+03  0.22677932743E+02  0.35879867819E+02  0.10874114717E+03  0.47000000000E+01 0. -1.
         -5    1    4    4    0  502 -0.12098163298E+02 -0.44876449545E+02 -0.10166235251E+02  0.47809032809E+02  0.47000000000E+01 0. -1.
          5    1    3    3  503    0 -0.46731004228E+02  0.24612372322E+02  0.82025204848E+02  0.97671796635E+02  0.47000000000E+01 0.  1.
         -5    1    3    3    0  503 -0.41175300078E+02 -0.24138555192E+01 -0.44899199964E+02  0.61149490533E+02  0.47000000000E+01 0.  1.
<mgrwt>
<rscale>  0 0.15442325E+03</rscale>
<asrwt>0</asrwt>
<pdfrwt beam="1">  1        5 0.29093162E-01 0.15442399E+03</pdfrwt>
<pdfrwt beam="2">  1       -5 0.19425525E-01 0.15442399E+03</pdfrwt>
<totfact> 0.20942261E+02</totfact>
</mgrwt>
</event>
<event>
 8    1  0.3588496E-007  0.1596712E+03  0.7546771E-02  0.1189071E+00
          5   -1    0    0  501    0  0.00000000000E+00  0.00000000000E+00  0.29908959787E+03  0.29912652433E+03  0.47000000000E+01 0. -1.
         -5   -1    0    0    0  501 -0.00000000000E+00 -0.00000000000E+00 -0.86371352919E+02  0.86499136441E+02  0.47000000000E+01 0. -1.
         25    2    1    2    0    0  0.99060840536E+02 -0.73383810879E+01  0.83265503446E+02  0.18007783392E+03  0.12501192040E+03 0.  0.
         25    2    1    2    0    0 -0.99060840536E+02  0.73383810879E+01  0.12945274151E+03  0.20554782685E+03  0.12499997949E+03 0.  0.
          5    1    3    3  502    0  0.70695453501E+02 -0.61980198895E+02  0.30779736550E+02  0.99039761625E+02  0.47000000000E+01 0.  1.
         -5    1    3    3    0  502  0.28365387035E+02  0.54641817807E+02  0.52485766896E+02  0.81038072296E+02  0.47000000000E+01 0.  1.
          5    1    4    4  503    0 -0.11385272885E+03 -0.27731374539E+02  0.75954332988E+02  0.13972338280E+03  0.47000000000E+01 0.  1.
         -5    1    4    4    0  503  0.14791888319E+02  0.35069755627E+02  0.53498408519E+02  0.65824444046E+02  0.47000000000E+01 0.  1.
<mgrwt>
<rscale>  0 0.15966883E+03</rscale>
<asrwt>0</asrwt>
<pdfrwt beam="1">  1        5 0.46026454E-01 0.15967117E+03</pdfrwt>
<pdfrwt beam="2">  1       -5 0.13300571E-01 0.15967117E+03</pdfrwt>
<totfact> 0.16715687E+02</totfact>
</mgrwt>
</event>
<event>
 8    1  0.3588496E-007  0.1315958E+03  0.7546771E-02  0.1225134E+00
         -5   -1    0    0    0  501 -0.00000000000E+00  0.00000000000E+00  0.47630039963E+03  0.47632358822E+03  0.47000000000E+01 0. -1.
          5   -1    0    0  501    0  0.00000000000E+00 -0.00000000000E+00 -0.36377404697E+02  0.36679770616E+02  0.47000000000E+01 0. -1.
         25    2    1    2    0    0 -0.37274839565E+02 -0.17411164140E+02  0.23957992494E+03  0.27330606515E+03  0.12492038470E+03 0.  0.
         25    2    1    2    0    0  0.37274839565E+02  0.17411164140E+02  0.20034307000E+03  0.23969729368E+03  0.12499953840E+03 0.  0.
          5    1    3    3  502    0 -0.16580597346E+02  0.23064921348E+02  0.22275120450E+03  0.22460430965E+03  0.47000000000E+01 0. -1.
         -5    1    3    3    0  502 -0.20694242219E+02 -0.40476085489E+02  0.16828720436E+02  0.48701755502E+02  0.47000000000E+01 0. -1.
          5    1    4    4  503    0  0.28414014772E+02  0.66840263890E+02  0.15756681970E+03  0.17356373406E+03  0.47000000000E+01 0.  1.
         -5    1    4    4    0  503  0.88608247931E+01 -0.49429099750E+02  0.42776250300E+02  0.66133559618E+02  0.47000000000E+01 0.  1.
<mgrwt>
<rscale>  0 0.13157697E+03</rscale>
<asrwt>0</asrwt>
<pdfrwt beam="2">  1        5 0.56215669E-02 0.13159577E+03</pdfrwt>
<pdfrwt beam="1">  1       -5 0.73302022E-01 0.13159577E+03</pdfrwt>
<totfact> 0.25191353E+02</totfact>
</mgrwt>
</event>
<event>
 8    1  0.3588496E-007  0.1616294E+03  0.7546771E-02  0.1186870E+00
          5   -1    0    0  501    0  0.00000000000E+00  0.00000000000E+00  0.24643129037E+03  0.24647610609E+03  0.47000000000E+01 0. -1.
         -5   -1    0    0    0  501 -0.00000000000E+00 -0.00000000000E+00 -0.11429035393E+03  0.11438695293E+03  0.47000000000E+01 0. -1.
         25    2    1    2    0    0 -0.99740096393E+02 -0.23514665369E+02  0.17216188442E+02  0.16254068913E+03  0.12498820809E+03 0.  0.
         25    2    1    2    0    0  0.99740096393E+02  0.23514665369E+02  0.11492474800E+03  0.19832236989E+03  0.12499215328E+03 0.  0.
          5    1    3    3  502    0 -0.44170859526E+02 -0.34206916764E+02 -0.49599354973E+02  0.74855621028E+02  0.47000000000E+01 0.  1.
         -5    1    3    3    0  502 -0.55569236868E+02  0.10692251395E+02  0.66815543415E+02  0.87685068101E+02  0.47000000000E+01 0.  1.
          5    1    4    4  503    0  0.10501183063E+03  0.72429396584E+01  0.27197514851E+02  0.10881975722E+03  0.47000000000E+01 0.  1.
         -5    1    4    4    0  503 -0.52717342371E+01  0.16271725710E+02  0.87727233150E+02  0.89502612675E+02  0.47000000000E+01 0.  1.
<mgrwt>
<rscale>  0 0.16162864E+03</rscale>
<asrwt>0</asrwt>
<pdfrwt beam="1">  1        5 0.37923383E-01 0.16162941E+03</pdfrwt>
<pdfrwt beam="2">  1       -5 0.17594010E-01 0.16162941E+03</pdfrwt>
<totfact> 0.15045980E+02</totfact>
</mgrwt>
</event>
<event>
 8    1  0.3588496E-007  0.1353676E+03  0.7546771E-02  0.1219704E+00
          5   -1    0    0  501    0  0.00000000000E+00  0.00000000000E+00  0.73078342345E+03  0.73079853721E+03  0.47000000000E+01 0. -1.
         -5   -1    0    0    0  501 -0.00000000000E+00 -0.00000000000E+00 -0.26036412373E+02  0.26457225275E+02  0.47000000000E+01 0. -1.
         25    2    1    2    0    0 -0.42564020693E+02  0.29769841829E+02  0.27184154619E+03  0.30368109462E+03  0.12500576649E+03 0.  0.
         25    2    1    2    0    0  0.42564020693E+02 -0.29769841829E+02  0.43290546489E+03  0.45357466786E+03  0.12499959383E+03 0.  0.
          5    1    3    3  502    0 -0.29998239625E+01  0.20028882544E+02  0.26022185812E+03  0.26105106880E+03  0.47000000000E+01 0. -1.
         -5    1    3    3    0  502 -0.39564196730E+02  0.97409592856E+01  0.11619688073E+02  0.42630025823E+02  0.47000000000E+01 0. -1.
          5    1    4    4  503    0  0.88068140500E+01 -0.67849174264E+02  0.13610330901E+03  0.15240495775E+03  0.47000000000E+01 0. -1.
         -5    1    4    4    0  503  0.33757206643E+02  0.38079332435E+02  0.29680215587E+03  0.30116971011E+03  0.47000000000E+01 0. -1.
<mgrwt>
<rscale>  0 0.13536615E+03</rscale>
<asrwt>0</asrwt>
<pdfrwt beam="1">  1        5 0.11246175E+00 0.13536758E+03</pdfrwt>
<pdfrwt beam="2">  1       -5 0.40391349E-02 0.13536758E+03</pdfrwt>
<totfact> 0.15873266E+02</totfact>
</mgrwt>
</event>
<event>
 8    1  0.3588496E-007  0.1515941E+03  0.7546771E-02  0.1198528E+00
         -5   -1    0    0    0  501 -0.00000000000E+00  0.00000000000E+00  0.35406166978E+03  0.35409286353E+03  0.47000000000E+01 0. -1.
          5   -1    0    0  501    0  0.00000000000E+00 -0.00000000000E+00 -0.64787851198E+02  0.64958106983E+02  0.47000000000E+01 0. -1.
         25    2    1    2    0    0 -0.74362907524E+02 -0.42729204072E+02  0.14354652610E+03  0.20877209366E+03  0.12499822014E+03 0.  0.
         25    2    1    2    0    0  0.74362907524E+02  0.42729204072E+02  0.14572729247E+03  0.21027887686E+03  0.12500054154E+03 0.  0.
          5    1    3    3  502    0 -0.48759515515E+02 -0.82722348253E+02  0.12472266610E+03  0.15747479383E+03  0.47000000000E+01 0.  1.
         -5    1    3    3    0  502 -0.25603392009E+02  0.39993144181E+02  0.18823860004E+02  0.51297299824E+02  0.47000000000E+01 0.  1.
          5    1    4    4  503    0 -0.14810595359E+02  0.58826647615E+02  0.57134138198E+02  0.83464531102E+02  0.47000000000E+01 0.  1.
         -5    1    4    4    0  503  0.89173502883E+02 -0.16097443543E+02  0.88593154276E+02  0.12681434576E+03  0.47000000000E+01 0.  1.
<mgrwt>
<rscale>  0 0.15159359E+03</rscale>
<asrwt>0</asrwt>
<pdfrwt beam="2">  1        5 0.99828579E-02 0.15159407E+03</pdfrwt>
<pdfrwt beam="1">  1       -5 0.54486522E-01 0.15159407E+03</pdfrwt>
<totfact> 0.19083840E+02</totfact>
</mgrwt>
</event>
<event>
 8    1  0.3588496E-007  0.1874787E+03  0.7546771E-02  0.1160757E+00
          5   -1    0    0  501    0  0.00000000000E+00  0.00000000000E+00  0.13343007208E+04  0.13343089986E+04  0.47000000000E+01 0.  1.
         -5   -1    0    0    0  501 -0.00000000000E+00 -0.00000000000E+00 -0.26337012895E+02  0.26753097919E+02  0.47000000000E+01 0.  1.
         25    2    1    2    0    0  0.50458468296E+02 -0.13029448183E+03  0.59312712476E+03  0.62205148942E+03  0.12500224133E+03 0.  0.
         25    2    1    2    0    0 -0.50458468296E+02  0.13029448183E+03  0.71483658317E+03  0.73901060705E+03  0.12499051033E+03 0.  0.
          5    1    4    4  502    0 -0.52964525940E+02  0.98975295662E+02  0.68889126698E+03  0.69799327925E+03  0.47000000000E+01 0.  1.
         -5    1    4    4    0  502  0.25060576449E+01  0.31319186172E+02  0.25945316192E+02  0.41017327798E+02  0.47000000000E+01 0.  1.
          5    1    3    3  503    0  0.44642583314E+02 -0.15496658819E+03  0.49725180168E+03  0.52277055002E+03  0.47000000000E+01 0.  1.
         -5    1    3    3    0  503  0.58158849811E+01  0.24672106356E+02  0.95875323088E+02  0.99280939396E+02  0.47000000000E+01 0.  1.
<mgrwt>
<rscale>  0 0.18747676E+03</rscale>
<asrwt>0</asrwt>
<pdfrwt beam="1">  1        5 0.20530970E+00 0.18747872E+03</pdfrwt>
<pdfrwt beam="2">  1       -5 0.40844910E-02 0.18747872E+03</pdfrwt>
<totfact> 0.31991167E+01</totfact>
</mgrwt>
</event>
<event>
 8    1  0.3588496E-007  0.1736017E+03  0.7546771E-02  0.1174144E+00
         -5   -1    0    0    0  501 -0.00000000000E+00  0.00000000000E+00  0.84668221855E+02  0.84798571875E+02  0.47000000000E+01 0.  1.
          5   -1    0    0  501    0  0.00000000000E+00 -0.00000000000E+00 -0.39042066707E+03  0.39044895604E+03  0.47000000000E+01 0.  1.
         25    2    1    2    0    0  0.99560317672E+02  0.67821069907E+02 -0.81846143026E+02  0.19192515454E+03  0.12499807775E+03 0.  0.
         25    2    1    2    0    0 -0.99560317672E+02 -0.67821069907E+02 -0.22390630219E+03  0.28332237337E+03  0.12500232284E+03 0.  0.
          5    1    4    4  502    0 -0.79469828335E+02 -0.36978247434E+02 -0.41344328319E+02  0.97027253300E+02  0.47000000000E+01 0. -1.
         -5    1    4    4    0  502 -0.20090489337E+02 -0.30842822473E+02 -0.18256197387E+03  0.18629512007E+03  0.47000000000E+01 0. -1.
          5    1    3    3  503    0  0.20241703716E+02  0.38092054371E+02  0.29110352784E+02  0.52251639350E+02  0.47000000000E+01 0.  1.
         -5    1    3    3    0  503  0.79318613956E+02  0.29729015535E+02 -0.11095649581E+03  0.13967351520E+03  0.47000000000E+01 0.  1.
<mgrwt>
<rscale>  0 0.17360089E+03</rscale>
<asrwt>0</asrwt>
<pdfrwt beam="2">  1        5 0.60076920E-01 0.17360166E+03</pdfrwt>
<pdfrwt beam="1">  1       -5 0.13038083E-01 0.17360166E+03</pdfrwt>
<totfact> 0.10027523E+02</totfact>
</mgrwt>
</event>
<event>
 8    1  0.3588496E-007  0.1384691E+03  0.7546771E-02  0.1215406E+00
          5   -1    0    0  501    0  0.00000000000E+00  0.00000000000E+00  0.17883595439E+03  0.17889770424E+03  0.47000000000E+01 0.  1.
         -5   -1    0    0    0  501 -0.00000000000E+00 -0.00000000000E+00 -0.12348309310E+03  0.12357250617E+03  0.47000000000E+01 0.  1.
         25    2    1    2    0    0 -0.51534900533E+02  0.29859857172E+02 -0.27414784243E+02  0.14115009216E+03  0.12499728428E+03 0.  0.
         25    2    1    2    0    0  0.51534900533E+02 -0.29859857172E+02  0.82767645532E+02  0.16132011825E+03  0.12500496135E+03 0.  0.
          5    1    3    3  502    0  0.25545481680E+02  0.48052103353E+02 -0.28903434816E+02  0.61798663538E+02  0.47000000000E+01 0.  1.
         -5    1    3    3    0  502 -0.77080382213E+02 -0.18192246181E+02  0.14886505734E+01  0.79351428619E+02  0.47000000000E+01 0.  1.
          5    1    4    4  503    0  0.12967261898E+02 -0.72664968929E+02  0.21364128187E+02  0.76986125788E+02  0.47000000000E+01 0. -1.
         -5    1    4    4    0  503  0.38567638635E+02  0.42805111757E+02  0.61403517345E+02  0.84333992463E+02  0.47000000000E+01 0. -1.
<mgrwt>
<rscale>  0 0.13846739E+03</rscale>
<asrwt>0</asrwt>
<pdfrwt beam="1">  1        5 0.27524852E-01 0.13846912E+03</pdfrwt>
<pdfrwt beam="2">  1       -5 0.19009027E-01 0.13846912E+03</pdfrwt>
<totfact> 0.23424460E+02</totfact>
</mgrwt>
</event>
<event>
 8    1  0.3588496E-007  0.1345047E+03  0.7546771E-02  0.1220923E+00
         -5   -1    0    0    0  501 -0.00000000000E+00  0.00000000000E+00  0.10090522178E+03  0.10101462162E+03  0.47000000000E+01 0. -1.
          5   -1    0    0  501    0  0.00000000000E+00 -0.00000000000E+00 -0.19001101305E+03  0.19006913237E+03  0.47000000000E+01 0. -1.
         25    2    1    2    0    0  0.31143567181E+02  0.38671237525E+02 -0.96093428721E+01  0.13484749568E+03  0.12500448485E+03 0.  0.
         25    2    1    2    0    0 -0.31143567181E+02 -0.38671237525E+02 -0.79496448398E+02  0.15623625831E+03  0.12499878686E+03 0.  0.
          5    1    3    3  502    0  0.43918965246E+02  0.79730499151E+02 -0.40857250501E+01  0.91239307058E+02  0.47000000000E+01 0.  1.
         -5    1    3    3    0  502 -0.12775398065E+02 -0.41059261626E+02 -0.55236178220E+01  0.43608188621E+02  0.47000000000E+01 0.  1.
          5    1    4    4  503    0  0.49842207614E+01 -0.52082869880E+01  0.32596404248E+02  0.33713265636E+02  0.47000000000E+01 0. -1.
         -5    1    4    4    0  503 -0.36127787942E+02 -0.33462950537E+02 -0.11209285265E+03  0.12252299268E+03  0.47000000000E+01 0. -1.
<mgrwt>
<rscale>  0 0.13450335E+03</rscale>
<asrwt>0</asrwt>
<pdfrwt beam="2">  1        5 0.29245350E-01 0.13450468E+03</pdfrwt>
<pdfrwt beam="1">  1       -5 0.15536766E-01 0.13450468E+03</pdfrwt>
<totfact> 0.29843902E+02</totfact>
</mgrwt>
</event>
<event>
 8    1  0.3588496E-007  0.1373764E+03  0.7546771E-02  0.1216906E+00
          5   -1    0    0  501    0  0.00000000000E+00  0.00000000000E+00  0.50265389198E+02  0.50484644707E+02  0.47000000000E+01 0.  1.
         -5   -1    0    0    0  501 -0.00000000000E+00 -0.00000000000E+00 -0.50226946507E+03  0.50229145478E+03  0.47000000000E+01 0.  1.
         25    2    1    2    0    0  0.44491256026E+02  0.35616250597E+02 -0.36542876819E+03  0.39039522685E+03  0.12498903692E+03 0.  0.
         25    2    1    2    0    0 -0.44491256026E+02 -0.35616250597E+02 -0.86575307680E+02  0.16238087264E+03  0.12499709889E+03 0.  0.
          5    1    4    4  502    0 -0.66139849753E+02 -0.22060354910E+02  0.21695525526E+01  0.69913775054E+02  0.47000000000E+01 0. -1.
         -5    1    4    4    0  502  0.21648593727E+02 -0.13555895687E+02 -0.88744860232E+02  0.92467097586E+02  0.47000000000E+01 0. -1.
          5    1    3    3  503    0  0.42583874677E+02  0.53974779407E+02 -0.36489121358E+03  0.37134128634E+03  0.47000000000E+01 0.  1.
         -5    1    3    3    0  503  0.19073813491E+01 -0.18358528810E+02 -0.53755461184E+00  0.19053940502E+02  0.47000000000E+01 0.  1.
<mgrwt>
<rscale>  0 0.13737452E+03</rscale>
<asrwt>0</asrwt>
<pdfrwt beam="1">  1        5 0.77516945E-02 0.13737636E+03</pdfrwt>
<pdfrwt beam="2">  1       -5 0.77290779E-01 0.13737636E+03</pdfrwt>
<totfact> 0.13152636E+02</totfact>
</mgrwt>
</event>
<event>
 8    1  0.3588496E-007  0.1320440E+03  0.7546771E-02  0.1224455E+00
         -5   -1    0    0    0  501 -0.00000000000E+00  0.00000000000E+00  0.13869724557E+03  0.13877685660E+03  0.47000000000E+01 0. -1.
          5   -1    0    0  501    0  0.00000000000E+00 -0.00000000000E+00 -0.18380683843E+03  0.18386691887E+03  0.47000000000E+01 0. -1.
         25    2    1    2    0    0  0.21388616518E+02  0.36761143574E+02  0.68230297944E+02  0.14862782866E+03  0.12500401314E+03 0.  0.
         25    2    1    2    0    0 -0.21388616518E+02 -0.36761143574E+02 -0.11333989080E+03  0.17401594681E+03  0.12500705701E+03 0.  0.
          5    1    3    3  502    0  0.28157638499E+02  0.20947257327E+02 -0.31453939889E+02  0.47361171121E+02  0.47000000000E+01 0.  1.
         -5    1    3    3    0  502 -0.67690219808E+01  0.15813886247E+02  0.99684237834E+02  0.10126665754E+03  0.47000000000E+01 0.  1.
          5    1    4    4  503    0 -0.19549755622E+02 -0.78638969842E+02 -0.42634963687E+02  0.91684844174E+02  0.47000000000E+01 0. -1.
         -5    1    4    4    0  503 -0.18388608963E+01  0.41877826268E+02 -0.70704927117E+02  0.82331102634E+02  0.47000000000E+01 0. -1.
<mgrwt>
<rscale>  0 0.13204328E+03</rscale>
<asrwt>0</asrwt>
<pdfrwt beam="2">  1        5 0.28288721E-01 0.13204400E+03</pdfrwt>
<pdfrwt beam="1">  1       -5 0.21348783E-01 0.13204400E+03</pdfrwt>
<totfact> 0.17597789E+02</totfact>
</mgrwt>
</event>
<event>
 8    1  0.3588496E-007  0.1565043E+03  0.7546771E-02  0.1192701E+00
         -5   -1    0    0    0  501 -0.00000000000E+00  0.00000000000E+00  0.28999322176E+03  0.29003130635E+03  0.47000000000E+01 0.  1.
          5   -1    0    0  501    0  0.00000000000E+00 -0.00000000000E+00 -0.85343245637E+02  0.85472566218E+02  0.47000000000E+01 0.  1.
         25    2    1    2    0    0  0.74983994976E+00  0.94173264371E+02  0.82120485406E+02  0.17674004863E+03  0.12499641869E+03 0.  0.
         25    2    1    2    0    0 -0.74983994976E+00 -0.94173264371E+02  0.12252949071E+03  0.19876382394E+03  0.12499766250E+03 0.  0.
          5    1    4    4  502    0  0.41671917903E+02 -0.15731278229E+02  0.95466427874E+02  0.10545117689E+03  0.47000000000E+01 0.  1.
         -5    1    4    4    0  502 -0.42421757853E+02 -0.78441986141E+02  0.27063062840E+02  0.93312647050E+02  0.47000000000E+01 0.  1.
          5    1    3    3  503    0  0.19895591014E+02  0.86677844364E+02  0.11015909928E+03  0.14165451069E+03  0.47000000000E+01 0.  1.
         -5    1    3    3    0  503 -0.19145751065E+02  0.74954200069E+01 -0.28038613870E+02  0.35085537942E+02  0.47000000000E+01 0.  1.
<mgrwt>
<rscale>  0 0.15650401E+03</rscale>
<asrwt>0</asrwt>
<pdfrwt beam="2">  1        5 0.13142607E-01 0.15650425E+03</pdfrwt>
<pdfrwt beam="1">  1       -5 0.44627219E-01 0.15650425E+03</pdfrwt>
<totfact> 0.18098872E+02</totfact>
</mgrwt>
</event>
<event>
 8    1  0.3588496E-007  0.1260283E+03  0.7546771E-02  0.1233474E+00
         -5   -1    0    0    0  501 -0.00000000000E+00  0.00000000000E+00  0.39743098164E+02  0.40020043124E+02  0.47000000000E+01 0. -1.
          5   -1    0    0  501    0  0.00000000000E+00 -0.00000000000E+00 -0.47418232141E+03  0.47420561357E+03  0.47000000000E+01 0. -1.
         25    2    1    2    0    0  0.11023722411E+02  0.11684351839E+02 -0.11416090027E+03  0.17004656354E+03  0.12500030435E+03 0.  0.
         25    2    1    2    0    0 -0.11023722411E+02 -0.11684351839E+02 -0.32027832298E+03  0.34417909315E+03  0.12499198958E+03 0.  0.
          5    1    3    3  502    0  0.99130462046E+01  0.62684195810E+02 -0.97017565683E+02  0.11602618213E+03  0.47000000000E+01 0.  1.
         -5    1    3    3    0  502  0.11106762060E+01 -0.50999843971E+02 -0.17143334589E+02  0.54020381409E+02  0.47000000000E+01 0.  1.
          5    1    4    4  503    0 -0.44610741341E+02  0.30827878801E+02 -0.73382886692E+02  0.91365280133E+02  0.47000000000E+01 0. -1.
         -5    1    4    4    0  503  0.33587018930E+02 -0.42512230640E+02 -0.24689543629E+03  0.25281381302E+03  0.47000000000E+01 0. -1.
<mgrwt>
<rscale>  0 0.12602620E+03</rscale>
<asrwt>0</asrwt>
<pdfrwt beam="2">  1        5 0.72974218E-01 0.12602826E+03</pdfrwt>
<pdfrwt beam="1">  1       -5 0.61374183E-02 0.12602826E+03</pdfrwt>
<totfact> 0.21630262E+02</totfact>
</mgrwt>
</event>
<event>
 8    1  0.3588496E-007  0.1299722E+03  0.7546771E-02  0.1227499E+00
          5   -1    0    0  501    0  0.00000000000E+00  0.00000000000E+00  0.67766296185E+02  0.67929087279E+02  0.47000000000E+01 0. -1.
         -5   -1    0    0    0  501 -0.00000000000E+00 -0.00000000000E+00 -0.25515346717E+03  0.25519675117E+03  0.47000000000E+01 0. -1.
         25    2    1    2    0    0  0.32949237311E+02 -0.13447679690E+02 -0.11920766547E+03  0.17635654220E+03  0.12499868056E+03 0.  0.
         25    2    1    2    0    0 -0.32949237311E+02  0.13447679690E+02 -0.68179505518E+02  0.14676929626E+03  0.12500515598E+03 0.  0.
          5    1    3    3  502    0  0.68361299975E+02  0.27734579447E+02 -0.55075023604E+02  0.92183634428E+02  0.47000000000E+01 0. -1.
         -5    1    3    3    0  502 -0.35412062664E+02 -0.41182259137E+02 -0.64132641864E+02  0.84172907768E+02  0.47000000000E+01 0. -1.
          5    1    4    4  503    0  0.46481478555E+02  0.13040405148E+02 -0.13929699413E+02  0.50464904051E+02  0.47000000000E+01 0. -1.
         -5    1    4    4    0  503 -0.79430715866E+02  0.40727454194E+00 -0.54249806104E+02  0.96304392205E+02  0.47000000000E+01 0. -1.
<mgrwt>
<rscale>  0 0.12997068E+03</rscale>
<asrwt>0</asrwt>
<pdfrwt beam="1">  1        5 0.10441436E-01 0.12997223E+03</pdfrwt>
<pdfrwt beam="2">  1       -5 0.39270231E-01 0.12997223E+03</pdfrwt>
<totfact> 0.33243782E+02</totfact>
</mgrwt>
</event>
<event>
 8    1  0.3588496E-007  0.1673532E+03  0.7546771E-02  0.1180637E+00
          5   -1    0    0  501    0  0.00000000000E+00  0.00000000000E+00  0.13776483362E+04  0.13776563535E+04  0.47000000000E+01 0.  1.
         -5   -1    0    0    0  501 -0.00000000000E+00 -0.00000000000E+00 -0.21815719972E+02  0.22316263977E+02  0.47000000000E+01 0.  1.
         25    2    1    2    0    0 -0.75258104727E+02 -0.81949387098E+02  0.48113704204E+03  0.50941137083E+03  0.12501042811E+03 0.  0.
         25    2    1    2    0    0  0.75258104727E+02  0.81949387098E+02  0.87469557418E+03  0.89056124660E+03  0.12501000792E+03 0.  0.
          5    1    4    4  502    0  0.88770728137E+02  0.57248305620E+01  0.42622524134E+03  0.43543433744E+03  0.47000000000E+01 0.  1.
         -5    1    4    4    0  502 -0.13512623411E+02  0.76224556536E+02  0.44847033283E+03  0.45512690916E+03  0.47000000000E+01 0.  1.
          5    1    3    3  503    0 -0.89198552552E+02 -0.92123610317E+01  0.31299235890E+03  0.32561872812E+03  0.47000000000E+01 0.  1.
         -5    1    3    3    0  503  0.13940447825E+02 -0.72737026067E+02  0.16814468314E+03  0.18379264271E+03  0.47000000000E+01 0.  1.
<mgrwt>
<rscale>  0 0.16735312E+03</rscale>
<asrwt>0</asrwt>
<pdfrwt beam="1">  1        5 0.21198494E+00 0.16735319E+03</pdfrwt>
<pdfrwt beam="2">  1       -5 0.33953860E-02 0.16735319E+03</pdfrwt>
<totfact> 0.38010001E+01</totfact>
</mgrwt>
</event>
<event>
 8    1  0.3588496E-007  0.1658317E+03  0.7546771E-02  0.1182267E+00
          5   -1    0    0  501    0  0.00000000000E+00  0.00000000000E+00  0.11522108978E+04  0.11522204837E+04  0.47000000000E+01 0.  1.
         -5   -1    0    0    0  501 -0.00000000000E+00 -0.00000000000E+00 -0.25014886329E+02  0.25452593936E+02  0.47000000000E+01 0.  1.
         25    2    1    2    0    0 -0.71323733245E+02  0.82391860094E+02  0.42607730253E+03  0.45720960904E+03  0.12499306116E+03 0.  0.
         25    2    1    2    0    0  0.71323733245E+02 -0.82391860094E+02  0.70111870893E+03  0.72046346856E+03  0.12499868791E+03 0.  0.
          5    1    4    4  502    0  0.99308636871E+02 -0.52056291358E+02  0.61115043110E+03  0.62136865246E+03  0.47000000000E+01 0. -1.
         -5    1    4    4    0  502 -0.27984903626E+02 -0.30335568736E+02  0.89968277831E+02  0.99094816097E+02  0.47000000000E+01 0. -1.
          5    1    3    3  503    0 -0.89683245858E+02  0.10169615518E+03  0.38322813405E+03  0.40653546621E+03  0.47000000000E+01 0.  1.
         -5    1    3    3    0  503  0.18359512613E+02 -0.19304295083E+02  0.42849168481E+02  0.50674142830E+02  0.47000000000E+01 0.  1.
<mgrwt>
<rscale>  0 0.16583068E+03</rscale>
<asrwt>0</asrwt>
<pdfrwt beam="1">  1        5 0.17729761E+00 0.16583174E+03</pdfrwt>
<pdfrwt beam="2">  1       -5 0.38828515E-02 0.16583174E+03</pdfrwt>
<totfact> 0.52820304E+01</totfact>
</mgrwt>
</event>
<event>
 8    1  0.3588496E-007  0.1577489E+03  0.7546771E-02  0.1191271E+00
         -5   -1    0    0    0  501 -0.00000000000E+00  0.00000000000E+00  0.17432307503E+03  0.17438642289E+03  0.47000000000E+01 0. -1.
          5   -1    0    0  501    0  0.00000000000E+00 -0.00000000000E+00 -0.14770596027E+03  0.14778071829E+03  0.47000000000E+01 0. -1.
         25    2    1    2    0    0 -0.82171591726E+02  0.49972676346E+02  0.43261750144E+02  0.16357352437E+03  0.12504111316E+03 0.  0.
         25    2    1    2    0    0  0.82171591726E+02 -0.49972676346E+02 -0.16644635388E+02  0.15859361681E+03  0.12500181014E+03 0.  0.
          5    1    4    4  502    0 -0.98469088535E+01  0.30050613847E+02 -0.17717032434E+02  0.36551118244E+02  0.47000000000E+01 0. -1.
         -5    1    4    4    0  502  0.92018500579E+02 -0.80023290193E+02  0.10723970461E+01  0.12204249857E+03  0.47000000000E+01 0. -1.
          5    1    3    3  503    0 -0.10022108825E+03  0.48696337791E+02 -0.51849561653E+01  0.11164485485E+03  0.47000000000E+01 0. -1.
         -5    1    3    3    0  503  0.18049496528E+02  0.12763385551E+01  0.48446706309E+02  0.51928669511E+02  0.47000000000E+01 0. -1.
<mgrwt>
<rscale>  0 0.15774112E+03</rscale>
<asrwt>0</asrwt>
<pdfrwt beam="2">  1        5 0.22734617E-01 0.15774891E+03</pdfrwt>
<pdfrwt beam="1">  1       -5 0.26829558E-01 0.15774891E+03</pdfrwt>
<totfact> 0.18368165E+02</totfact>
</mgrwt>
</event>
<event>
 8    1  0.3588496E-007  0.2878226E+03  0.7546771E-02  0.1091492E+00
         -5   -1    0    0    0  501 -0.00000000000E+00  0.00000000000E+00  0.42993071239E+02  0.43249210103E+02  0.47000000000E+01 0. -1.
          5   -1    0    0  501    0  0.00000000000E+00 -0.00000000000E+00 -0.19264698400E+04  0.19264755733E+04  0.47000000000E+01 0. -1.
         25    2    1    2    0    0 -0.76855292826E+02  0.24760933954E+03 -0.88866290260E+03  0.93411113057E+03  0.12499891493E+03 0.  0.
         25    2    1    2    0    0  0.76855292826E+02 -0.24760933954E+03 -0.99481386614E+03  0.10356136528E+04  0.12499555397E+03 0.  0.
          5    1    3    3  502    0 -0.34830280473E+02  0.19364240108E+03 -0.46495164771E+03  0.50488875274E+03  0.47000000000E+01 0.  1.
         -5    1    3    3    0  502 -0.42025012353E+02  0.53966938462E+02 -0.42371125489E+03  0.42922237784E+03  0.47000000000E+01 0.  1.
          5    1    4    4  503    0  0.76625350927E+02 -0.14878473580E+03 -0.79750454143E+03  0.81488890385E+03  0.47000000000E+01 0. -1.
         -5    1    4    4    0  503  0.22994189973E+00 -0.98824603739E+02 -0.19730932472E+03  0.22072474895E+03  0.47000000000E+01 0. -1.
<mgrwt>
<rscale>  0 0.28782224E+03</rscale>
<asrwt>0</asrwt>
<pdfrwt beam="2">  1        5 0.29640005E+00 0.28782260E+03</pdfrwt>
<pdfrwt beam="1">  1       -5 0.66344641E-02 0.28782260E+03</pdfrwt>
<totfact> 0.39131594E+00</totfact>
</mgrwt>
</event>
<event>
 8    1  0.3588496E-007  0.1424399E+03  0.7546771E-02  0.1210084E+00
          5   -1    0    0  501    0  0.00000000000E+00  0.00000000000E+00  0.23390385888E+03  0.23395107437E+03  0.47000000000E+01 0.  1.
         -5   -1    0    0    0  501 -0.00000000000E+00 -0.00000000000E+00 -0.14985434975E+03  0.14992803654E+03  0.47000000000E+01 0.  1.
         25    2    1    2    0    0 -0.54747855729E+02  0.40815459235E+02 -0.82596710872E+02  0.16465519136E+03  0.12500354386E+03 0.  0.
         25    2    1    2    0    0  0.54747855729E+02 -0.40815459235E+02  0.16664622000E+03  0.21922391954E+03  0.12499973936E+03 0.  0.
          5    1    3    3  502    0 -0.21461988446E+02  0.52288247365E+02  0.16759270492E+02  0.59140856504E+02  0.47000000000E+01 0. -1.
         -5    1    3    3    0  502 -0.33285867283E+02 -0.11472788130E+02 -0.99355981363E+02  0.10551433486E+03  0.47000000000E+01 0. -1.
          5    1    4    4  503    0  0.28600194122E+02 -0.23003037320E+02 -0.11092915097E+02  0.38629698356E+02  0.47000000000E+01 0.  1.
         -5    1    4    4    0  503  0.26147661608E+02 -0.17812421915E+02  0.17773913509E+03  0.18059422119E+03  0.47000000000E+01 0.  1.
<mgrwt>
<rscale>  0 0.14243903E+03</rscale>
<asrwt>0</asrwt>
<pdfrwt beam="1">  1        5 0.35994509E-01 0.14243987E+03</pdfrwt>
<pdfrwt beam="2">  1       -5 0.23063816E-01 0.14243987E+03</pdfrwt>
<totfact> 0.96787855E+01</totfact>
</mgrwt>
</event>
<event>
 8    1  0.3588496E-007  0.1632064E+03  0.7546771E-02  0.1185125E+00
          5   -1    0    0  501    0  0.00000000000E+00  0.00000000000E+00  0.54668829672E+03  0.54670849981E+03  0.47000000000E+01 0. -1.
         -5   -1    0    0    0  501 -0.00000000000E+00 -0.00000000000E+00 -0.48756460314E+02  0.48982470562E+02  0.47000000000E+01 0. -1.
         25    2    1    2    0    0  0.49120203883E+02  0.92727551508E+02  0.26645656036E+03  0.31246467692E+03  0.12499553002E+03 0.  0.
         25    2    1    2    0    0 -0.49120203883E+02 -0.92727551508E+02  0.23147527604E+03  0.28322629345E+03  0.12500054659E+03 0.  0.
          5    1    3    3  502    0  0.47222680357E+02 -0.12605905907E+02  0.13675070575E+03  0.14529878157E+03  0.47000000000E+01 0.  1.
         -5    1    3    3    0  502  0.18975235265E+01  0.10533345741E+03  0.12970585462E+03  0.16716589535E+03  0.47000000000E+01 0.  1.
          5    1    4    4  503    0 -0.46339599101E+01 -0.99993929799E+02  0.90085243414E+02  0.13475051266E+03  0.47000000000E+01 0.  1.
         -5    1    4    4    0  503 -0.44486243973E+02  0.72663782912E+01  0.14139003263E+03  0.14847578079E+03  0.47000000000E+01 0.  1.
<mgrwt>
<rscale>  0 0.16320544E+03</rscale>
<asrwt>0</asrwt>
<pdfrwt beam="1">  1        5 0.84124825E-01 0.16320640E+03</pdfrwt>
<pdfrwt beam="2">  1       -5 0.75199339E-02 0.16320640E+03</pdfrwt>
<totfact> 0.12017506E+02</totfact>
</mgrwt>
</event>
<event>
 8    1  0.3588496E-007  0.1518894E+03  0.7546771E-02  0.1198173E+00
         -5   -1    0    0    0  501 -0.00000000000E+00  0.00000000000E+00  0.15561115363E+04  0.15561186341E+04  0.47000000000E+01 0.  1.
          5   -1    0    0  501    0  0.00000000000E+00 -0.00000000000E+00 -0.16451061719E+02  0.17109279111E+02  0.47000000000E+01 0.  1.
         25    2    1    2    0    0  0.86218560897E+02 -0.33809955418E+01  0.10387936347E+04  0.10498393172E+04  0.12500122052E+03 0.  0.
         25    2    1    2    0    0 -0.86218560897E+02  0.33809955418E+01  0.50086683985E+03  0.52338859596E+03  0.12499183870E+03 0.  0.
          5    1    3    3  502    0  0.54919854517E+02 -0.27205191531E+02  0.95685198085E+03  0.95882434059E+03  0.47000000000E+01 0.  1.
         -5    1    3    3    0  502  0.31298706379E+02  0.23824195989E+02  0.81941653860E+02  0.91014976640E+02  0.47000000000E+01 0.  1.
          5    1    4    4  503    0 -0.71963904432E+01  0.59613401889E+01  0.37186770640E+03  0.37201479362E+03  0.47000000000E+01 0.  1.
         -5    1    4    4    0  503 -0.79022170454E+02 -0.25803446471E+01  0.12899913346E+03  0.15137380234E+03  0.47000000000E+01 0.  1.
<mgrwt>
<rscale>  0 0.15188743E+03</rscale>
<asrwt>0</asrwt>
<pdfrwt beam="2">  1        5 0.25821098E-02 0.15188936E+03</pdfrwt>
<pdfrwt beam="1">  1       -5 0.23945304E+00 0.15188936E+03</pdfrwt>
<totfact> 0.38262739E+01</totfact>
</mgrwt>
</event>
<event>
 8    1  0.3588496E-007  0.1264648E+03  0.7546771E-02  0.1232798E+00
         -5   -1    0    0    0  501 -0.00000000000E+00  0.00000000000E+00  0.53162108110E+02  0.53369464478E+02  0.47000000000E+01 0. -1.
          5   -1    0    0  501    0  0.00000000000E+00 -0.00000000000E+00 -0.74906528587E+03  0.74908003077E+03  0.47000000000E+01 0. -1.
         25    2    1    2    0    0 -0.15159448770E+02 -0.11717221838E+02 -0.37352002848E+02  0.13186551691E+03  0.12500496093E+03 0.  0.
         25    2    1    2    0    0  0.15159448770E+02  0.11717221838E+02 -0.65855117491E+03  0.67058397834E+03  0.12500447932E+03 0.  0.
          5    1    4    4  502    0 -0.10676046276E+02  0.65277241214E+02 -0.37635368494E+03  0.38215086334E+03  0.47000000000E+01 0.  1.
         -5    1    4    4    0  502  0.25835495046E+02 -0.53560019377E+02 -0.28219748997E+03  0.28843311500E+03  0.47000000000E+01 0.  1.
          5    1    3    3  503    0  0.98554018242E+01 -0.59092741414E+02 -0.48160338602E+02  0.77010319096E+02  0.47000000000E+01 0.  1.
         -5    1    3    3    0  503 -0.25014850595E+02  0.47375519576E+02  0.10808335753E+02  0.54855197813E+02  0.47000000000E+01 0.  1.
<mgrwt>
<rscale>  0 0.12646467E+03</rscale>
<asrwt>0</asrwt>
<pdfrwt beam="2">  1        5 0.11525789E+00 0.12646479E+03</pdfrwt>
<pdfrwt beam="1">  1       -5 0.81958711E-02 0.12646479E+03</pdfrwt>
<totfact> 0.44614968E+01</totfact>
</mgrwt>
</event>
<event>
 8    1  0.3588496E-007  0.2470999E+03  0.7546771E-02  0.1115152E+00
         -5   -1    0    0    0  501 -0.00000000000E+00  0.00000000000E+00  0.25851605100E+03  0.25855877209E+03  0.47000000000E+01 0. -1.
          5   -1    0    0  501    0  0.00000000000E+00 -0.00000000000E+00 -0.23971389342E+03  0.23975996475E+03  0.47000000000E+01 0. -1.
         25    2    1    2    0    0  0.14984057711E+03  0.15159498400E+03 -0.21188046263E+02  0.24800666915E+03  0.12500054767E+03 0.  0.
         25    2    1    2    0    0 -0.14984057711E+03 -0.15159498400E+03  0.39990203844E+02  0.25031206769E+03  0.12499470832E+03 0.  0.
          5    1    4    4  502    0 -0.83801608090E+02 -0.85359964728E+02  0.84591213991E+02  0.14658375279E+03  0.47000000000E+01 0.  1.
         -5    1    4    4    0  502 -0.66038969016E+02 -0.66235019272E+02 -0.44601010147E+02  0.10372831490E+03  0.47000000000E+01 0.  1.
          5    1    3    3  503    0  0.21333338941E+01  0.98424226567E+01  0.34126958714E+02  0.35890997594E+02  0.47000000000E+01 0. -1.
         -5    1    3    3    0  503  0.14770724321E+03  0.14175256134E+03 -0.55315004977E+02  0.21211567156E+03  0.47000000000E+01 0. -1.
<mgrwt>
<rscale>  0 0.24709919E+03</rscale>
<asrwt>0</asrwt>
<pdfrwt beam="2">  1        5 0.36885891E-01 0.24709993E+03</pdfrwt>
<pdfrwt beam="1">  1       -5 0.39778530E-01 0.24709993E+03</pdfrwt>
<totfact> 0.36482889E+01</totfact>
</mgrwt>
</event>
<event>
 8    1  0.3588496E-007  0.1416857E+03  0.7546771E-02  0.1211080E+00
          5   -1    0    0  501    0  0.00000000000E+00  0.00000000000E+00  0.34019683514E+03  0.34022930009E+03  0.47000000000E+01 0.  1.
         -5   -1    0    0    0  501 -0.00000000000E+00 -0.00000000000E+00 -0.74273319354E+02  0.74421878287E+02  0.47000000000E+01 0.  1.
         25    2    1    2    0    0  0.66014770796E+02 -0.95262881520E+01  0.38702724744E+02  0.14687656625E+03  0.12500449865E+03 0.  0.
         25    2    1    2    0    0 -0.66014770796E+02  0.95262881520E+01  0.22722079105E+03  0.26777461213E+03  0.12500101955E+03 0.  0.
          5    1    4    4  502    0 -0.32967741691E+02  0.13935980057E+02 -0.19418973872E+01  0.36151687344E+02  0.47000000000E+01 0. -1.
         -5    1    4    4    0  502 -0.33047029105E+02 -0.44096919048E+01  0.22916268843E+03  0.23162292478E+03  0.47000000000E+01 0. -1.
          5    1    3    3  503    0  0.56794040864E+02  0.48750123129E+02 -0.20373315466E+01  0.75022518636E+02  0.47000000000E+01 0. -1.
         -5    1    3    3    0  503  0.92207299323E+01 -0.58276411281E+02  0.40740056290E+02  0.71854047616E+02  0.47000000000E+01 0. -1.
<mgrwt>
<rscale>  0 0.14168489E+03</rscale>
<asrwt>0</asrwt>
<pdfrwt beam="1">  1        5 0.52351899E-01 0.14168565E+03</pdfrwt>
<pdfrwt beam="2">  1       -5 0.11440590E-01 0.14168565E+03</pdfrwt>
<totfact> 0.16006808E+02</totfact>
</mgrwt>
</event>
<event>
 8    1  0.3588496E-007  0.1335663E+03  0.7546771E-02  0.1222261E+00
         -5   -1    0    0    0  501 -0.00000000000E+00  0.00000000000E+00  0.10090523461E+03  0.10101463444E+03  0.47000000000E+01 0. -1.
          5   -1    0    0  501    0  0.00000000000E+00 -0.00000000000E+00 -0.17849452139E+03  0.17855638932E+03  0.47000000000E+01 0. -1.
         25    2    1    2    0    0 -0.37954358582E+02  0.27815034375E+02 -0.24220612094E+02  0.13574462085E+03  0.12500301823E+03 0.  0.
         25    2    1    2    0    0  0.37954358582E+02 -0.27815034375E+02 -0.53368674688E+02  0.14382640291E+03  0.12499443693E+03 0.  0.
          5    1    4    4  502    0  0.67617900163E+02 -0.36378994641E+02  0.55665023063E+01  0.77127735747E+02  0.47000000000E+01 0.  1.
         -5    1    4    4    0  502 -0.29663541581E+02  0.85639602664E+01 -0.58935176994E+02  0.66698667167E+02  0.47000000000E+01 0.  1.
          5    1    3    3  503    0 -0.82732500965E+02  0.23333113126E+02 -0.27514294549E+02  0.90378245660E+02  0.47000000000E+01 0. -1.
         -5    1    3    3    0  503  0.44778142383E+02  0.44819212485E+01  0.32936824554E+01  0.45366375185E+02  0.47000000000E+01 0. -1.
<mgrwt>
<rscale>  0 0.13356432E+03</rscale>
<asrwt>0</asrwt>
<pdfrwt beam="2">  1        5 0.27473870E-01 0.13356633E+03</pdfrwt>
<pdfrwt beam="1">  1       -5 0.15537057E-01 0.13356633E+03</pdfrwt>
<totfact> 0.33621583E+02</totfact>
</mgrwt>
</event>
<event>
 8    1  0.3588496E-007  0.1325924E+03  0.7546771E-02  0.1223659E+00
         -5   -1    0    0    0  501 -0.00000000000E+00  0.00000000000E+00  0.21662624426E+03  0.21667722469E+03  0.47000000000E+01 0. -1.
          5   -1    0    0  501    0  0.00000000000E+00 -0.00000000000E+00 -0.82789545382E+02  0.82922848628E+02  0.47000000000E+01 0. -1.
         25    2    1    2    0    0  0.37551120032E+02 -0.23356658782E+02  0.88744567977E+02  0.15955044084E+03  0.12500049881E+03 0.  0.
         25    2    1    2    0    0 -0.37551120032E+02  0.23356658782E+02  0.45092130900E+02  0.14004963248E+03  0.12499991666E+03 0.  0.
          5    1    4    4  502    0  0.58809675007E+01  0.16856147419E+02 -0.40068750953E+02  0.44117006783E+02  0.47000000000E+01 0.  1.
         -5    1    4    4    0  502 -0.43432087532E+02  0.65005113630E+01  0.85160881853E+02  0.95932625698E+02  0.47000000000E+01 0.  1.
          5    1    3    3  503    0 -0.12391826522E+02  0.40179978206E+02  0.60471118596E+02  0.73802670666E+02  0.47000000000E+01 0. -1.
         -5    1    3    3    0  503  0.49942946554E+02 -0.63536636988E+02  0.28273449380E+02  0.85747770175E+02  0.47000000000E+01 0. -1.
<mgrwt>
<rscale>  0 0.13259226E+03</rscale>
<asrwt>0</asrwt>
<pdfrwt beam="2">  1        5 0.12751029E-01 0.13259240E+03</pdfrwt>
<pdfrwt beam="1">  1       -5 0.33341290E-01 0.13259240E+03</pdfrwt>
<totfact> 0.32717066E+02</totfact>
</mgrwt>
</event>
<event>
 8    1  0.3588496E-007  0.1342559E+03  0.7546771E-02  0.1221275E+00
          5   -1    0    0  501    0  0.00000000000E+00  0.00000000000E+00  0.25001656014E+04  0.25001700191E+04  0.47000000000E+01 0.  1.
         -5   -1    0    0    0  501 -0.00000000000E+00 -0.00000000000E+00 -0.64715096842E+01  0.79981521361E+01  0.47000000000E+01 0.  1.
         25    2    1    2    0    0  0.26063186217E+02 -0.41468906730E+02  0.11659715626E+04  0.11736750982E+04  0.12499836586E+03 0.  0.
         25    2    1    2    0    0 -0.26063186217E+02  0.41468906730E+02  0.13277225291E+04  0.13344930730E+04  0.12500275093E+03 0.  0.
          5    1    3    3  502    0 -0.10571463232E+02  0.29216716926E+02  0.10229405874E+03  0.10701185372E+03  0.47000000000E+01 0.  1.
         -5    1    3    3    0  502  0.36634649449E+02 -0.70685623656E+02  0.10636775039E+04  0.10666632445E+04  0.47000000000E+01 0.  1.
          5    1    4    4  503    0 -0.34424734945E+02  0.81994019061E+02  0.74926338404E+03  0.75453680507E+03  0.47000000000E+01 0.  1.
         -5    1    4    4    0  503  0.83615487287E+01 -0.40525112331E+02  0.57845914502E+03  0.57995626790E+03  0.47000000000E+01 0.  1.
<mgrwt>
<rscale>  0 0.13425488E+03</rscale>
<asrwt>0</asrwt>
<pdfrwt beam="1">  1        5 0.38475891E+00 0.13425590E+03</pdfrwt>
<pdfrwt beam="2">  1       -5 0.11133899E-02 0.13425590E+03</pdfrwt>
<totfact> 0.16121665E+01</totfact>
</mgrwt>
</event>
<event>
 8    1  0.3588496E-007  0.1434496E+03  0.7546771E-02  0.1208764E+00
          5   -1    0    0  501    0  0.00000000000E+00  0.00000000000E+00  0.12003783992E+03  0.12012981734E+03  0.47000000000E+01 0.  1.
         -5   -1    0    0    0  501 -0.00000000000E+00 -0.00000000000E+00 -0.20301864154E+03  0.20307303812E+03  0.47000000000E+01 0.  1.
         25    2    1    2    0    0  0.62009528051E+02 -0.33257165848E+02 -0.10541580463E+03  0.17801765212E+03  0.12500628765E+03 0.  0.
         25    2    1    2    0    0 -0.62009528051E+02  0.33257165848E+02  0.22435003017E+02  0.14518520334E+03  0.12499677299E+03 0.  0.
          5    1    3    3  502    0 -0.14856612689E+02  0.20082089919E+02  0.11752869396E+02  0.28004092828E+02  0.47000000000E+01 0.  1.
         -5    1    3    3    0  502  0.76866140740E+02 -0.53339255767E+02 -0.11716867403E+03  0.15001355929E+03  0.47000000000E+01 0.  1.
          5    1    4    4  503    0 -0.57479198613E+02  0.71474988486E+02 -0.12882840854E+02  0.92739365108E+02  0.47000000000E+01 0. -1.
         -5    1    4    4    0  503 -0.45303294382E+01 -0.38217822638E+02  0.35317843871E+02  0.52445838230E+02  0.47000000000E+01 0. -1.
<mgrwt>
<rscale>  0 0.14344754E+03</rscale>
<asrwt>0</asrwt>
<pdfrwt beam="1">  1        5 0.18478620E-01 0.14344962E+03</pdfrwt>
<pdfrwt beam="2">  1       -5 0.31244897E-01 0.14344962E+03</pdfrwt>
<totfact> 0.19490624E+02</totfact>
</mgrwt>
</event>
<event>
 8    1  0.3588496E-007  0.1344710E+03  0.7546771E-02  0.1220976E+00
         -5   -1    0    0    0  501 -0.00000000000E+00  0.00000000000E+00  0.75919046242E+02  0.76064391027E+02  0.47000000000E+01 0.  1.
          5   -1    0    0  501    0  0.00000000000E+00 -0.00000000000E+00 -0.24923888102E+03  0.24928319199E+03  0.47000000000E+01 0.  1.
         25    2    1    2    0    0  0.66577773928E+01 -0.49052508778E+02 -0.51734762594E+02  0.14405944443E+03  0.12500465292E+03 0.  0.
         25    2    1    2    0    0 -0.66577773928E+01  0.49052508778E+02 -0.12158507218E+03  0.18128813859E+03  0.12502793608E+03 0.  0.
          5    1    4    4  502    0  0.35553634928E+02 -0.14561291534E+02 -0.12816803660E+01  0.38727572507E+02  0.47000000000E+01 0.  1.
         -5    1    4    4    0  502 -0.42211412321E+02  0.63613800312E+02 -0.12030339181E+03  0.14256056608E+03  0.47000000000E+01 0.  1.
          5    1    3    3  503    0  0.91941088255E+01  0.25193794173E+02  0.25134420860E+02  0.37055202251E+02  0.47000000000E+01 0. -1.
         -5    1    3    3    0  503 -0.25363314326E+01 -0.74246302951E+02 -0.76869183454E+02  0.10700424218E+03  0.47000000000E+01 0. -1.
<mgrwt>
<rscale>  0 0.13446562E+03</rscale>
<asrwt>0</asrwt>
<pdfrwt beam="2">  1        5 0.38359032E-01 0.13447104E+03</pdfrwt>
<pdfrwt beam="1">  1       -5 0.11694442E-01 0.13447104E+03</pdfrwt>
<totfact> 0.28916951E+02</totfact>
</mgrwt>
</event>
<event>
 8    1  0.3588496E-007  0.1655741E+03  0.7546771E-02  0.1182544E+00
          5   -1    0    0  501    0  0.00000000000E+00  0.00000000000E+00  0.36612138051E+03  0.36615154685E+03  0.47000000000E+01 0.  1.
         -5   -1    0    0    0  501 -0.00000000000E+00 -0.00000000000E+00 -0.74855310258E+02  0.75002716443E+02  0.47000000000E+01 0.  1.
         25    2    1    2    0    0  0.39428614323E+02  0.10115162737E+03  0.13822212735E+03  0.21568314149E+03  0.12501037432E+03 0.  0.
         25    2    1    2    0    0 -0.39428614323E+02 -0.10115162737E+03  0.15304394290E+03  0.22547112181E+03  0.12501404307E+03 0.  0.
          5    1    4    4  502    0 -0.52635275281E+02 -0.12622730892E+03  0.12592961141E+03  0.18596817671E+03  0.47000000000E+01 0. -1.
         -5    1    4    4    0  502  0.13206660958E+02  0.25075681550E+02  0.27114331488E+02  0.39502945092E+02  0.47000000000E+01 0. -1.
          5    1    3    3  503    0 -0.25866636743E+02  0.61478175257E+02  0.11806461658E+02  0.67897948910E+02  0.47000000000E+01 0. -1.
         -5    1    3    3    0  503  0.65295251065E+02  0.39673452111E+02  0.12641566569E+03  0.14778519258E+03  0.47000000000E+01 0. -1.
<mgrwt>
<rscale>  0 0.16557339E+03</rscale>
<asrwt>0</asrwt>
<pdfrwt beam="1">  1        5 0.56340025E-01 0.16557409E+03</pdfrwt>
<pdfrwt beam="2">  1       -5 0.11529861E-01 0.16557409E+03</pdfrwt>
<totfact> 0.14164979E+02</totfact>
</mgrwt>
</event>
<event>
 8    1  0.3588496E-007  0.1464793E+03  0.7546771E-02  0.1204868E+00
          5   -1    0    0  501    0  0.00000000000E+00  0.00000000000E+00  0.21235412636E+04  0.21235464648E+04  0.47000000000E+01 0.  1.
         -5   -1    0    0    0  501 -0.00000000000E+00 -0.00000000000E+00 -0.97206284070E+01  0.10797250420E+02  0.47000000000E+01 0.  1.
         25    2    1    2    0    0 -0.95884950236E+01  0.75755116849E+02  0.92355860673E+03  0.93510249382E+03  0.12500158767E+03 0.  0.
         25    2    1    2    0    0  0.95884950236E+01 -0.75755116849E+02  0.11902620284E+04  0.11992412214E+04  0.12500013504E+03 0.  0.
          5    1    3    3  502    0  0.36597503881E+02  0.53695866192E+02  0.77823008510E+03  0.78095248171E+03  0.47000000000E+01 0.  1.
         -5    1    3    3    0  502 -0.46185998905E+02  0.22059250657E+02  0.14532852163E+03  0.15415001211E+03  0.47000000000E+01 0.  1.
          5    1    4    4  503    0  0.56255570304E+01 -0.10834182585E+03  0.76217462459E+03  0.76987131814E+03  0.47000000000E+01 0. -1.
         -5    1    4    4    0  503  0.39629379932E+01  0.32586709006E+02  0.42808740386E+03  0.42936990326E+03  0.47000000000E+01 0. -1.
<mgrwt>
<rscale>  0 0.14647895E+03</rscale>
<asrwt>0</asrwt>
<pdfrwt beam="1">  1        5 0.32678148E+00 0.14647926E+03</pdfrwt>
<pdfrwt beam="2">  1       -5 0.15787004E-02 0.14647926E+03</pdfrwt>
<totfact> 0.23119862E+01</totfact>
</mgrwt>
</event>
<event>
 8    1  0.3588496E-007  0.1417217E+03  0.7546771E-02  0.1211031E+00
          5   -1    0    0  501    0  0.00000000000E+00  0.00000000000E+00  0.15197180647E+03  0.15204446705E+03  0.47000000000E+01 0. -1.
         -5   -1    0    0    0  501 -0.00000000000E+00 -0.00000000000E+00 -0.17452905640E+03  0.17459232953E+03  0.47000000000E+01 0. -1.
         25    2    1    2    0    0 -0.23719445665E+02  0.62430375013E+02 -0.91849605767E+02  0.16888281230E+03  0.12499956153E+03 0.  0.
         25    2    1    2    0    0  0.23719445665E+02 -0.62430375013E+02  0.69292355834E+02  0.15775398429E+03  0.12499890061E+03 0.  0.
          5    1    4    4  502    0  0.67470546795E+02 -0.17823603383E+02  0.64114276265E+02  0.94882484913E+02  0.47000000000E+01 0. -1.
         -5    1    4    4    0  502 -0.43751101130E+02 -0.44606771630E+02  0.51780795691E+01  0.62871499373E+02  0.47000000000E+01 0. -1.
          5    1    3    3  503    0  0.15490520080E+02  0.76443097050E+02 -0.99264162468E+02  0.12632880609E+03  0.47000000000E+01 0. -1.
         -5    1    3    3    0  503 -0.39209965745E+02 -0.14012722037E+02  0.74145567003E+01  0.42554006200E+02  0.47000000000E+01 0. -1.
<mgrwt>
<rscale>  0 0.14172160E+03</rscale>
<asrwt>0</asrwt>
<pdfrwt beam="1">  1        5 0.23390735E-01 0.14172175E+03</pdfrwt>
<pdfrwt beam="2">  1       -5 0.26861080E-01 0.14172175E+03</pdfrwt>
<totfact> 0.16763190E+02</totfact>
</mgrwt>
</event>
<event>
 8    1  0.3588496E-007  0.1847357E+03  0.7546771E-02  0.1163298E+00
          5   -1    0    0  501    0  0.00000000000E+00  0.00000000000E+00  0.53940572469E+02  0.54144947671E+02  0.47000000000E+01 0.  1.
         -5   -1    0    0    0  501 -0.00000000000E+00 -0.00000000000E+00 -0.84326528738E+03  0.84327838518E+03  0.47000000000E+01 0.  1.
         25    2    1    2    0    0  0.22624359336E+02 -0.13412446044E+03 -0.61962677825E+03  0.64657916543E+03  0.12500416124E+03 0.  0.
         25    2    1    2    0    0 -0.22624359336E+02  0.13412446044E+03 -0.16969793667E+03  0.25084416741E+03  0.12499669633E+03 0.  0.
          5    1    4    4  502    0  0.47872123295E+02  0.35588751162E+02 -0.80584015481E+02  0.10037017958E+03  0.47000000000E+01 0. -1.
         -5    1    4    4    0  502 -0.70496482631E+02  0.98535709274E+02 -0.89113921185E+02  0.15047398783E+03  0.47000000000E+01 0. -1.
          5    1    3    3  503    0  0.24700683651E+02 -0.87753226785E+02 -0.15702480338E+03  0.18163048054E+03  0.47000000000E+01 0. -1.
         -5    1    3    3    0  503 -0.20763243153E+01 -0.46371233651E+02 -0.46260197487E+03  0.46494868489E+03  0.47000000000E+01 0. -1.
<mgrwt>
<rscale>  0 0.18473442E+03</rscale>
<asrwt>0</asrwt>
<pdfrwt beam="1">  1        5 0.83152789E-02 0.18473568E+03</pdfrwt>
<pdfrwt beam="2">  1       -5 0.12974984E+00 0.18473568E+03</pdfrwt>
<totfact> 0.35800978E+01</totfact>
</mgrwt>
</event>
<event>
 8    1  0.3588496E-007  0.1331115E+03  0.7546771E-02  0.1222913E+00
          5   -1    0    0  501    0  0.00000000000E+00  0.00000000000E+00  0.36141640745E+03  0.36144696648E+03  0.47000000000E+01 0. -1.
         -5   -1    0    0    0  501 -0.00000000000E+00 -0.00000000000E+00 -0.59327941732E+02  0.59513819153E+02  0.47000000000E+01 0. -1.
         25    2    1    2    0    0  0.43950720870E+02  0.12662891355E+02  0.62879693400E+02  0.14720996070E+03  0.12499960802E+03 0.  0.
         25    2    1    2    0    0 -0.43950720870E+02 -0.12662891355E+02  0.23920877232E+03  0.27375082493E+03  0.12500665067E+03 0.  0.
          5    1    4    4  502    0 -0.11541777225E+02  0.17254380655E+02  0.22665525566E+03  0.22765241310E+03  0.47000000000E+01 0.  1.
         -5    1    4    4    0  502 -0.32408943645E+02 -0.29917272010E+02  0.12553516667E+02  0.46098411832E+02  0.47000000000E+01 0.  1.
          5    1    3    3  503    0  0.34547193298E+02 -0.11840478571E+02  0.97089185882E+02  0.10383691787E+03  0.47000000000E+01 0. -1.
         -5    1    3    3    0  503  0.94035275718E+01  0.24503369926E+02 -0.34209492482E+02  0.43373042831E+02  0.47000000000E+01 0. -1.
<mgrwt>
<rscale>  0 0.13310987E+03</rscale>
<asrwt>0</asrwt>
<pdfrwt beam="1">  1        5 0.55619173E-01 0.13311152E+03</pdfrwt>
<pdfrwt beam="2">  1       -5 0.91440246E-02 0.13311152E+03</pdfrwt>
<totfact> 0.20370063E+02</totfact>
</mgrwt>
</event>
<event>
 8    1  0.3588496E-007  0.2071247E+03  0.7546771E-02  0.1143863E+00
         -5   -1    0    0    0  501 -0.00000000000E+00  0.00000000000E+00  0.20307283899E+04  0.20307338288E+04  0.47000000000E+01 0.  1.
          5   -1    0    0  501    0  0.00000000000E+00 -0.00000000000E+00 -0.23206175056E+02  0.23677342771E+02  0.47000000000E+01 0.  1.
         25    2    1    2    0    0  0.83538195921E+02 -0.14246440025E+03  0.13269804577E+04  0.13430479486E+04  0.12500368611E+03 0.  0.
         25    2    1    2    0    0 -0.83538195921E+02  0.14246440025E+03  0.68054175713E+03  0.71136322301E+03  0.12500326530E+03 0.  0.
          5    1    4    4  502    0  0.32083355583E+02  0.47028643533E+02  0.18528558916E+03  0.19389139891E+03  0.47000000000E+01 0.  1.
         -5    1    4    4    0  502 -0.11562155150E+03  0.95435756714E+02  0.49525616796E+03  0.51747182410E+03  0.47000000000E+01 0.  1.
          5    1    3    3  503    0  0.76721120234E+02 -0.35841130963E+02  0.85025180034E+03  0.85447114108E+03  0.47000000000E+01 0.  1.
         -5    1    3    3    0  503  0.68170756868E+01 -0.10662326928E+03  0.47672865738E+03  0.48857680751E+03  0.47000000000E+01 0.  1.
<mgrwt>
<rscale>  0 0.20712467E+03</rscale>
<asrwt>0</asrwt>
<pdfrwt beam="2">  1        5 0.36068432E-02 0.20712474E+03</pdfrwt>
<pdfrwt beam="1">  1       -5 0.31245638E+00 0.20712474E+03</pdfrwt>
<totfact> 0.81355941E+00</totfact>
</mgrwt>
</event>
<event>
 8    1  0.3588496E-007  0.1538099E+03  0.7546771E-02  0.1195877E+00
         -5   -1    0    0    0  501 -0.00000000000E+00  0.00000000000E+00  0.34889365536E+03  0.34892531114E+03  0.47000000000E+01 0. -1.
          5   -1    0    0  501    0  0.00000000000E+00 -0.00000000000E+00 -0.89813992107E+02  0.89936884415E+02  0.47000000000E+01 0. -1.
         25    2    1    2    0    0 -0.79421132926E+02 -0.41414389485E+02  0.23837941132E+03  0.28369390129E+03  0.12503846558E+03 0.  0.
         25    2    1    2    0    0  0.79421132926E+02  0.41414389485E+02  0.20700251934E+02  0.15516829427E+03  0.12500332437E+03 0.  0.
          5    1    4    4  502    0  0.32666950769E+02  0.34340660058E+02 -0.50596119119E+02  0.69487177779E+02  0.47000000000E+01 0. -1.
         -5    1    4    4    0  502  0.46754182157E+02  0.70737294268E+01  0.71296371053E+02  0.85681116487E+02  0.47000000000E+01 0. -1.
          5    1    3    3  503    0 -0.11544783251E+02 -0.29401094357E+02  0.20406872182E+03  0.20655226844E+03  0.47000000000E+01 0.  1.
         -5    1    3    3    0  503 -0.67876349675E+02 -0.12013295128E+02  0.34310689499E+02  0.77141632851E+02  0.47000000000E+01 0.  1.
<mgrwt>
<rscale>  0 0.15380276E+03</rscale>
<asrwt>0</asrwt>
<pdfrwt beam="2">  1        5 0.13829426E-01 0.15380990E+03</pdfrwt>
<pdfrwt beam="1">  1       -5 0.53687835E-01 0.15380990E+03</pdfrwt>
<totfact> 0.11105739E+02</totfact>
</mgrwt>
</event>
<event>
 8    1  0.3588496E-007  0.1391068E+03  0.7546771E-02  0.1214536E+00
          5   -1    0    0  501    0  0.00000000000E+00  0.00000000000E+00  0.36051248456E+02  0.36356327032E+02  0.47000000000E+01 0. -1.
         -5   -1    0    0    0  501 -0.00000000000E+00 -0.00000000000E+00 -0.71385778602E+03  0.71387325812E+03  0.47000000000E+01 0. -1.
         25    2    1    2    0    0  0.24460077498E+02 -0.55916451587E+02 -0.52705720844E+03  0.54510504911E+03  0.12500107456E+03 0.  0.
         25    2    1    2    0    0 -0.24460077498E+02  0.55916451587E+02 -0.15074932912E+03  0.20512453604E+03  0.12500308039E+03 0.  0.
          5    1    4    4  502    0  0.24421412750E+02  0.13133141317E+02  0.11428331353E+02  0.30357561810E+02  0.47000000000E+01 0. -1.
         -5    1    4    4    0  502 -0.48881490247E+02  0.42783310270E+02 -0.16217766047E+03  0.17476697423E+03  0.47000000000E+01 0. -1.
          5    1    3    3  503    0 -0.11279007897E+02 -0.87839501540E+02 -0.29216430645E+03  0.30532780092E+03  0.47000000000E+01 0. -1.
         -5    1    3    3    0  503  0.35739085394E+02  0.31923049953E+02 -0.23489290199E+03  0.23977724819E+03  0.47000000000E+01 0. -1.
<mgrwt>
<rscale>  0 0.13910640E+03</rscale>
<asrwt>0</asrwt>
<pdfrwt beam="1">  1        5 0.55710042E-02 0.13910685E+03</pdfrwt>
<pdfrwt beam="2">  1       -5 0.10984892E+00 0.13910685E+03</pdfrwt>
<totfact> 0.99686924E+01</totfact>
</mgrwt>
</event>
<event>
 8    1  0.3588496E-007  0.2164302E+03  0.7546771E-02  0.1136574E+00
          5   -1    0    0  501    0  0.00000000000E+00  0.00000000000E+00  0.24455663244E+03  0.24460179164E+03  0.47000000000E+01 0. -1.
         -5   -1    0    0    0  501 -0.00000000000E+00 -0.00000000000E+00 -0.22991982177E+03  0.22996785524E+03  0.47000000000E+01 0. -1.
         25    2    1    2    0    0  0.16601376374E+03  0.60464564792E+02 -0.89729424816E+02  0.23429343544E+03  0.12500204344E+03 0.  0.
         25    2    1    2    0    0 -0.16601376374E+03 -0.60464564792E+02  0.10436623549E+03  0.24027621143E+03  0.12499525320E+03 0.  0.
          5    1    3    3  502    0  0.17022884623E+03  0.23038180139E+02 -0.94376024524E+02  0.19605494596E+03  0.47000000000E+01 0. -1.
         -5    1    3    3    0  502 -0.42150824823E+01  0.37426384653E+02  0.46465997084E+01  0.38238489475E+02  0.47000000000E+01 0. -1.
          5    1    4    4  503    0 -0.96920505742E+02  0.30111265970E+02  0.59567020783E+02  0.11777348062E+03  0.47000000000E+01 0.  1.
         -5    1    4    4    0  503 -0.69093258002E+02 -0.90575830762E+02  0.44799214705E+02  0.12250273082E+03  0.47000000000E+01 0.  1.
<mgrwt>
<rscale>  0 0.21642925E+03</rscale>
<asrwt>0</asrwt>
<pdfrwt beam="1">  1        5 0.37631266E-01 0.21643023E+03</pdfrwt>
<pdfrwt beam="2">  1       -5 0.35379449E-01 0.21643023E+03</pdfrwt>
<totfact> 0.43094843E+01</totfact>
</mgrwt>
</event>
<event>
 8    1  0.3588496E-007  0.1274491E+03  0.7546771E-02  0.1231291E+00
         -5   -1    0    0    0  501 -0.00000000000E+00  0.00000000000E+00  0.12775568915E+03  0.12784211400E+03  0.47000000000E+01 0.  1.
          5   -1    0    0  501    0  0.00000000000E+00 -0.00000000000E+00 -0.12800973364E+03  0.12809598708E+03  0.47000000000E+01 0.  1.
         25    2    1    2    0    0  0.24106196892E+02  0.61818662117E+01  0.11399052886E+02  0.12795782106E+03  0.12499576539E+03 0.  0.
         25    2    1    2    0    0 -0.24106196892E+02 -0.61818662117E+01 -0.11653097371E+02  0.12798028002E+03  0.12499533270E+03 0.  0.
          5    1    4    4  502    0 -0.58461878045E+02 -0.26266158994E+02  0.29349181741E+02  0.70648190081E+02  0.47000000000E+01 0.  1.
         -5    1    4    4    0  502  0.34355681153E+02  0.20084292782E+02 -0.41002279113E+02  0.57332089936E+02  0.47000000000E+01 0.  1.
          5    1    3    3  503    0  0.89914316635E+01  0.64190503762E+02  0.18087617737E+02  0.67457531321E+02  0.47000000000E+01 0. -1.
         -5    1    3    3    0  503  0.15114765229E+02 -0.58008637550E+02 -0.66885648507E+01  0.60500289736E+02  0.47000000000E+01 0. -1.
<mgrwt>
<rscale>  0 0.12744896E+03</rscale>
<asrwt>0</asrwt>
<pdfrwt beam="2">  1        5 0.19707088E-01 0.12744907E+03</pdfrwt>
<pdfrwt beam="1">  1       -5 0.19668004E-01 0.12744907E+03</pdfrwt>
<totfact> 0.40268391E+02</totfact>
</mgrwt>
</event>
<event>
 8    1  0.3588496E-007  0.1368781E+03  0.7546771E-02  0.1217593E+00
         -5   -1    0    0    0  501 -0.00000000000E+00  0.00000000000E+00  0.42377336810E+02  0.42637174802E+02  0.47000000000E+01 0. -1.
          5   -1    0    0  501    0  0.00000000000E+00 -0.00000000000E+00 -0.45171093972E+03  0.45173539053E+03  0.47000000000E+01 0. -1.
         25    2    1    2    0    0 -0.47607883557E+02  0.29044560066E+02 -0.24361947779E+03  0.27943821737E+03  0.12500068127E+03 0.  0.
         25    2    1    2    0    0  0.47607883557E+02 -0.29044560066E+02 -0.16571412511E+03  0.21493434797E+03  0.12500202250E+03 0.  0.
          5    1    3    3  502    0 -0.28542340427E+02  0.77013219444E+02 -0.12103874651E+03  0.14634947668E+03  0.47000000000E+01 0.  1.
         -5    1    3    3    0  502 -0.19065543130E+02 -0.47968659378E+02 -0.12258073128E+03  0.13308874069E+03  0.47000000000E+01 0.  1.
          5    1    4    4  503    0  0.84378987522E+02 -0.43756435527E+02 -0.13189409422E+03  0.16264249530E+03  0.47000000000E+01 0. -1.
         -5    1    4    4    0  503 -0.36771103965E+02  0.14711875461E+02 -0.33820030889E+02  0.52291852671E+02  0.47000000000E+01 0. -1.
<mgrwt>
<rscale>  0 0.13687775E+03</rscale>
<asrwt>0</asrwt>
<pdfrwt beam="2">  1        5 0.69515855E-01 0.13687806E+03</pdfrwt>
<pdfrwt beam="1">  1       -5 0.65414590E-02 0.13687806E+03</pdfrwt>
<totfact> 0.22309843E+02</totfact>
</mgrwt>
</event>
<event>
 8    1  0.3588496E-007  0.1368080E+03  0.7546771E-02  0.1217690E+00
          5   -1    0    0  501    0  0.00000000000E+00  0.00000000000E+00  0.27359749504E+03  0.27363786158E+03  0.47000000000E+01 0. -1.
         -5   -1    0    0    0  501 -0.00000000000E+00 -0.00000000000E+00 -0.70319964687E+02  0.70476857432E+02  0.47000000000E+01 0. -1.
         25    2    1    2    0    0 -0.50426222759E+02 -0.23408440460E+02  0.72387882877E+02  0.15477870402E+03  0.12500273039E+03 0.  0.
         25    2    1    2    0    0  0.50426222759E+02  0.23408440460E+02  0.13088964747E+03  0.18933601499E+03  0.12500107092E+03 0.  0.
          5    1    4    4  502    0  0.75978972466E+02  0.13326390667E+02  0.14008566125E+03  0.15998899785E+03  0.47000000000E+01 0.  1.
         -5    1    4    4    0  502 -0.25552749707E+02  0.10082049793E+02 -0.91960137801E+01  0.29347017141E+02  0.47000000000E+01 0.  1.
          5    1    3    3  503    0  0.80154393786E+01  0.13598105570E+02 -0.28172729852E+02  0.32633547935E+02  0.47000000000E+01 0.  1.
         -5    1    3    3    0  503 -0.58441662138E+02 -0.37006546030E+02  0.10056061273E+03  0.12214515608E+03  0.47000000000E+01 0.  1.
<mgrwt>
<rscale>  0 0.13680767E+03</rscale>
<asrwt>0</asrwt>
<pdfrwt beam="1">  1        5 0.42107095E-01 0.13680805E+03</pdfrwt>
<pdfrwt beam="2">  1       -5 0.10833630E-01 0.13680805E+03</pdfrwt>
<totfact> 0.27502989E+02</totfact>
</mgrwt>
</event>
<event>
 8    1  0.3588496E-007  0.1611563E+03  0.7546771E-02  0.1187407E+00
          5   -1    0    0  501    0  0.00000000000E+00  0.00000000000E+00  0.36128721292E+02  0.36433151142E+02  0.47000000000E+01 0. -1.
         -5   -1    0    0    0  501 -0.00000000000E+00 -0.00000000000E+00 -0.84635770223E+03  0.84637075217E+03  0.47000000000E+01 0. -1.
         25    2    1    2    0    0  0.78156668692E+02  0.65088825600E+02 -0.57869372782E+03  0.60070474917E+03  0.12495897316E+03 0.  0.
         25    2    1    2    0    0 -0.78156668692E+02 -0.65088825600E+02 -0.23153525312E+03  0.28209915414E+03  0.12500535690E+03 0.  0.
          5    1    4    4  502    0 -0.89046696754E+02 -0.74800305438E+02 -0.23840646016E+03  0.26530007565E+03  0.47000000000E+01 0.  1.
         -5    1    4    4    0  502  0.10890028063E+02  0.97114798382E+01  0.68712070422E+01  0.16799078489E+02  0.47000000000E+01 0.  1.
          5    1    3    3  503    0 -0.25450501568E+02  0.80531620908E+01 -0.24781387946E+03  0.24929177744E+03  0.47000000000E+01 0.  1.
         -5    1    3    3    0  503  0.10360717026E+03  0.57035663509E+02 -0.33087984837E+03  0.35141297172E+03  0.47000000000E+01 0.  1.
<mgrwt>
<rscale>  0 0.16114732E+03</rscale>
<asrwt>0</asrwt>
<pdfrwt beam="1">  1        5 0.55826870E-02 0.16115632E+03</pdfrwt>
<pdfrwt beam="2">  1       -5 0.13023328E+00 0.16115632E+03</pdfrwt>
<totfact> 0.67316564E+01</totfact>
</mgrwt>
</event>
<event>
 8    1  0.3588496E-007  0.1434856E+03  0.7546771E-02  0.1208719E+00
         -5   -1    0    0    0  501 -0.00000000000E+00  0.00000000000E+00  0.74534110642E+02  0.74682150807E+02  0.47000000000E+01 0.  1.
          5   -1    0    0  501    0  0.00000000000E+00 -0.00000000000E+00 -0.35506821686E+03  0.35509932220E+03  0.47000000000E+01 0.  1.
         25    2    1    2    0    0 -0.27307383300E+02  0.64921644059E+02 -0.38736036228E+02  0.14862230910E+03  0.12501038841E+03 0.  0.
         25    2    1    2    0    0  0.27307383300E+02 -0.64921644059E+02 -0.24179806999E+03  0.28115916390E+03  0.12499462286E+03 0.  0.
          5    1    4    4  502    0 -0.91707950551E+01 -0.82368850254E+02 -0.21965747828E+03  0.23481956635E+03  0.47000000000E+01 0. -1.
         -5    1    4    4    0  502  0.36478178355E+02  0.17447206194E+02 -0.22140591707E+02  0.46339597551E+02  0.47000000000E+01 0. -1.
          5    1    3    3  503    0 -0.73702318092E+01  0.59318950219E+02 -0.81321104750E+02  0.10103598493E+03  0.47000000000E+01 0. -1.
         -5    1    3    3    0  503 -0.19937151490E+02  0.56026938398E+01  0.42585068522E+02  0.47586324179E+02  0.47000000000E+01 0. -1.
<mgrwt>
<rscale>  0 0.14348214E+03</rscale>
<asrwt>0</asrwt>
<pdfrwt beam="2">  1        5 0.54639659E-01 0.14348558E+03</pdfrwt>
<pdfrwt beam="1">  1       -5 0.11480567E-01 0.14348558E+03</pdfrwt>
<totfact> 0.14573690E+02</totfact>
</mgrwt>
</event>
<event>
 8    1  0.3588496E-007  0.1396312E+03  0.7546771E-02  0.1213829E+00
         -5   -1    0    0    0  501 -0.00000000000E+00  0.00000000000E+00  0.72272766955E+02  0.72425429535E+02  0.47000000000E+01 0.  1.
          5   -1    0    0  501    0  0.00000000000E+00 -0.00000000000E+00 -0.26929209306E+03  0.26933310488E+03  0.47000000000E+01 0.  1.
         25    2    1    2    0    0  0.55355764063E+02 -0.28430082624E+02 -0.98149763032E+02  0.17067585966E+03  0.12499737146E+03 0.  0.
         25    2    1    2    0    0 -0.55355764063E+02  0.28430082624E+02 -0.98869563071E+02  0.17108267476E+03  0.12498624279E+03 0.  0.
          5    1    3    3  502    0  0.95287893859E+02 -0.26468167249E+02 -0.75288733462E+02  0.12438179119E+03  0.47000000000E+01 0.  1.
         -5    1    3    3    0  502 -0.39932129796E+02 -0.19619153755E+01 -0.22861029570E+02  0.46294068465E+02  0.47000000000E+01 0.  1.
          5    1    4    4  503    0 -0.19168164664E+02  0.50320481912E+02 -0.11380093079E+03  0.12598536139E+03  0.47000000000E+01 0. -1.
         -5    1    4    4    0  503 -0.36187599398E+02 -0.21890399287E+02  0.14931367717E+02  0.45097313369E+02  0.47000000000E+01 0. -1.
<mgrwt>
<rscale>  0 0.13962871E+03</rscale>
<asrwt>0</asrwt>
<pdfrwt beam="2">  1        5 0.41444450E-01 0.13963120E+03</pdfrwt>
<pdfrwt beam="1">  1       -5 0.11133785E-01 0.13963120E+03</pdfrwt>
<totfact> 0.27271253E+02</totfact>
</mgrwt>
</event>
<event>
 8    1  0.3588496E-007  0.1438199E+03  0.7546771E-02  0.1208281E+00
          5   -1    0    0  501    0  0.00000000000E+00  0.00000000000E+00  0.24694129589E+03  0.24698601906E+03  0.47000000000E+01 0.  1.
         -5   -1    0    0    0  501 -0.00000000000E+00 -0.00000000000E+00 -0.83799391534E+02  0.83931090910E+02  0.47000000000E+01 0.  1.
         25    2    1    2    0    0  0.67926796516E+02 -0.21053947793E+02  0.74358886243E+02  0.16190552878E+03  0.12500735132E+03 0.  0.
         25    2    1    2    0    0 -0.67926796516E+02  0.21053947793E+02  0.88783018108E+02  0.16901158119E+03  0.12500068748E+03 0.  0.
          5    1    4    4  502    0 -0.24692554982E+02  0.65533185208E+02  0.13710345606E+02  0.71514923000E+02  0.47000000000E+01 0.  1.
         -5    1    4    4    0  502 -0.43234241534E+02 -0.44479237415E+02  0.75072672502E+02  0.97496658192E+02  0.47000000000E+01 0.  1.
          5    1    3    3  503    0  0.96020361148E+02 -0.43104669877E+02  0.41786315703E+02  0.11334067452E+03  0.47000000000E+01 0.  1.
         -5    1    3    3    0  503 -0.28093564633E+02  0.22050722084E+02  0.32572570540E+02  0.48564854265E+02  0.47000000000E+01 0.  1.
<mgrwt>
<rscale>  0 0.14381843E+03</rscale>
<asrwt>0</asrwt>
<pdfrwt beam="1">  1        5 0.38004539E-01 0.14381987E+03</pdfrwt>
<pdfrwt beam="2">  1       -5 0.12905785E-01 0.14381987E+03</pdfrwt>
<totfact> 0.25305442E+02</totfact>
</mgrwt>
</event>
<event>
 8    1  0.3588496E-007  0.1492918E+03  0.7546771E-02  0.1201346E+00
         -5   -1    0    0    0  501 -0.00000000000E+00  0.00000000000E+00  0.23641910033E+03  0.23646581360E+03  0.47000000000E+01 0. -1.
          5   -1    0    0  501    0  0.00000000000E+00 -0.00000000000E+00 -0.15469663119E+03  0.15476801252E+03  0.47000000000E+01 0. -1.
         25    2    1    2    0    0  0.78378449970E+02 -0.22798687215E+02  0.16317679738E+03  0.22116661679E+03  0.12500017449E+03 0.  0.
         25    2    1    2    0    0 -0.78378449970E+02  0.22798687215E+02 -0.81454328238E+02  0.17006720933E+03  0.12500034617E+03 0.  0.
          5    1    3    3  502    0  0.44717998628E+02 -0.40796443443E+02  0.79324157074E+01  0.61229587765E+02  0.47000000000E+01 0. -1.
         -5    1    3    3    0  502  0.33660451342E+02  0.17997756229E+02  0.15524438167E+03  0.15993702903E+03  0.47000000000E+01 0. -1.
          5    1    4    4  503    0 -0.30781284152E+02 -0.12672397032E+02  0.29121596838E+02  0.44477348201E+02  0.47000000000E+01 0.  1.
         -5    1    4    4    0  503 -0.47597165818E+02  0.35471084247E+02 -0.11057592508E+03  0.12558986113E+03  0.47000000000E+01 0.  1.
<mgrwt>
<rscale>  0 0.14929179E+03</rscale>
<asrwt>0</asrwt>
<pdfrwt beam="2">  1        5 0.23808566E-01 0.14929182E+03</pdfrwt>
<pdfrwt beam="1">  1       -5 0.36381253E-01 0.14929182E+03</pdfrwt>
<totfact> 0.90505144E+01</totfact>
</mgrwt>
</event>
<event>
 8    1  0.3588496E-007  0.1722415E+03  0.7546771E-02  0.1175530E+00
         -5   -1    0    0    0  501 -0.00000000000E+00  0.00000000000E+00  0.28999863150E+02  0.29378258334E+02  0.47000000000E+01 0. -1.
          5   -1    0    0  501    0  0.00000000000E+00 -0.00000000000E+00 -0.10272261825E+04  0.10272369347E+04  0.47000000000E+01 0. -1.
         25    2    1    2    0    0  0.11595679880E+03 -0.24423454773E+02 -0.44387718201E+03  0.47612394235E+03  0.12499828575E+03 0.  0.
         25    2    1    2    0    0 -0.11595679880E+03  0.24423454773E+02 -0.55434913734E+03  0.58049125068E+03  0.12499856687E+03 0.  0.
          5    1    4    4  502    0 -0.10587731123E+03  0.34614965990E+02 -0.55430499170E+03  0.56540632710E+03  0.47000000000E+01 0.  1.
         -5    1    4    4    0  502 -0.10079487574E+02 -0.10191511217E+02 -0.44145640764E-01  0.15084923582E+02  0.47000000000E+01 0.  1.
          5    1    3    3  503    0  0.70947787376E+02 -0.28746459107E+02 -0.85430091538E+02  0.11480565311E+03  0.47000000000E+01 0.  1.
         -5    1    3    3    0  503  0.45009011424E+02  0.43230043342E+01 -0.35844709047E+03  0.36131828924E+03  0.47000000000E+01 0.  1.
<mgrwt>
<rscale>  0 0.17224142E+03</rscale>
<asrwt>0</asrwt>
<pdfrwt beam="2">  1        5 0.15806470E+00 0.17224148E+03</pdfrwt>
<pdfrwt beam="1">  1       -5 0.44914526E-02 0.17224148E+03</pdfrwt>
<totfact> 0.58348399E+01</totfact>
</mgrwt>
</event>
<event>
 8    1  0.3588496E-007  0.1365589E+03  0.7546771E-02  0.1218040E+00
         -5   -1    0    0    0  501 -0.00000000000E+00  0.00000000000E+00  0.17676852361E+04  0.17676914844E+04  0.47000000000E+01 0. -1.
          5   -1    0    0  501    0  0.00000000000E+00 -0.00000000000E+00 -0.10452677313E+02  0.11460735709E+02  0.47000000000E+01 0. -1.
         25    2    1    2    0    0  0.51856662724E+02 -0.18260215139E+02  0.10516076228E+04  0.10604371416E+04  0.12500315984E+03 0.  0.
         25    2    1    2    0    0 -0.51856662724E+02  0.18260215139E+02  0.70562493595E+03  0.71871507847E+03  0.12498905898E+03 0.  0.
          5    1    4    4  502    0 -0.19719158686E+02  0.12619279089E+02  0.17024510036E+02  0.29326018584E+02  0.47000000000E+01 0. -1.
         -5    1    4    4    0  502 -0.32137504037E+02  0.56409360505E+01  0.68860042591E+03  0.68938905989E+03  0.47000000000E+01 0. -1.
          5    1    3    3  503    0 -0.36677728227E+02 -0.16371669400E+02  0.18868981162E+03  0.19297466755E+03  0.47000000000E+01 0. -1.
         -5    1    3    3    0  503  0.88534390950E+02 -0.18885457393E+01  0.86291781119E+03  0.86746247404E+03  0.47000000000E+01 0. -1.
<mgrwt>
<rscale>  0 0.13655569E+03</rscale>
<asrwt>0</asrwt>
<pdfrwt beam="2">  1        5 0.16861285E-02 0.13655892E+03</pdfrwt>
<pdfrwt beam="1">  1       -5 0.27202949E+00 0.13655892E+03</pdfrwt>
<totfact> 0.45587857E+01</totfact>
</mgrwt>
</event>
<event>
 8    1  0.3588496E-007  0.1781774E+03  0.7546771E-02  0.1169579E+00
          5   -1    0    0  501    0  0.00000000000E+00  0.00000000000E+00  0.78079767175E+03  0.78081181741E+03  0.47000000000E+01 0.  1.
         -5   -1    0    0    0  501 -0.00000000000E+00 -0.00000000000E+00 -0.41919591763E+02  0.42182249509E+02  0.47000000000E+01 0.  1.
         25    2    1    2    0    0 -0.12622632180E+03  0.13810911434E+02  0.29421559648E+03  0.34396179998E+03  0.12499230795E+03 0.  0.
         25    2    1    2    0    0  0.12622632180E+03 -0.13810911434E+02  0.44466248351E+03  0.47903226694E+03  0.12499345158E+03 0.  0.
          5    1    3    3  502    0 -0.10337336422E+03  0.63526040810E+02  0.22429336356E+03  0.25505139331E+03  0.47000000000E+01 0.  1.
         -5    1    3    3    0  502 -0.22852957575E+02 -0.49715129376E+02  0.69922232917E+02  0.88910406674E+02  0.47000000000E+01 0.  1.
          5    1    4    4  503    0  0.12214645326E+03 -0.49156617570E+02  0.40327522427E+03  0.42425125292E+03  0.47000000000E+01 0.  1.
         -5    1    4    4    0  503  0.40798685407E+01  0.35345706136E+02  0.41387259241E+02  0.54781014020E+02  0.47000000000E+01 0.  1.
<mgrwt>
<rscale>  0 0.17817721E+03</rscale>
<asrwt>0</asrwt>
<pdfrwt beam="1">  1        5 0.12014401E+00 0.17817741E+03</pdfrwt>
<pdfrwt beam="2">  1       -5 0.64704607E-02 0.17817741E+03</pdfrwt>
<totfact> 0.66517375E+01</totfact>
</mgrwt>
</event>
<event>
 8    1  0.3588496E-007  0.1338999E+03  0.7546771E-02  0.1221782E+00
          5   -1    0    0  501    0  0.00000000000E+00  0.00000000000E+00  0.99941623718E+03  0.99942728857E+03  0.47000000000E+01 0.  1.
         -5   -1    0    0    0  501 -0.00000000000E+00 -0.00000000000E+00 -0.34276780313E+02  0.34597509573E+02  0.47000000000E+01 0.  1.
         25    2    1    2    0    0  0.47263687198E+02 -0.83514600179E+01  0.12465308231E+03  0.18293930412E+03  0.12499918020E+03 0.  0.
         25    2    1    2    0    0 -0.47263687198E+02  0.83514600179E+01  0.84048637456E+03  0.85108549402E+03  0.12500227719E+03 0.  0.
          5    1    3    3  502    0 -0.24002967487E+02 -0.28563031789E+02 -0.29653116713E+00  0.37605414023E+02  0.47000000000E+01 0.  1.
         -5    1    3    3    0  502  0.71266654684E+02  0.20211571771E+02  0.12494961348E+03  0.14533389010E+03  0.47000000000E+01 0.  1.
          5    1    4    4  503    0 -0.78073588298E+02 -0.19328384808E+02  0.69778265075E+03  0.70241852861E+03  0.47000000000E+01 0.  1.
         -5    1    4    4    0  503  0.30809901100E+02  0.27679844826E+02  0.14270372381E+03  0.14866696541E+03  0.47000000000E+01 0.  1.
<mgrwt>
<rscale>  0 0.13389914E+03</rscale>
<asrwt>0</asrwt>
<pdfrwt beam="1">  1        5 0.15378187E+00 0.13389986E+03</pdfrwt>
<pdfrwt beam="2">  1       -5 0.52988724E-02 0.13389986E+03</pdfrwt>
<totfact> 0.44551048E+01</totfact>
</mgrwt>
</event>
<event>
 8    1  0.3588496E-007  0.1267951E+03  0.7546771E-02  0.1232291E+00
          5   -1    0    0  501    0  0.00000000000E+00  0.00000000000E+00  0.30181816706E+02  0.30545573487E+02  0.47000000000E+01 0.  1.
         -5   -1    0    0    0  501 -0.00000000000E+00 -0.00000000000E+00 -0.53208468180E+03  0.53210543936E+03  0.47000000000E+01 0.  1.
         25    2    1    2    0    0 -0.21250906110E+02  0.63967475767E+00 -0.27204171606E+03  0.30013945750E+03  0.12499995391E+03 0.  0.
         25    2    1    2    0    0  0.21250906110E+02 -0.63967475767E+00 -0.22986114903E+03  0.26251155535E+03  0.12499663462E+03 0.  0.
          5    1    3    3  502    0 -0.73624752539E+02  0.21657341598E+01 -0.17017496431E+03  0.18549097840E+03  0.47000000000E+01 0. -1.
         -5    1    3    3    0  502  0.52373846429E+02 -0.15260594021E+01 -0.10186675176E+03  0.11464847910E+03  0.47000000000E+01 0. -1.
          5    1    4    4  503    0 -0.14065412466E+02 -0.30368297503E+02 -0.20886337683E+03  0.21157993644E+03  0.47000000000E+01 0.  1.
         -5    1    4    4    0  503  0.35316318576E+02  0.29728622745E+02 -0.20997772198E+02  0.50931618915E+02  0.47000000000E+01 0.  1.
<mgrwt>
<rscale>  0 0.12679429E+03</rscale>
<asrwt>0</asrwt>
<pdfrwt beam="1">  1        5 0.46729349E-02 0.12679511E+03</pdfrwt>
<pdfrwt beam="2">  1       -5 0.81888753E-01 0.12679511E+03</pdfrwt>
<totfact> 0.26207694E+02</totfact>
</mgrwt>
</event>
<event>
 8    1  0.3588496E-007  0.1253855E+03  0.7546771E-02  0.1234469E+00
         -5   -1    0    0    0  501 -0.00000000000E+00  0.00000000000E+00  0.38690659196E+03  0.38693513785E+03  0.47000000000E+01 0. -1.
          5   -1    0    0  501    0  0.00000000000E+00 -0.00000000000E+00 -0.40823331385E+02  0.41092996792E+02  0.47000000000E+01 0. -1.
         25    2    1    2    0    0  0.85560624184E+01  0.47532448384E+01  0.19297211860E+03  0.23012986734E+03  0.12500287094E+03 0.  0.
         25    2    1    2    0    0 -0.85560624184E+01 -0.47532448384E+01  0.15311114197E+03  0.19789826730E+03  0.12499961145E+03 0.  0.
          5    1    3    3  502    0  0.10732200400E+02  0.15301656081E+02 -0.13368559278E+02  0.23454832795E+02  0.47000000000E+01 0.  1.
         -5    1    3    3    0  502 -0.21761379818E+01 -0.10548411243E+02  0.20634067788E+03  0.20667503455E+03  0.47000000000E+01 0.  1.
          5    1    4    4  503    0 -0.31368826343E+02 -0.44001226245E+02  0.21067222351E+02  0.58189595589E+02  0.47000000000E+01 0.  1.
         -5    1    4    4    0  503  0.22812763924E+02  0.39247981407E+02  0.13204391962E+03  0.13970867171E+03  0.47000000000E+01 0.  1.
<mgrwt>
<rscale>  0 0.12538466E+03</rscale>
<asrwt>0</asrwt>
<pdfrwt beam="2">  1        5 0.63034516E-02 0.12538547E+03</pdfrwt>
<pdfrwt beam="1">  1       -5 0.59547033E-01 0.12538547E+03</pdfrwt>
<totfact> 0.32440586E+02</totfact>
</mgrwt>
</event>
<event>
 8    1  0.3588496E-007  0.2087442E+03  0.7546771E-02  0.1142566E+00
         -5   -1    0    0    0  501 -0.00000000000E+00  0.00000000000E+00  0.23158668000E+03  0.23163436781E+03  0.47000000000E+01 0.  1.
          5   -1    0    0  501    0  0.00000000000E+00 -0.00000000000E+00 -0.19313423333E+03  0.19319141307E+03  0.47000000000E+01 0.  1.
         25    2    1    2    0    0 -0.57087090844E+02  0.15712734080E+03  0.53678398227E+02  0.21553540798E+03  0.12500481787E+03 0.  0.
         25    2    1    2    0    0  0.57087090844E+02 -0.15712734080E+03 -0.15225951556E+02  0.20929037291E+03  0.12499077335E+03 0.  0.
          5    1    4    4  502    0 -0.51458741947E+01 -0.13272561696E+03 -0.38467515991E+02  0.13836332319E+03  0.47000000000E+01 0.  1.
         -5    1    4    4    0  502  0.62232965038E+02 -0.24401723837E+02  0.23241564434E+02  0.70927049713E+02  0.47000000000E+01 0.  1.
          5    1    3    3  503    0 -0.63371762490E+02  0.73434353213E+02  0.81720902124E+02  0.12692115804E+03  0.47000000000E+01 0. -1.
         -5    1    3    3    0  503  0.62846716467E+01  0.83692987583E+02 -0.28042503898E+02  0.88614249944E+02  0.47000000000E+01 0. -1.
<mgrwt>
<rscale>  0 0.20874210E+03</rscale>
<asrwt>0</asrwt>
<pdfrwt beam="2">  1        5 0.29721026E-01 0.20874420E+03</pdfrwt>
<pdfrwt beam="1">  1       -5 0.35636786E-01 0.20874420E+03</pdfrwt>
<totfact> 0.67575113E+01</totfact>
</mgrwt>
</event>
<event>
 8    1  0.3588496E-007  0.1421017E+03  0.7546771E-02  0.1210529E+00
         -5   -1    0    0    0  501 -0.00000000000E+00  0.00000000000E+00  0.33308650485E+03  0.33311966275E+03  0.47000000000E+01 0.  1.
          5   -1    0    0  501    0  0.00000000000E+00 -0.00000000000E+00 -0.75051614087E+02  0.75198635474E+02  0.47000000000E+01 0.  1.
         25    2    1    2    0    0 -0.77996516321E+01 -0.67134434274E+02  0.21880767357E+03  0.26090166220E+03  0.12500004998E+03 0.  0.
         25    2    1    2    0    0  0.77996516321E+01  0.67134434274E+02  0.39227217191E+02  0.14741663602E+03  0.12500009271E+03 0.  0.
          5    1    4    4  502    0 -0.11827975230E+02 -0.35317565316E+02  0.75079476326E+01  0.38284340082E+02  0.47000000000E+01 0. -1.
         -5    1    4    4    0  502  0.19627626862E+02  0.10245199959E+03  0.31719269558E+02  0.10913229594E+03  0.47000000000E+01 0. -1.
          5    1    3    3  503    0  0.26187527993E+02 -0.94133874372E+02  0.13966573228E+03  0.17051562890E+03  0.47000000000E+01 0. -1.
         -5    1    3    3    0  503 -0.33987179625E+02  0.26999440098E+02  0.79141941291E+02  0.90386033300E+02  0.47000000000E+01 0. -1.
<mgrwt>
<rscale>  0 0.14210168E+03</rscale>
<asrwt>0</asrwt>
<pdfrwt beam="2">  1        5 0.11560262E-01 0.14210169E+03</pdfrwt>
<pdfrwt beam="1">  1       -5 0.51257938E-01 0.14210169E+03</pdfrwt>
<totfact> 0.16455270E+02</totfact>
</mgrwt>
</event>
<event>
 8    1  0.3588496E-007  0.1275258E+03  0.7546771E-02  0.1231176E+00
          5   -1    0    0  501    0  0.00000000000E+00  0.00000000000E+00  0.19355624217E+02  0.19918086977E+02  0.47000000000E+01 0. -1.
         -5   -1    0    0    0  501 -0.00000000000E+00 -0.00000000000E+00 -0.83367156437E+03  0.83368481288E+03  0.47000000000E+01 0. -1.
         25    2    1    2    0    0  0.23436521022E+02 -0.92812298027E+01 -0.44366374468E+03  0.46162600833E+03  0.12500256589E+03 0.  0.
         25    2    1    2    0    0 -0.23436521022E+02  0.92812298027E+01 -0.37065219547E+03  0.39197689153E+03  0.12500968660E+03 0.  0.
          5    1    4    4  502    0  0.13158843028E+02  0.59205550185E+02 -0.13133409118E+03  0.14473833573E+03  0.47000000000E+01 0.  1.
         -5    1    4    4    0  502 -0.36595364050E+02 -0.49924320382E+02 -0.23931810429E+03  0.24723855580E+03  0.47000000000E+01 0.  1.
          5    1    3    3  503    0  0.43045332061E+02  0.97283480144E+00 -0.45494633348E+02  0.62814796691E+02  0.47000000000E+01 0.  1.
         -5    1    3    3    0  503 -0.19608811039E+02 -0.10254064604E+02 -0.39816911133E+03  0.39881121164E+03  0.47000000000E+01 0.  1.
<mgrwt>
<rscale>  0 0.12752407E+03</rscale>
<asrwt>0</asrwt>
<pdfrwt beam="1">  1        5 0.30220745E-02 0.12752581E+03</pdfrwt>
<pdfrwt beam="2">  1       -5 0.12830142E+00 0.12752581E+03</pdfrwt>
<totfact> 0.17836146E+02</totfact>
</mgrwt>
</event>
<event>
 8    1  0.3588496E-007  0.1749025E+03  0.7546771E-02  0.1172833E+00
          5   -1    0    0  501    0  0.00000000000E+00  0.00000000000E+00  0.28778408890E+03  0.28782246580E+03  0.47000000000E+01 0. -1.
         -5   -1    0    0    0  501 -0.00000000000E+00 -0.00000000000E+00 -0.11814910160E+03  0.11824254822E+03  0.47000000000E+01 0. -1.
         25    2    1    2    0    0  0.11526234611E+03  0.40916264120E+02  0.20271356613E+02  0.17607329766E+03  0.12502531404E+03 0.  0.
         25    2    1    2    0    0 -0.11526234611E+03 -0.40916264120E+02  0.14936363068E+03  0.22999171636E+03  0.12500858499E+03 0.  0.
          5    1    3    3  502    0  0.81873618738E+02  0.66183060596E+02  0.57323426517E+02  0.11996479560E+03  0.47000000000E+01 0.  1.
         -5    1    3    3    0  502  0.33388727372E+02 -0.25266796476E+02 -0.37052069904E+02  0.56108502064E+02  0.47000000000E+01 0.  1.
          5    1    4    4  503    0 -0.41427527648E+02  0.16043109877E+02  0.12608203340E+03  0.13376244079E+03  0.47000000000E+01 0. -1.
         -5    1    4    4    0  503 -0.73834818462E+02 -0.56959373998E+02  0.23281597288E+02  0.96229275565E+02  0.47000000000E+01 0. -1.
<mgrwt>
<rscale>  0 0.17489949E+03</rscale>
<asrwt>0</asrwt>
<pdfrwt beam="1">  1        5 0.44284615E-01 0.17490248E+03</pdfrwt>
<pdfrwt beam="2">  1       -5 0.18186925E-01 0.17490248E+03</pdfrwt>
<totfact> 0.10525424E+02</totfact>
</mgrwt>
</event>
<event>
 8    1  0.3588496E-007  0.1398778E+03  0.7546771E-02  0.1213497E+00
         -5   -1    0    0    0  501 -0.00000000000E+00  0.00000000000E+00  0.85593798880E+03  0.85595089267E+03  0.47000000000E+01 0.  1.
          5   -1    0    0  501    0  0.00000000000E+00 -0.00000000000E+00 -0.30520679030E+02  0.30880444434E+02  0.47000000000E+01 0.  1.
         25    2    1    2    0    0 -0.50259135343E+02 -0.37603624097E+02  0.63696073993E+03  0.65213648936E+03  0.12499201301E+03 0.  0.
         25    2    1    2    0    0  0.50259135343E+02  0.37603624097E+02  0.18845656984E+03  0.23469484774E+03  0.12500311841E+03 0.  0.
          5    1    3    3  502    0  0.43170723308E+01  0.41307804190E+02  0.24745506830E+03  0.25096030090E+03  0.47000000000E+01 0.  1.
         -5    1    3    3    0  502 -0.54576207674E+02 -0.78911428287E+02  0.38950567163E+03  0.40117618846E+03  0.47000000000E+01 0.  1.
          5    1    4    4  503    0  0.10790264936E+02  0.79455196505E+02  0.90548463245E+02  0.12103996144E+03  0.47000000000E+01 0.  1.
         -5    1    4    4    0  503  0.39468870407E+02 -0.41851572408E+02  0.97908106592E+02  0.11365488630E+03  0.47000000000E+01 0.  1.
<mgrwt>
<rscale>  0 0.13987530E+03</rscale>
<asrwt>0</asrwt>
<pdfrwt beam="2">  1        5 0.47241558E-02 0.13987778E+03</pdfrwt>
<pdfrwt beam="1">  1       -5 0.13171144E+00 0.13987778E+03</pdfrwt>
<totfact> 0.82736089E+01</totfact>
</mgrwt>
</event>
<event>
 8    1  0.3588496E-007  0.1328418E+03  0.7546771E-02  0.1223301E+00
         -5   -1    0    0    0  501 -0.00000000000E+00  0.00000000000E+00  0.29595773905E+03  0.29599505621E+03  0.47000000000E+01 0. -1.
          5   -1    0    0  501    0  0.00000000000E+00 -0.00000000000E+00 -0.10409584780E+03  0.10420189791E+03  0.47000000000E+01 0. -1.
         25    2    1    2    0    0 -0.38621487825E+02  0.23031245900E+02  0.22680001874E+03  0.26283753338E+03  0.12499305117E+03 0.  0.
         25    2    1    2    0    0  0.38621487825E+02 -0.23031245900E+02 -0.34938127494E+02  0.13735942075E+03  0.12499952042E+03 0.  0.
          5    1    3    3  502    0  0.40225410056E+02 -0.14646180139E+02  0.98831932622E+02  0.10780739823E+03  0.47000000000E+01 0. -1.
         -5    1    3    3    0  502 -0.78846897882E+02  0.37677426039E+02  0.12796808612E+03  0.15503013515E+03  0.47000000000E+01 0. -1.
          5    1    4    4  503    0  0.78474562949E+02 -0.11788042106E+02  0.49819013743E+01  0.79650011350E+02  0.47000000000E+01 0. -1.
         -5    1    4    4    0  503 -0.39853075124E+02 -0.11243203794E+02 -0.39920028869E+02  0.57709409400E+02  0.47000000000E+01 0. -1.
<mgrwt>
<rscale>  0 0.13284026E+03</rscale>
<asrwt>0</asrwt>
<pdfrwt beam="2">  1        5 0.16025774E-01 0.13284178E+03</pdfrwt>
<pdfrwt beam="1">  1       -5 0.45542989E-01 0.13284178E+03</pdfrwt>
<totfact> 0.11494603E+02</totfact>
</mgrwt>
</event>
<event>
 8    1  0.3588496E-007  0.1646982E+03  0.7546771E-02  0.1183492E+00
         -5   -1    0    0    0  501 -0.00000000000E+00  0.00000000000E+00  0.40974116405E+03  0.40976811921E+03  0.47000000000E+01 0. -1.
          5   -1    0    0  501    0  0.00000000000E+00 -0.00000000000E+00 -0.67150782104E+02  0.67315061741E+02  0.47000000000E+01 0. -1.
         25    2    1    2    0    0  0.10471068254E+03  0.23158996727E+02  0.20125018857E+03  0.26005219257E+03  0.12499935317E+03 0.  0.
         25    2    1    2    0    0 -0.10471068254E+03 -0.23158996727E+02  0.14134019338E+03  0.21703098838E+03  0.12499893393E+03 0.  0.
          5    1    4    4  502    0 -0.62915601105E+02 -0.72977782843E+02  0.10418601966E+03  0.14198924728E+03  0.47000000000E+01 0. -1.
         -5    1    4    4    0  502 -0.41795081437E+02  0.49818786116E+02  0.37154173727E+02  0.75041741103E+02  0.47000000000E+01 0. -1.
          5    1    3    3  503    0  0.93273460311E+02 -0.38829748158E+02  0.11555615168E+03  0.15356758099E+03  0.47000000000E+01 0.  1.
         -5    1    3    3    0  503  0.11437222230E+02  0.61988744885E+02  0.85694036881E+02  0.10648461157E+03  0.47000000000E+01 0.  1.
<mgrwt>
<rscale>  0 0.16469814E+03</rscale>
<asrwt>0</asrwt>
<pdfrwt beam="2">  1        5 0.10345600E-01 0.16469822E+03</pdfrwt>
<pdfrwt beam="1">  1       -5 0.63051813E-01 0.16469822E+03</pdfrwt>
<totfact> 0.13375519E+02</totfact>
</mgrwt>
</event>
<event>
 8    1  0.3588496E-007  0.1278323E+03  0.7546771E-02  0.1230710E+00
         -5   -1    0    0    0  501 -0.00000000000E+00  0.00000000000E+00  0.15367934831E+02  0.16070576249E+02  0.47000000000E+01 0.  1.
          5   -1    0    0  501    0  0.00000000000E+00 -0.00000000000E+00 -0.11015332943E+04  0.11015433212E+04  0.47000000000E+01 0.  1.
         25    2    1    2    0    0 -0.16391081154E+01  0.26698043170E+02 -0.40978052204E+03  0.42925531423E+03  0.12499830547E+03 0.  0.
         25    2    1    2    0    0  0.16391081154E+01 -0.26698043170E+02 -0.67638483748E+03  0.68835858325E+03  0.12500247430E+03 0.  0.
          5    1    3    3  502    0 -0.42995946124E+02 -0.21197143101E+02 -0.28733991459E+03  0.29134908061E+03  0.47000000000E+01 0.  1.
         -5    1    3    3    0  502  0.41356838008E+02  0.47895186271E+02 -0.12244060745E+03  0.13790623362E+03  0.47000000000E+01 0.  1.
          5    1    4    4  503    0  0.24928413787E+01 -0.22975353064E+02 -0.68058180683E+03  0.68099028400E+03  0.47000000000E+01 0.  1.
         -5    1    4    4    0  503 -0.85373326330E+00 -0.37226901065E+01  0.41969693556E+01  0.73682992532E+01  0.47000000000E+01 0.  1.
<mgrwt>
<rscale>  0 0.12783126E+03</rscale>
<asrwt>0</asrwt>
<pdfrwt beam="2">  1        5 0.16952142E+00 0.12783228E+03</pdfrwt>
<pdfrwt beam="1">  1       -5 0.24191192E-02 0.12783228E+03</pdfrwt>
<totfact> 0.11983613E+02</totfact>
</mgrwt>
</event>
<event>
 8    1  0.3588496E-007  0.1572978E+03  0.7546771E-02  0.1191788E+00
          5   -1    0    0  501    0  0.00000000000E+00  0.00000000000E+00  0.24742689207E+03  0.24747152750E+03  0.47000000000E+01 0.  1.
         -5   -1    0    0    0  501 -0.00000000000E+00 -0.00000000000E+00 -0.99969145130E+02  0.10007956823E+03  0.47000000000E+01 0.  1.
         25    2    1    2    0    0 -0.90584934035E+02  0.30082159204E+02  0.68422395254E+02  0.17151361608E+03  0.12499891900E+03 0.  0.
         25    2    1    2    0    0  0.90584934035E+02 -0.30082159204E+02  0.79035351689E+02  0.17603747965E+03  0.12502816023E+03 0.  0.
          5    1    4    4  502    0  0.14298687708E+02  0.23148721445E+02  0.78158621833E+02  0.82892556611E+02  0.47000000000E+01 0. -1.
         -5    1    4    4    0  502  0.76286246327E+02 -0.53230880649E+02  0.87672985634E+00  0.93144923042E+02  0.47000000000E+01 0. -1.
          5    1    3    3  503    0 -0.80763953154E+02  0.21193501184E+02  0.10388643950E+03  0.13336589869E+03  0.47000000000E+01 0. -1.
         -5    1    3    3    0  503 -0.98209808813E+01  0.88886580203E+01 -0.35464044251E+02  0.38147717382E+02  0.47000000000E+01 0. -1.
<mgrwt>
<rscale>  0 0.15729202E+03</rscale>
<asrwt>0</asrwt>
<pdfrwt beam="1">  1        5 0.38077603E-01 0.15729783E+03</pdfrwt>
<pdfrwt beam="2">  1       -5 0.15391796E-01 0.15729783E+03</pdfrwt>
<totfact> 0.18901488E+02</totfact>
</mgrwt>
</event>
<event>
 8    1  0.3588496E-007  0.1312800E+03  0.7546771E-02  0.1225569E+00
         -5   -1    0    0    0  501 -0.00000000000E+00  0.00000000000E+00  0.10336732400E+04  0.10336839251E+04  0.47000000000E+01 0. -1.
          5   -1    0    0  501    0  0.00000000000E+00 -0.00000000000E+00 -0.16356401413E+02  0.17018280383E+02  0.47000000000E+01 0. -1.
         25    2    1    2    0    0 -0.31783954771E+02 -0.24463629269E+02  0.52907961762E+03  0.54512331552E+03  0.12500199359E+03 0.  0.
         25    2    1    2    0    0  0.31783954771E+02  0.24463629269E+02  0.48823722093E+03  0.50557888997E+03  0.12500296453E+03 0.  0.
          5    1    4    4  502    0  0.43796924623E+02 -0.29827656241E+02  0.99234874533E+02  0.11259444927E+03  0.47000000000E+01 0.  1.
         -5    1    4    4    0  502 -0.12012969852E+02  0.54291285510E+02  0.38900234639E+03  0.39298444069E+03  0.47000000000E+01 0.  1.
          5    1    3    3  503    0 -0.57994317980E+02 -0.60388226050E+02  0.28925982635E+03  0.30117007803E+03  0.47000000000E+01 0. -1.
         -5    1    3    3    0  503  0.26210363209E+02  0.35924596781E+02  0.23981979128E+03  0.24395323749E+03  0.47000000000E+01 0. -1.
<mgrwt>
<rscale>  0 0.13127974E+03</rscale>
<asrwt>0</asrwt>
<pdfrwt beam="2">  1        5 0.25681055E-02 0.13127997E+03</pdfrwt>
<pdfrwt beam="1">  1       -5 0.15907837E+00 0.13127997E+03</pdfrwt>
<totfact> 0.13147174E+02</totfact>
</mgrwt>
</event>
<event>
 8    1  0.3588496E-007  0.1361705E+03  0.7546771E-02  0.1218578E+00
          5   -1    0    0  501    0  0.00000000000E+00  0.00000000000E+00  0.61944595991E+03  0.61946379010E+03  0.47000000000E+01 0. -1.
         -5   -1    0    0    0  501 -0.00000000000E+00 -0.00000000000E+00 -0.30042473005E+02  0.30407896742E+02  0.47000000000E+01 0. -1.
         25    2    1    2    0    0 -0.26056353777E+02  0.47316696075E+02  0.32762564347E+03  0.35479536291E+03  0.12499353576E+03 0.  0.
         25    2    1    2    0    0  0.26056353777E+02 -0.47316696075E+02  0.26177784343E+03  0.29507632394E+03  0.12499837733E+03 0.  0.
          5    1    4    4  502    0  0.57573575218E+02 -0.43360847643E+02  0.25103071077E+03  0.26121521284E+03  0.47000000000E+01 0.  1.
         -5    1    4    4    0  502 -0.31517221441E+02 -0.39558484323E+01  0.10747132669E+02  0.33861111097E+02  0.47000000000E+01 0.  1.
          5    1    3    3  503    0 -0.42287776714E+02  0.83431880554E+02  0.19533507621E+03  0.21662644517E+03  0.47000000000E+01 0. -1.
         -5    1    3    3    0  503  0.16231422937E+02 -0.36115184479E+02  0.13229056726E+03  0.13816891773E+03  0.47000000000E+01 0. -1.
<mgrwt>
<rscale>  0 0.13616936E+03</rscale>
<asrwt>0</asrwt>
<pdfrwt beam="1">  1        5 0.95328851E-01 0.13617047E+03</pdfrwt>
<pdfrwt beam="2">  1       -5 0.46514004E-02 0.13617047E+03</pdfrwt>
<totfact> 0.18910661E+02</totfact>
</mgrwt>
</event>
<event>
 8    1  0.3588496E-007  0.1309460E+03  0.7546771E-02  0.1226059E+00
          5   -1    0    0  501    0  0.00000000000E+00  0.00000000000E+00  0.37422940535E+03  0.37425891816E+03  0.47000000000E+01 0. -1.
         -5   -1    0    0    0  501 -0.00000000000E+00 -0.00000000000E+00 -0.50212977801E+02  0.50432461170E+02  0.47000000000E+01 0. -1.
         25    2    1    2    0    0  0.37832549653E+01 -0.38842167973E+02  0.98278545083E+02  0.16372396872E+03  0.12499535383E+03 0.  0.
         25    2    1    2    0    0 -0.37832549653E+01  0.38842167973E+02  0.22573788246E+03  0.26096741062E+03  0.12499348301E+03 0.  0.
          5    1    4    4  502    0  0.83751261190E+01  0.21177463918E+02 -0.91991863428E+01  0.25006853958E+02  0.47000000000E+01 0.  1.
         -5    1    4    4    0  502 -0.12158381084E+02  0.17664704054E+02  0.23493706880E+03  0.23596055666E+03  0.47000000000E+01 0.  1.
          5    1    3    3  503    0  0.11446191907E+02  0.43383587369E+02  0.52370834010E+02  0.69122682363E+02  0.47000000000E+01 0.  1.
         -5    1    3    3    0  503 -0.76629369418E+01 -0.82225755342E+02  0.45907711073E+02  0.94601286355E+02  0.47000000000E+01 0.  1.
<mgrwt>
<rscale>  0 0.13094559E+03</rscale>
<asrwt>0</asrwt>
<pdfrwt beam="1">  1        5 0.57592910E-01 0.13094604E+03</pdfrwt>
<pdfrwt beam="2">  1       -5 0.77442268E-02 0.13094604E+03</pdfrwt>
<totfact> 0.24993685E+02</totfact>
</mgrwt>
</event>
<event>
 8    1  0.3588496E-007  0.1801047E+03  0.7546771E-02  0.1167703E+00
          5   -1    0    0  501    0  0.00000000000E+00  0.00000000000E+00  0.21401783510E+04  0.21401835118E+04  0.47000000000E+01 0.  1.
         -5   -1    0    0    0  501 -0.00000000000E+00 -0.00000000000E+00 -0.16521819102E+02  0.17177325357E+02  0.47000000000E+01 0.  1.
         25    2    1    2    0    0  0.36846256189E+02 -0.12430852246E+03  0.71939131636E+03  0.74159394603E+03  0.12500983714E+03 0.  0.
         25    2    1    2    0    0 -0.36846256189E+02  0.12430852246E+03  0.14042652156E+04  0.14157668911E+04  0.12499935614E+03 0.  0.
          5    1    4    4  502    0 -0.64696419323E+02  0.91335185260E+02  0.12635436176E+04  0.12685000222E+04  0.47000000000E+01 0.  1.
         -5    1    4    4    0  502  0.27850163134E+02  0.32973337196E+02  0.14072159798E+03  0.14726686895E+03  0.47000000000E+01 0.  1.
          5    1    3    3  503    0  0.21238207966E+02  0.14829053063E+02  0.25969314764E+03  0.26102410468E+03  0.47000000000E+01 0. -1.
         -5    1    3    3    0  503  0.15608048224E+02 -0.13913757552E+03  0.45969816872E+03  0.48056984135E+03  0.47000000000E+01 0. -1.
<mgrwt>
<rscale>  0 0.18010291E+03</rscale>
<asrwt>0</asrwt>
<pdfrwt beam="1">  1        5 0.32930898E+00 0.18010473E+03</pdfrwt>
<pdfrwt beam="2">  1       -5 0.25926393E-02 0.18010473E+03</pdfrwt>
<totfact> 0.10553051E+01</totfact>
</mgrwt>
</event>
<event>
 8    1  0.3588496E-007  0.1386180E+03  0.7546771E-02  0.1215204E+00
         -5   -1    0    0    0  501 -0.00000000000E+00  0.00000000000E+00  0.12327045762E+03  0.12336002482E+03  0.47000000000E+01 0.  1.
          5   -1    0    0  501    0  0.00000000000E+00 -0.00000000000E+00 -0.16067138376E+03  0.16074011185E+03  0.47000000000E+01 0.  1.
         25    2    1    2    0    0  0.56576856347E+02 -0.19734657504E+02 -0.43712553087E+02  0.14534699880E+03  0.12499826152E+03 0.  0.
         25    2    1    2    0    0 -0.56576856347E+02  0.19734657504E+02  0.63116269536E+01  0.13875313786E+03  0.12498879650E+03 0.  0.
          5    1    3    3  502    0  0.71178708089E+02  0.26211378581E+02  0.56259517906E+01  0.76204896075E+02  0.47000000000E+01 0. -1.
         -5    1    3    3    0  502 -0.14601851742E+02 -0.45946036085E+02 -0.49338504878E+02  0.69142102729E+02  0.47000000000E+01 0. -1.
          5    1    4    4  503    0  0.29345846787E+02  0.39767327884E+02 -0.39720744399E+01  0.49804482389E+02  0.47000000000E+01 0. -1.
         -5    1    4    4    0  503 -0.85922703135E+02 -0.20032670379E+02  0.10283701393E+02  0.88948655475E+02  0.47000000000E+01 0. -1.
<mgrwt>
<rscale>  0 0.13861591E+03</rscale>
<asrwt>0</asrwt>
<pdfrwt beam="2">  1        5 0.24730851E-01 0.13861805E+03</pdfrwt>
<pdfrwt beam="1">  1       -5 0.18976862E-01 0.13861805E+03</pdfrwt>
<totfact> 0.28890344E+02</totfact>
</mgrwt>
</event>
<event>
 8    1  0.3588496E-007  0.1569590E+03  0.7546771E-02  0.1192174E+00
          5   -1    0    0  501    0  0.00000000000E+00  0.00000000000E+00  0.16759258268E+03  0.16765847360E+03  0.47000000000E+01 0. -1.
         -5   -1    0    0    0  501 -0.00000000000E+00 -0.00000000000E+00 -0.15903073996E+03  0.15910017678E+03  0.47000000000E+01 0. -1.
         25    2    1    2    0    0  0.82013291307E+02 -0.47770684316E+02 -0.40889104186E+02  0.16219395625E+03  0.12500696930E+03 0.  0.
         25    2    1    2    0    0 -0.82013291307E+02  0.47770684316E+02  0.49450946909E+02  0.16456469413E+03  0.12501169614E+03 0.  0.
          5    1    3    3  502    0  0.90649028975E+02  0.13056999638E+02 -0.41298889665E+02  0.10057544423E+03  0.47000000000E+01 0. -1.
         -5    1    3    3    0  502 -0.86357376682E+01 -0.60827683954E+02  0.40978547876E+00  0.61618512027E+02  0.47000000000E+01 0. -1.
          5    1    4    4  503    0 -0.10659521362E+03  0.20710168043E+02  0.78348364207E+01  0.10897213079E+03  0.47000000000E+01 0.  1.
         -5    1    4    4    0  503  0.24581922318E+02  0.27060516273E+02  0.41616110488E+02  0.55592563333E+02  0.47000000000E+01 0.  1.
<mgrwt>
<rscale>  0 0.15695811E+03</rscale>
<asrwt>0</asrwt>
<pdfrwt beam="1">  1        5 0.25793884E-01 0.15695905E+03</pdfrwt>
<pdfrwt beam="2">  1       -5 0.24476677E-01 0.15695905E+03</pdfrwt>
<totfact> 0.17189059E+02</totfact>
</mgrwt>
</event>
<event>
 8    1  0.3588496E-007  0.1252815E+03  0.7546771E-02  0.1234642E+00
          5   -1    0    0  501    0  0.00000000000E+00  0.00000000000E+00  0.57633651218E+02  0.57824975164E+02  0.47000000000E+01 0. -1.
         -5   -1    0    0    0  501 -0.00000000000E+00 -0.00000000000E+00 -0.27861561896E+03  0.27865525857E+03  0.47000000000E+01 0. -1.
         25    2    1    2    0    0  0.78123538883E+01  0.31048386887E+01 -0.13718358974E+03  0.18578159191E+03  0.12499915881E+03 0.  0.
         25    2    1    2    0    0 -0.78123538883E+01 -0.31048386887E+01 -0.83798378008E+02  0.15069864183E+03  0.12496895452E+03 0.  0.
          5    1    4    4  502    0 -0.29243460620E+02  0.89243961762E+00  0.25533408906E+02  0.39115488082E+02  0.47000000000E+01 0.  1.
         -5    1    4    4    0  502  0.21431106731E+02 -0.39972783063E+01 -0.10933178691E+03  0.11158315374E+03  0.47000000000E+01 0.  1.
          5    1    3    3  503    0 -0.27745290326E+02  0.23442650168E+02 -0.13975021605E+03  0.14446996874E+03  0.47000000000E+01 0.  1.
         -5    1    3    3    0  503  0.35557644214E+02 -0.20337811479E+02  0.25666263183E+01  0.41311623165E+02  0.47000000000E+01 0.  1.
<mgrwt>
<rscale>  0 0.12527400E+03</rscale>
<asrwt>0</asrwt>
<pdfrwt beam="1">  1        5 0.88844821E-02 0.12528153E+03</pdfrwt>
<pdfrwt beam="2">  1       -5 0.42881707E-01 0.12528153E+03</pdfrwt>
<totfact> 0.36253510E+02</totfact>
</mgrwt>
</event>
<event>
 8    1  0.3588496E-007  0.1397480E+03  0.7546771E-02  0.1213670E+00
         -5   -1    0    0    0  501 -0.00000000000E+00  0.00000000000E+00  0.26322712777E+03  0.26326908439E+03  0.47000000000E+01 0. -1.
          5   -1    0    0  501    0  0.00000000000E+00 -0.00000000000E+00 -0.84886873769E+02  0.85016888548E+02  0.47000000000E+01 0. -1.
         25    2    1    2    0    0  0.23603636890E+02  0.57844301733E+02  0.15127343338E+03  0.20594087660E+03  0.12499959236E+03 0.  0.
         25    2    1    2    0    0 -0.23603636890E+02 -0.57844301733E+02  0.27066820625E+02  0.14234509634E+03  0.12500567490E+03 0.  0.
          5    1    4    4  502    0  0.19541262301E+02 -0.22199791913E+02 -0.43092484964E+02  0.52476127465E+02  0.47000000000E+01 0.  1.
         -5    1    4    4    0  502 -0.43144899190E+02 -0.35644509820E+02  0.70159305589E+02  0.89868968878E+02  0.47000000000E+01 0.  1.
          5    1    3    3  503    0  0.48492002805E+02  0.89413263515E+00  0.75821185132E+01  0.49313814802E+02  0.47000000000E+01 0. -1.
         -5    1    3    3    0  503 -0.24888365915E+02  0.56950169097E+02  0.14369131487E+03  0.15662706179E+03  0.47000000000E+01 0. -1.
<mgrwt>
<rscale>  0 0.13974668E+03</rscale>
<asrwt>0</asrwt>
<pdfrwt beam="2">  1        5 0.13072748E-01 0.13974804E+03</pdfrwt>
<pdfrwt beam="1">  1       -5 0.40509710E-01 0.13974804E+03</pdfrwt>
<totfact> 0.21502757E+02</totfact>
</mgrwt>
</event>
<event>
 8    1  0.3588496E-007  0.1362357E+03  0.7546771E-02  0.1218486E+00
          5   -1    0    0  501    0  0.00000000000E+00  0.00000000000E+00  0.32444343273E+03  0.32447747386E+03  0.47000000000E+01 0.  1.
         -5   -1    0    0    0  501 -0.00000000000E+00 -0.00000000000E+00 -0.57426743132E+02  0.57618754124E+02  0.47000000000E+01 0.  1.
         25    2    1    2    0    0 -0.51666555044E+02  0.16266809863E+02  0.14850290303E+03  0.20152736571E+03  0.12500449956E+03 0.  0.
         25    2    1    2    0    0  0.51666555044E+02 -0.16266809863E+02  0.11851378657E+03  0.18056886227E+03  0.12500221759E+03 0.  0.
          5    1    3    3  502    0 -0.64658059040E+01 -0.24756174728E+01 -0.22285726811E+02  0.23805019373E+02  0.47000000000E+01 0. -1.
         -5    1    3    3    0  502 -0.45200749140E+02  0.18742427336E+02  0.17078862984E+03  0.17772234634E+03  0.47000000000E+01 0. -1.
          5    1    4    4  503    0 -0.24033251174E+02 -0.21933654582E+02 -0.71849359424E+01  0.33651087201E+02  0.47000000000E+01 0.  1.
         -5    1    4    4    0  503  0.75699806218E+02  0.56668447186E+01  0.12569872251E+03  0.14691777507E+03  0.47000000000E+01 0.  1.
<mgrwt>
<rscale>  0 0.13623518E+03</rscale>
<asrwt>0</asrwt>
<pdfrwt beam="1">  1        5 0.49931763E-01 0.13623570E+03</pdfrwt>
<pdfrwt beam="2">  1       -5 0.88522722E-02 0.13623570E+03</pdfrwt>
<totfact> 0.27346538E+02</totfact>
</mgrwt>
</event>
<event>
 8    1  0.3588496E-007  0.1535409E+03  0.7546771E-02  0.1196191E+00
          5   -1    0    0  501    0  0.00000000000E+00  0.00000000000E+00  0.65963861252E+02  0.66131089446E+02  0.47000000000E+01 0. -1.
         -5   -1    0    0    0  501 -0.00000000000E+00 -0.00000000000E+00 -0.42219662463E+03  0.42222278462E+03  0.47000000000E+01 0. -1.
         25    2    1    2    0    0  0.61368127848E+02 -0.64660105320E+02 -0.27423915930E+03  0.31429137997E+03  0.12499991477E+03 0.  0.
         25    2    1    2    0    0 -0.61368127848E+02  0.64660105320E+02 -0.81993604083E+02  0.17406249410E+03  0.12501129711E+03 0.  0.
          5    1    4    4  502    0 -0.58186631497E+02  0.97081894453E+02 -0.84090274375E+02  0.14108097873E+03  0.47000000000E+01 0. -1.
         -5    1    4    4    0  502 -0.31814963510E+01 -0.32421789133E+02  0.20966702921E+01  0.32981515367E+02  0.47000000000E+01 0. -1.
          5    1    3    3  503    0  0.70959887439E+02 -0.93149920997E+02 -0.17599825049E+03  0.21144665422E+03  0.47000000000E+01 0.  1.
         -5    1    3    3    0  503 -0.95917595906E+01  0.28489815677E+02 -0.98240908813E+02  0.10284472575E+03  0.47000000000E+01 0.  1.
<mgrwt>
<rscale>  0 0.15353856E+03</rscale>
<asrwt>0</asrwt>
<pdfrwt beam="1">  1        5 0.10163163E-01 0.15354088E+03</pdfrwt>
<pdfrwt beam="2">  1       -5 0.64968201E-01 0.15354088E+03</pdfrwt>
<totfact> 0.12633763E+02</totfact>
</mgrwt>
</event>
<event>
 8    1  0.3588496E-007  0.2107033E+03  0.7546771E-02  0.1141011E+00
          5   -1    0    0  501    0  0.00000000000E+00  0.00000000000E+00  0.11827429734E+03  0.11836764512E+03  0.47000000000E+01 0. -1.
         -5   -1    0    0    0  501 -0.00000000000E+00 -0.00000000000E+00 -0.46207454362E+03  0.46209844607E+03  0.47000000000E+01 0. -1.
         25    2    1    2    0    0  0.29972765145E+02 -0.16694929862E+03 -0.45999390730E+02  0.21566597656E+03  0.12500173815E+03 0.  0.
         25    2    1    2    0    0 -0.29972765145E+02  0.16694929862E+03 -0.29780085556E+03  0.36480011463E+03  0.12499335624E+03 0.  0.
          5    1    4    4  502    0  0.37716130583E+02  0.51299494209E+02 -0.43316826001E+02  0.77152978083E+02  0.47000000000E+01 0. -1.
         -5    1    4    4    0  502 -0.67688895728E+02  0.11564980441E+03 -0.25448402955E+03  0.28764713655E+03  0.47000000000E+01 0. -1.
          5    1    3    3  503    0  0.65063575113E+02 -0.45264862025E+02 -0.39719826090E+02  0.88780240624E+02  0.47000000000E+01 0.  1.
         -5    1    3    3    0  503 -0.35090809968E+02 -0.12168443659E+03 -0.62795646398E+01  0.12688573594E+03  0.47000000000E+01 0.  1.
<mgrwt>
<rscale>  0 0.21070203E+03</rscale>
<asrwt>0</asrwt>
<pdfrwt beam="1">  1        5 0.18205065E-01 0.21070327E+03</pdfrwt>
<pdfrwt beam="2">  1       -5 0.71097410E-01 0.21070327E+03</pdfrwt>
<totfact> 0.39409401E+01</totfact>
</mgrwt>
</event>
<event>
 8    1  0.3588496E-007  0.1673019E+03  0.7546771E-02  0.1180692E+00
          5   -1    0    0  501    0  0.00000000000E+00  0.00000000000E+00  0.27366532838E+03  0.27370568492E+03  0.47000000000E+01 0. -1.
         -5   -1    0    0    0  501 -0.00000000000E+00 -0.00000000000E+00 -0.12479899343E+03  0.12488746439E+03  0.47000000000E+01 0. -1.
         25    2    1    2    0    0 -0.11106600312E+03 -0.51730334476E+01 -0.10379577109E+02  0.16761875519E+03  0.12500357653E+03 0.  0.
         25    2    1    2    0    0  0.11106600312E+03  0.51730334476E+01  0.15924591206E+03  0.23097439413E+03  0.12500997125E+03 0.  0.
          5    1    4    4  502    0 -0.26013056599E+02 -0.60731019083E+01  0.12730416714E+02  0.29961895636E+02  0.47000000000E+01 0.  1.
         -5    1    4    4    0  502  0.13707905972E+03  0.11246135356E+02  0.14651549534E+03  0.20101249849E+03  0.47000000000E+01 0.  1.
          5    1    3    3  503    0 -0.69095166202E+02 -0.55378317761E+02  0.26252582606E+02  0.92478041523E+02  0.47000000000E+01 0.  1.
         -5    1    3    3    0  503 -0.41970836919E+02  0.50205284313E+02 -0.36632159715E+02  0.75140713664E+02  0.47000000000E+01 0.  1.
<mgrwt>
<rscale>  0 0.16730066E+03</rscale>
<asrwt>0</asrwt>
<pdfrwt beam="1">  1        5 0.42112268E-01 0.16730185E+03</pdfrwt>
<pdfrwt beam="2">  1       -5 0.19209755E-01 0.16730185E+03</pdfrwt>
<totfact> 0.10417949E+02</totfact>
</mgrwt>
</event>
<event>
 8    1  0.3588496E-007  0.1359667E+03  0.7546771E-02  0.1218864E+00
          5   -1    0    0  501    0  0.00000000000E+00  0.00000000000E+00  0.15420491396E+03  0.15427652280E+03  0.47000000000E+01 0. -1.
         -5   -1    0    0    0  501 -0.00000000000E+00 -0.00000000000E+00 -0.14983982170E+03  0.14991351563E+03  0.47000000000E+01 0. -1.
         25    2    1    2    0    0 -0.29294144195E+02  0.44746285922E+02 -0.65959253381E+02  0.15111338810E+03  0.12499702384E+03 0.  0.
         25    2    1    2    0    0  0.29294144195E+02 -0.44746285922E+02  0.70324345636E+02  0.15307665033E+03  0.12500628104E+03 0.  0.
          5    1    4    4  502    0  0.68614244189E+02 -0.31339374450E+02  0.52907232238E+01  0.75763795106E+02  0.47000000000E+01 0.  1.
         -5    1    4    4    0  502 -0.39320099994E+02 -0.13406911471E+02  0.65033622412E+02  0.77312855224E+02  0.47000000000E+01 0.  1.
          5    1    3    3  503    0  0.19712753334E+01  0.57273796189E+02 -0.91855248939E+02  0.10836812453E+03  0.47000000000E+01 0.  1.
         -5    1    3    3    0  503 -0.31265419528E+02 -0.12527510267E+02  0.25895995558E+02  0.42745263570E+02  0.47000000000E+01 0.  1.
<mgrwt>
<rscale>  0 0.13596459E+03</rscale>
<asrwt>0</asrwt>
<pdfrwt beam="1">  1        5 0.23735010E-01 0.13596671E+03</pdfrwt>
<pdfrwt beam="2">  1       -5 0.23063457E-01 0.13596671E+03</pdfrwt>
<totfact> 0.21531534E+02</totfact>
</mgrwt>
</event>
<event>
 8    1  0.3588496E-007  0.1300317E+03  0.7546771E-02  0.1227410E+00
         -5   -1    0    0    0  501 -0.00000000000E+00  0.00000000000E+00  0.21410003780E+03  0.21415161962E+03  0.47000000000E+01 0.  1.
          5   -1    0    0  501    0  0.00000000000E+00 -0.00000000000E+00 -0.11178004099E+03  0.11187880748E+03  0.47000000000E+01 0.  1.
         25    2    1    2    0    0  0.35273854540E+02 -0.61877656507E+01  0.13958452857E+03  0.19076442031E+03  0.12499876073E+03 0.  0.
         25    2    1    2    0    0 -0.35273854540E+02  0.61877656507E+01 -0.37264531755E+02  0.13526600679E+03  0.12500285600E+03 0.  0.
          5    1    4    4  502    0  0.40872300129E+02  0.14537673473E+02 -0.38965759507E+02  0.58500506679E+02  0.47000000000E+01 0. -1.
         -5    1    4    4    0  502 -0.76146154669E+02 -0.83499078222E+01  0.17012277521E+01  0.76765500111E+02  0.47000000000E+01 0. -1.
          5    1    3    3  503    0  0.30347337679E+01 -0.60032678156E+02  0.98885242310E+02  0.11581672246E+03  0.47000000000E+01 0. -1.
         -5    1    3    3    0  503  0.32239120772E+02  0.53844912506E+02  0.40699286258E+02  0.74947697849E+02  0.47000000000E+01 0. -1.
<mgrwt>
<rscale>  0 0.13003073E+03</rscale>
<asrwt>0</asrwt>
<pdfrwt beam="2">  1        5 0.17208495E-01 0.13003172E+03</pdfrwt>
<pdfrwt beam="1">  1       -5 0.32950032E-01 0.13003172E+03</pdfrwt>
<totfact> 0.19349484E+02</totfact>
</mgrwt>
</event>
<event>
 8    1  0.3588496E-007  0.1673957E+03  0.7546771E-02  0.1180594E+00
          5   -1    0    0  501    0  0.00000000000E+00  0.00000000000E+00  0.10269097624E+03  0.10279847568E+03  0.47000000000E+01 0.  1.
         -5   -1    0    0    0  501 -0.00000000000E+00 -0.00000000000E+00 -0.28523732755E+03  0.28527604706E+03  0.47000000000E+01 0.  1.
         25    2    1    2    0    0 -0.51485516104E+02 -0.98704320087E+02 -0.13212810795E+03  0.21325086350E+03  0.12499917081E+03 0.  0.
         25    2    1    2    0    0  0.51485516104E+02  0.98704320087E+02 -0.50418243357E+02  0.17482365924E+03  0.12501204499E+03 0.  0.
          5    1    3    3  502    0 -0.69517929352E+02 -0.11733752545E+03 -0.12697009165E+03  0.18639831424E+03  0.47000000000E+01 0.  1.
         -5    1    3    3    0  502  0.18032413248E+02  0.18633205361E+02 -0.51580163029E+01  0.26852549260E+02  0.47000000000E+01 0.  1.
          5    1    4    4  503    0  0.41974880085E+02  0.12874647998E+03 -0.39355821282E+02  0.14109754546E+03  0.47000000000E+01 0. -1.
         -5    1    4    4    0  503  0.95106360189E+01 -0.30042159892E+02 -0.11062422075E+02  0.33726113779E+02  0.47000000000E+01 0. -1.
<mgrwt>
<rscale>  0 0.16739327E+03</rscale>
<asrwt>0</asrwt>
<pdfrwt beam="1">  1        5 0.15809859E-01 0.16739568E+03</pdfrwt>
<pdfrwt beam="2">  1       -5 0.43893913E-01 0.16739568E+03</pdfrwt>
<totfact> 0.13694542E+02</totfact>
</mgrwt>
</event>
<event>
 8    1  0.3588496E-007  0.1333186E+03  0.7546771E-02  0.1222614E+00
         -5   -1    0    0    0  501 -0.00000000000E+00  0.00000000000E+00  0.32907954268E+02  0.33241893058E+02  0.47000000000E+01 0. -1.
          5   -1    0    0  501    0  0.00000000000E+00 -0.00000000000E+00 -0.58168512443E+03  0.58170411206E+03  0.47000000000E+01 0. -1.
         25    2    1    2    0    0  0.45606254760E+02  0.83433119994E+01 -0.18922350026E+03  0.23147218518E+03  0.12499719250E+03 0.  0.
         25    2    1    2    0    0 -0.45606254760E+02 -0.83433119994E+01 -0.35955366991E+03  0.38347381994E+03  0.12499515073E+03 0.  0.
          5    1    3    3  502    0  0.43951453227E+02 -0.16140766156E+02 -0.19911469963E+03  0.20459962899E+03  0.47000000000E+01 0. -1.
         -5    1    3    3    0  502  0.16548015326E+01  0.24484078155E+02  0.98911993731E+01  0.26872556191E+02  0.47000000000E+01 0. -1.
          5    1    4    4  503    0 -0.22404931575E+02  0.51063969743E+02 -0.25373199935E+03  0.25982980480E+03  0.47000000000E+01 0.  1.
         -5    1    4    4    0  503 -0.23201323185E+02 -0.59407281742E+02 -0.10582167055E+03  0.12364401514E+03  0.47000000000E+01 0.  1.
<mgrwt>
<rscale>  0 0.13331809E+03</rscale>
<asrwt>0</asrwt>
<pdfrwt beam="2">  1        5 0.89517160E-01 0.13331856E+03</pdfrwt>
<pdfrwt beam="1">  1       -5 0.50899108E-02 0.13331856E+03</pdfrwt>
<totfact> 0.18790896E+02</totfact>
</mgrwt>
</event>
<event>
 8    1  0.3588496E-007  0.2183136E+03  0.7546771E-02  0.1135148E+00
         -5   -1    0    0    0  501 -0.00000000000E+00  0.00000000000E+00  0.11759897204E+03  0.11769285545E+03  0.47000000000E+01 0.  1.
          5   -1    0    0  501    0  0.00000000000E+00 -0.00000000000E+00 -0.40557637776E+03  0.40560360970E+03  0.47000000000E+01 0.  1.
         25    2    1    2    0    0  0.76097513100E+02 -0.16199713575E+03 -0.15381839151E+03  0.26705542712E+03  0.12499840037E+03 0.  0.
         25    2    1    2    0    0 -0.76097513100E+02  0.16199713575E+03 -0.13415901421E+03  0.25624103803E+03  0.12500769970E+03 0.  0.
          5    1    3    3  502    0 -0.11608284411E+02 -0.56706774874E+02 -0.10775916587E+03  0.12241134920E+03  0.47000000000E+01 0. -1.
         -5    1    3    3    0  502  0.87705797511E+02 -0.10529036088E+03 -0.46059225637E+02  0.14464407792E+03  0.47000000000E+01 0. -1.
          5    1    4    4  503    0 -0.87736521020E+02  0.17459599463E+03 -0.13635771595E+03  0.23832115969E+03  0.47000000000E+01 0. -1.
         -5    1    4    4    0  503  0.11639007919E+02 -0.12598858875E+02  0.21987017308E+01  0.17919878336E+02  0.47000000000E+01 0. -1.
<mgrwt>
<rscale>  0 0.21831227E+03</rscale>
<asrwt>0</asrwt>
<pdfrwt beam="2">  1        5 0.62405682E-01 0.21831360E+03</pdfrwt>
<pdfrwt beam="1">  1       -5 0.18101466E-01 0.21831360E+03</pdfrwt>
<totfact> 0.53899780E+01</totfact>
</mgrwt>
</event>
<event>
 8    1  0.3588496E-007  0.2159387E+03  0.7546771E-02  0.1136948E+00
          5   -1    0    0  501    0  0.00000000000E+00  0.00000000000E+00  0.30219699834E+03  0.30223354514E+03  0.47000000000E+01 0.  1.
         -5   -1    0    0    0  501 -0.00000000000E+00 -0.00000000000E+00 -0.20809012155E+03  0.20814319275E+03  0.47000000000E+01 0.  1.
         25    2    1    2    0    0 -0.31844683958E+02  0.17317689940E+03 -0.82759963108E+02  0.23125056588E+03  0.12499316120E+03 0.  0.
         25    2    1    2    0    0  0.31844683958E+02 -0.17317689940E+03  0.17686683989E+03  0.27912617200E+03  0.12500087384E+03 0.  0.
          5    1    3    3  502    0  0.29708624316E+02 -0.12048198827E+01 -0.18939733140E+02  0.35564834333E+02  0.47000000000E+01 0.  1.
         -5    1    3    3    0  502 -0.61553308274E+02  0.17438171928E+03 -0.63820229968E+02  0.19568573155E+03  0.47000000000E+01 0.  1.
          5    1    4    4  503    0  0.14463989565E+02 -0.18570285437E+03  0.17728282063E+03  0.25718873538E+03  0.47000000000E+01 0. -1.
         -5    1    4    4    0  503  0.17380694393E+02  0.12525954972E+02 -0.41598073780E+00  0.21937436621E+02  0.47000000000E+01 0. -1.
<mgrwt>
<rscale>  0 0.21593763E+03</rscale>
<asrwt>0</asrwt>
<pdfrwt beam="1">  1        5 0.46498739E-01 0.21593874E+03</pdfrwt>
<pdfrwt beam="2">  1       -5 0.32020759E-01 0.21593874E+03</pdfrwt>
<totfact> 0.33916297E+01</totfact>
</mgrwt>
</event>
<event>
 8    1  0.3588496E-007  0.1256770E+03  0.7546771E-02  0.1234016E+00
         -5   -1    0    0    0  501 -0.00000000000E+00  0.00000000000E+00  0.80038074124E+02  0.80175952189E+02  0.47000000000E+01 0. -1.
          5   -1    0    0  501    0  0.00000000000E+00 -0.00000000000E+00 -0.21720518931E+03  0.21725603389E+03  0.47000000000E+01 0. -1.
         25    2    1    2    0    0 -0.30245786486E+01  0.12599548921E+02 -0.23246365084E+02  0.12780887871E+03  0.12500727690E+03 0.  0.
         25    2    1    2    0    0  0.30245786486E+01 -0.12599548921E+02 -0.11392075010E+03  0.16962310737E+03  0.12500465808E+03 0.  0.
          5    1    3    3  502    0  0.52493289213E+02  0.25512093524E+02 -0.36634734289E+02  0.69069574233E+02  0.47000000000E+01 0. -1.
         -5    1    3    3    0  502 -0.55517867862E+02 -0.12912544602E+02  0.13388369205E+02  0.58739304473E+02  0.47000000000E+01 0. -1.
          5    1    4    4  503    0  0.84637373682E+01  0.34856032026E+02  0.93276412869E+01  0.37358703280E+02  0.47000000000E+01 0.  1.
         -5    1    4    4    0  503 -0.54391587197E+01 -0.47455580947E+02 -0.12324839138E+03  0.13226440409E+03  0.47000000000E+01 0.  1.
<mgrwt>
<rscale>  0 0.12567638E+03</rscale>
<asrwt>0</asrwt>
<pdfrwt beam="2">  1        5 0.33430700E-01 0.12567703E+03</pdfrwt>
<pdfrwt beam="1">  1       -5 0.12328067E-01 0.12567703E+03</pdfrwt>
<totfact> 0.33882425E+02</totfact>
</mgrwt>
</event>
<event>
 8    1  0.3588496E-007  0.1438277E+03  0.7546771E-02  0.1208269E+00
          5   -1    0    0  501    0  0.00000000000E+00  0.00000000000E+00  0.24982111023E+02  0.25420382986E+02  0.47000000000E+01 0.  1.
         -5   -1    0    0    0  501 -0.00000000000E+00 -0.00000000000E+00 -0.82890030421E+03  0.82891362898E+03  0.47000000000E+01 0.  1.
         25    2    1    2    0    0  0.22801414251E+02  0.67386460134E+02 -0.44520122586E+03  0.46785726874E+03  0.12500181161E+03 0.  0.
         25    2    1    2    0    0 -0.22801414251E+02 -0.67386460134E+02 -0.35871696732E+03  0.38647674323E+03  0.12500228361E+03 0.  0.
          5    1    4    4  502    0 -0.11954981454E+02 -0.45952923639E+02 -0.35884089089E+03  0.36199926484E+03  0.47000000000E+01 0.  1.
         -5    1    4    4    0  502 -0.10846432797E+02 -0.21433536495E+02  0.12392356345E+00  0.24477478386E+02  0.47000000000E+01 0.  1.
          5    1    3    3  503    0 -0.39794719654E+01  0.51052014301E+01  0.69687170193E+01  0.10609066672E+02  0.47000000000E+01 0. -1.
         -5    1    3    3    0  503  0.26780886217E+02  0.62281258704E+02 -0.45216994288E+03  0.45724820207E+03  0.47000000000E+01 0. -1.
<mgrwt>
<rscale>  0 0.14382761E+03</rscale>
<asrwt>0</asrwt>
<pdfrwt beam="1">  1        5 0.38781405E-02 0.14382771E+03</pdfrwt>
<pdfrwt beam="2">  1       -5 0.12755784E+00 0.14382771E+03</pdfrwt>
<totfact> 0.12554233E+02</totfact>
</mgrwt>
</event>
<event>
 8    1  0.3588496E-007  0.1343167E+03  0.7546771E-02  0.1221191E+00
         -5   -1    0    0    0  501 -0.00000000000E+00  0.00000000000E+00  0.11370611276E+03  0.11380320768E+03  0.47000000000E+01 0.  1.
          5   -1    0    0  501    0  0.00000000000E+00 -0.00000000000E+00 -0.16555132002E+03  0.16561802306E+03  0.47000000000E+01 0.  1.
         25    2    1    2    0    0 -0.45067540479E+02  0.19585205060E+02  0.29925487948E+01  0.13435004498E+03  0.12500526299E+03 0.  0.
         25    2    1    2    0    0  0.45067540479E+02 -0.19585205060E+02 -0.54837756063E+02  0.14507118576E+03  0.12499522385E+03 0.  0.
          5    1    3    3  502    0  0.28826660426E+02 -0.30847485413E+02  0.12442412235E+02  0.44265645029E+02  0.47000000000E+01 0. -1.
         -5    1    3    3    0  502 -0.73894200905E+02  0.50432690472E+02 -0.94498634407E+01  0.90084399952E+02  0.47000000000E+01 0. -1.
          5    1    4    4  503    0  0.67393677773E+02  0.11645803200E+02  0.10292804342E+02  0.69322177960E+02  0.47000000000E+01 0.  1.
         -5    1    4    4    0  503 -0.22326137294E+02 -0.31231008260E+02 -0.65130560404E+02  0.75749007796E+02  0.47000000000E+01 0.  1.
<mgrwt>
<rscale>  0 0.13431438E+03</rscale>
<asrwt>0</asrwt>
<pdfrwt beam="2">  1        5 0.25482034E-01 0.13431671E+03</pdfrwt>
<pdfrwt beam="1">  1       -5 0.17505848E-01 0.13431671E+03</pdfrwt>
<totfact> 0.31322378E+02</totfact>
</mgrwt>
</event>
<event>
 8    1  0.3588496E-007  0.1382847E+03  0.7546771E-02  0.1215656E+00
          5   -1    0    0  501    0  0.00000000000E+00  0.00000000000E+00  0.51697121544E+02  0.51910330147E+02  0.47000000000E+01 0.  1.
         -5   -1    0    0    0  501 -0.00000000000E+00 -0.00000000000E+00 -0.38862431071E+03  0.38865273043E+03  0.47000000000E+01 0.  1.
         25    2    1    2    0    0 -0.56230399533E+02 -0.18324400149E+02 -0.21806868641E+03  0.25821811979E+03  0.12500001569E+03 0.  0.
         25    2    1    2    0    0  0.56230399533E+02  0.18324400149E+02 -0.11885850275E+03  0.18234494079E+03  0.12499876912E+03 0.  0.
          5    1    4    4  502    0  0.60695428120E+02 -0.26953209533E+01  0.53794863292E+00  0.60939142909E+02  0.47000000000E+01 0.  1.
         -5    1    4    4    0  502 -0.44650285872E+01  0.21019721102E+02 -0.11939645138E+03  0.12140579788E+03  0.47000000000E+01 0.  1.
          5    1    3    3  503    0  0.29025978587E+02 -0.26014342064E+02 -0.23893528290E+02  0.45959157086E+02  0.47000000000E+01 0. -1.
         -5    1    3    3    0  503 -0.85256378120E+02  0.76899419156E+01 -0.19417515812E+03  0.21225896271E+03  0.47000000000E+01 0. -1.
<mgrwt>
<rscale>  0 0.13828437E+03</rscale>
<asrwt>0</asrwt>
<pdfrwt beam="1">  1        5 0.79719903E-02 0.13828465E+03</pdfrwt>
<pdfrwt beam="2">  1       -5 0.59806941E-01 0.13828465E+03</pdfrwt>
<totfact> 0.22319803E+02</totfact>
</mgrwt>
</event>
<event>
 8    1  0.3588496E-007  0.1601285E+03  0.7546771E-02  0.1188552E+00
          5   -1    0    0  501    0  0.00000000000E+00  0.00000000000E+00  0.13229501600E+03  0.13237847732E+03  0.47000000000E+01 0. -1.
         -5   -1    0    0    0  501 -0.00000000000E+00 -0.00000000000E+00 -0.19654243636E+03  0.19659862484E+03  0.47000000000E+01 0. -1.
         25    2    1    2    0    0 -0.54051386349E+02 -0.84225751906E+02 -0.12157589510E+02  0.16058937419E+03  0.12500244186E+03 0.  0.
         25    2    1    2    0    0  0.54051386349E+02  0.84225751906E+02 -0.52089830849E+02  0.16838772797E+03  0.12500218719E+03 0.  0.
          5    1    3    3  502    0 -0.25772642422E+02 -0.33195805165E+02  0.56369456863E+02  0.70468406006E+02  0.47000000000E+01 0. -1.
         -5    1    3    3    0  502 -0.28278743927E+02 -0.51029946741E+02 -0.68527046373E+02  0.90120968188E+02  0.47000000000E+01 0. -1.
          5    1    4    4  503    0 -0.37210674082E+02  0.48906876278E+02 -0.26786312781E+02  0.67202033937E+02  0.47000000000E+01 0. -1.
         -5    1    4    4    0  503  0.91262060430E+02  0.35318875627E+02 -0.25303518067E+02  0.10118569403E+03  0.47000000000E+01 0. -1.
<mgrwt>
<rscale>  0 0.16012846E+03</rscale>
<asrwt>0</asrwt>
<pdfrwt beam="1">  1        5 0.20363822E-01 0.16012851E+03</pdfrwt>
<pdfrwt beam="2">  1       -5 0.30248040E-01 0.16012851E+03</pdfrwt>
<totfact> 0.17974032E+02</totfact>
</mgrwt>
</event>
<event>
 8    1  0.3588496E-007  0.1475884E+03  0.7546771E-02  0.1203469E+00
         -5   -1    0    0    0  501 -0.00000000000E+00  0.00000000000E+00  0.27794423565E+03  0.27798397099E+03  0.47000000000E+01 0. -1.
          5   -1    0    0  501    0  0.00000000000E+00 -0.00000000000E+00 -0.82133198118E+02  0.82267564891E+02  0.47000000000E+01 0. -1.
         25    2    1    2    0    0 -0.24060771734E+02  0.74685609299E+02  0.13702384111E+03  0.20138985108E+03  0.12500191243E+03 0.  0.
         25    2    1    2    0    0  0.24060771734E+02 -0.74685609299E+02  0.58787196420E+02  0.15886168481E+03  0.12499695782E+03 0.  0.
          5    1    4    4  502    0  0.14251677876E+02  0.81397348071E+01  0.72256806308E+02  0.74246223223E+02  0.47000000000E+01 0.  1.
         -5    1    4    4    0  502  0.98090938584E+01 -0.82825344106E+02 -0.13469609889E+02  0.84615461585E+02  0.47000000000E+01 0.  1.
          5    1    3    3  503    0 -0.43072334234E+02  0.54493878577E+02  0.88666805246E+01  0.70182026205E+02  0.47000000000E+01 0. -1.
         -5    1    3    3    0  503  0.19011562500E+02  0.20191730722E+02  0.12815716058E+03  0.13120782487E+03  0.47000000000E+01 0. -1.
<mgrwt>
<rscale>  0 0.14758736E+03</rscale>
<asrwt>0</asrwt>
<pdfrwt beam="2">  1        5 0.12649269E-01 0.14758841E+03</pdfrwt>
<pdfrwt beam="1">  1       -5 0.42774045E-01 0.14758841E+03</pdfrwt>
<totfact> 0.20761809E+02</totfact>
</mgrwt>
</event>
<event>
 8    1  0.3588496E-007  0.1496353E+03  0.7546771E-02  0.1200922E+00
          5   -1    0    0  501    0  0.00000000000E+00  0.00000000000E+00  0.25529938643E+03  0.25534264569E+03  0.47000000000E+01 0. -1.
         -5   -1    0    0    0  501 -0.00000000000E+00 -0.00000000000E+00 -0.12034172814E+03  0.12043347347E+03  0.47000000000E+01 0. -1.
         25    2    1    2    0    0 -0.81953178764E+02  0.70407013816E+01 -0.30479829882E+02  0.15270596840E+03  0.12499679104E+03 0.  0.
         25    2    1    2    0    0  0.81953178764E+02 -0.70407013816E+01  0.16543748817E+03  0.22307015076E+03  0.12499933873E+03 0.  0.
          5    1    4    4  502    0  0.21442468931E+02  0.52919018602E+02  0.10113728289E+03  0.11623700785E+03  0.47000000000E+01 0. -1.
         -5    1    4    4    0  502  0.60510709833E+02 -0.59959719984E+02  0.64300205279E+02  0.10683314291E+03  0.47000000000E+01 0. -1.
          5    1    3    3  503    0 -0.24626394052E+01  0.53023336946E+02 -0.29158485421E+02  0.60744103630E+02  0.47000000000E+01 0.  1.
         -5    1    3    3    0  503 -0.79490539359E+02 -0.45982635564E+02 -0.13213444616E+01  0.91961864772E+02  0.47000000000E+01 0.  1.
<mgrwt>
<rscale>  0 0.14963479E+03</rscale>
<asrwt>0</asrwt>
<pdfrwt beam="1">  1        5 0.39287213E-01 0.14963532E+03</pdfrwt>
<pdfrwt beam="2">  1       -5 0.18524497E-01 0.14963532E+03</pdfrwt>
<totfact> 0.12419463E+02</totfact>
</mgrwt>
</event>
<event>
 8    1  0.3588496E-007  0.1325169E+03  0.7546771E-02  0.1223771E+00
          5   -1    0    0  501    0  0.00000000000E+00  0.00000000000E+00  0.73870941788E+02  0.74020308298E+02  0.47000000000E+01 0.  1.
         -5   -1    0    0    0  501 -0.00000000000E+00 -0.00000000000E+00 -0.24068310772E+03  0.24072899356E+03  0.47000000000E+01 0.  1.
         25    2    1    2    0    0  0.41572397620E+02 -0.14430221781E+02 -0.10207693669E+03  0.16727349517E+03  0.12499690252E+03 0.  0.
         25    2    1    2    0    0 -0.41572397620E+02  0.14430221781E+02 -0.64735229242E+02  0.14747580669E+03  0.12498787185E+03 0.  0.
          5    1    3    3  502    0  0.43693242006E+02  0.28034111890E+02  0.46111295039E+01  0.52329373603E+02  0.47000000000E+01 0.  1.
         -5    1    3    3    0  502 -0.21208443858E+01 -0.42464333671E+02 -0.10668806619E+03  0.11494412157E+03  0.47000000000E+01 0.  1.
          5    1    4    4  503    0 -0.65681602454E+02 -0.14083931460E+02  0.57380270719E+01  0.67582874909E+02  0.47000000000E+01 0. -1.
         -5    1    4    4    0  503  0.24109204834E+02  0.28514153241E+02 -0.70473256313E+02  0.79892931779E+02  0.47000000000E+01 0. -1.
<mgrwt>
<rscale>  0 0.13251474E+03</rscale>
<asrwt>0</asrwt>
<pdfrwt beam="1">  1        5 0.11379780E-01 0.13251687E+03</pdfrwt>
<pdfrwt beam="2">  1       -5 0.37043190E-01 0.13251687E+03</pdfrwt>
<totfact> 0.32401994E+02</totfact>
</mgrwt>
</event>
<event>
 8    1  0.3588496E-007  0.1261098E+03  0.7546771E-02  0.1233376E+00
         -5   -1    0    0    0  501 -0.00000000000E+00  0.00000000000E+00  0.33040407613E+02  0.33373021068E+02  0.47000000000E+01 0.  1.
          5   -1    0    0  501    0  0.00000000000E+00 -0.00000000000E+00 -0.48063755014E+03  0.48066052949E+03  0.47000000000E+01 0.  1.
         25    2    1    2    0    0 -0.12588185789E+02  0.10890021290E+02 -0.20589341294E+03  0.24144518113E+03  0.12500649189E+03 0.  0.
         25    2    1    2    0    0  0.12588185789E+02 -0.10890021290E+02 -0.24170372959E+03  0.27258836943E+03  0.12492666353E+03 0.  0.
          5    1    3    3  502    0  0.23354016902E+01  0.24524772859E+02 -0.21663131087E+03  0.21807827364E+03  0.47000000000E+01 0.  1.
         -5    1    3    3    0  502 -0.14923587479E+02 -0.13634751568E+02  0.10737897934E+02  0.23366907489E+02  0.47000000000E+01 0.  1.
          5    1    4    4  503    0  0.67853757375E+02 -0.16577678090E+02 -0.12567377054E+03  0.14385735435E+03  0.47000000000E+01 0.  1.
         -5    1    4    4    0  503 -0.55265571586E+02  0.56876567991E+01 -0.11602995906E+03  0.12873101507E+03  0.47000000000E+01 0.  1.
<mgrwt>
<rscale>  0 0.12609000E+03</rscale>
<asrwt>0</asrwt>
<pdfrwt beam="2">  1        5 0.73971586E-01 0.12610979E+03</pdfrwt>
<pdfrwt beam="1">  1       -5 0.51104933E-02 0.12610979E+03</pdfrwt>
<totfact> 0.28484147E+02</totfact>
</mgrwt>
</event>
<event>
 8    1  0.3588496E-007  0.1295401E+03  0.7546771E-02  0.1228142E+00
         -5   -1    0    0    0  501 -0.00000000000E+00  0.00000000000E+00  0.39844919924E+02  0.40121162044E+02  0.47000000000E+01 0.  1.
          5   -1    0    0  501    0  0.00000000000E+00 -0.00000000000E+00 -0.42175283659E+03  0.42177902411E+03  0.47000000000E+01 0.  1.
         25    2    1    2    0    0  0.33424770629E+02 -0.62984307163E+01 -0.17364295055E+03  0.21663516159E+03  0.12498813321E+03 0.  0.
         25    2    1    2    0    0 -0.33424770629E+02  0.62984307163E+01 -0.20826496612E+03  0.24526502456E+03  0.12499500244E+03 0.  0.
          5    1    3    3  502    0 -0.10469604929E+02  0.16425693709E+02 -0.16503114041E+03  0.16624314526E+03  0.47000000000E+01 0. -1.
         -5    1    3    3    0  502  0.43894375558E+02 -0.22724124425E+02 -0.86118101406E+01  0.50392016336E+02  0.47000000000E+01 0. -1.
          5    1    4    4  503    0 -0.37350577808E+02 -0.42643467703E+02 -0.17920787386E+03  0.18801883697E+03  0.47000000000E+01 0. -1.
         -5    1    4    4    0  503  0.39258071793E+01  0.48941898420E+02 -0.29057092264E+02  0.57246187591E+02  0.47000000000E+01 0. -1.
<mgrwt>
<rscale>  0 0.12953844E+03</rscale>
<asrwt>0</asrwt>
<pdfrwt beam="2">  1        5 0.64908312E-01 0.12954009E+03</pdfrwt>
<pdfrwt beam="1">  1       -5 0.61532518E-02 0.12954009E+03</pdfrwt>
<totfact> 0.28282370E+02</totfact>
</mgrwt>
</event>
<event>
 8    1  0.3588496E-007  0.1845239E+03  0.7546771E-02  0.1163503E+00
          5   -1    0    0  501    0  0.00000000000E+00  0.00000000000E+00  0.44734743096E+02  0.44980965306E+02  0.47000000000E+01 0. -1.
         -5   -1    0    0    0  501 -0.00000000000E+00 -0.00000000000E+00 -0.75989317565E+03  0.75990771045E+03  0.47000000000E+01 0. -1.
         25    2    1    2    0    0 -0.85604533143E+02  0.10527987000E+03 -0.37381590376E+03  0.41687814966E+03  0.12504828922E+03 0.  0.
         25    2    1    2    0    0  0.85604533143E+02 -0.10527987000E+03 -0.34134252879E+03  0.38801052610E+03  0.12500183709E+03 0.  0.
          5    1    3    3  502    0 -0.89333389961E+02  0.12716326867E+03 -0.27911590150E+03  0.31949761804E+03  0.47000000000E+01 0. -1.
         -5    1    3    3    0  502  0.37288568181E+01 -0.21883398670E+02 -0.94700002264E+02  0.97380531624E+02  0.47000000000E+01 0. -1.
          5    1    4    4  503    0  0.63851953995E+02 -0.11422823572E+03 -0.33958767065E+03  0.36396021475E+03  0.47000000000E+01 0. -1.
         -5    1    4    4    0  503  0.21752579147E+02  0.89483657143E+01 -0.17548581380E+01  0.24050311341E+02  0.47000000000E+01 0. -1.
<mgrwt>
<rscale>  0 0.18451601E+03</rscale>
<asrwt>0</asrwt>
<pdfrwt beam="1">  1        5 0.69023270E-02 0.18452388E+03</pdfrwt>
<pdfrwt beam="2">  1       -5 0.11692669E+00 0.18452388E+03</pdfrwt>
<totfact> 0.64489438E+01</totfact>
</mgrwt>
</event>
<event>
 8    1  0.3588496E-007  0.1372133E+03  0.7546771E-02  0.1217130E+00
          5   -1    0    0  501    0  0.00000000000E+00  0.00000000000E+00  0.26096612163E+03  0.26100844170E+03  0.47000000000E+01 0.  1.
         -5   -1    0    0    0  501 -0.00000000000E+00 -0.00000000000E+00 -0.72064667242E+02  0.72217769729E+02  0.47000000000E+01 0.  1.
         25    2    1    2    0    0 -0.54080877235E+02  0.16666082850E+02  0.90211189371E+02  0.16420768387E+03  0.12499442050E+03 0.  0.
         25    2    1    2    0    0  0.54080877235E+02 -0.16666082850E+02  0.98690265013E+02  0.16901852755E+03  0.12499997859E+03 0.  0.
          5    1    4    4  502    0  0.35289285850E+02 -0.28916665868E+02  0.12557595363E+03  0.13368963083E+03  0.47000000000E+01 0.  1.
         -5    1    4    4    0  502  0.18791591386E+02  0.12250583018E+02 -0.26885688620E+02  0.35328896723E+02  0.47000000000E+01 0.  1.
          5    1    3    3  503    0  0.18297482078E+02  0.15680186041E+02 -0.20408669928E+02  0.31926006529E+02  0.47000000000E+01 0. -1.
         -5    1    3    3    0  503 -0.72378359313E+02  0.98589680906E+00  0.11061985930E+03  0.13228167734E+03  0.47000000000E+01 0. -1.
<mgrwt>
<rscale>  0 0.13721205E+03</rscale>
<asrwt>0</asrwt>
<pdfrwt beam="1">  1        5 0.40163666E-01 0.13721332E+03</pdfrwt>
<pdfrwt beam="2">  1       -5 0.11101904E-01 0.13721332E+03</pdfrwt>
<totfact> 0.29059380E+02</totfact>
</mgrwt>
</event>
<event>
 8    1  0.3588496E-007  0.1309716E+03  0.7546771E-02  0.1226022E+00
          5   -1    0    0  501    0  0.00000000000E+00  0.00000000000E+00  0.41440852412E+02  0.41706525253E+02  0.47000000000E+01 0. -1.
         -5   -1    0    0    0  501 -0.00000000000E+00 -0.00000000000E+00 -0.49939621581E+03  0.49941833203E+03  0.47000000000E+01 0. -1.
         25    2    1    2    0    0  0.26935761103E+02  0.28344776380E+02 -0.34192327275E+03  0.36614772551E+03  0.12499468339E+03 0.  0.
         25    2    1    2    0    0 -0.26935761103E+02 -0.28344776380E+02 -0.11603209065E+03  0.17497713177E+03  0.12499835602E+03 0.  0.
          5    1    4    4  502    0 -0.67218999717E+02 -0.47840226577E+02 -0.93051559566E+02  0.12444984508E+03  0.47000000000E+01 0.  1.
         -5    1    4    4    0  502  0.40283238614E+02  0.19495450197E+02 -0.22980531085E+02  0.50527286693E+02  0.47000000000E+01 0.  1.
          5    1    3    3  503    0 -0.27579142110E+02 -0.15085059941E+02 -0.24285588051E+03  0.24492700303E+03  0.47000000000E+01 0. -1.
         -5    1    3    3    0  503  0.54514903213E+02  0.43429836321E+02 -0.99067392236E+02  0.12122072248E+03  0.47000000000E+01 0. -1.
<mgrwt>
<rscale>  0 0.13097069E+03</rscale>
<asrwt>0</asrwt>
<pdfrwt beam="1">  1        5 0.63976537E-02 0.13097156E+03</pdfrwt>
<pdfrwt beam="2">  1       -5 0.76852321E-01 0.13097156E+03</pdfrwt>
<totfact> 0.18170328E+02</totfact>
</mgrwt>
</event>
<event>
 8    1  0.3588496E-007  0.1305756E+03  0.7546771E-02  0.1226606E+00
          5   -1    0    0  501    0  0.00000000000E+00  0.00000000000E+00  0.10776075418E+03  0.10786320105E+03  0.47000000000E+01 0. -1.
         -5   -1    0    0    0  501 -0.00000000000E+00 -0.00000000000E+00 -0.15926635936E+03  0.15933569351E+03  0.47000000000E+01 0. -1.
         25    2    1    2    0    0  0.32070889341E+02 -0.19880303697E+02 -0.37649583790E+02  0.13589016073E+03  0.12499950482E+03 0.  0.
         25    2    1    2    0    0 -0.32070889341E+02  0.19880303697E+02 -0.13856021396E+02  0.13130873383E+03  0.12500490323E+03 0.  0.
          5    1    4    4  502    0  0.32561985655E+02 -0.86221513914E+01  0.32212958557E+02  0.46844307055E+02  0.47000000000E+01 0.  1.
         -5    1    4    4    0  502 -0.64632874996E+02  0.28502455089E+02 -0.46068979954E+02  0.84464426774E+02  0.47000000000E+01 0.  1.
          5    1    3    3  503    0  0.74714902232E+02  0.10567767488E+02 -0.34730820044E+02  0.83200445829E+02  0.47000000000E+01 0. -1.
         -5    1    3    3    0  503 -0.42644012891E+02 -0.30448071185E+02 -0.29187637456E+01  0.52689714899E+02  0.47000000000E+01 0. -1.
<mgrwt>
<rscale>  0 0.13057433E+03</rscale>
<asrwt>0</asrwt>
<pdfrwt beam="1">  1        5 0.16591791E-01 0.13057563E+03</pdfrwt>
<pdfrwt beam="2">  1       -5 0.24515731E-01 0.13057563E+03</pdfrwt>
<totfact> 0.36838006E+02</totfact>
</mgrwt>
</event>
<event>
 8    1  0.3588496E-007  0.1731072E+03  0.7546771E-02  0.1174647E+00
          5   -1    0    0  501    0  0.00000000000E+00  0.00000000000E+00  0.12877375203E+04  0.12877460974E+04  0.47000000000E+01 0.  1.
         -5   -1    0    0    0  501 -0.00000000000E+00 -0.00000000000E+00 -0.53473750013E+02  0.53679902575E+02  0.47000000000E+01 0.  1.
         25    2    1    2    0    0  0.11859245123E+03  0.16634423542E+02  0.11265119058E+03  0.20653422489E+03  0.12500088710E+03 0.  0.
         25    2    1    2    0    0 -0.11859245123E+03 -0.16634423542E+02  0.11216125797E+04  0.11348917751E+04  0.12499475397E+03 0.  0.
          5    1    3    3  502    0 -0.12044626985E+02  0.90884028398E+01  0.65475561022E+02  0.67355854954E+02  0.47000000000E+01 0.  1.
         -5    1    3    3    0  502  0.13063707821E+03  0.75460207021E+01  0.47175629562E+02  0.13917836993E+03  0.47000000000E+01 0.  1.
          5    1    4    4  503    0 -0.48325196978E+02  0.31239596104E+01  0.90414400725E+03  0.90545212995E+03  0.47000000000E+01 0.  1.
         -5    1    4    4    0  503 -0.70267254251E+02 -0.19758383152E+02  0.21746857250E+03  0.22943964512E+03  0.47000000000E+01 0.  1.
<mgrwt>
<rscale>  0 0.17310607E+03</rscale>
<asrwt>0</asrwt>
<pdfrwt beam="1">  1        5 0.19812997E+00 0.17310718E+03</pdfrwt>
<pdfrwt beam="2">  1       -5 0.82432488E-02 0.17310718E+03</pdfrwt>
<totfact> 0.10755583E+01</totfact>
</mgrwt>
</event>
<event>
 8    1  0.3588496E-007  0.1545190E+03  0.7546771E-02  0.1195029E+00
          5   -1    0    0  501    0  0.00000000000E+00  0.00000000000E+00  0.13434776002E+03  0.13442994689E+03  0.47000000000E+01 0.  1.
         -5   -1    0    0    0  501 -0.00000000000E+00 -0.00000000000E+00 -0.21330223745E+03  0.21335401215E+03  0.47000000000E+01 0.  1.
         25    2    1    2    0    0  0.33761543164E+02  0.84327108844E+02 -0.11065102104E+03  0.19004746748E+03  0.12499395327E+03 0.  0.
         25    2    1    2    0    0 -0.33761543164E+02 -0.84327108844E+02  0.31696543616E+02  0.15773649156E+03  0.12500090724E+03 0.  0.
          5    1    3    3  502    0 -0.39733480626E+02  0.74035095578E+01 -0.67143790162E+01  0.41239960257E+02  0.47000000000E+01 0. -1.
         -5    1    3    3    0  502  0.73495023791E+02  0.76923599287E+02 -0.10393664203E+03  0.14880750722E+03  0.47000000000E+01 0. -1.
          5    1    4    4  503    0 -0.90238814901E+01  0.31063893428E+02 -0.70451173221E+01  0.33438295264E+02  0.47000000000E+01 0. -1.
         -5    1    4    4    0  503 -0.24737661674E+02 -0.11539100227E+03  0.38741660938E+02  0.12429819630E+03  0.47000000000E+01 0. -1.
<mgrwt>
<rscale>  0 0.15451762E+03</rscale>
<asrwt>0</asrwt>
<pdfrwt beam="1">  1        5 0.20679191E-01 0.15451903E+03</pdfrwt>
<pdfrwt beam="2">  1       -5 0.32826034E-01 0.15451903E+03</pdfrwt>
<totfact> 0.14681786E+02</totfact>
</mgrwt>
</event>
<event>
 8    1  0.3588496E-007  0.1255563E+03  0.7546771E-02  0.1234203E+00
         -5   -1    0    0    0  501 -0.00000000000E+00  0.00000000000E+00  0.14234354479E+03  0.14242111762E+03  0.47000000000E+01 0. -1.
          5   -1    0    0  501    0  0.00000000000E+00 -0.00000000000E+00 -0.11123329796E+03  0.11133254948E+03  0.47000000000E+01 0. -1.
         25    2    1    2    0    0  0.10781707762E+01  0.11754006112E+02  0.59192733555E+01  0.12569580018E+03  0.12500030909E+03 0.  0.
         25    2    1    2    0    0 -0.10781707762E+01 -0.11754006112E+02  0.25190973480E+02  0.12805786692E+03  0.12499965210E+03 0.  0.
          5    1    3    3  502    0  0.50060149856E+02 -0.31413795202E+02 -0.43088848564E+01  0.59443263885E+02  0.47000000000E+01 0.  1.
         -5    1    3    3    0  502 -0.48981979080E+02  0.43167801314E+02  0.10228158212E+02  0.66252536293E+02  0.47000000000E+01 0.  1.
          5    1    4    4  503    0  0.32231879346E+02  0.21795658140E+02 -0.34190094355E+02  0.52009588654E+02  0.47000000000E+01 0. -1.
         -5    1    4    4    0  503 -0.33310050122E+02 -0.33549664252E+02  0.59381067835E+02  0.76048278270E+02  0.47000000000E+01 0. -1.
<mgrwt>
<rscale>  0 0.12555618E+03</rscale>
<asrwt>0</asrwt>
<pdfrwt beam="2">  1        5 0.17126417E-01 0.12555635E+03</pdfrwt>
<pdfrwt beam="1">  1       -5 0.21912609E-01 0.12555635E+03</pdfrwt>
<totfact> 0.42386331E+02</totfact>
</mgrwt>
</event>
<event>
 8    1  0.3588496E-007  0.1280852E+03  0.7546771E-02  0.1230331E+00
          5   -1    0    0  501    0  0.00000000000E+00  0.00000000000E+00  0.36973152261E+02  0.37270685372E+02  0.47000000000E+01 0.  1.
         -5   -1    0    0    0  501 -0.00000000000E+00 -0.00000000000E+00 -0.50320125892E+03  0.50322320791E+03  0.47000000000E+01 0.  1.
         25    2    1    2    0    0  0.27498227234E+02 -0.48543980162E+01 -0.32766687114E+03  0.35181158682E+03  0.12500438593E+03 0.  0.
         25    2    1    2    0    0 -0.27498227234E+02  0.48543980162E+01 -0.13856123553E+03  0.18868230646E+03  0.12498831585E+03 0.  0.
          5    1    4    4  502    0  0.19998285946E+02 -0.44448590230E+02 -0.22580273376E+02  0.53921863469E+02  0.47000000000E+01 0. -1.
         -5    1    4    4    0  502 -0.47496513180E+02  0.49302988246E+02 -0.11598096215E+03  0.13476044299E+03  0.47000000000E+01 0. -1.
          5    1    3    3  503    0 -0.39734211143E+02 -0.34509508545E+02 -0.16504964650E+03  0.17330086418E+03  0.47000000000E+01 0. -1.
         -5    1    3    3    0  503  0.67232438377E+02  0.29655110529E+02 -0.16261722463E+03  0.17851072264E+03  0.47000000000E+01 0. -1.
<mgrwt>
<rscale>  0 0.12808126E+03</rscale>
<asrwt>0</asrwt>
<pdfrwt beam="1">  1        5 0.57127532E-02 0.12808518E+03</pdfrwt>
<pdfrwt beam="2">  1       -5 0.77440149E-01 0.12808518E+03</pdfrwt>
<totfact> 0.21425848E+02</totfact>
</mgrwt>
</event>
<event>
 8    1  0.3588496E-007  0.1502360E+03  0.7546771E-02  0.1200184E+00
         -5   -1    0    0    0  501 -0.00000000000E+00  0.00000000000E+00  0.41703923329E+03  0.41706571677E+03  0.47000000000E+01 0. -1.
          5   -1    0    0  501    0  0.00000000000E+00 -0.00000000000E+00 -0.53996037296E+02  0.54200203355E+02  0.47000000000E+01 0. -1.
         25    2    1    2    0    0  0.68006130082E+02  0.48156109986E+02  0.18392603491E+03  0.23748436277E+03  0.12500476624E+03 0.  0.
         25    2    1    2    0    0 -0.68006130082E+02 -0.48156109986E+02  0.17911716108E+03  0.23378155736E+03  0.12500805777E+03 0.  0.
          5    1    3    3  502    0  0.10116754780E+03  0.44082843438E+02  0.16569044851E+03  0.19913207813E+03  0.47000000000E+01 0. -1.
         -5    1    3    3    0  502 -0.33161417719E+02  0.40732665480E+01  0.18235586405E+02  0.38352284639E+02  0.47000000000E+01 0. -1.
          5    1    4    4  503    0 -0.55311320368E+02 -0.90169087149E+02  0.13194472284E+03  0.16917832699E+03  0.47000000000E+01 0. -1.
         -5    1    4    4    0  503 -0.12694809714E+02  0.42012977163E+02  0.47172438243E+02  0.64603230364E+02  0.47000000000E+01 0. -1.
<mgrwt>
<rscale>  0 0.15023533E+03</rscale>
<asrwt>0</asrwt>
<pdfrwt beam="2">  1        5 0.83248251E-02 0.15023601E+03</pdfrwt>
<pdfrwt beam="1">  1       -5 0.64177623E-01 0.15023601E+03</pdfrwt>
<totfact> 0.18229612E+02</totfact>
</mgrwt>
</event>
<event>
 8    1  0.3588496E-007  0.1558173E+03  0.7546771E-02  0.1193502E+00
         -5   -1    0    0    0  501 -0.00000000000E+00  0.00000000000E+00  0.14618361031E+03  0.14625914646E+03  0.47000000000E+01 0.  1.
          5   -1    0    0  501    0  0.00000000000E+00 -0.00000000000E+00 -0.16713237950E+03  0.16719845178E+03  0.47000000000E+01 0.  1.
         25    2    1    2    0    0  0.68545974174E+02  0.62891708444E+02  0.27924533653E+01  0.15584231262E+03  0.12500044416E+03 0.  0.
         25    2    1    2    0    0 -0.68545974174E+02 -0.62891708444E+02 -0.23741222555E+02  0.15761528562E+03  0.12500006018E+03 0.  0.
          5    1    3    3  502    0  0.22735513890E+02  0.91158598207E+02 -0.21664285188E+02  0.96530952920E+02  0.47000000000E+01 0. -1.
         -5    1    3    3    0  502  0.45810460284E+02 -0.28266889763E+02  0.24456738554E+02  0.59311359696E+02  0.47000000000E+01 0. -1.
          5    1    4    4  503    0  0.75411866784E+01  0.60160200504E+01 -0.50338027674E+02  0.51469107471E+02  0.47000000000E+01 0. -1.
         -5    1    4    4    0  503 -0.76087160852E+02 -0.68907728494E+02  0.26596805119E+02  0.10614617815E+03  0.47000000000E+01 0. -1.
<mgrwt>
<rscale>  0 0.15581722E+03</rscale>
<asrwt>0</asrwt>
<pdfrwt beam="2">  1        5 0.25723567E-01 0.15581729E+03</pdfrwt>
<pdfrwt beam="1">  1       -5 0.22500679E-01 0.15581729E+03</pdfrwt>
<totfact> 0.20238232E+02</totfact>
</mgrwt>
</event>
<event>
 8    1  0.3588496E-007  0.1520220E+03  0.7546771E-02  0.1198013E+00
          5   -1    0    0  501    0  0.00000000000E+00  0.00000000000E+00  0.67609243144E+02  0.67772411485E+02  0.47000000000E+01 0. -1.
         -5   -1    0    0    0  501 -0.00000000000E+00 -0.00000000000E+00 -0.34563786956E+03  0.34566982349E+03  0.47000000000E+01 0. -1.
         25    2    1    2    0    0 -0.64949890659E+02  0.57137452930E+02 -0.16240498147E+03  0.22245462699E+03  0.12501002456E+03 0.  0.
         25    2    1    2    0    0  0.64949890659E+02 -0.57137452930E+02 -0.11562364495E+03  0.19098760799E+03  0.12499704921E+03 0.  0.
          5    1    4    4  502    0 -0.66497054660E+01  0.27394361918E+02  0.28511331560E+01  0.28720874081E+02  0.47000000000E+01 0.  1.
         -5    1    4    4    0  502  0.71599596125E+02 -0.84531814848E+02 -0.11847477810E+03  0.16226673391E+03  0.47000000000E+01 0.  1.
          5    1    3    3  503    0 -0.84781199257E+02  0.30233509670E+01 -0.57262062344E+02  0.10245987596E+03  0.47000000000E+01 0.  1.
         -5    1    3    3    0  503  0.19831308597E+02  0.54114101963E+02 -0.10514291913E+03  0.11999475103E+03  0.47000000000E+01 0.  1.
<mgrwt>
<rscale>  0 0.15201931E+03</rscale>
<asrwt>0</asrwt>
<pdfrwt beam="1">  1        5 0.10416432E-01 0.15202198E+03</pdfrwt>
<pdfrwt beam="2">  1       -5 0.53190065E-01 0.15202198E+03</pdfrwt>
<totfact> 0.18673457E+02</totfact>
</mgrwt>
</event>
<event>
 8    1  0.3588496E-007  0.1724281E+03  0.7546771E-02  0.1175339E+00
          5   -1    0    0  501    0  0.00000000000E+00  0.00000000000E+00  0.48390112638E+03  0.48392395075E+03  0.47000000000E+01 0. -1.
         -5   -1    0    0    0  501 -0.00000000000E+00 -0.00000000000E+00 -0.68951136436E+02  0.69111136699E+02  0.47000000000E+01 0. -1.
         25    2    1    2    0    0  0.10285772218E+03 -0.59389664408E+02  0.11565392513E+03  0.20762291184E+03  0.12499839947E+03 0.  0.
         25    2    1    2    0    0 -0.10285772218E+03  0.59389664408E+02  0.29929606481E+03  0.34541217561E+03  0.12499837359E+03 0.  0.
          5    1    3    3  502    0  0.88507585912E+02  0.58474803687E+01  0.10858709479E+03  0.14028910487E+03  0.47000000000E+01 0.  1.
         -5    1    3    3    0  502  0.14350136264E+02 -0.65237144777E+02  0.70668303426E+01  0.67333806966E+02  0.47000000000E+01 0.  1.
          5    1    4    4  503    0 -0.12212307367E+03  0.14506657645E+02  0.20475439043E+03  0.23889524616E+03  0.47000000000E+01 0.  1.
         -5    1    4    4    0  503  0.19265351499E+02  0.44883006764E+02  0.94541674381E+02  0.10651692945E+03  0.47000000000E+01 0.  1.
<mgrwt>
<rscale>  0 0.17242808E+03</rscale>
<asrwt>0</asrwt>
<pdfrwt beam="1">  1        5 0.74460388E-01 0.17242808E+03</pdfrwt>
<pdfrwt beam="2">  1       -5 0.10621931E-01 0.17242808E+03</pdfrwt>
<totfact> 0.88984842E+01</totfact>
</mgrwt>
</event>
<event>
 8    1  0.3588496E-007  0.1289946E+03  0.7546771E-02  0.1228958E+00
         -5   -1    0    0    0  501 -0.00000000000E+00  0.00000000000E+00  0.30456379984E+02  0.30816896044E+02  0.47000000000E+01 0.  1.
          5   -1    0    0  501    0  0.00000000000E+00 -0.00000000000E+00 -0.57031191614E+03  0.57033128241E+03  0.47000000000E+01 0.  1.
         25    2    1    2    0    0 -0.30883576558E+02 -0.77083666788E+01 -0.20384398852E+03  0.24122685843E+03  0.12499924541E+03 0.  0.
         25    2    1    2    0    0  0.30883576558E+02  0.77083666788E+01 -0.33601154763E+03  0.35992132002E+03  0.12500552885E+03 0.  0.
          5    1    3    3  502    0 -0.57028957476E+02 -0.17718716247E+02 -0.33701436649E+02  0.68732319388E+02  0.47000000000E+01 0. -1.
         -5    1    3    3    0  502  0.26145380918E+02  0.10010349568E+02 -0.17014255187E+03  0.17249453904E+03  0.47000000000E+01 0. -1.
          5    1    4    4  503    0  0.49307446878E+02 -0.26625315104E+02 -0.30433268673E+03  0.30948441953E+03  0.47000000000E+01 0. -1.
         -5    1    4    4    0  503 -0.18423870320E+02  0.34333681783E+02 -0.31678860902E+02  0.50436900483E+02  0.47000000000E+01 0. -1.
<mgrwt>
<rscale>  0 0.12899304E+03</rscale>
<asrwt>0</asrwt>
<pdfrwt beam="2">  1        5 0.87769508E-01 0.12899456E+03</pdfrwt>
<pdfrwt beam="1">  1       -5 0.47148191E-02 0.12899456E+03</pdfrwt>
<totfact> 0.22094421E+02</totfact>
</mgrwt>
</event>
<event>
 8    1  0.3588496E-007  0.1302200E+03  0.7546771E-02  0.1227131E+00
         -5   -1    0    0    0  501 -0.00000000000E+00  0.00000000000E+00  0.33401435824E+03  0.33404742404E+03  0.47000000000E+01 0. -1.
          5   -1    0    0  501    0  0.00000000000E+00 -0.00000000000E+00 -0.51266054744E+02  0.51481048640E+02  0.47000000000E+01 0. -1.
         25    2    1    2    0    0 -0.25414740858E+02  0.26207039457E+02  0.16292289886E+03  0.20856924494E+03  0.12499816395E+03 0.  0.
         25    2    1    2    0    0  0.25414740858E+02 -0.26207039457E+02  0.11982540463E+03  0.17695922775E+03  0.12499489077E+03 0.  0.
          5    1    4    4  502    0 -0.43984266432E+02 -0.75607028189E+01  0.10568084256E+02  0.46103734399E+02  0.47000000000E+01 0. -1.
         -5    1    4    4    0  502  0.69399007290E+02 -0.18646336639E+02  0.10925732038E+03  0.13085549335E+03  0.47000000000E+01 0. -1.
          5    1    3    3  503    0  0.13782043569E+02 -0.19004495142E+02  0.14349998248E+03  0.14548350605E+03  0.47000000000E+01 0.  1.
         -5    1    3    3    0  503 -0.39196784427E+02  0.45211534600E+02  0.19422916381E+02  0.63085738888E+02  0.47000000000E+01 0.  1.
<mgrwt>
<rscale>  0 0.13021926E+03</rscale>
<asrwt>0</asrwt>
<pdfrwt beam="2">  1        5 0.79061670E-02 0.13022004E+03</pdfrwt>
<pdfrwt beam="1">  1       -5 0.51405905E-01 0.13022004E+03</pdfrwt>
<totfact> 0.30733516E+02</totfact>
</mgrwt>
</event>
<event>
 8    1  0.3588496E-007  0.1815539E+03  0.7546771E-02  0.1166308E+00
         -5   -1    0    0    0  501 -0.00000000000E+00  0.00000000000E+00  0.32491724692E+02  0.32829897555E+02  0.47000000000E+01 0.  1.
          5   -1    0    0  501    0  0.00000000000E+00 -0.00000000000E+00 -0.10133685256E+04  0.10133794248E+04  0.47000000000E+01 0.  1.
         25    2    1    2    0    0  0.21008951955E+02 -0.12998241826E+03 -0.45559487110E+03  0.49043695716E+03  0.12499966905E+03 0.  0.
         25    2    1    2    0    0 -0.21008951955E+02  0.12998241826E+03 -0.52528192982E+03  0.55577236524E+03  0.12500004418E+03 0.  0.
          5    1    3    3  502    0  0.58614178983E+02 -0.15304001087E+02 -0.14960578999E+03  0.16147388899E+03  0.47000000000E+01 0.  1.
         -5    1    3    3    0  502 -0.37605227028E+02 -0.11467841717E+03 -0.30598908110E+03  0.32896306817E+03  0.47000000000E+01 0.  1.
          5    1    4    4  503    0  0.36231285235E+02  0.49610535023E+02 -0.87699406897E+02  0.10717829624E+03  0.47000000000E+01 0.  1.
         -5    1    4    4    0  503 -0.57240237190E+02  0.80371883236E+02 -0.43758252292E+03  0.44859406900E+03  0.47000000000E+01 0.  1.
<mgrwt>
<rscale>  0 0.18155383E+03</rscale>
<asrwt>0</asrwt>
<pdfrwt beam="2">  1        5 0.15592968E+00 0.18155389E+03</pdfrwt>
<pdfrwt beam="1">  1       -5 0.50255793E-02 0.18155389E+03</pdfrwt>
<totfact> 0.50990974E+01</totfact>
</mgrwt>
</event>
<event>
 8    1  0.3588496E-007  0.1711096E+03  0.7546771E-02  0.1176696E+00
          5   -1    0    0  501    0  0.00000000000E+00  0.00000000000E+00  0.24120356600E+03  0.24124935286E+03  0.47000000000E+01 0.  1.
         -5   -1    0    0    0  501 -0.00000000000E+00 -0.00000000000E+00 -0.12546198066E+03  0.12554998443E+03  0.47000000000E+01 0.  1.
         25    2    1    2    0    0 -0.24395683281E+02 -0.11426818757E+03  0.24403855979E+02  0.17283776973E+03  0.12499991362E+03 0.  0.
         25    2    1    2    0    0  0.24395683281E+02  0.11426818757E+03  0.91337729369E+02  0.19396156756E+03  0.12500456323E+03 0.  0.
          5    1    3    3  502    0  0.43679233992E+02 -0.37149563675E+02 -0.19706040371E+02  0.60814337047E+02  0.47000000000E+01 0.  1.
         -5    1    3    3    0  502 -0.68074917273E+02 -0.77118623898E+02  0.44109896351E+02  0.11202343268E+03  0.47000000000E+01 0.  1.
          5    1    4    4  503    0  0.39485811890E+02  0.13672042598E+03  0.67390126001E+02  0.15752816670E+03  0.47000000000E+01 0.  1.
         -5    1    4    4    0  503 -0.15090128610E+02 -0.22452238409E+02  0.23947603368E+02  0.36433400858E+02  0.47000000000E+01 0.  1.
<mgrwt>
<rscale>  0 0.17110879E+03</rscale>
<asrwt>0</asrwt>
<pdfrwt beam="1">  1        5 0.37118532E-01 0.17110964E+03</pdfrwt>
<pdfrwt beam="2">  1       -5 0.19312135E-01 0.17110964E+03</pdfrwt>
<totfact> 0.13449881E+02</totfact>
</mgrwt>
</event>
<event>
 8    1  0.3588496E-007  0.1549796E+03  0.7546771E-02  0.1194486E+00
          5   -1    0    0  501    0  0.00000000000E+00  0.00000000000E+00  0.45744691384E+03  0.45747105808E+03  0.47000000000E+01 0.  1.
         -5   -1    0    0    0  501 -0.00000000000E+00 -0.00000000000E+00 -0.52674903014E+02  0.52884169726E+02  0.47000000000E+01 0.  1.
         25    2    1    2    0    0 -0.69769399407E+02 -0.59376244687E+02  0.18311744399E+03  0.23989722851E+03  0.12500149770E+03 0.  0.
         25    2    1    2    0    0  0.69769399407E+02  0.59376244687E+02  0.22165456683E+03  0.27045799930E+03  0.12499389928E+03 0.  0.
          5    1    4    4  502    0  0.43260475449E+02 -0.25927161298E+01  0.54371363972E+01  0.43929982532E+02  0.47000000000E+01 0. -1.
         -5    1    4    4    0  502  0.26508923958E+02  0.61968960817E+02  0.21621743044E+03  0.22652801676E+03  0.47000000000E+01 0. -1.
          5    1    3    3  503    0 -0.68166035539E+02  0.13289803947E+02  0.13705502880E+03  0.15371856820E+03  0.47000000000E+01 0. -1.
         -5    1    3    3    0  503 -0.16033638679E+01 -0.72666048634E+02  0.46062415192E+02  0.86178660312E+02  0.47000000000E+01 0. -1.
<mgrwt>
<rscale>  0 0.15497809E+03</rscale>
<asrwt>0</asrwt>
<pdfrwt beam="1">  1        5 0.70394405E-01 0.15497962E+03</pdfrwt>
<pdfrwt beam="2">  1       -5 0.81217857E-02 0.15497962E+03</pdfrwt>
<totfact> 0.15619207E+02</totfact>
</mgrwt>
</event>
<event>
 8    1  0.3588496E-007  0.1399668E+03  0.7546771E-02  0.1213388E+00
         -5   -1    0    0    0  501 -0.00000000000E+00  0.00000000000E+00  0.17058088659E+03  0.17064562365E+03  0.47000000000E+01 0.  1.
          5   -1    0    0  501    0  0.00000000000E+00 -0.00000000000E+00 -0.13897015573E+03  0.13904961051E+03  0.47000000000E+01 0.  1.
         25    2    1    2    0    0  0.19521551813E+02  0.59776799858E+02  0.80508451844E+02  0.16143295168E+03  0.12499852113E+03 0.  0.
         25    2    1    2    0    0 -0.19521551813E+02 -0.59776799858E+02 -0.48897720987E+02  0.14826228248E+03  0.12504543375E+03 0.  0.
          5    1    3    3  502    0  0.32754114079E+02 -0.29281471025E+02  0.48872374889E+02  0.65885017734E+02  0.47000000000E+01 0.  1.
         -5    1    3    3    0  502 -0.13232562266E+02  0.89058270883E+02  0.31636076955E+02  0.95547933949E+02  0.47000000000E+01 0.  1.
          5    1    4    4  503    0  0.19958800464E+01 -0.52568962819E+01 -0.80958229906E+02  0.81289258117E+02  0.47000000000E+01 0. -1.
         -5    1    4    4    0  503 -0.21517431859E+02 -0.54519903576E+02  0.32060508919E+02  0.66973024360E+02  0.47000000000E+01 0. -1.
<mgrwt>
<rscale>  0 0.13995636E+03</rscale>
<asrwt>0</asrwt>
<pdfrwt beam="2">  1        5 0.21391116E-01 0.13996684E+03</pdfrwt>
<pdfrwt beam="1">  1       -5 0.26254305E-01 0.13996684E+03</pdfrwt>
<totfact> 0.20659887E+02</totfact>
</mgrwt>
</event>
<event>
 8    1  0.3588496E-007  0.1354951E+03  0.7546771E-02  0.1219539E+00
          5   -1    0    0  501    0  0.00000000000E+00  0.00000000000E+00  0.21154568464E+02  0.21670389173E+02  0.47000000000E+01 0.  1.
         -5   -1    0    0    0  501 -0.00000000000E+00 -0.00000000000E+00 -0.88709536897E+03  0.88710781963E+03  0.47000000000E+01 0.  1.
         25    2    1    2    0    0 -0.19087903664E+02  0.48548170634E+02 -0.51715804954E+03  0.53460133835E+03  0.12499947932E+03 0.  0.
         25    2    1    2    0    0  0.19087903664E+02 -0.48548170634E+02 -0.34878275097E+03  0.37417687045E+03  0.12505059003E+03 0.  0.
          5    1    4    4  502    0 -0.35727733027E+02  0.24203923896E+02 -0.13310322885E+03  0.14000307272E+03  0.47000000000E+01 0.  1.
         -5    1    4    4    0  502  0.54815636691E+02 -0.72752094529E+02 -0.21567952212E+03  0.23417379774E+03  0.47000000000E+01 0.  1.
          5    1    3    3  503    0  0.19445761497E+01  0.82955613708E+02 -0.22936421523E+03  0.24395788254E+03  0.47000000000E+01 0. -1.
         -5    1    3    3    0  503 -0.21032479814E+02 -0.34407443074E+02 -0.28779383430E+03  0.29064345582E+03  0.47000000000E+01 0. -1.
<mgrwt>
<rscale>  0 0.13548331E+03</rscale>
<asrwt>0</asrwt>
<pdfrwt beam="1">  1        5 0.32951859E-02 0.13549510E+03</pdfrwt>
<pdfrwt beam="2">  1       -5 0.13651682E+00 0.13549510E+03</pdfrwt>
<totfact> 0.13456559E+02</totfact>
</mgrwt>
</event>
<event>
 8    1  0.3588496E-007  0.1427931E+03  0.7546771E-02  0.1209622E+00
         -5   -1    0    0    0  501 -0.00000000000E+00  0.00000000000E+00  0.35185154243E+02  0.35497677094E+02  0.47000000000E+01 0.  1.
          5   -1    0    0  501    0  0.00000000000E+00 -0.00000000000E+00 -0.92761620078E+03  0.92762810757E+03  0.47000000000E+01 0.  1.
         25    2    1    2    0    0 -0.67807154728E+02  0.12858452886E+02 -0.15003598978E+03  0.20712473085E+03  0.12500682325E+03 0.  0.
         25    2    1    2    0    0  0.67807154728E+02 -0.12858452886E+02 -0.74239505676E+03  0.75600105381E+03  0.12499609203E+03 0.  0.
          5    1    4    4  502    0  0.98047082041E+02 -0.22273370399E+02 -0.41449103583E+03  0.42653750375E+03  0.47000000000E+01 0.  1.
         -5    1    4    4    0  502 -0.30239927313E+02  0.94149175134E+01 -0.32790402093E+03  0.32946355006E+03  0.47000000000E+01 0.  1.
          5    1    3    3  503    0  0.35488645693E+02  0.89305714612E+00 -0.58079598724E+02  0.68231747098E+02  0.47000000000E+01 0. -1.
         -5    1    3    3    0  503 -0.10329580042E+03  0.11965395740E+02 -0.91956391060E+02  0.13889298376E+03  0.47000000000E+01 0. -1.
<mgrwt>
<rscale>  0 0.14279070E+03</rscale>
<asrwt>0</asrwt>
<pdfrwt beam="2">  1        5 0.14273512E+00 0.14279305E+03</pdfrwt>
<pdfrwt beam="1">  1       -5 0.54380575E-02 0.14279305E+03</pdfrwt>
<totfact> 0.53242054E+01</totfact>
</mgrwt>
</event>
<event>
 8    1  0.3588496E-007  0.1391927E+03  0.7546771E-02  0.1214419E+00
         -5   -1    0    0    0  501 -0.00000000000E+00  0.00000000000E+00  0.81237362853E+02  0.81373208879E+02  0.47000000000E+01 0. -1.
          5   -1    0    0  501    0  0.00000000000E+00 -0.00000000000E+00 -0.26201243912E+03  0.26205459022E+03  0.47000000000E+01 0. -1.
         25    2    1    2    0    0 -0.26770870976E+02  0.55067605696E+02 -0.38568797679E+02  0.14443743624E+03  0.12500200040E+03 0.  0.
         25    2    1    2    0    0  0.26770870976E+02 -0.55067605696E+02 -0.14220627859E+03  0.19899036286E+03  0.12500167243E+03 0.  0.
          5    1    4    4  502    0  0.43629085970E+02  0.80956213108E+01 -0.25219301631E+01  0.44693247351E+02  0.47000000000E+01 0. -1.
         -5    1    4    4    0  502 -0.16858214994E+02 -0.63163227007E+02 -0.13968434842E+03  0.15429711551E+03  0.47000000000E+01 0. -1.
          5    1    3    3  503    0 -0.70133365886E+02  0.41229098783E+02  0.44779113554E+01  0.81612923530E+02  0.47000000000E+01 0. -1.
         -5    1    3    3    0  503  0.43362494910E+02  0.13838506913E+02 -0.43046709035E+02  0.62824512709E+02  0.47000000000E+01 0. -1.
<mgrwt>
<rscale>  0 0.13919267E+03</rscale>
<asrwt>0</asrwt>
<pdfrwt beam="2">  1        5 0.40323298E-01 0.13919275E+03</pdfrwt>
<pdfrwt beam="1">  1       -5 0.12511748E-01 0.13919275E+03</pdfrwt>
<totfact> 0.23441449E+02</totfact>
</mgrwt>
</event>
<event>
 8    1  0.3588496E-007  0.1836203E+03  0.7546771E-02  0.1164347E+00
          5   -1    0    0  501    0  0.00000000000E+00  0.00000000000E+00  0.32154308102E+02  0.32495992515E+02  0.47000000000E+01 0. -1.
         -5   -1    0    0    0  501 -0.00000000000E+00 -0.00000000000E+00 -0.13060950456E+04  0.13061035021E+04  0.47000000000E+01 0. -1.
         25    2    1    2    0    0 -0.13437724161E+03 -0.58089010377E+01 -0.93751437816E+03  0.95532531551E+03  0.12498905071E+03 0.  0.
         25    2    1    2    0    0  0.13437724161E+03  0.58089010377E+01 -0.33642635938E+03  0.38327417913E+03  0.12500165881E+03 0.  0.
          5    1    4    4  502    0  0.26727580355E+02 -0.53545913630E+02 -0.12488327176E+03  0.13856207989E+03  0.47000000000E+01 0. -1.
         -5    1    4    4    0  502  0.10764966126E+03  0.59354814667E+02 -0.21154308762E+03  0.24471209924E+03  0.47000000000E+01 0. -1.
          5    1    3    3  503    0  0.11379692743E+02 -0.15161793794E+02 -0.32632499905E+03  0.32690896653E+03  0.47000000000E+01 0. -1.
         -5    1    3    3    0  503 -0.14575693436E+03  0.93528927561E+01 -0.61118937911E+03  0.62841634897E+03  0.47000000000E+01 0. -1.
<mgrwt>
<rscale>  0 0.18361812E+03</rscale>
<asrwt>0</asrwt>
<pdfrwt beam="1">  1        5 0.49737516E-02 0.18362026E+03</pdfrwt>
<pdfrwt beam="2">  1       -5 0.20096459E+00 0.18362026E+03</pdfrwt>
<totfact> 0.24568204E+01</totfact>
</mgrwt>
</event>
<event>
 8    1  0.3588496E-007  0.1374209E+03  0.7546771E-02  0.1216843E+00
          5   -1    0    0  501    0  0.00000000000E+00  0.00000000000E+00  0.56057303623E+02  0.56253989098E+02  0.47000000000E+01 0.  1.
         -5   -1    0    0    0  501 -0.00000000000E+00 -0.00000000000E+00 -0.34443609197E+03  0.34446815738E+03  0.47000000000E+01 0.  1.
         25    2    1    2    0    0 -0.57029408697E+02  0.23328900434E+01 -0.17540762447E+03  0.22282612405E+03  0.12500340398E+03 0.  0.
         25    2    1    2    0    0  0.57029408697E+02 -0.23328900434E+01 -0.11297116387E+03  0.17789602242E+03  0.12500686020E+03 0.  0.
          5    1    3    3  502    0  0.10412271312E+02  0.31691350414E+02 -0.13424248374E+03  0.13840481034E+03  0.47000000000E+01 0.  1.
         -5    1    3    3    0  502 -0.67441680009E+02 -0.29358460371E+02 -0.41165140736E+02  0.84421313716E+02  0.47000000000E+01 0.  1.
          5    1    4    4  503    0  0.92561833527E+02 -0.13265786457E+02 -0.10284718866E+03  0.13908022265E+03  0.47000000000E+01 0. -1.
         -5    1    4    4    0  503 -0.35532424831E+02  0.10932896413E+02 -0.10123975212E+02  0.38815799778E+02  0.47000000000E+01 0. -1.
<mgrwt>
<rscale>  0 0.13742014E+03</rscale>
<asrwt>0</asrwt>
<pdfrwt beam="1">  1        5 0.86417970E-02 0.13742093E+03</pdfrwt>
<pdfrwt beam="2">  1       -5 0.53007763E-01 0.13742093E+03</pdfrwt>
<totfact> 0.25172684E+02</totfact>
</mgrwt>
</event>
<event>
 8    1  0.3588496E-007  0.1323626E+03  0.7546771E-02  0.1223992E+00
         -5   -1    0    0    0  501 -0.00000000000E+00  0.00000000000E+00  0.87467821917E+01  0.99295618589E+01  0.47000000000E+01 0. -1.
          5   -1    0    0  501    0  0.00000000000E+00 -0.00000000000E+00 -0.19062635369E+04  0.19062693310E+04  0.47000000000E+01 0. -1.
         25    2    1    2    0    0  0.31082241376E+02 -0.30473179362E+02 -0.10715187209E+04  0.10796628176E+04  0.12499884078E+03 0.  0.
         25    2    1    2    0    0 -0.31082241376E+02  0.30473179362E+02 -0.82599803386E+03  0.83653607521E+03  0.12500053115E+03 0.  0.
          5    1    4    4  502    0 -0.23786633423E+02  0.76537582334E+02 -0.62549583172E+03  0.63062741055E+03  0.47000000000E+01 0. -1.
         -5    1    4    4    0  502 -0.72956079526E+01 -0.46064402972E+02 -0.20050220214E+03  0.20590866466E+03  0.47000000000E+01 0. -1.
          5    1    3    3  503    0  0.13862297989E+02 -0.74997917156E+02 -0.82422893536E+03  0.82776341957E+03  0.47000000000E+01 0. -1.
         -5    1    3    3    0  503  0.17219943387E+02  0.44524737794E+02 -0.24728978553E+03  0.25189939808E+03  0.47000000000E+01 0. -1.
<mgrwt>
<rscale>  0 0.13236218E+03</rscale>
<asrwt>0</asrwt>
<pdfrwt beam="2">  1        5 0.29336243E+00 0.13236258E+03</pdfrwt>
<pdfrwt beam="1">  1       -5 0.14370891E-02 0.13236258E+03</pdfrwt>
<totfact> 0.42671593E+01</totfact>
</mgrwt>
</event>
<event>
 8    1  0.3588496E-007  0.1251799E+03  0.7546771E-02  0.1234789E+00
         -5   -1    0    0    0  501 -0.00000000000E+00  0.00000000000E+00  0.45223027302E+03  0.45225469576E+03  0.47000000000E+01 0. -1.
          5   -1    0    0  501    0  0.00000000000E+00 -0.00000000000E+00 -0.44261855887E+02  0.44510694070E+02  0.47000000000E+01 0. -1.
         25    2    1    2    0    0 -0.45205156618E+01 -0.45816140218E+01  0.32043465284E+03  0.34401797757E+03  0.12501430278E+03 0.  0.
         25    2    1    2    0    0  0.45205156618E+01  0.45816140218E+01  0.87533764296E+02  0.15274741227E+03  0.12501274260E+03 0.  0.
          5    1    4    4  502    0 -0.42813183600E+02 -0.37346509223E+02  0.62454974921E+02  0.84560299985E+02  0.47000000000E+01 0.  1.
         -5    1    4    4    0  502  0.47333699262E+02  0.41928123245E+02  0.25078789374E+02  0.68187112280E+02  0.47000000000E+01 0.  1.
          5    1    3    3  503    0 -0.36726937540E+02  0.48019457049E+02  0.19413357967E+03  0.20338306949E+03  0.47000000000E+01 0. -1.
         -5    1    3    3    0  503  0.32206421879E+02 -0.52601071071E+02  0.12630107316E+03  0.14063490808E+03  0.47000000000E+01 0. -1.
<mgrwt>
<rscale>  0 0.12517949E+03</rscale>
<asrwt>0</asrwt>
<pdfrwt beam="2">  1        5 0.68305360E-02 0.12517988E+03</pdfrwt>
<pdfrwt beam="1">  1       -5 0.69594912E-01 0.12517988E+03</pdfrwt>
<totfact> 0.20049536E+02</totfact>
</mgrwt>
</event>
<event>
 8    1  0.3588496E-007  0.1385483E+03  0.7546771E-02  0.1215296E+00
         -5   -1    0    0    0  501 -0.00000000000E+00  0.00000000000E+00  0.16705048528E+03  0.16711658993E+03  0.47000000000E+01 0. -1.
          5   -1    0    0  501    0  0.00000000000E+00 -0.00000000000E+00 -0.12686891645E+03  0.12695594497E+03  0.47000000000E+01 0. -1.
         25    2    1    2    0    0 -0.57076698351E+02 -0.17755908197E+02  0.65466533488E+02  0.15323673844E+03  0.12499043655E+03 0.  0.
         25    2    1    2    0    0  0.57076698351E+02  0.17755908197E+02 -0.25284964667E+02  0.14083579646E+03  0.12498948098E+03 0.  0.
          5    1    4    4  502    0  0.34141727228E+02 -0.13449679058E+02  0.46327741676E+02  0.59286600963E+02  0.47000000000E+01 0.  1.
         -5    1    4    4    0  502  0.22934971123E+02  0.31205587256E+02 -0.71612706343E+02  0.81549195497E+02  0.47000000000E+01 0.  1.
          5    1    3    3  503    0  0.17216251573E+02 -0.53182724162E+02  0.25619852631E+02  0.61670643878E+02  0.47000000000E+01 0. -1.
         -5    1    3    3    0  503 -0.74292949924E+02  0.35426815965E+02  0.39846680857E+02  0.91566094561E+02  0.47000000000E+01 0. -1.
<mgrwt>
<rscale>  0 0.13854808E+03</rscale>
<asrwt>0</asrwt>
<pdfrwt beam="2">  1        5 0.19530074E-01 0.13854830E+03</pdfrwt>
<pdfrwt beam="1">  1       -5 0.25711854E-01 0.13854830E+03</pdfrwt>
<totfact> 0.25414066E+02</totfact>
</mgrwt>
</event>
<event>
 8    1  0.3588496E-007  0.1735431E+03  0.7546771E-02  0.1174212E+00
         -5   -1    0    0    0  501 -0.00000000000E+00  0.00000000000E+00  0.19869737325E+03  0.19875295252E+03  0.47000000000E+01 0. -1.
          5   -1    0    0  501    0  0.00000000000E+00 -0.00000000000E+00 -0.15322812120E+03  0.15330018632E+03  0.47000000000E+01 0. -1.
         25    2    1    2    0    0  0.89691082903E+01  0.12004500486E+03  0.36655742639E+01  0.17354615611E+03  0.12495432674E+03 0.  0.
         25    2    1    2    0    0 -0.89691082903E+01 -0.12004500486E+03  0.41803677787E+02  0.17850698273E+03  0.12500378919E+03 0.  0.
          5    1    4    4  502    0 -0.19853593552E+02 -0.64126015278E+02  0.83873809879E+02  0.10753239975E+03  0.47000000000E+01 0.  1.
         -5    1    4    4    0  502  0.10884485261E+02 -0.55918989583E+02 -0.42070132092E+02  0.70974582983E+02  0.47000000000E+01 0.  1.
          5    1    3    3  503    0  0.25729774744E+02 -0.15348849579E+02 -0.18094509332E+02  0.35314441235E+02  0.47000000000E+01 0. -1.
         -5    1    3    3    0  503 -0.16760666454E+02  0.13539385444E+03  0.21760083596E+02  0.13823171488E+03  0.47000000000E+01 0. -1.
<mgrwt>
<rscale>  0 0.17353416E+03</rscale>
<asrwt>0</asrwt>
<pdfrwt beam="2">  1        5 0.23583376E-01 0.17354306E+03</pdfrwt>
<pdfrwt beam="1">  1       -5 0.30578645E-01 0.17354306E+03</pdfrwt>
<totfact> 0.13654016E+02</totfact>
</mgrwt>
</event>
<event>
 8    1  0.3588496E-007  0.1935026E+03  0.7546771E-02  0.1155342E+00
          5   -1    0    0  501    0  0.00000000000E+00  0.00000000000E+00  0.13074210095E+03  0.13082655296E+03  0.47000000000E+01 0. -1.
         -5   -1    0    0    0  501 -0.00000000000E+00 -0.00000000000E+00 -0.32015618254E+03  0.32019067946E+03  0.47000000000E+01 0. -1.
         25    2    1    2    0    0 -0.74031819319E+02 -0.12779966214E+03 -0.16816311433E+03  0.25636319951E+03  0.12501917104E+03 0.  0.
         25    2    1    2    0    0  0.74031819319E+02  0.12779966214E+03 -0.21250967260E+02  0.19465403292E+03  0.12500050003E+03 0.  0.
          5    1    3    3  502    0 -0.10816072793E+03 -0.87645902794E+02 -0.10808344654E+03  0.17630844778E+03  0.47000000000E+01 0.  1.
         -5    1    3    3    0  502  0.34128908611E+02 -0.40153759345E+02 -0.60079667786E+02  0.80054751725E+02  0.47000000000E+01 0.  1.
          5    1    4    4  503    0  0.94830225304E+02  0.40878331822E+02 -0.36234991492E+01  0.10343611260E+03  0.47000000000E+01 0.  1.
         -5    1    4    4    0  503 -0.20798405986E+02  0.86921330318E+02 -0.17627468111E+02  0.91217920321E+02  0.47000000000E+01 0.  1.
<mgrwt>
<rscale>  0 0.19349959E+03</rscale>
<asrwt>0</asrwt>
<pdfrwt beam="1">  1        5 0.20123319E-01 0.19350260E+03</pdfrwt>
<pdfrwt beam="2">  1       -5 0.49263947E-01 0.19350260E+03</pdfrwt>
<totfact> 0.71660438E+01</totfact>
</mgrwt>
</event>
<event>
 8    1  0.3588496E-007  0.1361330E+03  0.7546771E-02  0.1218630E+00
         -5   -1    0    0    0  501 -0.00000000000E+00  0.00000000000E+00  0.91188159031E+03  0.91189370255E+03  0.47000000000E+01 0. -1.
          5   -1    0    0  501    0  0.00000000000E+00 -0.00000000000E+00 -0.21022946566E+02  0.21541919188E+02  0.47000000000E+01 0. -1.
         25    2    1    2    0    0 -0.13694852510E+02 -0.52144014961E+02  0.54513334975E+03  0.56187381603E+03  0.12500107535E+03 0.  0.
         25    2    1    2    0    0  0.13694852510E+02  0.52144014961E+02  0.34572529399E+03  0.37156180571E+03  0.12500259708E+03 0.  0.
          5    1    3    3  502    0 -0.16643688209E+02 -0.70324400340E+02  0.53584673394E+03  0.54071836099E+03  0.47000000000E+01 0.  1.
         -5    1    3    3    0  502  0.29488356996E+01  0.18180385379E+02  0.92866158190E+01  0.21155455038E+02  0.47000000000E+01 0.  1.
          5    1    4    4  503    0 -0.41070007504E+02  0.63107417115E+02  0.14903258393E+03  0.16703919505E+03  0.47000000000E+01 0. -1.
         -5    1    4    4    0  503  0.54764860014E+02 -0.10963402153E+02  0.19669271006E+03  0.20452261066E+03  0.47000000000E+01 0. -1.
<mgrwt>
<rscale>  0 0.13613266E+03</rscale>
<asrwt>0</asrwt>
<pdfrwt beam="2">  1        5 0.32751531E-02 0.13613301E+03</pdfrwt>
<pdfrwt beam="1">  1       -5 0.14033029E+00 0.13613301E+03</pdfrwt>
<totfact> 0.12648647E+02</totfact>
</mgrwt>
</event>
<event>
 8    1  0.3588496E-007  0.1418454E+03  0.7546771E-02  0.1210868E+00
         -5   -1    0    0    0  501 -0.00000000000E+00  0.00000000000E+00  0.15783591072E+03  0.15790587295E+03  0.47000000000E+01 0.  1.
          5   -1    0    0  501    0  0.00000000000E+00 -0.00000000000E+00 -0.16935952216E+03  0.16942472590E+03  0.47000000000E+01 0.  1.
         25    2    1    2    0    0 -0.69985959231E+01 -0.66682713213E+02  0.75733823513E+02  0.16079537011E+03  0.12499589769E+03 0.  0.
         25    2    1    2    0    0  0.69985959231E+01  0.66682713213E+02 -0.87257434954E+02  0.16653522873E+03  0.12499823146E+03 0.  0.
          5    1    3    3  502    0  0.14172679917E+02  0.13095350034E+02  0.75555315442E+02  0.78122011880E+02  0.47000000000E+01 0.  1.
         -5    1    3    3    0  502 -0.21171275840E+02 -0.79778063247E+02  0.17850807084E+00  0.82673358231E+02  0.47000000000E+01 0.  1.
          5    1    4    4  503    0  0.38266196917E+02  0.43682861480E+02 -0.10767390028E+03  0.12242652088E+03  0.47000000000E+01 0.  1.
         -5    1    4    4    0  503 -0.31267600994E+02  0.22999851733E+02  0.20416465330E+02  0.44108707850E+02  0.47000000000E+01 0.  1.
<mgrwt>
<rscale>  0 0.14184490E+03</rscale>
<asrwt>0</asrwt>
<pdfrwt beam="2">  1        5 0.26065708E-01 0.14184542E+03</pdfrwt>
<pdfrwt beam="1">  1       -5 0.24292845E-01 0.14184542E+03</pdfrwt>
<totfact> 0.16533381E+02</totfact>
</mgrwt>
</event>
<event>
 8    1  0.3588496E-007  0.1339319E+03  0.7546771E-02  0.1221737E+00
         -5   -1    0    0    0  501 -0.00000000000E+00  0.00000000000E+00  0.95964442029E+02  0.96079467806E+02  0.47000000000E+01 0. -1.
          5   -1    0    0  501    0  0.00000000000E+00 -0.00000000000E+00 -0.18666026767E+03  0.18671942996E+03  0.47000000000E+01 0. -1.
         25    2    1    2    0    0 -0.33996172550E+02  0.34019416090E+02 -0.45081913710E+02  0.14131254029E+03  0.12499517862E+03 0.  0.
         25    2    1    2    0    0  0.33996172550E+02 -0.34019416090E+02 -0.45613911927E+02  0.14148635748E+03  0.12499879989E+03 0.  0.
          5    1    4    4  502    0 -0.28982157639E+02  0.28091940258E+02  0.24479153488E+01  0.40708781098E+02  0.47000000000E+01 0.  1.
         -5    1    4    4    0  502  0.62978330189E+02 -0.62111356348E+02 -0.48061827276E+02  0.10077757638E+03  0.47000000000E+01 0.  1.
          5    1    3    3  503    0  0.19914207219E+02 -0.10916495180E+02 -0.64333570988E+02  0.68385991784E+02  0.47000000000E+01 0. -1.
         -5    1    3    3    0  503 -0.53910379769E+02  0.44935911270E+02  0.19251657278E+02  0.72926548502E+02  0.47000000000E+01 0. -1.
<mgrwt>
<rscale>  0 0.13393108E+03</rscale>
<asrwt>0</asrwt>
<pdfrwt beam="2">  1        5 0.28730363E-01 0.13393192E+03</pdfrwt>
<pdfrwt beam="1">  1       -5 0.14777159E-01 0.13393192E+03</pdfrwt>
<totfact> 0.33784001E+02</totfact>
</mgrwt>
</event>
<event>
 8    1  0.3588496E-007  0.1298183E+03  0.7546771E-02  0.1227726E+00
         -5   -1    0    0    0  501 -0.00000000000E+00  0.00000000000E+00  0.63226440750E+03  0.63228187622E+03  0.47000000000E+01 0.  1.
          5   -1    0    0  501    0  0.00000000000E+00 -0.00000000000E+00 -0.27579872678E+02  0.27977479818E+02  0.47000000000E+01 0.  1.
         25    2    1    2    0    0  0.32104757009E+02  0.14015413655E+02  0.36926251183E+03  0.39141680918E+03  0.12500067448E+03 0.  0.
         25    2    1    2    0    0 -0.32104757009E+02 -0.14015413655E+02  0.23542202299E+03  0.26884254686E+03  0.12500255537E+03 0.  0.
          5    1    3    3  502    0  0.12544435210E+02  0.51027195680E+02  0.32880282332E+03  0.33300829446E+03  0.47000000000E+01 0.  1.
         -5    1    3    3    0  502  0.19560321799E+02 -0.37011782025E+02  0.40459688509E+02  0.58408514720E+02  0.47000000000E+01 0.  1.
          5    1    4    4  503    0  0.27523976894E+02  0.21431659203E+02  0.16920580962E+03  0.17282818442E+03  0.47000000000E+01 0. -1.
         -5    1    4    4    0  503 -0.59628733903E+02 -0.35447072859E+02  0.66216213374E+02  0.96014362440E+02  0.47000000000E+01 0. -1.
<mgrwt>
<rscale>  0 0.12981783E+03</rscale>
<asrwt>0</asrwt>
<pdfrwt beam="2">  1        5 0.42749859E-02 0.12981828E+03</pdfrwt>
<pdfrwt beam="1">  1       -5 0.97303383E-01 0.12981828E+03</pdfrwt>
<totfact> 0.20355139E+02</totfact>
</mgrwt>
</event>
<event>
 8    1  0.3588496E-007  0.1339551E+03  0.7546771E-02  0.1221703E+00
          5   -1    0    0  501    0  0.00000000000E+00  0.00000000000E+00  0.10024076135E+03  0.10035088558E+03  0.47000000000E+01 0. -1.
         -5   -1    0    0    0  501 -0.00000000000E+00 -0.00000000000E+00 -0.18063079092E+03  0.18069192740E+03  0.47000000000E+01 0. -1.
         25    2    1    2    0    0 -0.15865925159E+02  0.45452257609E+02 -0.54466429351E+02  0.14460486843E+03  0.12500536287E+03 0.  0.
         25    2    1    2    0    0  0.15865925159E+02 -0.45452257609E+02 -0.25923600218E+02  0.13643794455E+03  0.12500257742E+03 0.  0.
          5    1    4    4  502    0  0.53097563498E+01 -0.16520776047E+02  0.50662535115E+02  0.53757901912E+02  0.47000000000E+01 0.  1.
         -5    1    4    4    0  502  0.10556168809E+02 -0.28931481562E+02 -0.76586135332E+02  0.82680042637E+02  0.47000000000E+01 0.  1.
          5    1    3    3  503    0 -0.47467502912E+02  0.64576392829E+02 -0.67771655558E+02  0.10506360759E+03  0.47000000000E+01 0.  1.
         -5    1    3    3    0  503  0.31601577753E+02 -0.19124135220E+02  0.13305226206E+02  0.39541260840E+02  0.47000000000E+01 0.  1.
<mgrwt>
<rscale>  0 0.13395448E+03</rscale>
<asrwt>0</asrwt>
<pdfrwt beam="1">  1        5 0.15434829E-01 0.13395513E+03</pdfrwt>
<pdfrwt beam="2">  1       -5 0.27802526E-01 0.13395513E+03</pdfrwt>
<totfact> 0.33284282E+02</totfact>
</mgrwt>
</event>
<event>
 8    1  0.3588496E-007  0.2867443E+03  0.7546771E-02  0.1092062E+00
          5   -1    0    0  501    0  0.00000000000E+00  0.00000000000E+00  0.41722101307E+03  0.41724748501E+03  0.47000000000E+01 0. -1.
         -5   -1    0    0    0  501 -0.00000000000E+00 -0.00000000000E+00 -0.23097233464E+03  0.23102014927E+03  0.47000000000E+01 0. -1.
         25    2    1    2    0    0 -0.36640435475E+01  0.25803785231E+03 -0.31148423998E+02  0.28843113240E+03  0.12500134151E+03 0.  0.
         25    2    1    2    0    0  0.36640435475E+01 -0.25803785231E+03  0.21739710243E+03  0.35983650188E+03  0.12499539793E+03 0.  0.
          5    1    3    3  502    0 -0.50888675203E+02  0.19420140140E+03  0.54135605913E+01  0.20088613244E+03  0.47000000000E+01 0.  1.
         -5    1    3    3    0  502  0.47224631656E+02  0.63836450908E+02 -0.36561984589E+02  0.87544999952E+02  0.47000000000E+01 0.  1.
          5    1    4    4  503    0 -0.51214239969E+02 -0.19480925167E+03  0.16928683414E+03  0.26316091109E+03  0.47000000000E+01 0.  1.
         -5    1    4    4    0  503  0.54878283517E+02 -0.63228600636E+02  0.48110268283E+02  0.96675590789E+02  0.47000000000E+01 0.  1.
<mgrwt>
<rscale>  0 0.28674365E+03</rscale>
<asrwt>0</asrwt>
<pdfrwt beam="1">  1        5 0.64193562E-01 0.28674430E+03</pdfrwt>
<pdfrwt beam="2">  1       -5 0.35539920E-01 0.28674430E+03</pdfrwt>
<totfact> 0.14520230E+01</totfact>
</mgrwt>
</event>
<event>
 8    1  0.3588496E-007  0.1407824E+03  0.7546771E-02  0.1212280E+00
         -5   -1    0    0    0  501 -0.00000000000E+00  0.00000000000E+00  0.17970481230E+03  0.17976626370E+03  0.47000000000E+01 0.  1.
          5   -1    0    0  501    0  0.00000000000E+00 -0.00000000000E+00 -0.11149180230E+03  0.11159082391E+03  0.47000000000E+01 0.  1.
         25    2    1    2    0    0 -0.15293093874E+02  0.62942131401E+02  0.50021714697E+02  0.14940422182E+03  0.12499543564E+03 0.  0.
         25    2    1    2    0    0  0.15293093874E+02 -0.62942131401E+02  0.18191295306E+02  0.14195286578E+03  0.12499640896E+03 0.  0.
          5    1    4    4  502    0 -0.15466555103E+02 -0.89739153202E+02 -0.10604282492E+02  0.91797988820E+02  0.47000000000E+01 0. -1.
         -5    1    4    4    0  502  0.30759648977E+02  0.26797021801E+02  0.28795577797E+02  0.50154876964E+02  0.47000000000E+01 0. -1.
          5    1    3    3  503    0 -0.44449999054E+02  0.54929936214E+02 -0.19493356750E+02  0.73451897632E+02  0.47000000000E+01 0. -1.
         -5    1    3    3    0  503  0.29156905180E+02  0.80121951873E+01  0.69515071447E+02  0.75952324189E+02  0.47000000000E+01 0. -1.
<mgrwt>
<rscale>  0 0.14078221E+03</rscale>
<asrwt>0</asrwt>
<pdfrwt beam="2">  1        5 0.17164929E-01 0.14078243E+03</pdfrwt>
<pdfrwt beam="1">  1       -5 0.27659238E-01 0.14078243E+03</pdfrwt>
<totfact> 0.28170463E+02</totfact>
</mgrwt>
</event>
<event>
 8    1  0.3588496E-007  0.1288736E+03  0.7546771E-02  0.1229140E+00
          5   -1    0    0  501    0  0.00000000000E+00  0.00000000000E+00  0.23238028730E+03  0.23242781229E+03  0.47000000000E+01 0.  1.
         -5   -1    0    0    0  501 -0.00000000000E+00 -0.00000000000E+00 -0.91178853007E+02  0.91299908190E+02  0.47000000000E+01 0.  1.
         25    2    1    2    0    0 -0.21835513399E+02 -0.22451517752E+02 -0.48357101651E+01  0.12896424804E+03  0.12501013113E+03 0.  0.
         25    2    1    2    0    0  0.21835513399E+02  0.22451517752E+02  0.14603714446E+03  0.19476347243E+03  0.12500040936E+03 0.  0.
          5    1    3    3  502    0 -0.29023878166E+02  0.43988335878E+02  0.21323934542E+02  0.57045239779E+02  0.47000000000E+01 0. -1.
         -5    1    3    3    0  502  0.71883647664E+01 -0.66439853630E+02 -0.26159644707E+02  0.71919008263E+02  0.47000000000E+01 0. -1.
          5    1    4    4  503    0 -0.17585407889E+02  0.30747541248E+02 -0.70279802379E+01  0.36416210259E+02  0.47000000000E+01 0. -1.
         -5    1    4    4    0  503  0.39420921289E+02 -0.82960234955E+01  0.15306512469E+03  0.15834726218E+03  0.47000000000E+01 0. -1.
<mgrwt>
<rscale>  0 0.12887120E+03</rscale>
<asrwt>0</asrwt>
<pdfrwt beam="1">  1        5 0.35763781E-01 0.12887356E+03</pdfrwt>
<pdfrwt beam="2">  1       -5 0.14040484E-01 0.12887356E+03</pdfrwt>
<totfact> 0.23690211E+02</totfact>
</mgrwt>
</event>
<event>
 8    1  0.3588496E-007  0.1527952E+03  0.7546771E-02  0.1197082E+00
          5   -1    0    0  501    0  0.00000000000E+00  0.00000000000E+00  0.81145527070E+02  0.81281526582E+02  0.47000000000E+01 0.  1.
         -5   -1    0    0    0  501 -0.00000000000E+00 -0.00000000000E+00 -0.30119764887E+03  0.30123431691E+03  0.47000000000E+01 0.  1.
         25    2    1    2    0    0  0.82761620069E+02 -0.29483406447E+02 -0.15109175912E+03  0.21487961105E+03  0.12500308220E+03 0.  0.
         25    2    1    2    0    0 -0.82761620069E+02  0.29483406447E+02 -0.68960362684E+02  0.16763623244E+03  0.12501047074E+03 0.  0.
          5    1    4    4  502    0 -0.99460832494E+02  0.61024262265E+02 -0.53680705619E+02  0.12853064203E+03  0.47000000000E+01 0.  1.
         -5    1    4    4    0  502  0.16699212426E+02 -0.31540855817E+02 -0.15279657064E+02  0.39105590410E+02  0.47000000000E+01 0.  1.
          5    1    3    3  503    0  0.25516240080E+02 -0.73030610031E+02 -0.56287425059E+02  0.95785764752E+02  0.47000000000E+01 0. -1.
         -5    1    3    3    0  503  0.57245379988E+02  0.43547203584E+02 -0.94804334056E+02  0.11909384630E+03  0.47000000000E+01 0. -1.
<mgrwt>
<rscale>  0 0.15279369E+03</rscale>
<asrwt>0</asrwt>
<pdfrwt beam="1">  1        5 0.12497210E-01 0.15279521E+03</pdfrwt>
<pdfrwt beam="2">  1       -5 0.46351381E-01 0.15279521E+03</pdfrwt>
<totfact> 0.18151135E+02</totfact>
</mgrwt>
</event>
<event>
 8    1  0.3588496E-007  0.1274866E+03  0.7546771E-02  0.1231236E+00
         -5   -1    0    0    0  501 -0.00000000000E+00  0.00000000000E+00  0.13441822677E+03  0.13450037059E+03  0.47000000000E+01 0. -1.
          5   -1    0    0  501    0  0.00000000000E+00 -0.00000000000E+00 -0.18446565505E+03  0.18452552098E+03  0.47000000000E+01 0. -1.
         25    2    1    2    0    0 -0.11820058703E+02 -0.22094742916E+02  0.68690495920E+02  0.14480902533E+03  0.12499351237E+03 0.  0.
         25    2    1    2    0    0  0.11820058703E+02  0.22094742916E+02 -0.11873792420E+03  0.17421686624E+03  0.12499972155E+03 0.  0.
          5    1    3    3  502    0 -0.11752242260E+02  0.21491891415E+02  0.91886272236E+02  0.95211310358E+02  0.47000000000E+01 0. -1.
         -5    1    3    3    0  502 -0.67816443002E-01 -0.43586634331E+02 -0.23195776316E+02  0.49597714970E+02  0.47000000000E+01 0. -1.
          5    1    4    4  503    0  0.15798761646E+02 -0.17445189140E+02 -0.13035666717E+03  0.13254767508E+03  0.47000000000E+01 0. -1.
         -5    1    4    4    0  503 -0.39787029431E+01  0.39539932056E+02  0.11618742964E+02  0.41669191163E+02  0.47000000000E+01 0. -1.
<mgrwt>
<rscale>  0 0.12748503E+03</rscale>
<asrwt>0</asrwt>
<pdfrwt beam="2">  1        5 0.28390255E-01 0.12748656E+03</pdfrwt>
<pdfrwt beam="1">  1       -5 0.20690651E-01 0.12748656E+03</pdfrwt>
<totfact> 0.18302562E+02</totfact>
</mgrwt>
</event>
<event>
 8    1  0.3588496E-007  0.1273474E+03  0.7546771E-02  0.1231447E+00
         -5   -1    0    0    0  501 -0.00000000000E+00  0.00000000000E+00  0.15925613284E+03  0.15932547143E+03  0.47000000000E+01 0. -1.
          5   -1    0    0  501    0  0.00000000000E+00 -0.00000000000E+00 -0.11336990171E+03  0.11346728434E+03  0.47000000000E+01 0. -1.
         25    2    1    2    0    0 -0.12211817605E+02 -0.21011821179E+02  0.66700592620E+02  0.14375788879E+03  0.12500694546E+03 0.  0.
         25    2    1    2    0    0  0.12211817605E+02  0.21011821179E+02 -0.20814361496E+02  0.12903486698E+03  0.12500453645E+03 0.  0.
          5    1    4    4  502    0  0.48108538950E+02 -0.32763123685E+02 -0.26164498588E+02  0.63988473805E+02  0.47000000000E+01 0.  1.
         -5    1    4    4    0  502 -0.35896721345E+02  0.53774944864E+02  0.53501370926E+01  0.65046393177E+02  0.47000000000E+01 0.  1.
          5    1    3    3  503    0  0.49112800795E+02 -0.37622559031E+02  0.21583796218E+02  0.65692270543E+02  0.47000000000E+01 0.  1.
         -5    1    3    3    0  503 -0.61324618400E+02  0.16610737852E+02  0.45116796402E+02  0.78065618242E+02  0.47000000000E+01 0.  1.
<mgrwt>
<rscale>  0 0.12734681E+03</rscale>
<asrwt>0</asrwt>
<pdfrwt beam="2">  1        5 0.17454348E-01 0.12734740E+03</pdfrwt>
<pdfrwt beam="1">  1       -5 0.24513768E-01 0.12734740E+03</pdfrwt>
<totfact> 0.33270383E+02</totfact>
</mgrwt>
</event>
<event>
 8    1  0.3588496E-007  0.1281542E+03  0.7546771E-02  0.1230222E+00
         -5   -1    0    0    0  501 -0.00000000000E+00  0.00000000000E+00  0.12581041497E+03  0.12589817518E+03  0.47000000000E+01 0. -1.
          5   -1    0    0  501    0  0.00000000000E+00 -0.00000000000E+00 -0.14004422121E+03  0.14012306696E+03  0.47000000000E+01 0. -1.
         25    2    1    2    0    0  0.88882513142E+01 -0.26791202507E+02  0.27833755126E+02  0.13113910456E+03  0.12500390905E+03 0.  0.
         25    2    1    2    0    0 -0.88882513142E+01  0.26791202507E+02 -0.42067561373E+02  0.13488213759E+03  0.12500696691E+03 0.  0.
          5    1    4    4  502    0  0.28001359798E+02  0.53592624761E+02 -0.60323691638E+02  0.85541120826E+02  0.47000000000E+01 0.  1.
         -5    1    4    4    0  502 -0.36889611112E+02 -0.26801422254E+02  0.18256130264E+02  0.49341016762E+02  0.47000000000E+01 0.  1.
          5    1    3    3  503    0  0.23499110779E+02 -0.22561803851E+02 -0.45466642592E+02  0.56129749589E+02  0.47000000000E+01 0. -1.
         -5    1    3    3    0  503 -0.14610859465E+02 -0.42293986565E+01  0.73300397717E+02  0.75009354969E+02  0.47000000000E+01 0. -1.
<mgrwt>
<rscale>  0 0.12815350E+03</rscale>
<asrwt>0</asrwt>
<pdfrwt beam="2">  1        5 0.21558081E-01 0.12815425E+03</pdfrwt>
<pdfrwt beam="1">  1       -5 0.19368264E-01 0.12815425E+03</pdfrwt>
<totfact> 0.35102003E+02</totfact>
</mgrwt>
</event>
<event>
 8    1  0.3588496E-007  0.1397083E+03  0.7546771E-02  0.1213728E+00
         -5   -1    0    0    0  501 -0.00000000000E+00  0.00000000000E+00  0.36757257459E+02  0.37056524067E+02  0.47000000000E+01 0.  1.
          5   -1    0    0  501    0  0.00000000000E+00 -0.00000000000E+00 -0.53924472116E+03  0.53926520313E+03  0.47000000000E+01 0.  1.
         25    2    1    2    0    0  0.43643683171E+02  0.44585689395E+02 -0.21054696834E+03  0.25268246049E+03  0.12500298069E+03 0.  0.
         25    2    1    2    0    0 -0.43643683171E+02 -0.44585689395E+02 -0.29194049536E+03  0.32363926670E+03  0.12498186804E+03 0.  0.
          5    1    4    4  502    0 -0.18100218487E+02 -0.87143584278E+02 -0.20237885575E+03  0.22113550923E+03  0.47000000000E+01 0. -1.
         -5    1    4    4    0  502 -0.25543464684E+02  0.42557894883E+02 -0.89561639617E+02  0.10250375747E+03  0.47000000000E+01 0. -1.
          5    1    3    3  503    0  0.49182360508E+02  0.17676993161E+02 -0.21767751553E+03  0.22391286573E+03  0.47000000000E+01 0. -1.
         -5    1    3    3    0  503 -0.55386773367E+01  0.26908696234E+02  0.71305471847E+01  0.28769594763E+02  0.47000000000E+01 0. -1.
<mgrwt>
<rscale>  0 0.13970354E+03</rscale>
<asrwt>0</asrwt>
<pdfrwt beam="2">  1        5 0.82985317E-01 0.13970827E+03</pdfrwt>
<pdfrwt beam="1">  1       -5 0.56795591E-02 0.13970827E+03</pdfrwt>
<totfact> 0.18991056E+02</totfact>
</mgrwt>
</event>
<event>
 8    1  0.3588496E-007  0.1496483E+03  0.7546771E-02  0.1200910E+00
         -5   -1    0    0    0  501 -0.00000000000E+00  0.00000000000E+00  0.25935160343E+03  0.25939418691E+03  0.47000000000E+01 0.  1.
          5   -1    0    0  501    0  0.00000000000E+00 -0.00000000000E+00 -0.89896662519E+02  0.90019441967E+02  0.47000000000E+01 0.  1.
         25    2    1    2    0    0 -0.76408283762E+02 -0.30466018402E+02  0.11999044569E+03  0.19180219588E+03  0.12499588467E+03 0.  0.
         25    2    1    2    0    0  0.76408283762E+02  0.30466018402E+02  0.49464495221E+02  0.15761143299E+03  0.12501289300E+03 0.  0.
          5    1    4    4  502    0 -0.70518969132E+01 -0.87597152718E+01  0.63104892918E+02  0.64271139494E+02  0.47000000000E+01 0.  1.
         -5    1    4    4    0  502  0.83460180675E+02  0.39225733674E+02 -0.13640397697E+02  0.93340293496E+02  0.47000000000E+01 0.  1.
          5    1    3    3  503    0 -0.44222589342E+02  0.35597694061E+02  0.76455914486E+01  0.57475023264E+02  0.47000000000E+01 0.  1.
         -5    1    3    3    0  503 -0.32185694420E+02 -0.66063712464E+02  0.11234485424E+03  0.13432717262E+03  0.47000000000E+01 0.  1.
<mgrwt>
<rscale>  0 0.14964479E+03</rscale>
<asrwt>0</asrwt>
<pdfrwt beam="2">  1        5 0.13842976E-01 0.14964835E+03</pdfrwt>
<pdfrwt beam="1">  1       -5 0.39912967E-01 0.14964835E+03</pdfrwt>
<totfact> 0.20464400E+02</totfact>
</mgrwt>
</event>
<event>
 8    1  0.3588496E-007  0.1286037E+03  0.7546771E-02  0.1229545E+00
          5   -1    0    0  501    0  0.00000000000E+00  0.00000000000E+00  0.46361764801E+02  0.46599390935E+02  0.47000000000E+01 0. -1.
         -5   -1    0    0    0  501 -0.00000000000E+00 -0.00000000000E+00 -0.57526720589E+03  0.57528640534E+03  0.47000000000E+01 0. -1.
         25    2    1    2    0    0 -0.30228087989E+02 -0.17468123578E+00 -0.45657054279E+03  0.47433494011E+03  0.12499282799E+03 0.  0.
         25    2    1    2    0    0  0.30228087989E+02  0.17468123578E+00 -0.72334898293E+02  0.14755085616E+03  0.12500059930E+03 0.  0.
          5    1    4    4  502    0  0.96471041597E+00  0.22740892353E+02 -0.99030712202E+02  0.10172143732E+03  0.47000000000E+01 0.  1.
         -5    1    4    4    0  502  0.29263377573E+02 -0.22566211117E+02  0.26695813909E+02  0.45829418842E+02  0.47000000000E+01 0.  1.
          5    1    3    3  503    0 -0.31902921837E+02 -0.15976071581E+01 -0.46408310140E+03  0.46520486216E+03  0.47000000000E+01 0. -1.
         -5    1    3    3    0  503  0.16748338478E+01  0.14229259223E+01  0.75125586081E+01  0.91300779536E+01  0.47000000000E+01 0. -1.
<mgrwt>
<rscale>  0 0.12860183E+03</rscale>
<asrwt>0</asrwt>
<pdfrwt beam="1">  1        5 0.71523354E-02 0.12860372E+03</pdfrwt>
<pdfrwt beam="2">  1       -5 0.88522398E-01 0.12860372E+03</pdfrwt>
<totfact> 0.10761905E+02</totfact>
</mgrwt>
</event>
<event>
 8    1  0.3588496E-007  0.1281737E+03  0.7546771E-02  0.1230216E+00
         -5   -1    0    0    0  501 -0.00000000000E+00  0.00000000000E+00  0.67295176641E+02  0.67459104642E+02  0.47000000000E+01 0. -1.
          5   -1    0    0  501    0  0.00000000000E+00 -0.00000000000E+00 -0.24370217227E+03  0.24374748977E+03  0.47000000000E+01 0. -1.
         25    2    1    2    0    0 -0.23430038241E+02  0.15945229837E+02 -0.83894327955E+02  0.15313352804E+03  0.12493359076E+03 0.  0.
         25    2    1    2    0    0  0.23430038241E+02 -0.15945229837E+02 -0.92512667672E+02  0.15807306637E+03  0.12500113433E+03 0.  0.
          5    1    3    3  502    0 -0.72855437867E+02  0.75041360375E+00 -0.65392516047E+02  0.98014025028E+02  0.47000000000E+01 0. -1.
         -5    1    3    3    0  502  0.49425399625E+02  0.15194816233E+02 -0.18501811908E+02  0.55119503013E+02  0.47000000000E+01 0. -1.
          5    1    4    4  503    0  0.51239723484E+02 -0.14979671432E+02  0.75380714570E+01  0.54118502753E+02  0.47000000000E+01 0.  1.
         -5    1    4    4    0  503 -0.27809685243E+02 -0.96555840529E+00 -0.10005073913E+03  0.10395456362E+03  0.47000000000E+01 0.  1.
<mgrwt>
<rscale>  0 0.12815724E+03</rscale>
<asrwt>0</asrwt>
<pdfrwt beam="2">  1        5 0.37508737E-01 0.12817371E+03</pdfrwt>
<pdfrwt beam="1">  1       -5 0.10369200E-01 0.12817371E+03</pdfrwt>
<totfact> 0.36746047E+02</totfact>
</mgrwt>
</event>
<event>
 8    1  0.3588496E-007  0.1297837E+03  0.7546771E-02  0.1227780E+00
          5   -1    0    0  501    0  0.00000000000E+00  0.00000000000E+00  0.11582908176E+03  0.11592439855E+03  0.47000000000E+01 0.  1.
         -5   -1    0    0    0  501 -0.00000000000E+00 -0.00000000000E+00 -0.14870564988E+03  0.14877990559E+03  0.47000000000E+01 0.  1.
         25    2    1    2    0    0 -0.34620691806E+02  0.44462270514E+01  0.38208127613E+01  0.12983992614E+03  0.12500178628E+03 0.  0.
         25    2    1    2    0    0  0.34620691806E+02 -0.44462270514E+01 -0.36697380889E+02  0.13486437801E+03  0.12499336564E+03 0.  0.
          5    1    4    4  502    0  0.43668194995E+02 -0.23532678616E+02 -0.75485845819E+02  0.90448334070E+02  0.47000000000E+01 0.  1.
         -5    1    4    4    0  502 -0.90475031891E+01  0.19086451565E+02  0.38788464930E+02  0.44416043936E+02  0.47000000000E+01 0.  1.
          5    1    3    3  503    0 -0.70914829763E+02 -0.11758947632E+02 -0.29419254715E+02  0.77812392828E+02  0.47000000000E+01 0. -1.
         -5    1    3    3    0  503  0.36294137956E+02  0.16205174683E+02  0.33240067476E+02  0.52027533310E+02  0.47000000000E+01 0. -1.
<mgrwt>
<rscale>  0 0.12978167E+03</rscale>
<asrwt>0</asrwt>
<pdfrwt beam="1">  1        5 0.17832903E-01 0.12978370E+03</pdfrwt>
<pdfrwt beam="2">  1       -5 0.22890836E-01 0.12978370E+03</pdfrwt>
<totfact> 0.36686954E+02</totfact>
</mgrwt>
</event>
<event>
 8    1  0.3588496E-007  0.1271768E+03  0.7546771E-02  0.1231730E+00
          5   -1    0    0  501    0  0.00000000000E+00  0.00000000000E+00  0.38148765828E+03  0.38151660963E+03  0.47000000000E+01 0.  1.
         -5   -1    0    0    0  501 -0.00000000000E+00 -0.00000000000E+00 -0.43403447739E+02  0.43657178970E+02  0.47000000000E+01 0.  1.
         25    2    1    2    0    0  0.50904370929E+01  0.22846003165E+02  0.13393837350E+03  0.18465464111E+03  0.12493997030E+03 0.  0.
         25    2    1    2    0    0 -0.50904370929E+01 -0.22846003165E+02  0.20414583704E+03  0.24051914749E+03  0.12500434038E+03 0.  0.
          5    1    4    4  502    0 -0.17840057780E+02 -0.32350730065E+02  0.21660144727E+03  0.21977969505E+03  0.47000000000E+01 0. -1.
         -5    1    4    4    0  502  0.12749620687E+02  0.95047269002E+01 -0.12455610228E+02  0.20739452434E+02  0.47000000000E+01 0. -1.
          5    1    3    3  503    0  0.58370956943E+02 -0.57928884151E+01  0.34630078661E+02  0.68279268587E+02  0.47000000000E+01 0. -1.
         -5    1    3    3    0  503 -0.53280519850E+02  0.28638891580E+02  0.99308294837E+02  0.11637537252E+03  0.47000000000E+01 0. -1.
<mgrwt>
<rscale>  0 0.12716098E+03</rscale>
<asrwt>0</asrwt>
<pdfrwt beam="1">  1        5 0.58712156E-01 0.12717680E+03</pdfrwt>
<pdfrwt beam="2">  1       -5 0.66991980E-02 0.12717680E+03</pdfrwt>
<totfact> 0.30345028E+02</totfact>
</mgrwt>
</event>
<event>
 8    1  0.3588496E-007  0.1383955E+03  0.7546771E-02  0.1215505E+00
          5   -1    0    0  501    0  0.00000000000E+00  0.00000000000E+00  0.64938269698E+02  0.65108132144E+02  0.47000000000E+01 0.  1.
         -5   -1    0    0    0  501 -0.00000000000E+00 -0.00000000000E+00 -0.30099733007E+03  0.30103402251E+03  0.47000000000E+01 0.  1.
         25    2    1    2    0    0 -0.31774258357E+02  0.50186260200E+02 -0.14518584792E+03  0.20057871342E+03  0.12499850253E+03 0.  0.
         25    2    1    2    0    0  0.31774258357E+02 -0.50186260200E+02 -0.90873212454E+02  0.16556344124E+03  0.12500019250E+03 0.  0.
          5    1    4    4  502    0  0.45895796398E+02 -0.56956046833E+02 -0.11502729721E+03  0.13639569092E+03  0.47000000000E+01 0. -1.
         -5    1    4    4    0  502 -0.14121538041E+02  0.67697866330E+01  0.24154084761E+02  0.29167750313E+02  0.47000000000E+01 0. -1.
          5    1    3    3  503    0  0.31326247680E+02  0.64080649341E+02 -0.58551833107E+02  0.92401680579E+02  0.47000000000E+01 0.  1.
         -5    1    3    3    0  503 -0.63100506037E+02 -0.13894389140E+02 -0.86634014811E+02  0.10817703284E+03  0.47000000000E+01 0.  1.
<mgrwt>
<rscale>  0 0.13839511E+03</rscale>
<asrwt>0</asrwt>
<pdfrwt beam="1">  1        5 0.10006392E-01 0.13839549E+03</pdfrwt>
<pdfrwt beam="2">  1       -5 0.46323170E-01 0.13839549E+03</pdfrwt>
<totfact> 0.26025646E+02</totfact>
</mgrwt>
</event>
<event>
 8    1  0.3588496E-007  0.1250618E+03  0.7546771E-02  0.1234975E+00
          5   -1    0    0  501    0  0.00000000000E+00  0.00000000000E+00  0.12475916554E+04  0.12476005084E+04  0.47000000000E+01 0.  1.
         -5   -1    0    0    0  501 -0.00000000000E+00 -0.00000000000E+00 -0.13007857714E+02  0.13830920516E+02  0.47000000000E+01 0.  1.
         25    2    1    2    0    0  0.32340371327E+01 -0.19778181343E+01  0.45469680285E+03  0.47158069558E+03  0.12499919662E+03 0.  0.
         25    2    1    2    0    0 -0.32340371327E+01  0.19778181343E+01  0.77988699479E+03  0.78985073332E+03  0.12500434203E+03 0.  0.
          5    1    4    4  502    0  0.54567778935E+02 -0.72449337063E+00  0.21043010248E+03  0.21744214269E+03  0.47000000000E+01 0. -1.
         -5    1    4    4    0  502 -0.57801816068E+02  0.27023115049E+01  0.56945689231E+03  0.57240859063E+03  0.47000000000E+01 0. -1.
          5    1    3    3  503    0 -0.39558401043E+02 -0.33586023364E+02  0.35191233394E+03  0.35574888452E+03  0.47000000000E+01 0.  1.
         -5    1    3    3    0  503  0.42792438176E+02  0.31608205229E+02  0.10278446892E+03  0.11583181106E+03  0.47000000000E+01 0.  1.
<mgrwt>
<rscale>  0 0.12506052E+03</rscale>
<asrwt>0</asrwt>
<pdfrwt beam="1">  1        5 0.19200122E+00 0.12506181E+03</pdfrwt>
<pdfrwt beam="2">  1       -5 0.20652019E-02 0.12506181E+03</pdfrwt>
<totfact> 0.10610615E+02</totfact>
</mgrwt>
</event>
<event>
 8    1  0.3588496E-007  0.1561177E+03  0.7546771E-02  0.1193163E+00
         -5   -1    0    0    0  501 -0.00000000000E+00  0.00000000000E+00  0.10145233858E+03  0.10156114909E+03  0.47000000000E+01 0. -1.
          5   -1    0    0  501    0  0.00000000000E+00 -0.00000000000E+00 -0.24041212052E+03  0.24045805808E+03  0.47000000000E+01 0. -1.
         25    2    1    2    0    0  0.46164593600E+01 -0.93343983244E+02 -0.61690333927E+02  0.16786433689E+03  0.12505329822E+03 0.  0.
         25    2    1    2    0    0 -0.46164593600E+01  0.93343983244E+02 -0.77269448012E+02  0.17415487027E+03  0.12499976135E+03 0.  0.
          5    1    4    4  502    0 -0.36609328443E+02  0.84013609633E+02 -0.20920011637E+01  0.91787776972E+02  0.47000000000E+01 0.  1.
         -5    1    4    4    0  502  0.31992869083E+02  0.93303736104E+01 -0.75177446848E+02  0.82367093298E+02  0.47000000000E+01 0.  1.
          5    1    3    3  503    0 -0.21927245575E+02 -0.74492621659E+01  0.30782826747E+02  0.38806803886E+02  0.47000000000E+01 0. -1.
         -5    1    3    3    0  503  0.26543704935E+02 -0.85894721078E+02 -0.92473160673E+02  0.12905753301E+03  0.47000000000E+01 0. -1.
<mgrwt>
<rscale>  0 0.15610699E+03</rscale>
<asrwt>0</asrwt>
<pdfrwt beam="2">  1        5 0.36998384E-01 0.15611771E+03</pdfrwt>
<pdfrwt beam="1">  1       -5 0.15619956E-01 0.15611771E+03</pdfrwt>
<totfact> 0.19460124E+02</totfact>
</mgrwt>
</event>
<event>
 8    1  0.3588496E-007  0.1662785E+03  0.7546771E-02  0.1181792E+00
          5   -1    0    0  501    0  0.00000000000E+00  0.00000000000E+00  0.35959046237E+03  0.35962117656E+03  0.47000000000E+01 0. -1.
         -5   -1    0    0    0  501 -0.00000000000E+00 -0.00000000000E+00 -0.76960878374E+02  0.77104259286E+02  0.47000000000E+01 0. -1.
         25    2    1    2    0    0 -0.42284819072E+02  0.10111950189E+03  0.15214981179E+03  0.22538432322E+03  0.12504146648E+03 0.  0.
         25    2    1    2    0    0  0.42284819072E+02 -0.10111950189E+03  0.13047977221E+03  0.21134111262E+03  0.12500774113E+03 0.  0.
          5    1    4    4  502    0  0.68295588168E+02 -0.75945942254E+02  0.14024188566E+03  0.17355676305E+03  0.47000000000E+01 0.  1.
         -5    1    4    4    0  502 -0.26010769096E+02 -0.25173559634E+02 -0.97621134498E+01  0.37784349572E+02  0.47000000000E+01 0.  1.
          5    1    3    3  503    0 -0.84771226055E+02  0.82670758666E+02  0.12103246395E+03  0.16938583894E+03  0.47000000000E+01 0.  1.
         -5    1    3    3    0  503  0.42486406982E+02  0.18448743222E+02  0.31117347842E+02  0.55998484279E+02  0.47000000000E+01 0.  1.
<mgrwt>
<rscale>  0 0.16627212E+03</rscale>
<asrwt>0</asrwt>
<pdfrwt beam="1">  1        5 0.55335002E-01 0.16627847E+03</pdfrwt>
<pdfrwt beam="2">  1       -5 0.11853527E-01 0.16627847E+03</pdfrwt>
<totfact> 0.14040529E+02</totfact>
</mgrwt>
</event>
<event>
 8    1  0.3588496E-007  0.1391483E+03  0.7546771E-02  0.1214502E+00
         -5   -1    0    0    0  501 -0.00000000000E+00  0.00000000000E+00  0.44859883579E+03  0.44862345622E+03  0.47000000000E+01 0.  1.
          5   -1    0    0  501    0  0.00000000000E+00 -0.00000000000E+00 -0.54016136712E+02  0.54220227086E+02  0.47000000000E+01 0.  1.
         25    2    1    2    0    0  0.57367613743E+02  0.20796002774E+02  0.31059550441E+03  0.34031341747E+03  0.12498055013E+03 0.  0.
         25    2    1    2    0    0 -0.57367613743E+02 -0.20796002774E+02  0.83987194671E+02  0.16253026584E+03  0.12505487439E+03 0.  0.
          5    1    3    3  502    0  0.37823197699E+02 -0.30532527027E+01  0.30647582620E+03  0.30885180699E+03  0.47000000000E+01 0. -1.
         -5    1    3    3    0  502  0.19544416044E+02  0.23849255477E+02  0.41196782106E+01  0.31461610478E+02  0.47000000000E+01 0. -1.
          5    1    4    4  503    0 -0.44319760146E+02 -0.61315622986E+02  0.91742131089E+02  0.11900653502E+03  0.47000000000E+01 0.  1.
         -5    1    4    4    0  503 -0.13047853598E+02  0.40519620212E+02 -0.77549364174E+01  0.43523730819E+02  0.47000000000E+01 0.  1.
<mgrwt>
<rscale>  0 0.13913156E+03</rscale>
<asrwt>0</asrwt>
<pdfrwt beam="2">  1        5 0.83277679E-02 0.13914826E+03</pdfrwt>
<pdfrwt beam="1">  1       -5 0.69032800E-01 0.13914826E+03</pdfrwt>
<totfact> 0.15097684E+02</totfact>
</mgrwt>
</event>
<event>
 8    1  0.3588496E-007  0.1268592E+03  0.7546771E-02  0.1232194E+00
          5   -1    0    0  501    0  0.00000000000E+00  0.00000000000E+00  0.94181689116E+02  0.94298889520E+02  0.47000000000E+01 0. -1.
         -5   -1    0    0    0  501 -0.00000000000E+00 -0.00000000000E+00 -0.21913464921E+03  0.21918504622E+03  0.47000000000E+01 0. -1.
         25    2    1    2    0    0  0.63999869342E+01  0.20685065707E+02 -0.13620466215E+03  0.18613157932E+03  0.12499769219E+03 0.  0.
         25    2    1    2    0    0 -0.63999869342E+01 -0.20685065707E+02  0.11251702051E+02  0.12735235642E+03  0.12499276024E+03 0.  0.
          5    1    3    3  502    0 -0.48369579974E+02 -0.18329999825E+02 -0.28977401175E+02  0.59475918987E+02  0.47000000000E+01 0.  1.
         -5    1    3    3    0  502  0.54769566908E+02  0.39015065532E+02 -0.10722726097E+03  0.12665566033E+03  0.47000000000E+01 0.  1.
          5    1    4    4  503    0 -0.77640494581E+01 -0.68118077129E+02 -0.18475505086E+02  0.71160292185E+02  0.47000000000E+01 0.  1.
         -5    1    4    4    0  503  0.13640625238E+01  0.47433011422E+02  0.29727207137E+02  0.56192064237E+02  0.47000000000E+01 0.  1.
<mgrwt>
<rscale>  0 0.12685798E+03</rscale>
<asrwt>0</asrwt>
<pdfrwt beam="1">  1        5 0.14502383E-01 0.12685919E+03</pdfrwt>
<pdfrwt beam="2">  1       -5 0.33725915E-01 0.12685919E+03</pdfrwt>
<totfact> 0.24989518E+02</totfact>
</mgrwt>
</event>
<event>
 8    1  0.3588496E-007  0.1765995E+03  0.7546771E-02  0.1171136E+00
          5   -1    0    0  501    0  0.00000000000E+00  0.00000000000E+00  0.11408943693E+03  0.11418620590E+03  0.47000000000E+01 0.  1.
         -5   -1    0    0    0  501 -0.00000000000E+00 -0.00000000000E+00 -0.48816658409E+03  0.48818920904E+03  0.47000000000E+01 0.  1.
         25    2    1    2    0    0  0.86228519094E+02  0.90151522242E+02 -0.38691345549E+03  0.42531006021E+03  0.12499588314E+03 0.  0.
         25    2    1    2    0    0 -0.86228519094E+02 -0.90151522242E+02  0.12836308336E+02  0.17706535474E+03  0.12499885827E+03 0.  0.
          5    1    3    3  502    0  0.62601239546E+02  0.82675333367E+02 -0.38637856368E+03  0.40008075486E+03  0.47000000000E+01 0. -1.
         -5    1    3    3    0  502  0.23627279548E+02  0.74761888753E+01 -0.53489181600E+00  0.25229305345E+02  0.47000000000E+01 0. -1.
          5    1    4    4  503    0 -0.23894405433E+01 -0.87068694499E+02  0.28141946952E+02  0.91655475374E+02  0.47000000000E+01 0. -1.
         -5    1    4    4    0  503 -0.83839078550E+02 -0.30828277434E+01 -0.15305638616E+02  0.85409879361E+02  0.47000000000E+01 0. -1.
<mgrwt>
<rscale>  0 0.17659893E+03</rscale>
<asrwt>0</asrwt>
<pdfrwt beam="1">  1        5 0.17561405E-01 0.17659946E+03</pdfrwt>
<pdfrwt beam="2">  1       -5 0.75111734E-01 0.17659946E+03</pdfrwt>
<totfact> 0.35480862E+01</totfact>
</mgrwt>
</event>
<event>
 8    1  0.3588496E-007  0.1427672E+03  0.7546771E-02  0.1209653E+00
         -5   -1    0    0    0  501 -0.00000000000E+00  0.00000000000E+00  0.10348756736E+02  0.11366035632E+02  0.47000000000E+01 0. -1.
          5   -1    0    0  501    0  0.00000000000E+00 -0.00000000000E+00 -0.21153162408E+04  0.21153214622E+04  0.47000000000E+01 0. -1.
         25    2    1    2    0    0 -0.56962620001E+02 -0.38889072036E+02 -0.69510941783E+03  0.70961931278E+03  0.12500146528E+03 0.  0.
         25    2    1    2    0    0  0.56962620001E+02  0.38889072036E+02 -0.14098580662E+04  0.14170681850E+04  0.12500149695E+03 0.  0.
          5    1    4    4  502    0  0.34427467861E+02  0.84043500228E+02 -0.98787165653E+03  0.99204892029E+03  0.47000000000E+01 0. -1.
         -5    1    4    4    0  502  0.22535152140E+02 -0.45154428191E+02 -0.42198640966E+03  0.42501926475E+03  0.47000000000E+01 0. -1.
          5    1    3    3  503    0 -0.86253460169E+02 -0.39460942395E+02 -0.64020511646E+03  0.64721055809E+03  0.47000000000E+01 0.  1.
         -5    1    3    3    0  503  0.29290840168E+02  0.57187035895E+00 -0.54904301367E+02  0.62408754691E+02  0.47000000000E+01 0.  1.
<mgrwt>
<rscale>  0 0.14276720E+03</rscale>
<asrwt>0</asrwt>
<pdfrwt beam="2">  1        5 0.32551159E+00 0.14276720E+03</pdfrwt>
<pdfrwt beam="1">  1       -5 0.16707720E-02 0.14276720E+03</pdfrwt>
<totfact> 0.21425680E+01</totfact>
</mgrwt>
</event>
<event>
 8    1  0.3588496E-007  0.1349529E+03  0.7546771E-02  0.1220286E+00
          5   -1    0    0  501    0  0.00000000000E+00  0.00000000000E+00  0.31956470344E+03  0.31959926421E+03  0.47000000000E+01 0. -1.
         -5   -1    0    0    0  501 -0.00000000000E+00 -0.00000000000E+00 -0.77855054509E+02  0.77996791682E+02  0.47000000000E+01 0. -1.
         25    2    1    2    0    0 -0.46212559012E+02 -0.21251170596E+02  0.17744504181E+02  0.13611439619E+03  0.12500019423E+03 0.  0.
         25    2    1    2    0    0  0.46212559012E+02  0.21251170596E+02  0.22396514475E+03  0.26148165971E+03  0.12500023775E+03 0.  0.
          5    1    4    4  502    0  0.65461659094E+02 -0.26131112046E+02  0.18176524094E+03  0.19500963218E+03  0.47000000000E+01 0.  1.
         -5    1    4    4    0  502 -0.19249100082E+02  0.47382282642E+02  0.42199903810E+02  0.66472027530E+02  0.47000000000E+01 0.  1.
          5    1    3    3  503    0 -0.58599280604E+01  0.23745368453E+02 -0.43382808401E+02  0.50023387976E+02  0.47000000000E+01 0.  1.
         -5    1    3    3    0  503 -0.40352630951E+02 -0.44996539050E+02  0.61127312582E+02  0.86091008210E+02  0.47000000000E+01 0.  1.
<mgrwt>
<rscale>  0 0.13495284E+03</rscale>
<asrwt>0</asrwt>
<pdfrwt beam="1">  1        5 0.49177362E-01 0.13495285E+03</pdfrwt>
<pdfrwt beam="2">  1       -5 0.11991262E-01 0.13495285E+03</pdfrwt>
<totfact> 0.16555565E+02</totfact>
</mgrwt>
</event>
<event>
 8    1  0.3588496E-007  0.2999001E+03  0.7546771E-02  0.1085291E+00
          5   -1    0    0  501    0  0.00000000000E+00  0.00000000000E+00  0.44047224807E+03  0.44049732272E+03  0.47000000000E+01 0.  1.
         -5   -1    0    0    0  501 -0.00000000000E+00 -0.00000000000E+00 -0.21102263308E+03  0.21107496695E+03  0.47000000000E+01 0.  1.
         25    2    1    2    0    0  0.15320891129E+03  0.22547770230E+03  0.55860024306E+02  0.30505803777E+03  0.12500759721E+03 0.  0.
         25    2    1    2    0    0 -0.15320891129E+03 -0.22547770230E+03  0.17358959068E+03  0.34651425190E+03  0.12500246415E+03 0.  0.
          5    1    4    4  502    0 -0.48113149943E+02 -0.47446696965E+02 -0.11838753701E+02  0.68762710385E+02  0.47000000000E+01 0.  1.
         -5    1    4    4    0  502 -0.10509576135E+03 -0.17803100533E+03  0.18542834438E+03  0.27775154151E+03  0.47000000000E+01 0.  1.
          5    1    3    3  503    0  0.12827276637E+02  0.12843251037E+03  0.25738491229E+02  0.13169665401E+03  0.47000000000E+01 0. -1.
         -5    1    3    3    0  503  0.14038163466E+03  0.97045191927E+02  0.30121533077E+02  0.17336138376E+03  0.47000000000E+01 0. -1.
<mgrwt>
<rscale>  0 0.29989956E+03</rscale>
<asrwt>0</asrwt>
<pdfrwt beam="1">  1        5 0.67770916E-01 0.29990009E+03</pdfrwt>
<pdfrwt beam="2">  1       -5 0.32470975E-01 0.29990009E+03</pdfrwt>
<totfact> 0.15557403E+01</totfact>
</mgrwt>
</event>
<event>
 8    1  0.3588496E-007  0.1355223E+03  0.7546771E-02  0.1219485E+00
          5   -1    0    0  501    0  0.00000000000E+00  0.00000000000E+00  0.50041730915E+03  0.50043938024E+03  0.47000000000E+01 0. -1.
         -5   -1    0    0    0  501 -0.00000000000E+00 -0.00000000000E+00 -0.50931815455E+02  0.51148214295E+02  0.47000000000E+01 0. -1.
         25    2    1    2    0    0  0.45349573884E+02  0.26171042718E+02  0.78481107952E+02  0.15660648407E+03  0.12499919688E+03 0.  0.
         25    2    1    2    0    0 -0.45349573884E+02 -0.26171042718E+02  0.37100438574E+03  0.39498111046E+03  0.12499726419E+03 0.  0.
          5    1    4    4  502    0 -0.32938879022E+02 -0.35797906843E+02  0.37494706115E+03  0.37811882861E+03  0.47000000000E+01 0. -1.
         -5    1    4    4    0  502 -0.12410694863E+02  0.96268641249E+01 -0.39426754077E+01  0.16862281851E+02  0.47000000000E+01 0. -1.
          5    1    3    3  503    0  0.18479734751E+01  0.43066798466E+01  0.10208154635E+03  0.10229708991E+03  0.47000000000E+01 0.  1.
         -5    1    3    3    0  503  0.43501600409E+02  0.21864362872E+02 -0.23600438403E+02  0.54309394167E+02  0.47000000000E+01 0.  1.
<mgrwt>
<rscale>  0 0.13552190E+03</rscale>
<asrwt>0</asrwt>
<pdfrwt beam="1">  1        5 0.77005619E-01 0.13552235E+03</pdfrwt>
<pdfrwt beam="2">  1       -5 0.78540080E-02 0.13552235E+03</pdfrwt>
<totfact> 0.12913299E+02</totfact>
</mgrwt>
</event>
<event>
 8    1  0.3588496E-007  0.1375037E+03  0.7546771E-02  0.1216740E+00
         -5   -1    0    0    0  501 -0.00000000000E+00  0.00000000000E+00  0.42550185004E+02  0.42808973871E+02  0.47000000000E+01 0. -1.
          5   -1    0    0  501    0  0.00000000000E+00 -0.00000000000E+00 -0.45958119173E+03  0.45960522385E+03  0.47000000000E+01 0. -1.
         25    2    1    2    0    0 -0.13126881456E+02 -0.55714161497E+02 -0.16025282088E+03  0.21113715924E+03  0.12498620164E+03 0.  0.
         25    2    1    2    0    0  0.13126881456E+02  0.55714161497E+02 -0.25677818585E+03  0.29127703849E+03  0.12502357225E+03 0.  0.
          5    1    3    3  502    0  0.49886968425E+02 -0.14725643405E+02 -0.10646242024E+03  0.11858284494E+03  0.47000000000E+01 0.  1.
         -5    1    3    3    0  502 -0.63013849881E+02 -0.40988518092E+02 -0.53790400645E+02  0.92554314291E+02  0.47000000000E+01 0.  1.
          5    1    4    4  503    0  0.48264330369E+02  0.71009980371E+02 -0.11064525274E+03  0.14012967156E+03  0.47000000000E+01 0.  1.
         -5    1    4    4    0  503 -0.35137448912E+02 -0.15295818874E+02 -0.14613293311E+03  0.15114736693E+03  0.47000000000E+01 0.  1.
<mgrwt>
<rscale>  0 0.13749524E+03</rscale>
<asrwt>0</asrwt>
<pdfrwt beam="2">  1        5 0.70726551E-01 0.13750373E+03</pdfrwt>
<pdfrwt beam="1">  1       -5 0.65679381E-02 0.13750373E+03</pdfrwt>
<totfact> 0.21345039E+02</totfact>
</mgrwt>
</event>
<event>
 8    1  0.3588496E-007  0.1255638E+03  0.7546771E-02  0.1234199E+00
         -5   -1    0    0    0  501 -0.00000000000E+00  0.00000000000E+00  0.33534015159E+03  0.33537308668E+03  0.47000000000E+01 0. -1.
          5   -1    0    0  501    0  0.00000000000E+00 -0.00000000000E+00 -0.49948808376E+02  0.50169447457E+02  0.47000000000E+01 0. -1.
         25    2    1    2    0    0 -0.11080230897E+02  0.36386663022E+01  0.19056143003E+03  0.22821026193E+03  0.12502101274E+03 0.  0.
         25    2    1    2    0    0  0.11080230897E+02 -0.36386663022E+01  0.94829913185E+02  0.15733227221E+03  0.12499888013E+03 0.  0.
          5    1    3    3  502    0 -0.68099137886E+01  0.14009860095E+02 -0.15094999659E+02  0.22194596649E+02  0.47000000000E+01 0. -1.
         -5    1    3    3    0  502 -0.42703171085E+01 -0.10371193793E+02  0.20565642969E+03  0.20601566528E+03  0.47000000000E+01 0. -1.
          5    1    4    4  503    0  0.10875300544E+02 -0.11699937843E+02  0.12481878175E+03  0.12592449716E+03  0.47000000000E+01 0. -1.
         -5    1    4    4    0  503  0.20493035308E+00  0.80612715406E+01 -0.29988868567E+02  0.31407775044E+02  0.47000000000E+01 0. -1.
<mgrwt>
<rscale>  0 0.12555828E+03</rscale>
<asrwt>0</asrwt>
<pdfrwt beam="2">  1        5 0.77039375E-02 0.12556379E+03</pdfrwt>
<pdfrwt beam="1">  1       -5 0.51610300E-01 0.12556379E+03</pdfrwt>
<totfact> 0.31434896E+02</totfact>
</mgrwt>
</event>
<event>
 8    1  0.3588496E-007  0.1519406E+03  0.7546771E-02  0.1198111E+00
          5   -1    0    0  501    0  0.00000000000E+00  0.00000000000E+00  0.26798033793E+03  0.26802155047E+03  0.47000000000E+01 0. -1.
         -5   -1    0    0    0  501 -0.00000000000E+00 -0.00000000000E+00 -0.11895637699E+03  0.11904918994E+03  0.47000000000E+01 0. -1.
         25    2    1    2    0    0 -0.34818818841E+02 -0.79025676534E+02 -0.27245156623E+02  0.15435470824E+03  0.12500267876E+03 0.  0.
         25    2    1    2    0    0  0.34818818841E+02  0.79025676534E+02  0.17626911756E+03  0.23271603218E+03  0.12501416771E+03 0.  0.
          5    1    4    4  502    0 -0.36387355829E+02  0.28756110875E+02  0.12032101439E+03  0.12903561555E+03  0.47000000000E+01 0.  1.
         -5    1    4    4    0  502  0.71206174670E+02  0.50269565659E+02  0.55948103173E+02  0.10368041662E+03  0.47000000000E+01 0.  1.
          5    1    3    3  503    0 -0.62390506655E+01 -0.35449266109E+02  0.49552908631E+02  0.61426028479E+02  0.47000000000E+01 0.  1.
         -5    1    3    3    0  503 -0.28579768175E+02 -0.43576410425E+02 -0.76798065254E+02  0.92928679756E+02  0.47000000000E+01 0.  1.
<mgrwt>
<rscale>  0 0.15193825E+03</rscale>
<asrwt>0</asrwt>
<pdfrwt beam="1">  1        5 0.41238053E-01 0.15194061E+03</pdfrwt>
<pdfrwt beam="2">  1       -5 0.18311291E-01 0.15194061E+03</pdfrwt>
<totfact> 0.11544492E+02</totfact>
</mgrwt>
</event>
<event>
 8    1  0.3588496E-007  0.1344456E+03  0.7546771E-02  0.1221018E+00
          5   -1    0    0  501    0  0.00000000000E+00  0.00000000000E+00  0.19959568707E+03  0.19965101627E+03  0.47000000000E+01 0. -1.
         -5   -1    0    0    0  501 -0.00000000000E+00 -0.00000000000E+00 -0.97029132142E+02  0.97142897240E+02  0.47000000000E+01 0. -1.
         25    2    1    2    0    0  0.15068550487E+02 -0.47088368497E+02  0.12543261119E+02  0.13499217793E+03  0.12498471524E+03 0.  0.
         25    2    1    2    0    0 -0.15068550487E+02  0.47088368497E+02  0.90023293812E+02  0.16180173558E+03  0.12502492770E+03 0.  0.
          5    1    4    4  502    0 -0.35481804923E+02  0.78577609312E+02  0.31080276758E+02  0.91768582691E+02  0.47000000000E+01 0.  1.
         -5    1    4    4    0  502  0.20413254437E+02 -0.31489240815E+02  0.58943017054E+02  0.70033152886E+02  0.47000000000E+01 0.  1.
          5    1    3    3  503    0 -0.93874365140E+01  0.20173246834E+02  0.49377632590E+02  0.54362895916E+02  0.47000000000E+01 0.  1.
         -5    1    3    3    0  503  0.24455987001E+02 -0.67261615331E+02 -0.36834371471E+02  0.80629282018E+02  0.47000000000E+01 0.  1.
<mgrwt>
<rscale>  0 0.13443621E+03</rscale>
<asrwt>0</asrwt>
<pdfrwt beam="1">  1        5 0.30720036E-01 0.13444556E+03</pdfrwt>
<pdfrwt beam="2">  1       -5 0.14940566E-01 0.13444556E+03</pdfrwt>
<totfact> 0.29086079E+02</totfact>
</mgrwt>
</event>
<event>
 8    1  0.3588496E-007  0.1758099E+03  0.7546771E-02  0.1171922E+00
          5   -1    0    0  501    0  0.00000000000E+00  0.00000000000E+00  0.12718008252E+03  0.12726689825E+03  0.47000000000E+01 0.  1.
         -5   -1    0    0    0  501 -0.00000000000E+00 -0.00000000000E+00 -0.25756112998E+03  0.25760400943E+03  0.47000000000E+01 0.  1.
         25    2    1    2    0    0 -0.12178980854E+03 -0.21353675831E+02 -0.11118753474E+03  0.20801869161E+03  0.12498148361E+03 0.  0.
         25    2    1    2    0    0  0.12178980854E+03  0.21353675831E+02 -0.19193512719E+02  0.17685221607E+03  0.12497831197E+03 0.  0.
          5    1    3    3  502    0 -0.68487964948E+02 -0.73139390339E+02 -0.74868968018E+02  0.12516958150E+03  0.47000000000E+01 0. -1.
         -5    1    3    3    0  502 -0.53301843594E+02  0.51785714508E+02 -0.36318566718E+02  0.82849110110E+02  0.47000000000E+01 0. -1.
          5    1    4    4  503    0  0.58026483699E+02  0.72836746192E+02 -0.16697530073E+02  0.94726775079E+02  0.47000000000E+01 0.  1.
         -5    1    4    4    0  503  0.63763324842E+02 -0.51483070362E+02 -0.24959826464E+01  0.82125440992E+02  0.47000000000E+01 0.  1.
<mgrwt>
<rscale>  0 0.17580930E+03</rscale>
<asrwt>0</asrwt>
<pdfrwt beam="1">  1        5 0.19576143E-01 0.17580986E+03</pdfrwt>
<pdfrwt beam="2">  1       -5 0.39634766E-01 0.17580986E+03</pdfrwt>
<totfact> 0.11562875E+02</totfact>
</mgrwt>
</event>
<event>
 8    1  0.3588496E-007  0.1384242E+03  0.7546771E-02  0.1215474E+00
          5   -1    0    0  501    0  0.00000000000E+00  0.00000000000E+00  0.15114590120E+02  0.15828481750E+02  0.47000000000E+01 0.  1.
         -5   -1    0    0    0  501 -0.00000000000E+00 -0.00000000000E+00 -0.13074438446E+04  0.13074522923E+04  0.47000000000E+01 0.  1.
         25    2    1    2    0    0  0.48031723506E+02  0.34973259506E+02 -0.79905736929E+03  0.81095429365E+03  0.12499604650E+03 0.  0.
         25    2    1    2    0    0 -0.48031723506E+02 -0.34973259506E+02 -0.49327188516E+03  0.51232648042E+03  0.12502437564E+03 0.  0.
          5    1    3    3  502    0  0.90690275922E+02  0.26891942134E+02 -0.54082503489E+03  0.54905528962E+03  0.47000000000E+01 0. -1.
         -5    1    3    3    0  502 -0.42658552416E+02  0.80813173725E+01 -0.25823233440E+03  0.26189900403E+03  0.47000000000E+01 0. -1.
          5    1    4    4  503    0 -0.72274317487E+02 -0.48843313604E+02 -0.20728965829E+03  0.22494519040E+03  0.47000000000E+01 0. -1.
         -5    1    4    4    0  503  0.24242593982E+02  0.13870054097E+02 -0.28598222688E+03  0.28738129002E+03  0.47000000000E+01 0. -1.
<mgrwt>
<rscale>  0 0.13841784E+03</rscale>
<asrwt>0</asrwt>
<pdfrwt beam="1">  1        5 0.23808872E-02 0.13842424E+03</pdfrwt>
<pdfrwt beam="2">  1       -5 0.20120068E+00 0.13842424E+03</pdfrwt>
<totfact> 0.75572808E+01</totfact>
</mgrwt>
</event>
<event>
 8    1  0.3588496E-007  0.1465414E+03  0.7546771E-02  0.1204804E+00
         -5   -1    0    0    0  501 -0.00000000000E+00  0.00000000000E+00  0.22633922569E+02  0.23116756928E+02  0.47000000000E+01 0.  1.
          5   -1    0    0  501    0  0.00000000000E+00 -0.00000000000E+00 -0.10342963156E+04  0.10343069943E+04  0.47000000000E+01 0.  1.
         25    2    1    2    0    0 -0.71861097558E+02  0.26179799103E+02 -0.34457790408E+03  0.37444401963E+03  0.12499997052E+03 0.  0.
         25    2    1    2    0    0  0.71861097558E+02 -0.26179799103E+02 -0.66708448891E+03  0.68297973156E+03  0.12494078260E+03 0.  0.
          5    1    3    3  502    0 -0.92926048073E+02 -0.34066197914E+01 -0.15073645911E+03  0.17717343360E+03  0.47000000000E+01 0.  1.
         -5    1    3    3    0  502  0.21064950515E+02  0.29586418894E+02 -0.19384144497E+03  0.19727058603E+03  0.47000000000E+01 0.  1.
          5    1    4    4  503    0  0.80678324068E+02 -0.27025435681E+02 -0.66752554035E+03  0.67294264478E+03  0.47000000000E+01 0. -1.
         -5    1    4    4    0  503 -0.88172265094E+01  0.84563657868E+00  0.44105144460E+00  0.10037086774E+02  0.47000000000E+01 0. -1.
<mgrwt>
<rscale>  0 0.14652881E+03</rscale>
<asrwt>0</asrwt>
<pdfrwt beam="2">  1        5 0.15916044E+00 0.14654143E+03</pdfrwt>
<pdfrwt beam="1">  1       -5 0.35201053E-02 0.14654143E+03</pdfrwt>
<totfact> 0.81589713E+01</totfact>
</mgrwt>
</event>
<event>
 8    1  0.3588496E-007  0.1797637E+03  0.7546771E-02  0.1168034E+00
          5   -1    0    0  501    0  0.00000000000E+00  0.00000000000E+00  0.21375674689E+03  0.21380841153E+03  0.47000000000E+01 0.  1.
         -5   -1    0    0    0  501 -0.00000000000E+00 -0.00000000000E+00 -0.16849878572E+03  0.16856432241E+03  0.47000000000E+01 0.  1.
         25    2    1    2    0    0  0.12290428358E+03 -0.39807477240E+02 -0.38848826301E+02  0.18391364822E+03  0.12499960211E+03 0.  0.
         25    2    1    2    0    0 -0.12290428358E+03  0.39807477240E+02  0.84106787471E+02  0.19845908573E+03  0.12498783477E+03 0.  0.
          5    1    4    4  502    0 -0.94678324994E+01 -0.35172020210E+01  0.75845522839E+02  0.76659271435E+02  0.47000000000E+01 0.  1.
         -5    1    4    4    0  502 -0.11343645108E+03  0.43324679261E+02  0.82612646320E+01  0.12179981429E+03  0.47000000000E+01 0.  1.
          5    1    3    3  503    0  0.64900723094E+02  0.39485088398E+02 -0.39075282323E+02  0.85557838639E+02  0.47000000000E+01 0. -1.
         -5    1    3    3    0  503  0.58003560490E+02 -0.79292565638E+02  0.22645602163E+00  0.98355809576E+02  0.47000000000E+01 0. -1.
<mgrwt>
<rscale>  0 0.17976168E+03</rscale>
<asrwt>0</asrwt>
<pdfrwt beam="1">  1        5 0.32894669E-01 0.17976373E+03</pdfrwt>
<pdfrwt beam="2">  1       -5 0.25931906E-01 0.17976373E+03</pdfrwt>
<totfact> 0.99435321E+01</totfact>
</mgrwt>
</event>
<event>
 8    1  0.3588496E-007  0.1320188E+03  0.7546771E-02  0.1224492E+00
          5   -1    0    0  501    0  0.00000000000E+00  0.00000000000E+00  0.83596934061E+02  0.83728951889E+02  0.47000000000E+01 0.  1.
         -5   -1    0    0    0  501 -0.00000000000E+00 -0.00000000000E+00 -0.21736297179E+03  0.21741377947E+03  0.47000000000E+01 0.  1.
         25    2    1    2    0    0  0.41463883962E+02 -0.91720614535E+01 -0.97851503509E+02  0.16432857049E+03  0.12500232780E+03 0.  0.
         25    2    1    2    0    0 -0.41463883962E+02  0.91720614535E+01 -0.35914534215E+02  0.13681416087E+03  0.12499952185E+03 0.  0.
          5    1    4    4  502    0 -0.63287116545E+02 -0.98639800568E+01 -0.67865860703E+02  0.93436728710E+02  0.47000000000E+01 0. -1.
         -5    1    4    4    0  502  0.21823232583E+02  0.19036041510E+02  0.31951326487E+02  0.43377432163E+02  0.47000000000E+01 0. -1.
          5    1    3    3  503    0 -0.25697720511E+02 -0.10113710100E+02 -0.92653517853E+02  0.96795786799E+02  0.47000000000E+01 0.  1.
         -5    1    3    3    0  503  0.67161604473E+02  0.94164864694E+00 -0.51979856560E+01  0.67532783687E+02  0.47000000000E+01 0.  1.
<mgrwt>
<rscale>  0 0.13201813E+03</rscale>
<asrwt>0</asrwt>
<pdfrwt beam="1">  1        5 0.12875130E-01 0.13201880E+03</pdfrwt>
<pdfrwt beam="2">  1       -5 0.33454521E-01 0.13201880E+03</pdfrwt>
<totfact> 0.31890857E+02</totfact>
</mgrwt>
</event>
<event>
 8    1  0.3588496E-007  0.1346017E+03  0.7546771E-02  0.1220786E+00
          5   -1    0    0  501    0  0.00000000000E+00  0.00000000000E+00  0.31581187537E+03  0.31584684678E+03  0.47000000000E+01 0.  1.
         -5   -1    0    0    0  501 -0.00000000000E+00 -0.00000000000E+00 -0.57303928397E+02  0.57496349534E+02  0.47000000000E+01 0.  1.
         25    2    1    2    0    0 -0.44078917291E+02 -0.23449716195E+02  0.12258985701E+03  0.18205455654E+03  0.12499099318E+03 0.  0.
         25    2    1    2    0    0  0.44078917291E+02  0.23449716195E+02  0.13591808996E+03  0.19128863978E+03  0.12499910556E+03 0.  0.
          5    1    4    4  502    0 -0.32085080215E+01  0.68585637792E+02  0.63896725340E+02  0.93910413396E+02  0.47000000000E+01 0.  1.
         -5    1    4    4    0  502  0.47287425312E+02 -0.45135921598E+02  0.72021364625E+02  0.97378226383E+02  0.47000000000E+01 0.  1.
          5    1    3    3  503    0 -0.31482799395E+02 -0.70683347526E+02  0.10362020249E+03  0.12940841796E+03  0.47000000000E+01 0. -1.
         -5    1    3    3    0  503 -0.12596117896E+02  0.47233631331E+02  0.18969654521E+02  0.52646138580E+02  0.47000000000E+01 0. -1.
<mgrwt>
<rscale>  0 0.13459981E+03</rscale>
<asrwt>0</asrwt>
<pdfrwt beam="1">  1        5 0.48603934E-01 0.13460170E+03</pdfrwt>
<pdfrwt beam="2">  1       -5 0.88334807E-02 0.13460170E+03</pdfrwt>
<totfact> 0.28936608E+02</totfact>
</mgrwt>
</event>
<event>
 8    1  0.3588496E-007  0.1643901E+03  0.7546771E-02  0.1183828E+00
          5   -1    0    0  501    0  0.00000000000E+00  0.00000000000E+00  0.14990560302E+03  0.14997926462E+03  0.47000000000E+01 0.  1.
         -5   -1    0    0    0  501 -0.00000000000E+00 -0.00000000000E+00 -0.32621895720E+03  0.32625281307E+03  0.47000000000E+01 0.  1.
         25    2    1    2    0    0 -0.96138251326E+02 -0.46435701587E+02 -0.24747730558E+03  0.29710117279E+03  0.12500100939E+03 0.  0.
         25    2    1    2    0    0  0.96138251326E+02  0.46435701587E+02  0.71163951390E+02  0.17913090491E+03  0.12499894146E+03 0.  0.
          5    1    4    4  502    0 -0.18854449792E+02 -0.12298035661E+01  0.48839401426E+02  0.52577369899E+02  0.47000000000E+01 0.  1.
         -5    1    4    4    0  502  0.11499270112E+03  0.47665505153E+02  0.22324549964E+02  0.12655353501E+03  0.47000000000E+01 0.  1.
          5    1    3    3  503    0 -0.92718531235E+02 -0.22650094955E+01 -0.76206187665E+02  0.12013046800E+03  0.47000000000E+01 0.  1.
         -5    1    3    3    0  503 -0.34197200906E+01 -0.44170692092E+02 -0.17127111791E+03  0.17697070480E+03  0.47000000000E+01 0.  1.
<mgrwt>
<rscale>  0 0.16438966E+03</rscale>
<asrwt>0</asrwt>
<pdfrwt beam="1">  1        5 0.23070671E-01 0.16439005E+03</pdfrwt>
<pdfrwt beam="2">  1       -5 0.50195802E-01 0.16439005E+03</pdfrwt>
<totfact> 0.50786196E+01</totfact>
</mgrwt>
</event>
<event>
 8    1  0.3588496E-007  0.1266507E+03  0.7546771E-02  0.1232516E+00
         -5   -1    0    0    0  501 -0.00000000000E+00  0.00000000000E+00  0.56859427163E+03  0.56861369640E+03  0.47000000000E+01 0.  1.
          5   -1    0    0  501    0  0.00000000000E+00 -0.00000000000E+00 -0.32277491317E+02  0.32617885366E+02  0.47000000000E+01 0.  1.
         25    2    1    2    0    0 -0.85148467758E+01 -0.18501875800E+02  0.37705642845E+03  0.39775866120E+03  0.12500232119E+03 0.  0.
         25    2    1    2    0    0  0.85148467758E+01  0.18501875800E+02  0.15926035186E+03  0.20347292056E+03  0.12499019042E+03 0.  0.
          5    1    3    3  502    0  0.29982078958E+02 -0.61154473626E+02  0.22551855787E+03  0.23562577246E+03  0.47000000000E+01 0. -1.
         -5    1    3    3    0  502 -0.38496925734E+02  0.42652597826E+02  0.15153787058E+03  0.16213288875E+03  0.47000000000E+01 0. -1.
          5    1    4    4  503    0 -0.36609585357E+01 -0.46474661796E+02  0.11390303128E+03  0.12316366080E+03  0.47000000000E+01 0. -1.
         -5    1    4    4    0  503  0.12175805311E+02  0.64976537596E+02  0.45357320578E+02  0.80309259758E+02  0.47000000000E+01 0. -1.
<mgrwt>
<rscale>  0 0.12664772E+03</rscale>
<asrwt>0</asrwt>
<pdfrwt beam="2">  1        5 0.49934466E-02 0.12665071E+03</pdfrwt>
<pdfrwt beam="1">  1       -5 0.87503714E-01 0.12665071E+03</pdfrwt>
<totfact> 0.20103425E+02</totfact>
</mgrwt>
</event>
<event>
 8    1  0.3588496E-007  0.1279038E+03  0.7546771E-02  0.1230601E+00
         -5   -1    0    0    0  501 -0.00000000000E+00  0.00000000000E+00  0.11905206066E+03  0.11914479907E+03  0.47000000000E+01 0.  1.
          5   -1    0    0  501    0  0.00000000000E+00 -0.00000000000E+00 -0.22958839144E+03  0.22963649424E+03  0.47000000000E+01 0.  1.
         25    2    1    2    0    0 -0.24984289547E+02 -0.10497954080E+02  0.55305825724E+02  0.13934635203E+03  0.12499699877E+03 0.  0.
         25    2    1    2    0    0  0.24984289547E+02  0.10497954080E+02 -0.16584215651E+03  0.20943494128E+03  0.12499980795E+03 0.  0.
          5    1    3    3  502    0 -0.42447971909E+02 -0.25873139767E+02 -0.24831812646E+02  0.55767002787E+02  0.47000000000E+01 0.  1.
         -5    1    3    3    0  502  0.17463682362E+02  0.15375185687E+02  0.80137638371E+02  0.83579349245E+02  0.47000000000E+01 0.  1.
          5    1    4    4  503    0  0.26516754886E+02 -0.48414646803E+02 -0.12737740960E+03  0.13890360252E+03  0.47000000000E+01 0. -1.
         -5    1    4    4    0  503 -0.15324653392E+01  0.58912600883E+02 -0.38464746906E+02  0.70531338761E+02  0.47000000000E+01 0. -1.
<mgrwt>
<rscale>  0 0.12790308E+03</rscale>
<asrwt>0</asrwt>
<pdfrwt beam="2">  1        5 0.35332125E-01 0.12790377E+03</pdfrwt>
<pdfrwt beam="1">  1       -5 0.18326536E-01 0.12790377E+03</pdfrwt>
<totfact> 0.14906203E+02</totfact>
</mgrwt>
</event>
<event>
 8    1  0.3588496E-007  0.1270109E+03  0.7546771E-02  0.1231960E+00
         -5   -1    0    0    0  501 -0.00000000000E+00  0.00000000000E+00  0.21739117224E+02  0.22241385246E+02  0.47000000000E+01 0. -1.
          5   -1    0    0  501    0  0.00000000000E+00 -0.00000000000E+00 -0.76904449312E+03  0.76905885496E+03  0.47000000000E+01 0. -1.
         25    2    1    2    0    0 -0.12629649253E+02  0.18625998673E+02 -0.28811167320E+03  0.31486522901E+03  0.12500136137E+03 0.  0.
         25    2    1    2    0    0  0.12629649253E+02 -0.18625998673E+02 -0.45919370270E+03  0.47643501119E+03  0.12500010970E+03 0.  0.
          5    1    3    3  502    0 -0.31288346119E+02 -0.23409269569E+02 -0.25495355507E+03  0.25797356405E+03  0.47000000000E+01 0.  1.
         -5    1    3    3    0  502  0.18658696866E+02  0.42035268241E+02 -0.33158118121E+02  0.56891664962E+02  0.47000000000E+01 0.  1.
          5    1    4    4  503    0 -0.11938097234E+02 -0.44357583258E+02 -0.42283716369E+03  0.42535099665E+03  0.47000000000E+01 0. -1.
         -5    1    4    4    0  503  0.24567746487E+02  0.25731584585E+02 -0.36356539011E+02  0.51084014541E+02  0.47000000000E+01 0. -1.
<mgrwt>
<rscale>  0 0.12701062E+03</rscale>
<asrwt>0</asrwt>
<pdfrwt beam="2">  1        5 0.11835426E+00 0.12701093E+03</pdfrwt>
<pdfrwt beam="1">  1       -5 0.33842209E-02 0.12701093E+03</pdfrwt>
<totfact> 0.18240476E+02</totfact>
</mgrwt>
</event>
<event>
 8    1  0.3588496E-007  0.1435598E+03  0.7546771E-02  0.1208623E+00
         -5   -1    0    0    0  501 -0.00000000000E+00  0.00000000000E+00  0.17794610827E+03  0.17800816680E+03  0.47000000000E+01 0.  1.
          5   -1    0    0  501    0  0.00000000000E+00 -0.00000000000E+00 -0.12668944419E+03  0.12677659590E+03  0.47000000000E+01 0.  1.
         25    2    1    2    0    0  0.67967927394E+02 -0.18935397530E+02  0.70531749109E+02  0.15993676028E+03  0.12500740467E+03 0.  0.
         25    2    1    2    0    0 -0.67967927394E+02  0.18935397530E+02 -0.19275085030E+02  0.14484800242E+03  0.12502490340E+03 0.  0.
          5    1    3    3  502    0  0.77793548996E+02  0.35164452691E+02  0.58085282762E+02  0.10336520242E+03  0.47000000000E+01 0. -1.
         -5    1    3    3    0  502 -0.98256216022E+01 -0.54099850221E+02  0.12446466346E+02  0.56571557856E+02  0.47000000000E+01 0. -1.
          5    1    4    4  503    0 -0.82077573654E+02 -0.27939331925E+02  0.10337639459E+02  0.87443073796E+02  0.47000000000E+01 0.  1.
         -5    1    4    4    0  503  0.14109646260E+02  0.46874729455E+02 -0.29612724488E+02  0.57404928627E+02  0.47000000000E+01 0.  1.
<mgrwt>
<rscale>  0 0.14355599E+03</rscale>
<asrwt>0</asrwt>
<pdfrwt beam="2">  1        5 0.19502162E-01 0.14355980E+03</pdfrwt>
<pdfrwt beam="1">  1       -5 0.27387802E-01 0.14355980E+03</pdfrwt>
<totfact> 0.22827907E+02</totfact>
</mgrwt>
</event>
<event>
 8    1  0.3588496E-007  0.1302590E+03  0.7546771E-02  0.1227074E+00
         -5   -1    0    0    0  501 -0.00000000000E+00  0.00000000000E+00  0.20016065443E+03  0.20021582750E+03  0.47000000000E+01 0. -1.
          5   -1    0    0  501    0  0.00000000000E+00 -0.00000000000E+00 -0.97522523900E+02  0.97635714100E+02  0.47000000000E+01 0. -1.
         25    2    1    2    0    0 -0.33083803425E+02  0.15731648787E+02  0.10541023783E+03  0.16756303887E+03  0.12499612368E+03 0.  0.
         25    2    1    2    0    0  0.33083803425E+02 -0.15731648787E+02 -0.27721072977E+01  0.13028850273E+03  0.12500154616E+03 0.  0.
          5    1    4    4  502    0  0.63007234646E+02 -0.50564858270E+02 -0.15519862098E+02  0.82399469836E+02  0.47000000000E+01 0.  1.
         -5    1    4    4    0  502 -0.29923431221E+02  0.34833209483E+02  0.12747754800E+02  0.47889032893E+02  0.47000000000E+01 0.  1.
          5    1    3    3  503    0  0.39727480990E+02 -0.15989814421E+02  0.11715478570E+02  0.44646269151E+02  0.47000000000E+01 0. -1.
         -5    1    3    3    0  503 -0.72811284415E+02  0.31721463208E+02  0.93694759256E+02  0.12291676972E+03  0.47000000000E+01 0. -1.
<mgrwt>
<rscale>  0 0.13025771E+03</rscale>
<asrwt>0</asrwt>
<pdfrwt beam="2">  1        5 0.15016416E-01 0.13025901E+03</pdfrwt>
<pdfrwt beam="1">  1       -5 0.30806897E-01 0.13025901E+03</pdfrwt>
<totfact> 0.28341900E+02</totfact>
</mgrwt>
</event>
<event>
 8    1  0.3588496E-007  0.1538235E+03  0.7546771E-02  0.1195853E+00
         -5   -1    0    0    0  501 -0.00000000000E+00  0.00000000000E+00  0.13112911123E+04  0.13112995352E+04  0.47000000000E+01 0. -1.
          5   -1    0    0  501    0  0.00000000000E+00 -0.00000000000E+00 -0.20692572845E+02  0.21219627022E+02  0.47000000000E+01 0. -1.
         25    2    1    2    0    0 -0.86155343539E+02 -0.24752310874E+02  0.89396695292E+03  0.90710374708E+03  0.12499949977E+03 0.  0.
         25    2    1    2    0    0  0.86155343539E+02  0.24752310874E+02  0.39663158649E+03  0.42541541517E+03  0.12500495968E+03 0.  0.
          5    1    3    3  502    0 -0.11942669484E+01  0.62690159307E+00  0.59997428740E+03  0.59999421232E+03  0.47000000000E+01 0. -1.
         -5    1    3    3    0  502 -0.84961076591E+02 -0.25379212467E+02  0.29399266552E+03  0.30710953476E+03  0.47000000000E+01 0. -1.
          5    1    4    4  503    0  0.43618718898E+02 -0.25047772921E+02  0.44838077214E+02  0.67546478331E+02  0.47000000000E+01 0. -1.
         -5    1    4    4    0  503  0.42536624641E+02  0.49800083795E+02  0.35179350928E+03  0.35786893684E+03  0.47000000000E+01 0. -1.
<mgrwt>
<rscale>  0 0.15382236E+03</rscale>
<asrwt>0</asrwt>
<pdfrwt beam="2">  1        5 0.32246637E-02 0.15382347E+03</pdfrwt>
<pdfrwt beam="1">  1       -5 0.20177826E+00 0.15382347E+03</pdfrwt>
<totfact> 0.47335346E+01</totfact>
</mgrwt>
</event>
<event>
 8    1  0.3588496E-007  0.1495223E+03  0.7546771E-02  0.1201062E+00
         -5   -1    0    0    0  501 -0.00000000000E+00  0.00000000000E+00  0.27726050006E+04  0.27726089842E+04  0.47000000000E+01 0. -1.
          5   -1    0    0  501    0  0.00000000000E+00 -0.00000000000E+00 -0.82587583352E+01  0.95024780578E+01  0.47000000000E+01 0. -1.
         25    2    1    2    0    0 -0.80084583431E+02  0.17832860920E+02  0.18050969270E+04  0.18112787450E+04  0.12499689846E+03 0.  0.
         25    2    1    2    0    0  0.80084583431E+02 -0.17832860920E+02  0.95924931522E+03  0.97083271727E+03  0.12500145899E+03 0.  0.
          5    1    3    3  502    0 -0.89136228805E+02  0.38141914607E+02  0.17322875824E+04  0.17350050233E+04  0.47000000000E+01 0.  1.
         -5    1    3    3    0  502  0.90516453738E+01 -0.20309053686E+02  0.72809344656E+02  0.76273721653E+02  0.47000000000E+01 0.  1.
          5    1    4    4  503    0 -0.82788062756E+01 -0.23763158149E+02  0.41169858855E+02  0.48479620427E+02  0.47000000000E+01 0.  1.
         -5    1    4    4    0  503  0.88363389707E+02  0.59302972286E+01  0.91807945636E+03  0.92235309685E+03  0.47000000000E+01 0.  1.
<mgrwt>
<rscale>  0 0.14952134E+03</rscale>
<asrwt>0</asrwt>
<pdfrwt beam="2">  1        5 0.13665561E-02 0.14952229E+03</pdfrwt>
<pdfrwt beam="1">  1       -5 0.42665037E+00 0.14952229E+03</pdfrwt>
<totfact> 0.60550922E+00</totfact>
</mgrwt>
</event>
<event>
 8    1  0.3588496E-007  0.1296419E+03  0.7546771E-02  0.1227990E+00
         -5   -1    0    0    0  501 -0.00000000000E+00  0.00000000000E+00  0.38787489168E+02  0.39071208274E+02  0.47000000000E+01 0. -1.
          5   -1    0    0  501    0  0.00000000000E+00 -0.00000000000E+00 -0.43214808953E+03  0.43217364714E+03  0.47000000000E+01 0. -1.
         25    2    1    2    0    0 -0.21193351048E+02  0.27056622889E+02 -0.20638364401E+03  0.24372031633E+03  0.12499666038E+03 0.  0.
         25    2    1    2    0    0  0.21193351048E+02 -0.27056622889E+02 -0.18697695635E+03  0.22752453909E+03  0.12500325880E+03 0.  0.
          5    1    3    3  502    0  0.11079350620E+02 -0.46547473649E+02 -0.62590285638E+02  0.78924350929E+02  0.47000000000E+01 0. -1.
         -5    1    3    3    0  502 -0.32272701668E+02  0.73604096538E+02 -0.14379335837E+03  0.16479596540E+03  0.47000000000E+01 0. -1.
          5    1    4    4  503    0 -0.59586286072E+00 -0.75686185051E+02 -0.10177922652E+03  0.12692460207E+03  0.47000000000E+01 0.  1.
         -5    1    4    4    0  503  0.21789213909E+02  0.48629562163E+02 -0.85197729829E+02  0.10059993701E+03  0.47000000000E+01 0.  1.
<mgrwt>
<rscale>  0 0.12964035E+03</rscale>
<asrwt>0</asrwt>
<pdfrwt beam="2">  1        5 0.66508108E-01 0.12964194E+03</pdfrwt>
<pdfrwt beam="1">  1       -5 0.59910969E-02 0.12964194E+03</pdfrwt>
<totfact> 0.28029599E+02</totfact>
</mgrwt>
</event>
<event>
 8    1  0.3588496E-007  0.1303791E+03  0.7546771E-02  0.1226900E+00
          5   -1    0    0  501    0  0.00000000000E+00  0.00000000000E+00  0.59454198428E+02  0.59639682349E+02  0.47000000000E+01 0. -1.
         -5   -1    0    0    0  501 -0.00000000000E+00 -0.00000000000E+00 -0.29578409107E+03  0.29582143014E+03  0.47000000000E+01 0. -1.
         25    2    1    2    0    0  0.10444890662E+02 -0.35527744430E+02 -0.15171726652E+03  0.20003262725E+03  0.12499442644E+03 0.  0.
         25    2    1    2    0    0 -0.10444890662E+02  0.35527744430E+02 -0.84612626127E+02  0.15542848524E+03  0.12500960426E+03 0.  0.
          5    1    3    3  502    0 -0.16496473893E+02 -0.45994182468E+02 -0.16178449204E+03  0.16906776848E+03  0.47000000000E+01 0.  1.
         -5    1    3    3    0  502  0.26941364555E+02  0.10466438037E+02  0.10067225529E+02  0.30964858777E+02  0.47000000000E+01 0.  1.
          5    1    4    4  503    0 -0.30139437718E+02  0.71102960566E+02 -0.84396904332E+02  0.11449429754E+03  0.47000000000E+01 0.  1.
         -5    1    4    4    0  503  0.19694547056E+02 -0.35575216136E+02 -0.21572179543E+00  0.40934187701E+02  0.47000000000E+01 0.  1.
<mgrwt>
<rscale>  0 0.13037549E+03</rscale>
<asrwt>0</asrwt>
<pdfrwt beam="1">  1        5 0.91639402E-02 0.13037913E+03</pdfrwt>
<pdfrwt beam="2">  1       -5 0.45522384E-01 0.13037913E+03</pdfrwt>
<totfact> 0.30804844E+02</totfact>
</mgrwt>
</event>
<event>
 8    1  0.3588496E-007  0.1303331E+03  0.7546771E-02  0.1226967E+00
          5   -1    0    0  501    0  0.00000000000E+00  0.00000000000E+00  0.33259271949E+02  0.33589718228E+02  0.47000000000E+01 0.  1.
         -5   -1    0    0    0  501 -0.00000000000E+00 -0.00000000000E+00 -0.57445601002E+03  0.57447523658E+03  0.47000000000E+01 0.  1.
         25    2    1    2    0    0  0.17405739535E+02  0.32494569992E+02 -0.37413150886E+03  0.39618317922E+03  0.12501147439E+03 0.  0.
         25    2    1    2    0    0 -0.17405739535E+02 -0.32494569992E+02 -0.16706522921E+03  0.21188177559E+03  0.12499695664E+03 0.  0.
          5    1    3    3  502    0  0.73875782143E+01 -0.41370793112E+02 -0.22993450881E+03  0.23379069095E+03  0.47000000000E+01 0.  1.
         -5    1    3    3    0  502  0.10018161321E+02  0.73865363104E+02 -0.14419700005E+03  0.16239248827E+03  0.47000000000E+01 0.  1.
          5    1    4    4  503    0 -0.64056426499E+02 -0.48180390132E+01 -0.46035409988E+02  0.79169364330E+02  0.47000000000E+01 0. -1.
         -5    1    4    4    0  503  0.46650686963E+02 -0.27676530979E+02 -0.12102981922E+03  0.13271241126E+03  0.47000000000E+01 0. -1.
<mgrwt>
<rscale>  0 0.13032965E+03</rscale>
<asrwt>0</asrwt>
<pdfrwt beam="1">  1        5 0.51437094E-02 0.13033313E+03</pdfrwt>
<pdfrwt beam="2">  1       -5 0.88404738E-01 0.13033313E+03</pdfrwt>
<totfact> 0.18870976E+02</totfact>
</mgrwt>
</event>
<event>
 8    1  0.3588496E-007  0.1273968E+03  0.7546771E-02  0.1231371E+00
          5   -1    0    0  501    0  0.00000000000E+00  0.00000000000E+00  0.22313182926E+03  0.22318132366E+03  0.47000000000E+01 0. -1.
         -5   -1    0    0    0  501 -0.00000000000E+00 -0.00000000000E+00 -0.74374032376E+02  0.74522390540E+02  0.47000000000E+01 0. -1.
         25    2    1    2    0    0  0.23492760310E+02 -0.72694496944E+01  0.51437835760E+02  0.13738799094E+03  0.12499941768E+03 0.  0.
         25    2    1    2    0    0 -0.23492760310E+02  0.72694496944E+01  0.97319961126E+02  0.16031572326E+03  0.12500080642E+03 0.  0.
          5    1    4    4  502    0 -0.33868237147E+02 -0.21845464203E+02  0.11668630012E+03  0.12353972814E+03  0.47000000000E+01 0.  1.
         -5    1    4    4    0  502  0.10375476837E+02  0.29114913897E+02 -0.19366338994E+02  0.36775995117E+02  0.47000000000E+01 0.  1.
          5    1    3    3  503    0  0.35309157566E+02 -0.38115201598E+02 -0.22083415327E+02  0.56650440716E+02  0.47000000000E+01 0.  1.
         -5    1    3    3    0  503 -0.11816397255E+02  0.30845751903E+02  0.73521251087E+02  0.80737550223E+02  0.47000000000E+01 0.  1.
<mgrwt>
<rscale>  0 0.12739651E+03</rscale>
<asrwt>0</asrwt>
<pdfrwt beam="1">  1        5 0.34343193E-01 0.12739685E+03</pdfrwt>
<pdfrwt beam="2">  1       -5 0.11457378E-01 0.12739685E+03</pdfrwt>
<totfact> 0.36736380E+02</totfact>
</mgrwt>
</event>
<event>
 8    1  0.3588496E-007  0.1263062E+03  0.7546771E-02  0.1233043E+00
         -5   -1    0    0    0  501 -0.00000000000E+00  0.00000000000E+00  0.33709777386E+02  0.34035850091E+02  0.47000000000E+01 0.  1.
          5   -1    0    0  501    0  0.00000000000E+00 -0.00000000000E+00 -0.49657933910E+03  0.49660158076E+03  0.47000000000E+01 0.  1.
         25    2    1    2    0    0  0.45585668442E+01 -0.17510717266E+02 -0.17079483040E+03  0.21242223326E+03  0.12499970136E+03 0.  0.
         25    2    1    2    0    0 -0.45585668442E+01  0.17510717266E+02 -0.29207473131E+03  0.31821519759E+03  0.12500343020E+03 0.  0.
          5    1    3    3  502    0 -0.38455633971E+02  0.38819736859E+02 -0.83144482720E+02  0.99603728649E+02  0.47000000000E+01 0. -1.
         -5    1    3    3    0  502  0.43014200815E+02 -0.56330454126E+02 -0.87650347683E+02  0.11281850461E+03  0.47000000000E+01 0. -1.
          5    1    4    4  503    0 -0.12740910915E+02  0.51175619800E+02 -0.47428137015E+02  0.71083001158E+02  0.47000000000E+01 0.  1.
         -5    1    4    4    0  503  0.81823440707E+01 -0.33664902534E+02 -0.24464659429E+03  0.24713219644E+03  0.47000000000E+01 0.  1.
<mgrwt>
<rscale>  0 0.12630531E+03</rscale>
<asrwt>0</asrwt>
<pdfrwt beam="2">  1        5 0.76423610E-01 0.12630623E+03</pdfrwt>
<pdfrwt beam="1">  1       -5 0.52129134E-02 0.12630623E+03</pdfrwt>
<totfact> 0.25599444E+02</totfact>
</mgrwt>
</event>
<event>
 8    1  0.3588496E-007  0.1374185E+03  0.7546771E-02  0.1216846E+00
         -5   -1    0    0    0  501 -0.00000000000E+00  0.00000000000E+00  0.57399943770E+02  0.57592044110E+02  0.47000000000E+01 0.  1.
          5   -1    0    0  501    0  0.00000000000E+00 -0.00000000000E+00 -0.32832492788E+03  0.32835856661E+03  0.47000000000E+01 0.  1.
         25    2    1    2    0    0  0.42670671813E+02 -0.37918702934E+02 -0.13206879052E+03  0.19059382538E+03  0.12500090631E+03 0.  0.
         25    2    1    2    0    0 -0.42670671813E+02  0.37918702934E+02 -0.13885619359E+03  0.19535678534E+03  0.12499846725E+03 0.  0.
          5    1    3    3  502    0 -0.39160431795E+02 -0.37057793076E+02 -0.65725554005E+02  0.85139637628E+02  0.47000000000E+01 0.  1.
         -5    1    3    3    0  502  0.81831103608E+02 -0.86090985824E+00 -0.66343236513E+02  0.10545418775E+03  0.47000000000E+01 0.  1.
          5    1    4    4  503    0 -0.74007449761E+02  0.23497770467E+02 -0.34043683571E+02  0.84913545610E+02  0.47000000000E+01 0. -1.
         -5    1    4    4    0  503  0.31336777948E+02  0.14420932467E+02 -0.10481251002E+03  0.11044323973E+03  0.47000000000E+01 0. -1.
<mgrwt>
<rscale>  0 0.13741793E+03</rscale>
<asrwt>0</asrwt>
<pdfrwt beam="2">  1        5 0.50528891E-01 0.13741849E+03</pdfrwt>
<pdfrwt beam="1">  1       -5 0.88481253E-02 0.13741849E+03</pdfrwt>
<totfact> 0.26765815E+02</totfact>
</mgrwt>
</event>
<event>
 8    1  0.3588496E-007  0.1318343E+03  0.7546771E-02  0.1224761E+00
         -5   -1    0    0    0  501 -0.00000000000E+00  0.00000000000E+00  0.86658337018E+02  0.86785697985E+02  0.47000000000E+01 0.  1.
          5   -1    0    0  501    0  0.00000000000E+00 -0.00000000000E+00 -0.21247364807E+03  0.21252562463E+03  0.47000000000E+01 0.  1.
         25    2    1    2    0    0  0.10756268717E+02  0.40474670203E+02 -0.27030210432E+02  0.13457676524E+03  0.12500550877E+03 0.  0.
         25    2    1    2    0    0 -0.10756268717E+02 -0.40474670203E+02 -0.98785100619E+02  0.16473455737E+03  0.12500032817E+03 0.  0.
          5    1    4    4  502    0  0.24505627917E+02  0.11746569131E+02  0.17307763789E+02  0.32560042588E+02  0.47000000000E+01 0. -1.
         -5    1    4    4    0  502 -0.35261896634E+02 -0.52221239334E+02 -0.11609286441E+03  0.13217451478E+03  0.47000000000E+01 0. -1.
          5    1    3    3  503    0 -0.56318778807E+02  0.14892640049E+02 -0.22505334935E+01  0.58487182142E+02  0.47000000000E+01 0.  1.
         -5    1    3    3    0  503  0.67075047524E+02  0.25582030154E+02 -0.24779676938E+02  0.76089583100E+02  0.47000000000E+01 0.  1.
<mgrwt>
<rscale>  0 0.13183304E+03</rscale>
<asrwt>0</asrwt>
<pdfrwt beam="2">  1        5 0.32702048E-01 0.13183427E+03</pdfrwt>
<pdfrwt beam="1">  1       -5 0.13345847E-01 0.13183427E+03</pdfrwt>
<totfact> 0.31277348E+02</totfact>
</mgrwt>
</event>
<event>
 8    1  0.3588496E-007  0.1920503E+03  0.7546771E-02  0.1156626E+00
          5   -1    0    0  501    0  0.00000000000E+00  0.00000000000E+00  0.83383105722E+02  0.83515461562E+02  0.47000000000E+01 0. -1.
         -5   -1    0    0    0  501 -0.00000000000E+00 -0.00000000000E+00 -0.57240940349E+03  0.57242869880E+03  0.47000000000E+01 0. -1.
         25    2    1    2    0    0 -0.44587345803E+02  0.13881009524E+03 -0.40113672382E+03  0.44473832123E+03  0.12500091692E+03 0.  0.
         25    2    1    2    0    0  0.44587345803E+02 -0.13881009524E+03 -0.87889573954E+02  0.21120583913E+03  0.12500822104E+03 0.  0.
          5    1    4    4  502    0  0.31717818585E+02 -0.15808974550E+03 -0.54457285940E+02  0.17025296955E+03  0.47000000000E+01 0.  1.
         -5    1    4    4    0  502  0.12869527218E+02  0.19279650264E+02 -0.33432288013E+02  0.40952869581E+02  0.47000000000E+01 0.  1.
          5    1    3    3  503    0 -0.74902160200E+02  0.59491837520E+02 -0.28593220489E+03  0.30154423909E+03  0.47000000000E+01 0. -1.
         -5    1    3    3    0  503  0.30314814397E+02  0.79318257716E+02 -0.11520451893E+03  0.14319408214E+03  0.47000000000E+01 0. -1.
<mgrwt>
<rscale>  0 0.19204914E+03</rscale>
<asrwt>0</asrwt>
<pdfrwt beam="1">  1        5 0.12839836E-01 0.19205033E+03</pdfrwt>
<pdfrwt beam="2">  1       -5 0.88074648E-01 0.19205033E+03</pdfrwt>
<totfact> 0.44248145E+01</totfact>
</mgrwt>
</event>
<event>
 8    1  0.3588496E-007  0.1301747E+03  0.7546771E-02  0.1227202E+00
          5   -1    0    0  501    0  0.00000000000E+00  0.00000000000E+00  0.31816222050E+02  0.32161498497E+02  0.47000000000E+01 0.  1.
         -5   -1    0    0    0  501 -0.00000000000E+00 -0.00000000000E+00 -0.53961120042E+03  0.53963166847E+03  0.47000000000E+01 0.  1.
         25    2    1    2    0    0 -0.28240890429E+02 -0.22810046381E+02 -0.29335523082E+03  0.32093493853E+03  0.12499638879E+03 0.  0.
         25    2    1    2    0    0  0.28240890429E+02  0.22810046381E+02 -0.21443974755E+03  0.25085822844E+03  0.12501039692E+03 0.  0.
          5    1    4    4  502    0  0.35884234886E+02 -0.56631668429E+01 -0.21776099804E+03  0.22082049732E+03  0.47000000000E+01 0. -1.
         -5    1    4    4    0  502 -0.76433444566E+01  0.28473213224E+02  0.33212504887E+01  0.30037731116E+02  0.47000000000E+01 0. -1.
          5    1    3    3  503    0  0.94133031528E+01  0.50147865602E+01 -0.26650255628E+03  0.26675730705E+03  0.47000000000E+01 0.  1.
         -5    1    3    3    0  503 -0.37654193582E+02 -0.27824832941E+02 -0.26852674535E+02  0.54177631475E+02  0.47000000000E+01 0.  1.
<mgrwt>
<rscale>  0 0.13017131E+03</rscale>
<asrwt>0</asrwt>
<pdfrwt beam="1">  1        5 0.49229380E-02 0.13017467E+03</pdfrwt>
<pdfrwt beam="2">  1       -5 0.83045235E-01 0.13017467E+03</pdfrwt>
<totfact> 0.23490601E+02</totfact>
</mgrwt>
</event>
<event>
 8    1  0.3588496E-007  0.1325474E+03  0.7546771E-02  0.1223727E+00
          5   -1    0    0  501    0  0.00000000000E+00  0.00000000000E+00  0.30732765350E+03  0.30736359024E+03  0.47000000000E+01 0. -1.
         -5   -1    0    0    0  501 -0.00000000000E+00 -0.00000000000E+00 -0.61644912681E+02  0.61823824368E+02  0.47000000000E+01 0. -1.
         25    2    1    2    0    0 -0.41372806085E+02 -0.15205003486E+02  0.72405507664E+02  0.15102734970E+03  0.12499520632E+03 0.  0.
         25    2    1    2    0    0  0.41372806085E+02  0.15205003486E+02  0.17327723315E+03  0.21816006491E+03  0.12500365266E+03 0.  0.
          5    1    3    3  502    0 -0.38471502953E+02 -0.54989775020E+02 -0.10761838082E+01  0.67284322600E+02  0.47000000000E+01 0.  1.
         -5    1    3    3    0  502 -0.29013031325E+01  0.39784771534E+02  0.73481691472E+02  0.83743027098E+02  0.47000000000E+01 0.  1.
          5    1    4    4  503    0  0.77754964171E+02 -0.82510675577E+00  0.60949106363E+02  0.98911065209E+02  0.47000000000E+01 0.  1.
         -5    1    4    4    0  503 -0.36382158086E+02  0.16030110242E+02  0.11232812679E+03  0.11924899970E+03  0.47000000000E+01 0.  1.
<mgrwt>
<rscale>  0 0.13254541E+03</rscale>
<asrwt>0</asrwt>
<pdfrwt beam="1">  1        5 0.47297704E-01 0.13254740E+03</pdfrwt>
<pdfrwt beam="2">  1       -5 0.95003596E-02 0.13254740E+03</pdfrwt>
<totfact> 0.26872311E+02</totfact>
</mgrwt>
</event>
<event>
 8    1  0.3588496E-007  0.1303760E+03  0.7546771E-02  0.1226903E+00
          5   -1    0    0  501    0  0.00000000000E+00  0.00000000000E+00  0.60850041596E+02  0.61031283472E+02  0.47000000000E+01 0. -1.
         -5   -1    0    0    0  501 -0.00000000000E+00 -0.00000000000E+00 -0.47110101286E+03  0.47112445736E+03  0.47000000000E+01 0. -1.
         25    2    1    2    0    0 -0.28528367516E+02  0.23606349869E+02 -0.37513469625E+03  0.39714473260E+03  0.12500708295E+03 0.  0.
         25    2    1    2    0    0  0.28528367516E+02 -0.23606349869E+02 -0.35116275015E+02  0.13501100824E+03  0.12499476816E+03 0.  0.
          5    1    4    4  502    0  0.67894255421E+02 -0.97064836566E+01  0.14230669975E+02  0.70202903873E+02  0.47000000000E+01 0.  1.
         -5    1    4    4    0  502 -0.39365887905E+02 -0.13899866212E+02 -0.49346944990E+02  0.64808104363E+02  0.47000000000E+01 0.  1.
          5    1    3    3  503    0  0.17213538656E+02  0.41550948440E+02 -0.31985155564E+03  0.32303234338E+03  0.47000000000E+01 0. -1.
         -5    1    3    3    0  503 -0.45741906172E+02 -0.17944598571E+02 -0.55283140617E+02  0.74112389211E+02  0.47000000000E+01 0. -1.
<mgrwt>
<rscale>  0 0.13037304E+03</rscale>
<asrwt>0</asrwt>
<pdfrwt beam="1">  1        5 0.93772903E-02 0.13037599E+03</pdfrwt>
<pdfrwt beam="2">  1       -5 0.72492822E-01 0.13037599E+03</pdfrwt>
<totfact> 0.10779859E+02</totfact>
</mgrwt>
</event>
<event>
 8    1  0.3588496E-007  0.1661423E+03  0.7546771E-02  0.1181933E+00
          5   -1    0    0  501    0  0.00000000000E+00  0.00000000000E+00  0.19493114325E+03  0.19498779606E+03  0.47000000000E+01 0.  1.
         -5   -1    0    0    0  501 -0.00000000000E+00 -0.00000000000E+00 -0.17143086958E+03  0.17149528578E+03  0.47000000000E+01 0.  1.
         25    2    1    2    0    0  0.48861918023E+02 -0.97933772576E+02 -0.64806108970E+02  0.17833425958E+03  0.12499906215E+03 0.  0.
         25    2    1    2    0    0 -0.48861918023E+02  0.97933772576E+02  0.88306382648E+02  0.18814882225E+03  0.12499380486E+03 0.  0.
          5    1    4    4  502    0 -0.32381469623E+02  0.12419489902E+03  0.89867022108E+02  0.15675172784E+03  0.47000000000E+01 0.  1.
         -5    1    4    4    0  502 -0.16480448400E+02 -0.26261126448E+02 -0.15606394605E+01  0.31397094408E+02  0.47000000000E+01 0.  1.
          5    1    3    3  503    0 -0.17656511984E+02  0.82578573580E+01 -0.47746719372E+02  0.51785942440E+02  0.47000000000E+01 0.  1.
         -5    1    3    3    0  503  0.66518430007E+02 -0.10619162993E+03 -0.17059389598E+02  0.12654831714E+03  0.47000000000E+01 0.  1.
<mgrwt>
<rscale>  0 0.16614135E+03</rscale>
<asrwt>0</asrwt>
<pdfrwt beam="1">  1        5 0.29998720E-01 0.16614234E+03</pdfrwt>
<pdfrwt beam="2">  1       -5 0.26383293E-01 0.16614234E+03</pdfrwt>
<totfact> 0.11280870E+02</totfact>
</mgrwt>
</event>
<event>
 8    1  0.3588496E-007  0.1344126E+03  0.7546771E-02  0.1221053E+00
         -5   -1    0    0    0  501 -0.00000000000E+00  0.00000000000E+00  0.32365313764E+02  0.32704793762E+02  0.47000000000E+01 0. -1.
          5   -1    0    0  501    0  0.00000000000E+00 -0.00000000000E+00 -0.76114151086E+03  0.76115602182E+03  0.47000000000E+01 0. -1.
         25    2    1    2    0    0  0.45076793278E+02  0.20253167676E+02 -0.15783189182E+03  0.20730804449E+03  0.12499444445E+03 0.  0.
         25    2    1    2    0    0 -0.45076793278E+02 -0.20253167676E+02 -0.57094430528E+03  0.58655277109E+03  0.12499858179E+03 0.  0.
          5    1    3    3  502    0 -0.22147370292E+02  0.17248876364E+02  0.69113293050E+01  0.29289694766E+02  0.47000000000E+01 0. -1.
         -5    1    3    3    0  502  0.67224163571E+02  0.30042913118E+01 -0.16474322112E+03  0.17801834973E+03  0.47000000000E+01 0. -1.
          5    1    4    4  503    0  0.13800586621E+02  0.16330801008E+02 -0.15604557689E+02  0.26883888731E+02  0.47000000000E+01 0.  1.
         -5    1    4    4    0  503 -0.58877379899E+02 -0.36583968684E+02 -0.55533974759E+03  0.55966888236E+03  0.47000000000E+01 0.  1.
<mgrwt>
<rscale>  0 0.13441166E+03</rscale>
<asrwt>0</asrwt>
<pdfrwt beam="2">  1        5 0.11712591E+00 0.13441262E+03</pdfrwt>
<pdfrwt beam="1">  1       -5 0.50065097E-02 0.13441262E+03</pdfrwt>
<totfact> 0.10037016E+02</totfact>
</mgrwt>
</event>
<event>
 8    1  0.3588496E-007  0.1365529E+03  0.7546771E-02  0.1218047E+00
         -5   -1    0    0    0  501 -0.00000000000E+00  0.00000000000E+00  0.27790979801E+02  0.28185609064E+02  0.47000000000E+01 0. -1.
          5   -1    0    0  501    0  0.00000000000E+00 -0.00000000000E+00 -0.84939177625E+03  0.84940477958E+03  0.47000000000E+01 0. -1.
         25    2    1    2    0    0  0.42226243222E+02  0.35166450250E+02 -0.20683156139E+03  0.24783813899E+03  0.12499885404E+03 0.  0.
         25    2    1    2    0    0 -0.42226243222E+02 -0.35166450250E+02 -0.61476923507E+03  0.62975224965E+03  0.12500779463E+03 0.  0.
          5    1    3    3  502    0  0.24242155461E+02 -0.29901922955E+02 -0.16220600928E+03  0.16677735621E+03  0.47000000000E+01 0. -1.
         -5    1    3    3    0  502  0.17984087761E+02  0.65068373205E+02 -0.44625552109E+02  0.81060782782E+02  0.47000000000E+01 0. -1.
          5    1    4    4  503    0 -0.40587374232E+02 -0.80771615267E+02 -0.39340052079E+03  0.40367988375E+03  0.47000000000E+01 0.  1.
         -5    1    4    4    0  503 -0.16388689901E+01  0.45605165017E+02 -0.22136871427E+03  0.22607236590E+03  0.47000000000E+01 0.  1.
<mgrwt>
<rscale>  0 0.13655081E+03</rscale>
<asrwt>0</asrwt>
<pdfrwt beam="2">  1        5 0.13070699E+00 0.13655286E+03</pdfrwt>
<pdfrwt beam="1">  1       -5 0.43068924E-02 0.13655286E+03</pdfrwt>
<totfact> 0.97598778E+01</totfact>
</mgrwt>
</event>
<event>
 8    1  0.3588496E-007  0.1315617E+03  0.7546771E-02  0.1225158E+00
          5   -1    0    0  501    0  0.00000000000E+00  0.00000000000E+00  0.51464892023E+02  0.51679058727E+02  0.47000000000E+01 0. -1.
         -5   -1    0    0    0  501 -0.00000000000E+00 -0.00000000000E+00 -0.33601325045E+03  0.33604611957E+03  0.47000000000E+01 0. -1.
         25    2    1    2    0    0  0.97471096119E+01 -0.39845068488E+02 -0.15068546807E+03  0.20003458144E+03  0.12500035142E+03 0.  0.
         25    2    1    2    0    0 -0.97471096119E+01  0.39845068488E+02 -0.13386289036E+03  0.18769059686E+03  0.12500340438E+03 0.  0.
          5    1    3    3  502    0  0.36182336504E+02 -0.68084316999E+02 -0.49853439528E+02  0.91935255092E+02  0.47000000000E+01 0.  1.
         -5    1    3    3    0  502 -0.26435226892E+02  0.28239248510E+02 -0.10083202854E+03  0.10809932635E+03  0.47000000000E+01 0.  1.
          5    1    4    4  503    0 -0.22249578888E+02 -0.19259777490E+02  0.10123580166E+02  0.31473157850E+02  0.47000000000E+01 0. -1.
         -5    1    4    4    0  503  0.12502469276E+02  0.59104845978E+02 -0.14398647053E+03  0.15621743901E+03  0.47000000000E+01 0. -1.
<mgrwt>
<rscale>  0 0.13156100E+03</rscale>
<asrwt>0</asrwt>
<pdfrwt beam="1">  1        5 0.79366786E-02 0.13156172E+03</pdfrwt>
<pdfrwt beam="2">  1       -5 0.51713348E-01 0.13156172E+03</pdfrwt>
<totfact> 0.30258800E+02</totfact>
</mgrwt>
</event>
<event>
 8    1  0.3588496E-007  0.1519878E+03  0.7546771E-02  0.1198054E+00
          5   -1    0    0  501    0  0.00000000000E+00  0.00000000000E+00  0.11569140422E+04  0.11569235892E+04  0.47000000000E+01 0. -1.
         -5   -1    0    0    0  501 -0.00000000000E+00 -0.00000000000E+00 -0.52211086590E+02  0.52422204865E+02  0.47000000000E+01 0. -1.
         25    2    1    2    0    0  0.37095759260E+02 -0.78090859980E+02  0.76839605543E+02  0.17030740208E+03  0.12500403376E+03 0.  0.
         25    2    1    2    0    0 -0.37095759260E+02  0.78090859980E+02  0.10278633501E+04  0.10390383919E+04  0.12499374245E+03 0.  0.
          5    1    3    3  502    0  0.18267956072E+02 -0.55240874698E+00 -0.30869380089E+02  0.36180547281E+02  0.47000000000E+01 0. -1.
         -5    1    3    3    0  502  0.18827803188E+02 -0.77538451233E+02  0.10770898563E+03  0.13412685480E+03  0.47000000000E+01 0. -1.
          5    1    4    4  503    0 -0.64281402857E+02  0.12487982773E+02  0.72317205836E+03  0.72614596636E+03  0.47000000000E+01 0.  1.
         -5    1    4    4    0  503  0.27185643597E+02  0.65602877207E+02  0.30469129175E+03  0.31289242558E+03  0.47000000000E+01 0.  1.
<mgrwt>
<rscale>  0 0.15198567E+03</rscale>
<asrwt>0</asrwt>
<pdfrwt beam="1">  1        5 0.17800375E+00 0.15198778E+03</pdfrwt>
<pdfrwt beam="2">  1       -5 0.80494491E-02 0.15198778E+03</pdfrwt>
<totfact> 0.15012215E+01</totfact>
</mgrwt>
</event>
<event>
 8    1  0.3588496E-007  0.2070597E+03  0.7546771E-02  0.1143917E+00
         -5   -1    0    0    0  501 -0.00000000000E+00  0.00000000000E+00  0.43916893253E+03  0.43919408159E+03  0.47000000000E+01 0.  1.
          5   -1    0    0  501    0  0.00000000000E+00 -0.00000000000E+00 -0.10615901659E+03  0.10626300769E+03  0.47000000000E+01 0.  1.
         25    2    1    2    0    0 -0.13249100698E+03 -0.98456126905E+02  0.24417916927E+03  0.32014699542E+03  0.12499262425E+03 0.  0.
         25    2    1    2    0    0  0.13249100698E+03  0.98456126905E+02  0.88830746672E+02  0.22531009386E+03  0.12500504384E+03 0.  0.
          5    1    3    3  502    0  0.92081290867E+01 -0.41920719975E+02  0.16888059276E+02  0.46361977423E+02  0.47000000000E+01 0.  1.
         -5    1    3    3    0  502 -0.14169913607E+03 -0.56535406930E+02  0.22729110999E+03  0.27378501800E+03  0.47000000000E+01 0.  1.
          5    1    4    4  503    0  0.95330417187E+02  0.55115322539E+02  0.11762774144E+03  0.16119541797E+03  0.47000000000E+01 0.  1.
         -5    1    4    4    0  503  0.37160589792E+02  0.43340804366E+02 -0.28796994766E+02  0.64114675889E+02  0.47000000000E+01 0.  1.
<mgrwt>
<rscale>  0 0.20705787E+03</rscale>
<asrwt>0</asrwt>
<pdfrwt beam="2">  1        5 0.16342090E-01 0.20705974E+03</pdfrwt>
<pdfrwt beam="1">  1       -5 0.67574385E-01 0.20705974E+03</pdfrwt>
<totfact> 0.53756348E+01</totfact>
</mgrwt>
</event>
<event>
 8    1  0.3588496E-007  0.1720585E+03  0.7546771E-02  0.1175719E+00
         -5   -1    0    0    0  501 -0.00000000000E+00  0.00000000000E+00  0.44170819871E+03  0.44173320320E+03  0.47000000000E+01 0.  1.
          5   -1    0    0  501    0  0.00000000000E+00 -0.00000000000E+00 -0.12495630021E+03  0.12504465987E+03  0.47000000000E+01 0.  1.
         25    2    1    2    0    0 -0.67382344781E+00  0.11823270180E+03  0.35140512842E+03  0.39126441032E+03  0.12499139447E+03 0.  0.
         25    2    1    2    0    0  0.67382344781E+00 -0.11823270180E+03 -0.34653229919E+02  0.17551345275E+03  0.12499879975E+03 0.  0.
          5    1    3    3  502    0  0.48275414972E+02  0.10158761726E+03  0.28861225751E+03  0.30978974298E+03  0.47000000000E+01 0. -1.
         -5    1    3    3    0  502 -0.48949238420E+02  0.16645084541E+02  0.62792870912E+02  0.81474667343E+02  0.47000000000E+01 0. -1.
          5    1    4    4  503    0 -0.66175546770E+01 -0.32753933832E+02  0.46416036456E+02  0.57385979574E+02  0.47000000000E+01 0.  1.
         -5    1    4    4    0  503  0.72913781248E+01 -0.85478767966E+02 -0.81069266375E+02  0.11812747317E+03  0.47000000000E+01 0.  1.
<mgrwt>
<rscale>  0 0.17205715E+03</rscale>
<asrwt>0</asrwt>
<pdfrwt beam="2">  1        5 0.19232766E-01 0.17205850E+03</pdfrwt>
<pdfrwt beam="1">  1       -5 0.67963829E-01 0.17205850E+03</pdfrwt>
<totfact> 0.37351723E+01</totfact>
</mgrwt>
</event>
<event>
 8    1  0.3588496E-007  0.1310915E+03  0.7546771E-02  0.1225847E+00
          5   -1    0    0  501    0  0.00000000000E+00  0.00000000000E+00  0.42912401104E+02  0.43169018618E+02  0.47000000000E+01 0.  1.
         -5   -1    0    0    0  501 -0.00000000000E+00 -0.00000000000E+00 -0.46413401216E+03  0.46415780856E+03  0.47000000000E+01 0.  1.
         25    2    1    2    0    0  0.13508217576E+02  0.37113484491E+02 -0.30561872834E+03  0.33254741401E+03  0.12500037112E+03 0.  0.
         25    2    1    2    0    0 -0.13508217576E+02 -0.37113484491E+02 -0.11560288272E+03  0.17477941316E+03  0.12499573633E+03 0.  0.
          5    1    3    3  502    0  0.19246330126E+02  0.82344747237E+02 -0.21259476223E+03  0.22884427358E+03  0.47000000000E+01 0. -1.
         -5    1    3    3    0  502 -0.57381125500E+01 -0.45231262746E+02 -0.93023966108E+02  0.10370314043E+03  0.47000000000E+01 0. -1.
          5    1    4    4  503    0 -0.48933305296E+02  0.27122690460E+02 -0.37446018252E+02  0.67486317042E+02  0.47000000000E+01 0. -1.
         -5    1    4    4    0  503  0.35425087720E+02 -0.64236174952E+02 -0.78156864463E+02  0.10729309612E+03  0.47000000000E+01 0. -1.
<mgrwt>
<rscale>  0 0.13109037E+03</rscale>
<asrwt>0</asrwt>
<pdfrwt beam="1">  1        5 0.66234785E-02 0.13109148E+03</pdfrwt>
<pdfrwt beam="2">  1       -5 0.71426800E-01 0.13109148E+03</pdfrwt>
<totfact> 0.20249819E+02</totfact>
</mgrwt>
</event>
<event>
 8    1  0.3588496E-007  0.1370880E+03  0.7546771E-02  0.1217302E+00
          5   -1    0    0  501    0  0.00000000000E+00  0.00000000000E+00  0.21745618669E+04  0.21745669461E+04  0.47000000000E+01 0. -1.
         -5   -1    0    0    0  501 -0.00000000000E+00 -0.00000000000E+00 -0.10598415225E+02  0.11593808920E+02  0.47000000000E+01 0. -1.
         25    2    1    2    0    0 -0.38944297747E+02  0.40638048840E+02  0.56753290776E+03  0.58385503833E+03  0.12499998020E+03 0.  0.
         25    2    1    2    0    0  0.38944297747E+02 -0.40638048840E+02  0.15964305439E+04  0.16023057166E+04  0.12500007514E+03 0.  0.
          5    1    3    3  502    0 -0.20253538779E+02 -0.39128906223E+02  0.10295633658E+03  0.11208645939E+03  0.47000000000E+01 0.  1.
         -5    1    3    3    0  502 -0.18690758969E+02  0.79766955063E+02  0.46457657117E+03  0.47176857894E+03  0.47000000000E+01 0.  1.
          5    1    4    4  503    0  0.28555462867E+02  0.87304732668E+00  0.14332478547E+04  0.14335402609E+04  0.47000000000E+01 0. -1.
         -5    1    4    4    0  503  0.10388834880E+02 -0.41511096167E+02  0.16318268919E+03  0.16876545573E+03  0.47000000000E+01 0. -1.
<mgrwt>
<rscale>  0 0.13708801E+03</rscale>
<asrwt>0</asrwt>
<pdfrwt beam="1">  1        5 0.33462518E+00 0.13708803E+03</pdfrwt>
<pdfrwt beam="2">  1       -5 0.17074837E-02 0.13708803E+03</pdfrwt>
<totfact> 0.17916337E+01</totfact>
</mgrwt>
</event>
<event>
 8    1  0.3588496E-007  0.1430256E+03  0.7546771E-02  0.1209318E+00
         -5   -1    0    0    0  501 -0.00000000000E+00  0.00000000000E+00  0.52482842614E+03  0.52484947070E+03  0.47000000000E+01 0.  1.
          5   -1    0    0  501    0  0.00000000000E+00 -0.00000000000E+00 -0.41935310870E+02  0.42197870773E+02  0.47000000000E+01 0.  1.
         25    2    1    2    0    0 -0.46243930487E+02  0.51873054671E+02  0.31857601461E+03  0.34920908836E+03  0.12500798134E+03 0.  0.
         25    2    1    2    0    0  0.46243930487E+02 -0.51873054671E+02  0.16431710066E+03  0.21783825311E+03  0.12499632010E+03 0.  0.
          5    1    3    3  502    0 -0.40252461038E+02  0.25059470615E+02  0.24061887043E+02  0.53378854383E+02  0.47000000000E+01 0.  1.
         -5    1    3    3    0  502 -0.59914694493E+01  0.26813584055E+02  0.29451412757E+03  0.29583023398E+03  0.47000000000E+01 0.  1.
          5    1    4    4  503    0  0.25790795346E+01 -0.47895990337E+01  0.15214132570E+03  0.15231107936E+03  0.47000000000E+01 0.  1.
         -5    1    4    4    0  503  0.43664850953E+02 -0.47083455637E+02  0.12175774961E+02  0.65527173748E+02  0.47000000000E+01 0.  1.
<mgrwt>
<rscale>  0 0.14302301E+03</rscale>
<asrwt>0</asrwt>
<pdfrwt beam="2">  1        5 0.64734020E-02 0.14302556E+03</pdfrwt>
<pdfrwt beam="1">  1       -5 0.80764650E-01 0.14302556E+03</pdfrwt>
<totfact> 0.16356740E+02</totfact>
</mgrwt>
</event>
<event>
 8    1  0.3588496E-007  0.2002903E+03  0.7546771E-02  0.1149495E+00
         -5   -1    0    0    0  501 -0.00000000000E+00  0.00000000000E+00  0.60394690096E+02  0.60577294359E+02  0.47000000000E+01 0.  1.
          5   -1    0    0  501    0  0.00000000000E+00 -0.00000000000E+00 -0.75261675873E+03  0.75263143405E+03  0.47000000000E+01 0.  1.
         25    2    1    2    0    0 -0.48279618418E+02 -0.14885757476E+03 -0.20584920428E+03  0.28720988689E+03  0.12500450034E+03 0.  0.
         25    2    1    2    0    0  0.48279618418E+02  0.14885757476E+03 -0.48637286436E+03  0.52599884152E+03  0.12500687574E+03 0.  0.
          5    1    3    3  502    0 -0.52303156317E+02 -0.85358887153E+02 -0.19929495294E+03  0.22307471404E+03  0.47000000000E+01 0. -1.
         -5    1    3    3    0  502  0.40235378991E+01 -0.63498687609E+02 -0.65542513355E+01  0.64135172845E+02  0.47000000000E+01 0. -1.
          5    1    4    4  503    0  0.30814459778E+02  0.94874917465E+02 -0.12415467623E+03  0.15933378338E+03  0.47000000000E+01 0. -1.
         -5    1    4    4    0  503  0.17465158639E+02  0.53982657297E+02 -0.36221818813E+03  0.36666505815E+03  0.47000000000E+01 0. -1.
<mgrwt>
<rscale>  0 0.20028996E+03</rscale>
<asrwt>0</asrwt>
<pdfrwt beam="2">  1        5 0.11580236E+00 0.20029033E+03</pdfrwt>
<pdfrwt beam="1">  1       -5 0.93066667E-02 0.20029033E+03</pdfrwt>
<totfact> 0.40321069E+01</totfact>
</mgrwt>
</event>
<event>
 8    1  0.3588496E-007  0.1564945E+03  0.7546771E-02  0.1192713E+00
          5   -1    0    0  501    0  0.00000000000E+00  0.00000000000E+00  0.37307254858E+02  0.37602144421E+02  0.47000000000E+01 0. -1.
         -5   -1    0    0    0  501 -0.00000000000E+00 -0.00000000000E+00 -0.93413823455E+03  0.93415005821E+03  0.47000000000E+01 0. -1.
         25    2    1    2    0    0  0.62747250661E+02 -0.70187022371E+02 -0.71466596149E+03  0.73159959320E+03  0.12500837046E+03 0.  0.
         25    2    1    2    0    0 -0.62747250661E+02  0.70187022371E+02 -0.18216501820E+03  0.24015260942E+03  0.12500298549E+03 0.  0.
          5    1    4    4  502    0 -0.65299590163E+02  0.78495715102E+02 -0.19722620913E+03  0.22213932865E+03  0.47000000000E+01 0. -1.
         -5    1    4    4    0  502  0.25523395015E+01 -0.83086927313E+01  0.15061190934E+02  0.18013280772E+02  0.47000000000E+01 0. -1.
          5    1    3    3  503    0  0.44501308971E+02 -0.37343758151E+02 -0.67212999237E+03  0.67465231002E+03  0.47000000000E+01 0.  1.
         -5    1    3    3    0  503  0.18245941690E+02 -0.32843264220E+02 -0.42535969124E+02  0.56947283184E+02  0.47000000000E+01 0.  1.
<mgrwt>
<rscale>  0 0.15649342E+03</rscale>
<asrwt>0</asrwt>
<pdfrwt beam="1">  1        5 0.57631717E-02 0.15649450E+03</pdfrwt>
<pdfrwt beam="2">  1       -5 0.14373715E+00 0.15649450E+03</pdfrwt>
<totfact> 0.48690839E+01</totfact>
</mgrwt>
</event>
<event>
 8    1  0.3588496E-007  0.1529171E+03  0.7546771E-02  0.1196934E+00
         -5   -1    0    0    0  501 -0.00000000000E+00  0.00000000000E+00  0.77233696038E+02  0.77376571413E+02  0.47000000000E+01 0.  1.
          5   -1    0    0  501    0  0.00000000000E+00 -0.00000000000E+00 -0.34199570989E+03  0.34202800409E+03  0.47000000000E+01 0.  1.
         25    2    1    2    0    0  0.82414403264E+02  0.31094797529E+02 -0.60973189957E+02  0.16462492470E+03  0.12499846255E+03 0.  0.
         25    2    1    2    0    0 -0.82414403264E+02 -0.31094797529E+02 -0.20378882389E+03  0.25477965080E+03  0.12499506158E+03 0.  0.
          5    1    4    4  502    0 -0.86121939129E+02 -0.40909718119E+02 -0.21711832899E+03  0.23717725907E+03  0.47000000000E+01 0.  1.
         -5    1    4    4    0  502  0.37075358656E+01  0.98149205904E+01  0.13329505100E+02  0.17602391730E+02  0.47000000000E+01 0.  1.
          5    1    3    3  503    0 -0.32832528657E+01 -0.30327710057E+02 -0.49672370358E+02  0.58480630329E+02  0.47000000000E+01 0.  1.
         -5    1    3    3    0  503  0.85697656130E+02  0.61422507586E+02 -0.11300819599E+02  0.10614429437E+03  0.47000000000E+01 0.  1.
<mgrwt>
<rscale>  0 0.15291639E+03</rscale>
<asrwt>0</asrwt>
<pdfrwt beam="2">  1        5 0.52628198E-01 0.15291709E+03</pdfrwt>
<pdfrwt beam="1">  1       -5 0.11895582E-01 0.15291709E+03</pdfrwt>
<totfact> 0.15142961E+02</totfact>
</mgrwt>
</event>
<event>
 8    1  0.3588496E-007  0.1542106E+03  0.7546771E-02  0.1195397E+00
          5   -1    0    0  501    0  0.00000000000E+00  0.00000000000E+00  0.29238864490E+03  0.29242641753E+03  0.47000000000E+01 0. -1.
         -5   -1    0    0    0  501 -0.00000000000E+00 -0.00000000000E+00 -0.85745273558E+02  0.85873988713E+02  0.47000000000E+01 0. -1.
         25    2    1    2    0    0 -0.82136442469E+02 -0.37550618504E+02  0.14675722142E+03  0.21286987244E+03  0.12497782372E+03 0.  0.
         25    2    1    2    0    0  0.82136442469E+02  0.37550618504E+02  0.59886149923E+02  0.16543053380E+03  0.12499786570E+03 0.  0.
          5    1    3    3  502    0 -0.21360996524E+02  0.19039112511E+02  0.12299455899E+03  0.12636665509E+03  0.47000000000E+01 0. -1.
         -5    1    3    3    0  502 -0.60775445945E+02 -0.56589731016E+02  0.23762662430E+02  0.86503217350E+02  0.47000000000E+01 0. -1.
          5    1    4    4  503    0  0.94017027120E+02  0.38467633918E+02 -0.25211594308E+01  0.10172220256E+03  0.47000000000E+01 0.  1.
         -5    1    4    4    0  503 -0.11880584652E+02 -0.91701541332E+00  0.62407309354E+02  0.63708331242E+02  0.47000000000E+01 0.  1.
<mgrwt>
<rscale>  0 0.15420654E+03</rscale>
<asrwt>0</asrwt>
<pdfrwt beam="1">  1        5 0.44995675E-01 0.15421060E+03</pdfrwt>
<pdfrwt beam="2">  1       -5 0.13204387E-01 0.15421060E+03</pdfrwt>
<totfact> 0.17557668E+02</totfact>
</mgrwt>
</event>
<event>
 8    1  0.3588496E-007  0.1846209E+03  0.7546771E-02  0.1163405E+00
          5   -1    0    0  501    0  0.00000000000E+00  0.00000000000E+00  0.32638929800E+02  0.32975593073E+02  0.47000000000E+01 0. -1.
         -5   -1    0    0    0  501 -0.00000000000E+00 -0.00000000000E+00 -0.10463035503E+04  0.10463141064E+04  0.47000000000E+01 0. -1.
         25    2    1    2    0    0  0.11204943546E+03  0.76834043707E+02 -0.46050364160E+03  0.49613281810E+03  0.12500249202E+03 0.  0.
         25    2    1    2    0    0 -0.11204943546E+03 -0.76834043707E+02 -0.55316097889E+03  0.58315688142E+03  0.12500533396E+03 0.  0.
          5    1    4    4  502    0 -0.34669656760E+02 -0.13329620192E+02 -0.38919658292E+03  0.39099326596E+03  0.47000000000E+01 0.  1.
         -5    1    4    4    0  502 -0.77379778701E+02 -0.63504423516E+02 -0.16396439597E+03  0.19216361545E+03  0.47000000000E+01 0.  1.
          5    1    3    3  503    0  0.15211546138E+02  0.73657208313E+02 -0.11678135687E+03  0.13898471422E+03  0.47000000000E+01 0. -1.
         -5    1    3    3    0  503  0.96837889323E+02  0.31768353944E+01 -0.34372228472E+03  0.35714810388E+03  0.47000000000E+01 0. -1.
<mgrwt>
<rscale>  0 0.18462043E+03</rscale>
<asrwt>0</asrwt>
<pdfrwt beam="1">  1        5 0.50480838E-02 0.18462091E+03</pdfrwt>
<pdfrwt beam="2">  1       -5 0.16099646E+00 0.18462091E+03</pdfrwt>
<totfact> 0.46456621E+01</totfact>
</mgrwt>
</event>
<event>
 8    1  0.3588496E-007  0.1472781E+03  0.7546771E-02  0.1203866E+00
          5   -1    0    0  501    0  0.00000000000E+00  0.00000000000E+00  0.10750352844E+03  0.10760622021E+03  0.47000000000E+01 0.  1.
         -5   -1    0    0    0  501 -0.00000000000E+00 -0.00000000000E+00 -0.21354975657E+03  0.21360147127E+03  0.47000000000E+01 0.  1.
         25    2    1    2    0    0 -0.67467437295E+02 -0.38797603211E+02 -0.91141510434E+02  0.17317731944E+03  0.12500599960E+03 0.  0.
         25    2    1    2    0    0  0.67467437295E+02  0.38797603211E+02 -0.14904717691E+02  0.14803037204E+03  0.12503492043E+03 0.  0.
          5    1    4    4  502    0  0.96672431214E+02  0.14128621723E+02 -0.35863645740E+02  0.10417997886E+03  0.47000000000E+01 0.  1.
         -5    1    4    4    0  502 -0.29204993919E+02  0.24668981488E+02  0.20958928049E+02  0.43850393185E+02  0.47000000000E+01 0.  1.
          5    1    3    3  503    0  0.30967891987E+02 -0.86161795192E+01  0.42243404135E+01  0.32759486192E+02  0.47000000000E+01 0.  1.
         -5    1    3    3    0  503 -0.98435329283E+02 -0.30181423692E+02 -0.95365850847E+02  0.14041783325E+03  0.47000000000E+01 0.  1.
<mgrwt>
<rscale>  0 0.14727197E+03</rscale>
<asrwt>0</asrwt>
<pdfrwt beam="1">  1        5 0.16550882E-01 0.14727811E+03</pdfrwt>
<pdfrwt beam="2">  1       -5 0.32865686E-01 0.14727811E+03</pdfrwt>
<totfact> 0.21785023E+02</totfact>
</mgrwt>
</event>
<event>
 8    1  0.3588496E-007  0.2089868E+03  0.7546771E-02  0.1142371E+00
          5   -1    0    0  501    0  0.00000000000E+00  0.00000000000E+00  0.46342865816E+03  0.46345249078E+03  0.47000000000E+01 0.  1.
         -5   -1    0    0    0  501 -0.00000000000E+00 -0.00000000000E+00 -0.94412193435E+02  0.94529108052E+02  0.47000000000E+01 0.  1.
         25    2    1    2    0    0  0.15441695010E+03  0.64864705088E+02  0.19893675398E+03  0.28853292017E+03  0.12499355781E+03 0.  0.
         25    2    1    2    0    0 -0.15441695010E+03 -0.64864705088E+02  0.17007971075E+03  0.26944867866E+03  0.12499383177E+03 0.  0.
          5    1    4    4  502    0 -0.31880463781E+02  0.26389930062E+02  0.12047920524E+01  0.41669340089E+02  0.47000000000E+01 0. -1.
         -5    1    4    4    0  502 -0.12253648632E+03 -0.91254635151E+02  0.16887491870E+03  0.22777933857E+03  0.47000000000E+01 0. -1.
          5    1    3    3  503    0  0.24209979742E+02 -0.30073079399E+02  0.99832558733E+01  0.40153064908E+02  0.47000000000E+01 0.  1.
         -5    1    3    3    0  503  0.13020697036E+03  0.94937784487E+02  0.18895349811E+03  0.24837985526E+03  0.47000000000E+01 0.  1.
<mgrwt>
<rscale>  0 0.20898676E+03</rscale>
<asrwt>0</asrwt>
<pdfrwt beam="1">  1        5 0.71307541E-01 0.20898680E+03</pdfrwt>
<pdfrwt beam="2">  1       -5 0.14535780E-01 0.20898680E+03</pdfrwt>
<totfact> 0.59090490E+01</totfact>
</mgrwt>
</event>
<event>
 8    1  0.3588496E-007  0.1269656E+03  0.7546771E-02  0.1232030E+00
         -5   -1    0    0    0  501 -0.00000000000E+00  0.00000000000E+00  0.48322272085E+03  0.48324557726E+03  0.47000000000E+01 0. -1.
          5   -1    0    0  501    0  0.00000000000E+00 -0.00000000000E+00 -0.39868096176E+02  0.40144178815E+02  0.47000000000E+01 0. -1.
         25    2    1    2    0    0 -0.13607478341E+02 -0.17608765495E+02  0.32850575806E+03  0.35218786273E+03  0.12500010193E+03 0.  0.
         25    2    1    2    0    0  0.13607478341E+02  0.17608765495E+02  0.11484886661E+03  0.17120189335E+03  0.12499837613E+03 0.  0.
          5    1    4    4  502    0  0.49919489757E+02 -0.36225284174E+02  0.56279426054E+02  0.83628287487E+02  0.47000000000E+01 0.  1.
         -5    1    4    4    0  502 -0.36312011417E+02  0.53834049669E+02  0.58569440553E+02  0.87573605861E+02  0.47000000000E+01 0.  1.
          5    1    3    3  503    0  0.33638590605E+02  0.39890842140E+02  0.13708586834E+03  0.14675646277E+03  0.47000000000E+01 0. -1.
         -5    1    3    3    0  503 -0.47246068946E+02 -0.57499607635E+02  0.19141988972E+03  0.20543139996E+03  0.47000000000E+01 0. -1.
<mgrwt>
<rscale>  0 0.12696515E+03</rscale>
<asrwt>0</asrwt>
<pdfrwt beam="2">  1        5 0.61565486E-02 0.12696558E+03</pdfrwt>
<pdfrwt beam="1">  1       -5 0.74364952E-01 0.12696558E+03</pdfrwt>
<totfact> 0.20668858E+02</totfact>
</mgrwt>
</event>
<event>
 8    1  0.3588496E-007  0.1464047E+03  0.7546771E-02  0.1204965E+00
          5   -1    0    0  501    0  0.00000000000E+00  0.00000000000E+00  0.47239290458E+02  0.47472524295E+02  0.47000000000E+01 0. -1.
         -5   -1    0    0    0  501 -0.00000000000E+00 -0.00000000000E+00 -0.45251032594E+03  0.45253473356E+03  0.47000000000E+01 0. -1.
         25    2    1    2    0    0  0.64213547871E+02  0.41032836128E+02 -0.20744377062E+03  0.25390402178E+03  0.12500904343E+03 0.  0.
         25    2    1    2    0    0 -0.64213547871E+02 -0.41032836128E+02 -0.19782726486E+03  0.24610323607E+03  0.12499641080E+03 0.  0.
          5    1    4    4  502    0  0.39343221803E+01  0.39966763455E+02 -0.54128223695E+02  0.67563123614E+02  0.47000000000E+01 0.  1.
         -5    1    4    4    0  502 -0.68147870052E+02 -0.80999599583E+02 -0.14369904117E+03  0.17854011246E+03  0.47000000000E+01 0.  1.
          5    1    3    3  503    0  0.75568399796E+02 -0.14049081477E+02 -0.65298418970E+02  0.10096501007E+03  0.47000000000E+01 0. -1.
         -5    1    3    3    0  503 -0.11354851925E+02  0.55081917605E+02 -0.14214535165E+03  0.15293901171E+03  0.47000000000E+01 0. -1.
<mgrwt>
<rscale>  0 0.14640200E+03</rscale>
<asrwt>0</asrwt>
<pdfrwt beam="1">  1        5 0.72874020E-02 0.14640469E+03</pdfrwt>
<pdfrwt beam="2">  1       -5 0.69636789E-01 0.14640469E+03</pdfrwt>
<totfact> 0.18917724E+02</totfact>
</mgrwt>
</event>
<event>
 8    1  0.3588496E-007  0.1367851E+03  0.7546771E-02  0.1217722E+00
         -5   -1    0    0    0  501 -0.00000000000E+00  0.00000000000E+00  0.27202343425E+02  0.27605388746E+02  0.47000000000E+01 0. -1.
          5   -1    0    0  501    0  0.00000000000E+00 -0.00000000000E+00 -0.69532572677E+03  0.69534161123E+03  0.47000000000E+01 0. -1.
         25    2    1    2    0    0 -0.32444680313E+01  0.55446171611E+02 -0.28466479045E+03  0.31582304410E+03  0.12500139098E+03 0.  0.
         25    2    1    2    0    0  0.32444680313E+01 -0.55446171611E+02 -0.38345859290E+03  0.40712395587E+03  0.12499847382E+03 0.  0.
          5    1    4    4  502    0 -0.29198484292E+02 -0.14447023546E+02 -0.33195770335E+03  0.33358548348E+03  0.47000000000E+01 0.  1.
         -5    1    4    4    0  502  0.32442952324E+02 -0.40999148065E+02 -0.51500889546E+02  0.73538472390E+02  0.47000000000E+01 0.  1.
          5    1    3    3  503    0  0.17580420379E+02 -0.29573446119E+02 -0.28014836381E+02  0.44615927129E+02  0.47000000000E+01 0.  1.
         -5    1    3    3    0  503 -0.20824888411E+02  0.85019617730E+02 -0.25664995407E+03  0.27120711698E+03  0.47000000000E+01 0.  1.
<mgrwt>
<rscale>  0 0.13678439E+03</rscale>
<asrwt>0</asrwt>
<pdfrwt beam="2">  1        5 0.10700540E+00 0.13678506E+03</pdfrwt>
<pdfrwt beam="1">  1       -5 0.42172018E-02 0.13678506E+03</pdfrwt>
<totfact> 0.16790093E+02</totfact>
</mgrwt>
</event>
<event>
 8    1  0.3588496E-007  0.1398645E+03  0.7546771E-02  0.1213526E+00
         -5   -1    0    0    0  501 -0.00000000000E+00  0.00000000000E+00  0.63057369739E+03  0.63059121294E+03  0.47000000000E+01 0.  1.
          5   -1    0    0  501    0  0.00000000000E+00 -0.00000000000E+00 -0.31735557744E+02  0.32081702344E+02  0.47000000000E+01 0.  1.
         25    2    1    2    0    0 -0.46490049209E+02 -0.42113051455E+02  0.24340872383E+03  0.28073100418E+03  0.12500902404E+03 0.  0.
         25    2    1    2    0    0  0.46490049209E+02  0.42113051455E+02  0.35542941582E+03  0.38194191111E+03  0.12495887346E+03 0.  0.
          5    1    3    3  502    0 -0.47927414400E+02 -0.14601963178E+02  0.24743094974E+03  0.25249637476E+03  0.47000000000E+01 0.  1.
         -5    1    3    3    0  502  0.14373651909E+01 -0.27511088277E+02 -0.40222259104E+01  0.28234629414E+02  0.47000000000E+01 0.  1.
          5    1    4    4  503    0 -0.31246498493E+02 -0.14927815029E+02  0.45779876382E+02  0.57594013675E+02  0.47000000000E+01 0. -1.
         -5    1    4    4    0  503  0.77736547702E+02  0.57040866483E+02  0.30964953944E+03  0.32434789744E+03  0.47000000000E+01 0. -1.
<mgrwt>
<rscale>  0 0.13985333E+03</rscale>
<asrwt>0</asrwt>
<pdfrwt beam="2">  1        5 0.49103673E-02 0.13986454E+03</pdfrwt>
<pdfrwt beam="1">  1       -5 0.97039313E-01 0.13986454E+03</pdfrwt>
<totfact> 0.16708280E+02</totfact>
</mgrwt>
</event>
<event>
 8    1  0.3588496E-007  0.1599168E+03  0.7546771E-02  0.1188791E+00
          5   -1    0    0  501    0  0.00000000000E+00  0.00000000000E+00  0.56684748237E+03  0.56686696700E+03  0.47000000000E+01 0. -1.
         -5   -1    0    0    0  501 -0.00000000000E+00 -0.00000000000E+00 -0.58476671400E+02  0.58665246084E+02  0.47000000000E+01 0. -1.
         25    2    1    2    0    0 -0.68630967167E+02  0.72372479215E+02  0.10418585810E+03  0.19086124424E+03  0.12500134448E+03 0.  0.
         25    2    1    2    0    0  0.68630967167E+02 -0.72372479215E+02  0.40418495287E+03  0.43467096884E+03  0.12500155850E+03 0.  0.
          5    1    4    4  502    0  0.26401211132E+02 -0.42365399691E+02  0.33377940391E+02  0.60233113359E+02  0.47000000000E+01 0.  1.
         -5    1    4    4    0  502  0.42229756035E+02 -0.30007079524E+02  0.37080701248E+03  0.37443785548E+03  0.47000000000E+01 0.  1.
          5    1    3    3  503    0  0.20957166025E+01  0.74820177520E+02  0.92331808431E+02  0.11895252768E+03  0.47000000000E+01 0.  1.
         -5    1    3    3    0  503 -0.70726683769E+02 -0.24476983050E+01  0.11854049671E+02  0.71908716562E+02  0.47000000000E+01 0.  1.
<mgrwt>
<rscale>  0 0.15991673E+03</rscale>
<asrwt>0</asrwt>
<pdfrwt beam="1">  1        5 0.87223305E-01 0.15991678E+03</pdfrwt>
<pdfrwt beam="2">  1       -5 0.90124160E-02 0.15991678E+03</pdfrwt>
<totfact> 0.80305752E+01</totfact>
</mgrwt>
</event>
<event>
 8    1  0.3588496E-007  0.1280467E+03  0.7546771E-02  0.1230393E+00
         -5   -1    0    0    0  501 -0.00000000000E+00  0.00000000000E+00  0.77857141538E+01  0.90943578600E+01  0.47000000000E+01 0. -1.
          5   -1    0    0  501    0  0.00000000000E+00 -0.00000000000E+00 -0.23325197664E+04  0.23325245016E+04  0.47000000000E+01 0. -1.
         25    2    1    2    0    0 -0.13417461737E+02  0.24310152912E+02 -0.68268333287E+03  0.69458318086E+03  0.12497299844E+03 0.  0.
         25    2    1    2    0    0  0.13417461737E+02 -0.24310152912E+02 -0.16420507194E+04  0.16470356786E+04  0.12499979931E+03 0.  0.
          5    1    4    4  502    0 -0.23091525778E+02  0.14676040968E+01 -0.61961417383E+02  0.66307463145E+02  0.47000000000E+01 0. -1.
         -5    1    4    4    0  502  0.36508987515E+02 -0.25777757009E+02 -0.15800893020E+04  0.15807282155E+04  0.47000000000E+01 0. -1.
          5    1    3    3  503    0 -0.50431143668E+02 -0.14362037958E+02 -0.53211494927E+03  0.53471298621E+03  0.47000000000E+01 0. -1.
         -5    1    3    3    0  503  0.37013681931E+02  0.38672190870E+02 -0.15056838360E+03  0.15987019465E+03  0.47000000000E+01 0. -1.
<mgrwt>
<rscale>  0 0.12804018E+03</rscale>
<asrwt>0</asrwt>
<pdfrwt beam="2">  1        5 0.35894971E+00 0.12804672E+03</pdfrwt>
<pdfrwt beam="1">  1       -5 0.12988332E-02 0.12804672E+03</pdfrwt>
<totfact> 0.18749127E+01</totfact>
</mgrwt>
</event>
<event>
 8    1  0.3588496E-007  0.1556247E+03  0.7546771E-02  0.1193727E+00
          5   -1    0    0  501    0  0.00000000000E+00  0.00000000000E+00  0.21535757156E+04  0.21535808443E+04  0.47000000000E+01 0.  1.
         -5   -1    0    0    0  501 -0.00000000000E+00 -0.00000000000E+00 -0.11330100014E+02  0.12266261302E+02  0.47000000000E+01 0.  1.
         25    2    1    2    0    0 -0.91670982029E+02 -0.13837675572E+02  0.83579657398E+03  0.85016167789E+03  0.12499566094E+03 0.  0.
         25    2    1    2    0    0  0.91670982029E+02  0.13837675572E+02  0.13064490416E+04  0.13156854277E+04  0.12499598441E+03 0.  0.
          5    1    3    3  502    0 -0.69021884028E+02 -0.10956720980E+01  0.81096744968E+03  0.81391370268E+03  0.47000000000E+01 0. -1.
         -5    1    3    3    0  502 -0.22649098001E+02 -0.12742003474E+02  0.24829124301E+02  0.36247975203E+02  0.47000000000E+01 0. -1.
          5    1    4    4  503    0  0.11071509452E+03 -0.12421566477E+02  0.74698498975E+03  0.75526206867E+03  0.47000000000E+01 0.  1.
         -5    1    4    4    0  503 -0.19044112488E+02  0.26259242049E+02  0.55946405188E+03  0.56042335905E+03  0.47000000000E+01 0.  1.
<mgrwt>
<rscale>  0 0.15562463E+03</rscale>
<asrwt>0</asrwt>
<pdfrwt beam="1">  1        5 0.33139151E+00 0.15562470E+03</pdfrwt>
<pdfrwt beam="2">  1       -5 0.18155005E-02 0.15562470E+03</pdfrwt>
<totfact> 0.17549329E+01</totfact>
</mgrwt>
</event>
<event>
 8    1  0.3588496E-007  0.1324329E+03  0.7546771E-02  0.1223894E+00
          5   -1    0    0  501    0  0.00000000000E+00  0.00000000000E+00  0.61735445750E+02  0.61914095826E+02  0.47000000000E+01 0.  1.
         -5   -1    0    0    0  501 -0.00000000000E+00 -0.00000000000E+00 -0.28449971368E+03  0.28453853357E+03  0.47000000000E+01 0.  1.
         25    2    1    2    0    0  0.19301885736E+01 -0.43703163769E+02 -0.10090403600E+03  0.16648486561E+03  0.12498757476E+03 0.  0.
         25    2    1    2    0    0 -0.19301885736E+01  0.43703163769E+02 -0.12186023193E+03  0.17996776378E+03  0.12499915089E+03 0.  0.
          5    1    4    4  502    0  0.39653995636E+02 -0.14795159998E+02 -0.51780473209E+01  0.42897998826E+02  0.47000000000E+01 0.  1.
         -5    1    4    4    0  502 -0.41584184209E+02  0.58498323767E+02 -0.11668218461E+03  0.13706976496E+03  0.47000000000E+01 0.  1.
          5    1    3    3  503    0  0.53283586418E+02  0.10105777745E+02 -0.61670417810E+02  0.82259332348E+02  0.47000000000E+01 0.  1.
         -5    1    3    3    0  503 -0.51353397845E+02 -0.53808941515E+02 -0.39233618190E+02  0.84225533263E+02  0.47000000000E+01 0.  1.
<mgrwt>
<rscale>  0 0.13243019E+03</rscale>
<asrwt>0</asrwt>
<pdfrwt beam="1">  1        5 0.95144895E-02 0.13243293E+03</pdfrwt>
<pdfrwt beam="2">  1       -5 0.43785915E-01 0.13243293E+03</pdfrwt>
<totfact> 0.31472104E+02</totfact>
</mgrwt>
</event>
<event>
 8    1  0.3588496E-007  0.1833839E+03  0.7546771E-02  0.1164569E+00
          5   -1    0    0  501    0  0.00000000000E+00  0.00000000000E+00  0.32432271134E+02  0.32771057519E+02  0.47000000000E+01 0. -1.
         -5   -1    0    0    0  501 -0.00000000000E+00 -0.00000000000E+00 -0.10420157180E+04  0.10420263176E+04  0.47000000000E+01 0. -1.
         25    2    1    2    0    0 -0.11034817047E+03 -0.76332589033E+02 -0.44996109431E+03  0.48589429509E+03  0.12499958693E+03 0.  0.
         25    2    1    2    0    0  0.11034817047E+03  0.76332589033E+02 -0.55962235257E+03  0.58890308004E+03  0.12500510913E+03 0.  0.
          5    1    4    4  502    0 -0.21905928112E+02 -0.80702040648E+01 -0.45512452727E+02  0.51366051370E+02  0.47000000000E+01 0. -1.
         -5    1    4    4    0  502  0.13225409858E+03  0.84402793098E+02 -0.51410989984E+03  0.53753702867E+03  0.47000000000E+01 0. -1.
          5    1    3    3  503    0 -0.48785280742E+02 -0.62552888296E+02 -0.39239802766E+03  0.40036379652E+03  0.47000000000E+01 0. -1.
         -5    1    3    3    0  503 -0.61562889724E+02 -0.13779700737E+02 -0.57563066652E+02  0.85530498572E+02  0.47000000000E+01 0. -1.
<mgrwt>
<rscale>  0 0.18338297E+03</rscale>
<asrwt>0</asrwt>
<pdfrwt beam="1">  1        5 0.50164568E-02 0.18338391E+03</pdfrwt>
<pdfrwt beam="2">  1       -5 0.16033696E+00 0.18338391E+03</pdfrwt>
<totfact> 0.47412526E+01</totfact>
</mgrwt>
</event>
<event>
 8    1  0.3588496E-007  0.1853957E+03  0.7546771E-02  0.1162682E+00
         -5   -1    0    0    0  501 -0.00000000000E+00  0.00000000000E+00  0.90578777440E+03  0.90579996813E+03  0.47000000000E+01 0.  1.
          5   -1    0    0  501    0  0.00000000000E+00 -0.00000000000E+00 -0.42942870136E+02  0.43199306655E+02  0.47000000000E+01 0.  1.
         25    2    1    2    0    0  0.13595703799E+03 -0.16167487513E+02  0.59528586409E+03  0.62348764461E+03  0.12500351662E+03 0.  0.
         25    2    1    2    0    0 -0.13595703799E+03  0.16167487513E+02  0.26755904018E+03  0.32551163017E+03  0.12499711023E+03 0.  0.
          5    1    3    3  502    0  0.13996626262E+03  0.97477973475E+01  0.35531457016E+03  0.38204202385E+03  0.47000000000E+01 0. -1.
         -5    1    3    3    0  502 -0.40092246288E+01 -0.25915284860E+02  0.23997129393E+03  0.24144562076E+03  0.47000000000E+01 0. -1.
          5    1    4    4  503    0 -0.15463143612E+02 -0.43523314918E+02  0.10276254403E+03  0.11276354999E+03  0.47000000000E+01 0.  1.
         -5    1    4    4    0  503 -0.12049389438E+03  0.59690802431E+02  0.16479649615E+03  0.21274808018E+03  0.47000000000E+01 0.  1.
<mgrwt>
<rscale>  0 0.18539467E+03</rscale>
<asrwt>0</asrwt>
<pdfrwt beam="2">  1        5 0.66272588E-02 0.18539575E+03</pdfrwt>
<pdfrwt beam="1">  1       -5 0.13937264E+00 0.18539575E+03</pdfrwt>
<totfact> 0.43741198E+01</totfact>
</mgrwt>
</event>
<event>
 8    1  0.3588496E-007  0.1685496E+03  0.7546771E-02  0.1179370E+00
          5   -1    0    0  501    0  0.00000000000E+00  0.00000000000E+00  0.19699776281E+03  0.19705382146E+03  0.47000000000E+01 0. -1.
         -5   -1    0    0    0  501 -0.00000000000E+00 -0.00000000000E+00 -0.14441130176E+03  0.14448776445E+03  0.47000000000E+01 0. -1.
         25    2    1    2    0    0  0.29690997296E+02  0.10909953728E+03  0.18260280024E+02  0.16953587892E+03  0.12499884823E+03 0.  0.
         25    2    1    2    0    0 -0.29690997296E+02 -0.10909953728E+03  0.34326181025E+02  0.17200570699E+03  0.12499364856E+03 0.  0.
          5    1    3    3  502    0 -0.48191608909E+02  0.46224622258E+02 -0.33549454872E+01  0.67026058599E+02  0.47000000000E+01 0.  1.
         -5    1    3    3    0  502  0.77882606205E+02  0.62874915019E+02  0.21615225511E+02  0.10250982032E+03  0.47000000000E+01 0.  1.
          5    1    4    4  503    0  0.30521666139E+01  0.26074484719E+02  0.17337600601E+02  0.31810012087E+02  0.47000000000E+01 0.  1.
         -5    1    4    4    0  503 -0.32743163910E+02 -0.13517402200E+03  0.16988580424E+02  0.14019569491E+03  0.47000000000E+01 0.  1.
<mgrwt>
<rscale>  0 0.16854866E+03</rscale>
<asrwt>0</asrwt>
<pdfrwt beam="1">  1        5 0.30317542E-01 0.16854963E+03</pdfrwt>
<pdfrwt beam="2">  1       -5 0.22227317E-01 0.16854963E+03</pdfrwt>
<totfact> 0.15408328E+02</totfact>
</mgrwt>
</event>
<event>
 8    1  0.3588496E-007  0.1652826E+03  0.7546771E-02  0.1182864E+00
         -5   -1    0    0    0  501 -0.00000000000E+00  0.00000000000E+00  0.91153871213E+02  0.91274959530E+02  0.47000000000E+01 0. -1.
          5   -1    0    0  501    0  0.00000000000E+00 -0.00000000000E+00 -0.38494229576E+03  0.38497098731E+03  0.47000000000E+01 0. -1.
         25    2    1    2    0    0 -0.24104541745E+02 -0.10540004876E+03 -0.34620654738E+02  0.16886951140E+03  0.12501249111E+03 0.  0.
         25    2    1    2    0    0  0.24104541745E+02  0.10540004876E+03 -0.25916776981E+03  0.30737643544E+03  0.12498856324E+03 0.  0.
          5    1    4    4  502    0  0.71062179575E+01  0.12210734392E+02  0.12618438170E+02  0.19517052798E+02  0.47000000000E+01 0. -1.
         -5    1    4    4    0  502  0.16998323788E+02  0.93189314372E+02 -0.27178620798E+03  0.28785938264E+03  0.47000000000E+01 0. -1.
          5    1    3    3  503    0 -0.12489965484E+02  0.20452065556E+02 -0.34655146384E+02  0.42395228437E+02  0.47000000000E+01 0.  1.
         -5    1    3    3    0  503 -0.11614576261E+02 -0.12585211432E+03  0.34491646583E-01  0.12647428296E+03  0.47000000000E+01 0.  1.
<mgrwt>
<rscale>  0 0.16527803E+03</rscale>
<asrwt>0</asrwt>
<pdfrwt beam="2">  1        5 0.59233412E-01 0.16528255E+03</pdfrwt>
<pdfrwt beam="1">  1       -5 0.14035194E-01 0.16528255E+03</pdfrwt>
<totfact> 0.89303923E+01</totfact>
</mgrwt>
</event>
<event>
 8    1  0.3588496E-007  0.1441003E+03  0.7546771E-02  0.1207920E+00
         -5   -1    0    0    0  501 -0.00000000000E+00  0.00000000000E+00  0.38124900984E+03  0.38127797931E+03  0.47000000000E+01 0. -1.
          5   -1    0    0  501    0  0.00000000000E+00 -0.00000000000E+00 -0.54547690073E+02  0.54749799016E+02  0.47000000000E+01 0. -1.
         25    2    1    2    0    0 -0.54284026715E+02  0.46802548455E+02  0.17714517589E+03  0.22835347845E+03  0.12501065426E+03 0.  0.
         25    2    1    2    0    0  0.54284026715E+02 -0.46802548455E+02  0.14955614388E+03  0.20767429988E+03  0.12499736221E+03 0.  0.
          5    1    3    3  502    0  0.40670824376E+02  0.18213270478E+02  0.56554584048E+02  0.72155042470E+02  0.47000000000E+01 0. -1.
         -5    1    3    3    0  502 -0.94954851091E+02  0.28589277977E+02  0.12059059184E+03  0.15619843598E+03  0.47000000000E+01 0. -1.
          5    1    4    4  503    0 -0.26829561846E+02  0.20289438875E+02  0.61920297592E+02  0.70623650236E+02  0.47000000000E+01 0. -1.
         -5    1    4    4    0  503  0.81113588560E+02 -0.67091987330E+02  0.87635846286E+02  0.13705064964E+03  0.47000000000E+01 0. -1.
<mgrwt>
<rscale>  0 0.14409742E+03</rscale>
<asrwt>0</asrwt>
<pdfrwt beam="2">  1        5 0.84097278E-02 0.14410030E+03</pdfrwt>
<pdfrwt beam="1">  1       -5 0.58671467E-01 0.14410030E+03</pdfrwt>
<totfact> 0.21525439E+02</totfact>
</mgrwt>
</event>
<event>
 8    1  0.3588496E-007  0.1343572E+03  0.7546771E-02  0.1221132E+00
         -5   -1    0    0    0  501 -0.00000000000E+00  0.00000000000E+00  0.36785766322E+02  0.37084802870E+02  0.47000000000E+01 0.  1.
          5   -1    0    0  501    0  0.00000000000E+00 -0.00000000000E+00 -0.52777481138E+03  0.52779573845E+03  0.47000000000E+01 0.  1.
         25    2    1    2    0    0  0.45449727235E+02  0.18971545917E+02 -0.16837639115E+03  0.21540837682E+03  0.12499824977E+03 0.  0.
         25    2    1    2    0    0 -0.45449727235E+02 -0.18971545917E+02 -0.32261265391E+03  0.34947216451E+03  0.12500508806E+03 0.  0.
          5    1    4    4  502    0 -0.53913986035E+02  0.31525076299E+02 -0.80682234198E+02  0.10213844154E+03  0.47000000000E+01 0.  1.
         -5    1    4    4    0  502  0.84642587999E+01 -0.50496622216E+02 -0.24193041971E+03  0.24733372296E+03  0.47000000000E+01 0.  1.
          5    1    3    3  503    0 -0.27958359350E+02  0.64447195621E+01 -0.12659299802E+03  0.12988872705E+03  0.47000000000E+01 0. -1.
         -5    1    3    3    0  503  0.73408086585E+02  0.12526826355E+02 -0.41783393133E+02  0.85519649767E+02  0.47000000000E+01 0. -1.
<mgrwt>
<rscale>  0 0.13435565E+03</rscale>
<asrwt>0</asrwt>
<pdfrwt beam="2">  1        5 0.81220732E-01 0.13435725E+03</pdfrwt>
<pdfrwt beam="1">  1       -5 0.56839616E-02 0.13435725E+03</pdfrwt>
<totfact> 0.19682433E+02</totfact>
</mgrwt>
</event>
<event>
 8    1  0.3588496E-007  0.1362613E+03  0.7546771E-02  0.1218452E+00
         -5   -1    0    0    0  501 -0.00000000000E+00  0.00000000000E+00  0.99095806065E+03  0.99096920637E+03  0.47000000000E+01 0.  1.
          5   -1    0    0  501    0  0.00000000000E+00 -0.00000000000E+00 -0.22328384494E+02  0.22817685117E+02  0.47000000000E+01 0.  1.
         25    2    1    2    0    0 -0.53837159313E+02 -0.64965198321E+01  0.69357207996E+03  0.70683050882E+03  0.12500597431E+03 0.  0.
         25    2    1    2    0    0  0.53837159313E+02  0.64965198321E+01  0.27505759619E+03  0.30695638266E+03  0.12499958055E+03 0.  0.
          5    1    3    3  502    0  0.12608495162E+02  0.11804169328E+02  0.11514236355E+02  0.21283331568E+02  0.47000000000E+01 0. -1.
         -5    1    3    3    0  502 -0.66445654475E+02 -0.18300689160E+02  0.68205784360E+03  0.68554717726E+03  0.47000000000E+01 0. -1.
          5    1    4    4  503    0  0.10402379063E+02  0.16517173189E+02  0.25833758821E+03  0.25911662622E+03  0.47000000000E+01 0.  1.
         -5    1    4    4    0  503  0.43434780250E+02 -0.10020653356E+02  0.16720007981E+02  0.47839756437E+02  0.47000000000E+01 0.  1.
<mgrwt>
<rscale>  0 0.13625982E+03</rscale>
<asrwt>0</asrwt>
<pdfrwt beam="2">  1        5 0.34736327E-02 0.13626129E+03</pdfrwt>
<pdfrwt beam="1">  1       -5 0.15249355E+00 0.13626129E+03</pdfrwt>
<totfact> 0.91834159E+01</totfact>
</mgrwt>
</event>
<event>
 8    1  0.3588496E-007  0.1258675E+03  0.7546771E-02  0.1233724E+00
          5   -1    0    0  501    0  0.00000000000E+00  0.00000000000E+00  0.30756980738E+02  0.31114013950E+02  0.47000000000E+01 0.  1.
         -5   -1    0    0    0  501 -0.00000000000E+00 -0.00000000000E+00 -0.52285544407E+03  0.52287656802E+03  0.47000000000E+01 0.  1.
         25    2    1    2    0    0  0.14653311136E+02 -0.12371190562E+01 -0.28647164538E+03  0.31289929387E+03  0.12499485794E+03 0.  0.
         25    2    1    2    0    0 -0.14653311136E+02  0.12371190562E+01 -0.20562681795E+03  0.24109128810E+03  0.12500548366E+03 0.  0.
          5    1    4    4  502    0 -0.78819995030E+01 -0.33237703763E+02 -0.20260275816E+03  0.20551602974E+03  0.47000000000E+01 0.  1.
         -5    1    4    4    0  502 -0.67713116328E+01  0.34474822820E+02 -0.30240597954E+01  0.35575258359E+02  0.47000000000E+01 0.  1.
          5    1    3    3  503    0 -0.89754116670E+01  0.31956344972E+02 -0.26402328397E+03  0.26614310150E+03  0.47000000000E+01 0. -1.
         -5    1    3    3    0  503  0.23628722803E+02 -0.33193464028E+02 -0.22448361406E+02  0.46756192374E+02  0.47000000000E+01 0. -1.
<mgrwt>
<rscale>  0 0.12586484E+03</rscale>
<asrwt>0</asrwt>
<pdfrwt beam="1">  1        5 0.47609326E-02 0.12586747E+03</pdfrwt>
<pdfrwt beam="2">  1       -5 0.80468382E-01 0.12586747E+03</pdfrwt>
<totfact> 0.26393078E+02</totfact>
</mgrwt>
</event>
<event>
 8    1  0.3588496E-007  0.1498864E+03  0.7546771E-02  0.1200614E+00
         -5   -1    0    0    0  501 -0.00000000000E+00  0.00000000000E+00  0.31691604586E+03  0.31695089544E+03  0.47000000000E+01 0. -1.
          5   -1    0    0  501    0  0.00000000000E+00 -0.00000000000E+00 -0.74675208085E+02  0.74822969084E+02  0.47000000000E+01 0. -1.
         25    2    1    2    0    0 -0.79317514017E+02 -0.23452336474E+02  0.16585341373E+03  0.22354496454E+03  0.12499486474E+03 0.  0.
         25    2    1    2    0    0  0.79317514017E+02  0.23452336474E+02  0.76387424046E+02  0.16822889999E+03  0.12499857648E+03 0.  0.
          5    1    3    3  502    0 -0.88138210237E+02 -0.28014045441E+02  0.46380929412E+02  0.10356839025E+03  0.47000000000E+01 0. -1.
         -5    1    3    3    0  502  0.88206962201E+01  0.45617089674E+01  0.11947248432E+03  0.11997657429E+03  0.47000000000E+01 0. -1.
          5    1    4    4  503    0  0.60629538309E+02 -0.88191519472E+01 -0.20122034435E+02  0.64658368572E+02  0.47000000000E+01 0.  1.
         -5    1    4    4    0  503  0.18687975708E+02  0.32271488421E+02  0.96509458481E+02  0.10357053141E+03  0.47000000000E+01 0.  1.
<mgrwt>
<rscale>  0 0.14988560E+03</rscale>
<asrwt>0</asrwt>
<pdfrwt beam="2">  1        5 0.11502541E-01 0.14988637E+03</pdfrwt>
<pdfrwt beam="1">  1       -5 0.48770361E-01 0.14988637E+03</pdfrwt>
<totfact> 0.18775608E+02</totfact>
</mgrwt>
</event>
<event>
 8    1  0.3588496E-007  0.1344055E+03  0.7546771E-02  0.1221062E+00
          5   -1    0    0  501    0  0.00000000000E+00  0.00000000000E+00  0.30499352436E+02  0.30859366472E+02  0.47000000000E+01 0. -1.
         -5   -1    0    0    0  501 -0.00000000000E+00 -0.00000000000E+00 -0.64440830787E+03  0.64442544740E+03  0.47000000000E+01 0. -1.
         25    2    1    2    0    0 -0.22083251992E+02 -0.44174950708E+02 -0.40642580704E+03  0.42807331938E+03  0.12500293537E+03 0.  0.
         25    2    1    2    0    0  0.22083251992E+02  0.44174950708E+02 -0.20748314840E+03  0.24721149449E+03  0.12500067939E+03 0.  0.
          5    1    4    4  502    0  0.29684215427E+02  0.80561102571E+02 -0.18371455069E+03  0.20284075042E+03  0.47000000000E+01 0.  1.
         -5    1    4    4    0  502 -0.76009634354E+01 -0.36386151863E+02 -0.23768597703E+02  0.44370744070E+02  0.47000000000E+01 0.  1.
          5    1    3    3  503    0  0.10474174605E+02  0.28017685805E+02 -0.27405834335E+02  0.40839549546E+02  0.47000000000E+01 0. -1.
         -5    1    3    3    0  503 -0.32557426597E+02 -0.72192636513E+02 -0.37901997271E+03  0.38723376984E+03  0.47000000000E+01 0. -1.
<mgrwt>
<rscale>  0 0.13440494E+03</rscale>
<asrwt>0</asrwt>
<pdfrwt beam="1">  1        5 0.47212203E-02 0.13440547E+03</pdfrwt>
<pdfrwt beam="2">  1       -5 0.99168742E-01 0.13440547E+03</pdfrwt>
<totfact> 0.16701649E+02</totfact>
</mgrwt>
</event>
<event>
 8    1  0.3588496E-007  0.1668706E+03  0.7546771E-02  0.1181154E+00
          5   -1    0    0  501    0  0.00000000000E+00  0.00000000000E+00  0.62881139874E+02  0.63056544084E+02  0.47000000000E+01 0. -1.
         -5   -1    0    0    0  501 -0.00000000000E+00 -0.00000000000E+00 -0.49996089281E+03  0.49998298405E+03  0.47000000000E+01 0. -1.
         25    2    1    2    0    0 -0.96354450785E+02  0.54187853012E+02 -0.31437061586E+03  0.35590831662E+03  0.12498536762E+03 0.  0.
         25    2    1    2    0    0  0.96354450785E+02 -0.54187853012E+02 -0.12270913708E+03  0.20713121152E+03  0.12500121145E+03 0.  0.
          5    1    4    4  502    0  0.10730160701E+03  0.36879521771E+01 -0.85182552196E+02  0.13713275705E+03  0.47000000000E+01 0. -1.
         -5    1    4    4    0  502 -0.10947156221E+02 -0.57875805189E+02 -0.37526584881E+02  0.69998454472E+02  0.47000000000E+01 0. -1.
          5    1    3    3  503    0 -0.11752098829E+03  0.33893685969E+02 -0.29763196577E+03  0.32181802573E+03  0.47000000000E+01 0.  1.
         -5    1    3    3    0  503  0.21166537501E+02  0.20294167043E+02 -0.16738650093E+02  0.34090290886E+02  0.47000000000E+01 0.  1.
<mgrwt>
<rscale>  0 0.16686766E+03</rscale>
<asrwt>0</asrwt>
<pdfrwt beam="1">  1        5 0.96892138E-02 0.16687063E+03</pdfrwt>
<pdfrwt beam="2">  1       -5 0.76932250E-01 0.16687063E+03</pdfrwt>
<totfact> 0.96072974E+01</totfact>
</mgrwt>
</event>
<event>
 8    1  0.3588496E-007  0.1698010E+03  0.7546771E-02  0.1178057E+00
         -5   -1    0    0    0  501 -0.00000000000E+00  0.00000000000E+00  0.12542676011E+03  0.12551478857E+03  0.47000000000E+01 0.  1.
          5   -1    0    0  501    0  0.00000000000E+00 -0.00000000000E+00 -0.24277699226E+03  0.24282248242E+03  0.47000000000E+01 0.  1.
         25    2    1    2    0    0  0.10778836115E+03 -0.39845336425E+02 -0.15901434955E+02  0.17054391596E+03  0.12500555988E+03 0.  0.
         25    2    1    2    0    0 -0.10778836115E+03  0.39845336425E+02 -0.10144879720E+03  0.19779335504E+03  0.12499748481E+03 0.  0.
          5    1    3    3  502    0  0.15662643249E+02 -0.50313705162E+02 -0.48874189984E+02  0.72024744132E+02  0.47000000000E+01 0.  1.
         -5    1    3    3    0  502  0.92125717905E+02  0.10468368736E+02  0.32972755029E+02  0.98519171828E+02  0.47000000000E+01 0.  1.
          5    1    4    4  503    0  0.23475142241E+02 -0.26275781774E+01 -0.39998043167E+02  0.46689612629E+02  0.47000000000E+01 0. -1.
         -5    1    4    4    0  503 -0.13126350340E+03  0.42472914603E+02 -0.61450754029E+02  0.15110374241E+03  0.47000000000E+01 0. -1.
<mgrwt>
<rscale>  0 0.16979949E+03</rscale>
<asrwt>0</asrwt>
<pdfrwt beam="2">  1        5 0.37360577E-01 0.16980098E+03</pdfrwt>
<pdfrwt beam="1">  1       -5 0.19306695E-01 0.16980098E+03</pdfrwt>
<totfact> 0.13250075E+02</totfact>
</mgrwt>
</event>
<event>
 8    1  0.3588496E-007  0.1264783E+03  0.7546771E-02  0.1232778E+00
          5   -1    0    0  501    0  0.00000000000E+00  0.00000000000E+00  0.57118322563E+02  0.57311366869E+02  0.47000000000E+01 0.  1.
         -5   -1    0    0    0  501 -0.00000000000E+00 -0.00000000000E+00 -0.27995456858E+03  0.27999401863E+03  0.47000000000E+01 0.  1.
         25    2    1    2    0    0 -0.31912083638E+01  0.19018003702E+02 -0.11910286451E+03  0.17372856820E+03  0.12499701916E+03 0.  0.
         25    2    1    2    0    0  0.31912083638E+01 -0.19018003702E+02 -0.10373338151E+03  0.16357681730E+03  0.12499956978E+03 0.  0.
          5    1    3    3  502    0  0.31249561812E+02 -0.26297237200E+02  0.58180817037E+00  0.41115791353E+02  0.47000000000E+01 0. -1.
         -5    1    3    3    0  502 -0.34440770176E+02  0.45315240902E+02 -0.11968467268E+03  0.13261277685E+03  0.47000000000E+01 0. -1.
          5    1    4    4  503    0  0.56481623884E+02  0.17270883210E+02 -0.66134460804E+02  0.88793660524E+02  0.47000000000E+01 0. -1.
         -5    1    4    4    0  503 -0.53290415520E+02 -0.36288886912E+02 -0.37598920704E+02  0.74783156778E+02  0.47000000000E+01 0. -1.
<mgrwt>
<rscale>  0 0.12647767E+03</rscale>
<asrwt>0</asrwt>
<pdfrwt beam="1">  1        5 0.88053186E-02 0.12647830E+03</pdfrwt>
<pdfrwt beam="2">  1       -5 0.43087817E-01 0.12647830E+03</pdfrwt>
<totfact> 0.36583102E+02</totfact>
</mgrwt>
</event>
<event>
 8    1  0.3588496E-007  0.1277571E+03  0.7546771E-02  0.1230823E+00
          5   -1    0    0  501    0  0.00000000000E+00  0.00000000000E+00  0.13084872685E+03  0.13093311009E+03  0.47000000000E+01 0.  1.
         -5   -1    0    0    0  501 -0.00000000000E+00 -0.00000000000E+00 -0.13731208947E+03  0.13739250312E+03  0.47000000000E+01 0.  1.
         25    2    1    2    0    0 -0.14053405761E+02 -0.22333862148E+02 -0.44077665196E+02  0.13514701602E+03  0.12500230301E+03 0.  0.
         25    2    1    2    0    0  0.14053405761E+02  0.22333862148E+02  0.37614302578E+02  0.13317859719E+03  0.12500161351E+03 0.  0.
          5    1    3    3  502    0 -0.39729471144E+02 -0.59715081345E+02 -0.21134490619E+00  0.71878066781E+02  0.47000000000E+01 0. -1.
         -5    1    3    3    0  502  0.25676065383E+02  0.37381219196E+02 -0.43866320289E+02  0.63268949240E+02  0.47000000000E+01 0. -1.
          5    1    4    4  503    0  0.20249897704E+01 -0.51896180091E+02  0.11195828467E+02  0.53336204090E+02  0.47000000000E+01 0.  1.
         -5    1    4    4    0  503  0.12028415991E+02  0.74230042240E+02  0.26418474111E+02  0.79842393104E+02  0.47000000000E+01 0.  1.
<mgrwt>
<rscale>  0 0.12775693E+03</rscale>
<asrwt>0</asrwt>
<pdfrwt beam="1">  1        5 0.20143250E-01 0.12775710E+03</pdfrwt>
<pdfrwt beam="2">  1       -5 0.21137613E-01 0.12775710E+03</pdfrwt>
<totfact> 0.33820792E+02</totfact>
</mgrwt>
</event>
<event>
 8    1  0.3588496E-007  0.1339710E+03  0.7546771E-02  0.1221682E+00
         -5   -1    0    0    0  501 -0.00000000000E+00  0.00000000000E+00  0.12784742896E+02  0.13621294025E+02  0.47000000000E+01 0. -1.
          5   -1    0    0  501    0  0.00000000000E+00 -0.00000000000E+00 -0.14536269739E+04  0.14536345721E+04  0.47000000000E+01 0. -1.
         25    2    1    2    0    0  0.46501352482E+02 -0.12674462443E+02 -0.53279925339E+03  0.54938317861E+03  0.12499525888E+03 0.  0.
         25    2    1    2    0    0 -0.46501352482E+02  0.12674462443E+02 -0.90804297763E+03  0.91787268755E+03  0.12500081417E+03 0.  0.
          5    1    3    3  502    0  0.44275065996E+01 -0.38052161772E+02 -0.45822250666E+02  0.59911088175E+02  0.47000000000E+01 0. -1.
         -5    1    3    3    0  502  0.42073845882E+02  0.25377699329E+02 -0.48697700273E+03  0.48947209044E+03  0.47000000000E+01 0. -1.
          5    1    4    4  503    0 -0.37415570471E+02 -0.11683668605E+02 -0.87346753718E+03  0.87435922911E+03  0.47000000000E+01 0. -1.
         -5    1    4    4    0  503 -0.90857820107E+01  0.24358131048E+02 -0.34575440455E+02  0.43513458442E+02  0.47000000000E+01 0. -1.
<mgrwt>
<rscale>  0 0.13396968E+03</rscale>
<asrwt>0</asrwt>
<pdfrwt beam="2">  1        5 0.22369973E+00 0.13397097E+03</pdfrwt>
<pdfrwt beam="1">  1       -5 0.20318192E-02 0.13397097E+03</pdfrwt>
<totfact> 0.68465398E+01</totfact>
</mgrwt>
</event>
<event>
 8    1  0.3588496E-007  0.1394624E+03  0.7546771E-02  0.1214073E+00
         -5   -1    0    0    0  501 -0.00000000000E+00  0.00000000000E+00  0.59746263678E+03  0.59748112301E+03  0.47000000000E+01 0.  1.
          5   -1    0    0  501    0  0.00000000000E+00 -0.00000000000E+00 -0.32593678374E+02  0.32930804271E+02  0.47000000000E+01 0.  1.
         25    2    1    2    0    0  0.53982793301E+02  0.29970485759E+02  0.30947360791E+03  0.33944611827E+03  0.12504951510E+03 0.  0.
         25    2    1    2    0    0 -0.53982793301E+02 -0.29970485759E+02  0.25539535049E+03  0.29096580900E+03  0.12498777927E+03 0.  0.
          5    1    3    3  502    0  0.45266937339E+01  0.70848022322E+02  0.20228821021E+03  0.21443540569E+03  0.47000000000E+01 0.  1.
         -5    1    3    3    0  502  0.49456099567E+02 -0.40877536563E+02  0.10718539771E+03  0.12501071259E+03  0.47000000000E+01 0.  1.
          5    1    4    4  503    0 -0.96318159169E+01 -0.74180030510E+02  0.16098793866E+03  0.17757999661E+03  0.47000000000E+01 0. -1.
         -5    1    4    4    0  503 -0.44350977384E+02  0.44209544751E+02  0.94407411836E+02  0.11338581239E+03  0.47000000000E+01 0. -1.
<mgrwt>
<rscale>  0 0.13944853E+03</rscale>
<asrwt>0</asrwt>
<pdfrwt beam="2">  1        5 0.50417668E-02 0.13946237E+03</pdfrwt>
<pdfrwt beam="1">  1       -5 0.91944684E-01 0.13946237E+03</pdfrwt>
<totfact> 0.18182426E+02</totfact>
</mgrwt>
</event>
<event>
 8    1  0.3588496E-007  0.1501074E+03  0.7546771E-02  0.1200342E+00
         -5   -1    0    0    0  501 -0.00000000000E+00  0.00000000000E+00  0.11826596855E+03  0.11835932290E+03  0.47000000000E+01 0.  1.
          5   -1    0    0  501    0  0.00000000000E+00 -0.00000000000E+00 -0.36483900651E+03  0.36486927888E+03  0.47000000000E+01 0.  1.
         25    2    1    2    0    0 -0.67463693599E+02 -0.48527776043E+02  0.43787879730E+02  0.15636371298E+03  0.12500374924E+03 0.  0.
         25    2    1    2    0    0  0.67463693599E+02  0.48527776043E+02 -0.29036091769E+03  0.32686488881E+03  0.12499959205E+03 0.  0.
          5    1    4    4  502    0 -0.18366299974E+02 -0.26300808929E+02 -0.98609239206E+02  0.10380233900E+03  0.47000000000E+01 0. -1.
         -5    1    4    4    0  502  0.85829993572E+02  0.74828584973E+02 -0.19175167849E+03  0.22306254981E+03  0.47000000000E+01 0. -1.
          5    1    3    3  503    0  0.19686988626E+01 -0.74050279661E+02  0.33839466408E+02  0.81575236315E+02  0.47000000000E+01 0. -1.
         -5    1    3    3    0  503 -0.69432392461E+02  0.25522503618E+02  0.99484133219E+01  0.74788476662E+02  0.47000000000E+01 0. -1.
<mgrwt>
<rscale>  0 0.15010654E+03</rscale>
<asrwt>0</asrwt>
<pdfrwt beam="2">  1        5 0.56138587E-01 0.15010740E+03</pdfrwt>
<pdfrwt beam="1">  1       -5 0.18204274E-01 0.15010740E+03</pdfrwt>
<totfact> 0.60630432E+01</totfact>
</mgrwt>
</event>
<event>
 8    1  0.3588496E-007  0.1359033E+03  0.7546771E-02  0.1218979E+00
         -5   -1    0    0    0  501 -0.00000000000E+00  0.00000000000E+00  0.27769077683E+03  0.27773054844E+03  0.47000000000E+01 0. -1.
          5   -1    0    0  501    0  0.00000000000E+00 -0.00000000000E+00 -0.85146130973E+02  0.85275750478E+02  0.47000000000E+01 0. -1.
         25    2    1    2    0    0 -0.27874749779E+02  0.45225540717E+02  0.18144835843E+03  0.22665076363E+03  0.12499884267E+03 0.  0.
         25    2    1    2    0    0  0.27874749779E+02 -0.45225540717E+02  0.11096287426E+02  0.13635553529E+03  0.12508938084E+03 0.  0.
          5    1    4    4  502    0  0.46024251971E+02 -0.33376285352E+02  0.59918580125E+02  0.82731701528E+02  0.47000000000E+01 0. -1.
         -5    1    4    4    0  502 -0.18149502192E+02 -0.11849255365E+02 -0.48822292699E+02  0.53623833758E+02  0.47000000000E+01 0. -1.
          5    1    3    3  503    0 -0.62012284422E+02  0.10095494272E+02  0.34821574898E+02  0.71986627246E+02  0.47000000000E+01 0.  1.
         -5    1    3    3    0  503  0.34137534643E+02  0.35130046445E+02  0.14662678353E+03  0.15466413638E+03  0.47000000000E+01 0.  1.
<mgrwt>
<rscale>  0 0.13588245E+03</rscale>
<asrwt>0</asrwt>
<pdfrwt beam="2">  1        5 0.13112435E-01 0.13590329E+03</pdfrwt>
<pdfrwt beam="1">  1       -5 0.42734688E-01 0.13590329E+03</pdfrwt>
<totfact> 0.18980233E+02</totfact>
</mgrwt>
</event>
<event>
 8    1  0.3588496E-007  0.1272741E+03  0.7546771E-02  0.1231560E+00
         -5   -1    0    0    0  501 -0.00000000000E+00  0.00000000000E+00  0.50564321067E+03  0.50566505366E+03  0.47000000000E+01 0.  1.
          5   -1    0    0  501    0  0.00000000000E+00 -0.00000000000E+00 -0.33807268594E+02  0.34132409962E+02  0.47000000000E+01 0.  1.
         25    2    1    2    0    0  0.18689723325E+02 -0.14964144290E+02  0.30069570248E+03  0.32651904541E+03  0.12499420050E+03 0.  0.
         25    2    1    2    0    0 -0.18689723325E+02  0.14964144290E+02  0.17114023960E+03  0.21327841821E+03  0.12500188275E+03 0.  0.
          5    1    3    3  502    0 -0.25696555283E+02  0.93470405844E+01  0.25981596850E+03  0.26129314497E+03  0.47000000000E+01 0.  1.
         -5    1    3    3    0  502  0.44386278608E+02 -0.24311184874E+02  0.40879733977E+02  0.65225900444E+02  0.47000000000E+01 0.  1.
          5    1    4    4  503    0 -0.54373728389E+02 -0.31563422034E+02  0.57561793668E+02  0.85370967195E+02  0.47000000000E+01 0. -1.
         -5    1    4    4    0  503  0.35684005064E+02  0.46527566324E+02  0.11357844593E+03  0.12790745101E+03  0.47000000000E+01 0. -1.
<mgrwt>
<rscale>  0 0.12727224E+03</rscale>
<asrwt>0</asrwt>
<pdfrwt beam="2">  1        5 0.52278095E-02 0.12727412E+03</pdfrwt>
<pdfrwt beam="1">  1       -5 0.77817952E-01 0.12727412E+03</pdfrwt>
<totfact> 0.24511015E+02</totfact>
</mgrwt>
</event>
<event>
 8    1  0.3588496E-007  0.1366078E+03  0.7546771E-02  0.1217971E+00
         -5   -1    0    0    0  501 -0.00000000000E+00  0.00000000000E+00  0.23893690224E+03  0.23898312336E+03  0.47000000000E+01 0.  1.
          5   -1    0    0  501    0  0.00000000000E+00 -0.00000000000E+00 -0.85396889434E+02  0.85526128902E+02  0.47000000000E+01 0.  1.
         25    2    1    2    0    0  0.53087617167E+02  0.14773790878E+02  0.12455528699E+03  0.18486040220E+03  0.12499115484E+03 0.  0.
         25    2    1    2    0    0 -0.53087617167E+02 -0.14773790878E+02  0.28984725813E+02  0.13964885007E+03  0.12500050800E+03 0.  0.
          5    1    3    3  502    0  0.27840893588E+02  0.32645456054E+02 -0.11974218064E+02  0.44791886039E+02  0.47000000000E+01 0. -1.
         -5    1    3    3    0  502  0.25246723580E+02 -0.17871665176E+02  0.13652950505E+03  0.14006851616E+03  0.47000000000E+01 0. -1.
          5    1    4    4  503    0 -0.53050243895E+02 -0.12653660853E+02 -0.41676233631E+02  0.68800014243E+02  0.47000000000E+01 0.  1.
         -5    1    4    4    0  503 -0.37373272528E-01 -0.21201300251E+01  0.70660959444E+02  0.70848835824E+02  0.47000000000E+01 0.  1.
<mgrwt>
<rscale>  0 0.13660565E+03</rscale>
<asrwt>0</asrwt>
<pdfrwt beam="2">  1        5 0.13151480E-01 0.13660779E+03</pdfrwt>
<pdfrwt beam="1">  1       -5 0.36773019E-01 0.13660779E+03</pdfrwt>
<totfact> 0.25703534E+02</totfact>
</mgrwt>
</event>
<event>
 8    1  0.3588496E-007  0.1469092E+03  0.7546771E-02  0.1204332E+00
         -5   -1    0    0    0  501 -0.00000000000E+00  0.00000000000E+00  0.98296608621E+03  0.98297732254E+03  0.47000000000E+01 0.  1.
          5   -1    0    0  501    0  0.00000000000E+00 -0.00000000000E+00 -0.21741408450E+02  0.22243624736E+02  0.47000000000E+01 0.  1.
         25    2    1    2    0    0  0.31682962530E+02  0.70375242451E+02  0.50506579023E+03  0.52599786887E+03  0.12500328288E+03 0.  0.
         25    2    1    2    0    0 -0.31682962530E+02 -0.70375242451E+02  0.45615888753E+03  0.47922307841E+03  0.12496936962E+03 0.  0.
          5    1    3    3  502    0  0.48506243417E+01  0.35114929196E+02  0.46408454810E+03  0.46546014287E+03  0.47000000000E+01 0. -1.
         -5    1    3    3    0  502  0.26832338188E+02  0.35260313255E+02  0.40981242123E+02  0.60537726001E+02  0.47000000000E+01 0. -1.
          5    1    4    4  503    0 -0.75346453927E+01 -0.48577232294E+02  0.43969812876E+03  0.44246248746E+03  0.47000000000E+01 0. -1.
         -5    1    4    4    0  503 -0.24148317137E+02 -0.21798010156E+02  0.16460758769E+02  0.36760590944E+02  0.47000000000E+01 0. -1.
<mgrwt>
<rscale>  0 0.14690196E+03</rscale>
<asrwt>0</asrwt>
<pdfrwt beam="2">  1        5 0.33843280E-02 0.14690917E+03</pdfrwt>
<pdfrwt beam="1">  1       -5 0.15126506E+00 0.14690917E+03</pdfrwt>
<totfact> 0.10022475E+02</totfact>
</mgrwt>
</event>
<event>
 8    1  0.3588496E-007  0.1273331E+03  0.7546771E-02  0.1231469E+00
         -5   -1    0    0    0  501 -0.00000000000E+00  0.00000000000E+00  0.58169286005E+01  0.74784128225E+01  0.47000000000E+01 0.  1.
          5   -1    0    0  501    0  0.00000000000E+00 -0.00000000000E+00 -0.24636290058E+04  0.24636334890E+04  0.47000000000E+01 0.  1.
         25    2    1    2    0    0 -0.11010295181E+02  0.21553726515E+02 -0.11011952263E+04  0.11085326552E+04  0.12501172616E+03 0.  0.
         25    2    1    2    0    0  0.11010295181E+02 -0.21553726515E+02 -0.13566168509E+04  0.13625792466E+04  0.12500853283E+03 0.  0.
          5    1    4    4  502    0  0.33477406076E+02 -0.53019485920E+02 -0.11820039056E+04  0.11836752618E+04  0.47000000000E+01 0.  1.
         -5    1    4    4    0  502 -0.22467110895E+02  0.31465759405E+02 -0.17461294531E+03  0.17890398474E+03  0.47000000000E+01 0.  1.
          5    1    3    3  503    0 -0.45157612265E+02  0.29944069417E+02 -0.99664010398E+03  0.99812296041E+03  0.47000000000E+01 0.  1.
         -5    1    3    3    0  503  0.34147317084E+02 -0.83903429018E+01 -0.10455512227E+03  0.11040969482E+03  0.47000000000E+01 0.  1.
<mgrwt>
<rscale>  0 0.12733233E+03</rscale>
<asrwt>0</asrwt>
<pdfrwt beam="2">  1        5 0.37914727E+00 0.12733311E+03</pdfrwt>
<pdfrwt beam="1">  1       -5 0.10230654E-02 0.12733311E+03</pdfrwt>
<totfact> 0.19833385E+01</totfact>
</mgrwt>
</event>
<event>
 8    1  0.3588496E-007  0.1578436E+03  0.7546771E-02  0.1191157E+00
          5   -1    0    0  501    0  0.00000000000E+00  0.00000000000E+00  0.22457492902E+03  0.22462410544E+03  0.47000000000E+01 0.  1.
         -5   -1    0    0    0  501 -0.00000000000E+00 -0.00000000000E+00 -0.12764845188E+03  0.12773494928E+03  0.47000000000E+01 0.  1.
         25    2    1    2    0    0  0.43751147618E+01 -0.96266976382E+02 -0.15466537331E+02  0.15859950894E+03  0.12501247173E+03 0.  0.
         25    2    1    2    0    0 -0.43751147618E+01  0.96266976382E+02  0.11239301447E+03  0.19375954578E+03  0.12499639799E+03 0.  0.
          5    1    3    3  502    0 -0.38051803233E+02 -0.88609521627E+02 -0.44602250594E+02  0.10635336295E+03  0.47000000000E+01 0. -1.
         -5    1    3    3    0  502  0.42426917995E+02 -0.76574547559E+01  0.29135713263E+02  0.52246145994E+02  0.47000000000E+01 0. -1.
          5    1    4    4  503    0 -0.38156537232E+02  0.48901458498E+02  0.11973803907E+03  0.13493169375E+03  0.47000000000E+01 0. -1.
         -5    1    4    4    0  503  0.33781422471E+02  0.47365517884E+02 -0.73450246040E+01  0.58827852035E+02  0.47000000000E+01 0. -1.
<mgrwt>
<rscale>  0 0.15784038E+03</rscale>
<asrwt>0</asrwt>
<pdfrwt beam="1">  1        5 0.34560426E-01 0.15784356E+03</pdfrwt>
<pdfrwt beam="2">  1       -5 0.19648660E-01 0.15784356E+03</pdfrwt>
<totfact> 0.14676821E+02</totfact>
</mgrwt>
</event>
<event>
 8    1  0.3588496E-007  0.1319417E+03  0.7546771E-02  0.1224605E+00
         -5   -1    0    0    0  501 -0.00000000000E+00  0.00000000000E+00  0.80105560467E+02  0.80243322574E+02  0.47000000000E+01 0. -1.
          5   -1    0    0  501    0  0.00000000000E+00 -0.00000000000E+00 -0.22614590238E+03  0.22619473725E+03  0.47000000000E+01 0. -1.
         25    2    1    2    0    0  0.27168829163E+02  0.32319065759E+02 -0.42154884015E+02  0.13851223877E+03  0.12500375496E+03 0.  0.
         25    2    1    2    0    0 -0.27168829163E+02 -0.32319065759E+02 -0.10388545789E+03  0.16792582105E+03  0.12499690286E+03 0.  0.
          5    1    3    3  502    0 -0.73420091846E+01  0.65386321664E+02  0.10998561790E+02  0.66875515109E+02  0.47000000000E+01 0.  1.
         -5    1    3    3    0  502  0.34510838348E+02 -0.33067255905E+02 -0.53153445805E+02  0.71636723665E+02  0.47000000000E+01 0.  1.
          5    1    4    4  503    0 -0.39162165669E+02  0.30667802228E+02 -0.88797498578E+02  0.10188854237E+03  0.47000000000E+01 0.  1.
         -5    1    4    4    0  503  0.11993336506E+02 -0.62986867986E+02 -0.15087959317E+02  0.66037278681E+02  0.47000000000E+01 0.  1.
<mgrwt>
<rscale>  0 0.13194005E+03</rscale>
<asrwt>0</asrwt>
<pdfrwt beam="2">  1        5 0.34806031E-01 0.13194168E+03</pdfrwt>
<pdfrwt beam="1">  1       -5 0.12338286E-01 0.13194168E+03</pdfrwt>
<totfact> 0.31779467E+02</totfact>
</mgrwt>
</event>
<event>
 8    1  0.3588496E-007  0.1322460E+03  0.7546771E-02  0.1224169E+00
         -5   -1    0    0    0  501 -0.00000000000E+00  0.00000000000E+00  0.90468717550E+03  0.90469938406E+03  0.47000000000E+01 0.  1.
          5   -1    0    0  501    0  0.00000000000E+00 -0.00000000000E+00 -0.19135736826E+02  0.19704477255E+02  0.47000000000E+01 0.  1.
         25    2    1    2    0    0  0.24188599023E+02  0.35758013552E+02  0.47658962294E+03  0.49459138771E+03  0.12497699088E+03 0.  0.
         25    2    1    2    0    0 -0.24188599023E+02 -0.35758013552E+02  0.40896181574E+03  0.42981247361E+03  0.12500108751E+03 0.  0.
          5    1    3    3  502    0  0.17817982257E+02  0.74831743910E+02  0.18681544950E+03  0.20208753688E+03  0.47000000000E+01 0.  1.
         -5    1    3    3    0  502  0.63706167659E+01 -0.39073730358E+02  0.28977417344E+03  0.29250385083E+03  0.47000000000E+01 0.  1.
          5    1    4    4  503    0 -0.47239465906E+02  0.12499203322E+02  0.33411746708E+03  0.33770455879E+03  0.47000000000E+01 0.  1.
         -5    1    4    4    0  503  0.23050866883E+02 -0.48257216874E+02  0.74844348662E+02  0.92107914813E+02  0.47000000000E+01 0.  1.
<mgrwt>
<rscale>  0 0.13224027E+03</rscale>
<asrwt>0</asrwt>
<pdfrwt beam="2">  1        5 0.29886479E-02 0.13224597E+03</pdfrwt>
<pdfrwt beam="1">  1       -5 0.13922733E+00 0.13224597E+03</pdfrwt>
<totfact> 0.14842208E+02</totfact>
</mgrwt>
</event>
<event>
 8    1  0.3588496E-007  0.1544800E+03  0.7546771E-02  0.1195075E+00
         -5   -1    0    0    0  501 -0.00000000000E+00  0.00000000000E+00  0.26249493711E+03  0.26253701074E+03  0.47000000000E+01 0. -1.
          5   -1    0    0  501    0  0.00000000000E+00 -0.00000000000E+00 -0.91666817755E+02  0.91787229380E+02  0.47000000000E+01 0. -1.
         25    2    1    2    0    0 -0.36583564624E+02  0.83056372263E+02  0.10262271249E+03  0.18546022113E+03  0.12500941696E+03 0.  0.
         25    2    1    2    0    0  0.36583564624E+02 -0.83056372263E+02  0.68205406865E+02  0.16886401899E+03  0.12500544472E+03 0.  0.
          5    1    3    3  502    0 -0.16239723822E+02  0.98362997061E+02  0.23952055760E+02  0.10263916794E+03  0.47000000000E+01 0. -1.
         -5    1    3    3    0  502 -0.20343840802E+02 -0.15306624797E+02  0.78670656729E+02  0.82821053189E+02  0.47000000000E+01 0. -1.
          5    1    4    4  503    0  0.59729560282E+02 -0.19198776022E+02 -0.11585227204E+02  0.63972813457E+02  0.47000000000E+01 0.  1.
         -5    1    4    4    0  503 -0.23145995657E+02 -0.63857596241E+02  0.79790634069E+02  0.10489120553E+03  0.47000000000E+01 0.  1.
<mgrwt>
<rscale>  0 0.15447920E+03</rscale>
<asrwt>0</asrwt>
<pdfrwt beam="2">  1        5 0.14115086E-01 0.15448001E+03</pdfrwt>
<pdfrwt beam="1">  1       -5 0.40396335E-01 0.15448001E+03</pdfrwt>
<totfact> 0.19479825E+02</totfact>
</mgrwt>
</event>
<event>
 8    1  0.3588496E-007  0.1503334E+03  0.7546771E-02  0.1200068E+00
         -5   -1    0    0    0  501 -0.00000000000E+00  0.00000000000E+00  0.10218183455E+03  0.10228986905E+03  0.47000000000E+01 0. -1.
          5   -1    0    0  501    0  0.00000000000E+00 -0.00000000000E+00 -0.22280295987E+03  0.22285252731E+03  0.47000000000E+01 0. -1.
         25    2    1    2    0    0  0.31180486488E+02 -0.77470911397E+02 -0.45306745622E+02  0.15699842907E+03  0.12498736209E+03 0.  0.
         25    2    1    2    0    0 -0.31180486488E+02  0.77470911397E+02 -0.75314379706E+02  0.16814396729E+03  0.12500469229E+03 0.  0.
          5    1    3    3  502    0  0.60736102522E+02 -0.25058245258E+02  0.19247263353E+02  0.68624608935E+02  0.47000000000E+01 0. -1.
         -5    1    3    3    0  502 -0.29555616034E+02 -0.52412666139E+02 -0.64554008975E+02  0.88373820138E+02  0.47000000000E+01 0. -1.
          5    1    4    4  503    0 -0.76767631324E+02  0.50446955257E+02 -0.68117435800E+02  0.11445627800E+03  0.47000000000E+01 0. -1.
         -5    1    4    4    0  503  0.45587144836E+02  0.27023956140E+02 -0.71969439058E+01  0.53687689290E+02  0.47000000000E+01 0. -1.
<mgrwt>
<rscale>  0 0.15032982E+03</rscale>
<asrwt>0</asrwt>
<pdfrwt beam="2">  1        5 0.34289502E-01 0.15033342E+03</pdfrwt>
<pdfrwt beam="1">  1       -5 0.15732405E-01 0.15033342E+03</pdfrwt>
<totfact> 0.22109439E+02</totfact>
</mgrwt>
</event>
<event>
 8    1  0.3588496E-007  0.1374411E+03  0.7546771E-02  0.1216815E+00
         -5   -1    0    0    0  501 -0.00000000000E+00  0.00000000000E+00  0.17645239524E+03  0.17651497893E+03  0.47000000000E+01 0.  1.
          5   -1    0    0  501    0  0.00000000000E+00 -0.00000000000E+00 -0.17072018172E+03  0.17078486598E+03  0.47000000000E+01 0.  1.
         25    2    1    2    0    0  0.23682594238E+02  0.52003181128E+02  0.10897687372E+03  0.17540241173E+03  0.12499940366E+03 0.  0.
         25    2    1    2    0    0 -0.23682594238E+02 -0.52003181128E+02 -0.10324466021E+03  0.17189743318E+03  0.12499628617E+03 0.  0.
          5    1    4    4  502    0  0.39577510718E+01 -0.38026370456E+02 -0.12691565734E+03  0.13263235926E+03  0.47000000000E+01 0. -1.
         -5    1    4    4    0  502 -0.27640345310E+02 -0.13976810672E+02  0.23670997132E+02  0.39265073929E+02  0.47000000000E+01 0. -1.
          5    1    3    3  503    0  0.44296235915E+02  0.72934431391E+02  0.29287737070E+02  0.90340740207E+02  0.47000000000E+01 0. -1.
         -5    1    3    3    0  503 -0.20613641677E+02 -0.20931250263E+02  0.79689136655E+02  0.85061671519E+02  0.47000000000E+01 0. -1.
<mgrwt>
<rscale>  0 0.13744036E+03</rscale>
<asrwt>0</asrwt>
<pdfrwt beam="2">  1        5 0.26274433E-01 0.13744107E+03</pdfrwt>
<pdfrwt beam="1">  1       -5 0.27156312E-01 0.13744107E+03</pdfrwt>
<totfact> 0.13005530E+02</totfact>
</mgrwt>
</event>
<event>
 8    1  0.3588496E-007  0.1475914E+03  0.7546771E-02  0.1203488E+00
          5   -1    0    0  501    0  0.00000000000E+00  0.00000000000E+00  0.63928391275E+03  0.63930118966E+03  0.47000000000E+01 0. -1.
         -5   -1    0    0    0  501 -0.00000000000E+00 -0.00000000000E+00 -0.36915902693E+02  0.37213893530E+02  0.47000000000E+01 0. -1.
         25    2    1    2    0    0  0.10128414953E+02  0.77681061471E+02  0.20463508482E+03  0.25230680869E+03  0.12508507373E+03 0.  0.
         25    2    1    2    0    0 -0.10128414953E+02 -0.77681061471E+02  0.39773292523E+03  0.42420827450E+03  0.12499699291E+03 0.  0.
          5    1    3    3  502    0  0.15540217976E+02 -0.19630878633E+02  0.12142685212E+03  0.12407030340E+03  0.47000000000E+01 0. -1.
         -5    1    3    3    0  502 -0.54118030229E+01  0.97311940104E+02  0.83208232702E+02  0.12823650529E+03  0.47000000000E+01 0. -1.
          5    1    4    4  503    0 -0.93369516975E+01 -0.11203398637E+03  0.31532891257E+03  0.33480323456E+03  0.47000000000E+01 0. -1.
         -5    1    4    4    0  503 -0.79146325574E+00  0.34352924902E+02  0.82404012665E+02  0.89405039940E+02  0.47000000000E+01 0. -1.
<mgrwt>
<rscale>  0 0.14757269E+03</rscale>
<asrwt>0</asrwt>
<pdfrwt beam="1">  1        5 0.98375617E-01 0.14759135E+03</pdfrwt>
<pdfrwt beam="2">  1       -5 0.57036214E-02 0.14759135E+03</pdfrwt>
<totfact> 0.12810605E+02</totfact>
</mgrwt>
</event>
<event>
 8    1  0.3588496E-007  0.1408833E+03  0.7546771E-02  0.1212147E+00
          5   -1    0    0  501    0  0.00000000000E+00  0.00000000000E+00  0.15292284777E+04  0.15292357003E+04  0.47000000000E+01 0. -1.
         -5   -1    0    0    0  501 -0.00000000000E+00 -0.00000000000E+00 -0.12609828077E+02  0.13457256932E+02  0.47000000000E+01 0. -1.
         25    2    1    2    0    0  0.44268215054E+02  0.47557324509E+02  0.70501251651E+03  0.71894990283E+03  0.12499976146E+03 0.  0.
         25    2    1    2    0    0 -0.44268215054E+02 -0.47557324509E+02  0.81160613312E+03  0.82374305439E+03  0.12500692123E+03 0.  0.
          5    1    4    4  502    0 -0.31510972560E+00 -0.47527897876E+02  0.10057507035E+03  0.11133927944E+03  0.47000000000E+01 0.  1.
         -5    1    4    4    0  502 -0.43953105329E+02 -0.29426632935E-01  0.71103106277E+03  0.71240377495E+03  0.47000000000E+01 0.  1.
          5    1    3    3  503    0  0.22883999291E+02  0.38075194219E+01  0.62303190074E+03  0.62348136617E+03  0.47000000000E+01 0.  1.
         -5    1    3    3    0  503  0.21384215764E+02  0.43749805087E+02  0.81980615771E+02  0.95468536656E+02  0.47000000000E+01 0.  1.
<mgrwt>
<rscale>  0 0.14088171E+03</rscale>
<asrwt>0</asrwt>
<pdfrwt beam="1">  1        5 0.23533161E+00 0.14088330E+03</pdfrwt>
<pdfrwt beam="2">  1       -5 0.20057164E-02 0.14088330E+03</pdfrwt>
<totfact> 0.59640919E+01</totfact>
</mgrwt>
</event>
<event>
 8    1  0.3588496E-007  0.1300947E+03  0.7546771E-02  0.1227316E+00
         -5   -1    0    0    0  501 -0.00000000000E+00  0.00000000000E+00  0.13083845244E+03  0.13092284231E+03  0.47000000000E+01 0.  1.
          5   -1    0    0  501    0  0.00000000000E+00 -0.00000000000E+00 -0.12918711664E+03  0.12927258451E+03  0.47000000000E+01 0.  1.
         25    2    1    2    0    0 -0.12247605570E+02  0.33922807192E+02  0.12618758050E+00  0.13009180774E+03  0.12499240708E+03 0.  0.
         25    2    1    2    0    0  0.12247605570E+02 -0.33922807192E+02  0.15251482237E+01  0.13010361907E+03  0.12499545963E+03 0.  0.
          5    1    4    4  502    0 -0.47421134295E+02 -0.11747664971E+02  0.32792679653E+02  0.59027294101E+02  0.47000000000E+01 0.  1.
         -5    1    4    4    0  502  0.59668739865E+02 -0.22175142221E+02 -0.31267531429E+02  0.71076324970E+02  0.47000000000E+01 0.  1.
          5    1    3    3  503    0 -0.31198903042E+02 -0.41369585746E+02 -0.41369114193E+01  0.52192127873E+02  0.47000000000E+01 0.  1.
         -5    1    3    3    0  503  0.18951297472E+02  0.75292392938E+02  0.42630989998E+01  0.77899679867E+02  0.47000000000E+01 0.  1.
<mgrwt>
<rscale>  0 0.13009395E+03</rscale>
<asrwt>0</asrwt>
<pdfrwt beam="2">  1        5 0.19888007E-01 0.13009468E+03</pdfrwt>
<pdfrwt beam="1">  1       -5 0.20142059E-01 0.13009468E+03</pdfrwt>
<totfact> 0.38159668E+02</totfact>
</mgrwt>
</event>
<event>
 8    1  0.3588496E-007  0.1418060E+03  0.7546771E-02  0.1210923E+00
          5   -1    0    0  501    0  0.00000000000E+00  0.00000000000E+00  0.22684232053E+02  0.23166017868E+02  0.47000000000E+01 0. -1.
         -5   -1    0    0    0  501 -0.00000000000E+00 -0.00000000000E+00 -0.92414249205E+03  0.92415444359E+03  0.47000000000E+01 0. -1.
         25    2    1    2    0    0  0.64105056033E+02 -0.19396621820E+02 -0.55815936366E+03  0.57589132644E+03  0.12499302975E+03 0.  0.
         25    2    1    2    0    0 -0.64105056033E+02  0.19396621820E+02 -0.34329889634E+03  0.37142913502E+03  0.12497913012E+03 0.  0.
          5    1    3    3  502    0 -0.23465979162E+02  0.74298319047E+01 -0.26856650636E+02  0.36731788189E+02  0.47000000000E+01 0.  1.
         -5    1    3    3    0  502  0.87571035195E+02 -0.26826453725E+02 -0.53130271302E+03  0.53915953825E+03  0.47000000000E+01 0.  1.
          5    1    4    4  503    0 -0.27625288995E+02  0.69795568942E+02 -0.23133559830E+03  0.24325465479E+03  0.47000000000E+01 0.  1.
         -5    1    4    4    0  503 -0.36479767038E+02 -0.50398947122E+02 -0.11196329804E+03  0.12817448023E+03  0.47000000000E+01 0.  1.
<mgrwt>
<rscale>  0 0.14180295E+03</rscale>
<asrwt>0</asrwt>
<pdfrwt beam="1">  1        5 0.35278624E-02 0.14180601E+03</pdfrwt>
<pdfrwt beam="2">  1       -5 0.14221372E+00 0.14180601E+03</pdfrwt>
<totfact> 0.10954266E+02</totfact>
</mgrwt>
</event>
<event>
 8    1  0.3588496E-007  0.1377856E+03  0.7546771E-02  0.1216342E+00
         -5   -1    0    0    0  501 -0.00000000000E+00  0.00000000000E+00  0.38685841793E+03  0.38688696737E+03  0.47000000000E+01 0. -1.
          5   -1    0    0  501    0  0.00000000000E+00 -0.00000000000E+00 -0.48963563677E+02  0.49188622342E+02  0.47000000000E+01 0. -1.
         25    2    1    2    0    0  0.35438771119E+02  0.45857175793E+02  0.17466577812E+03  0.22246704164E+03  0.12499865399E+03 0.  0.
         25    2    1    2    0    0 -0.35438771119E+02 -0.45857175793E+02  0.16322907613E+03  0.21360854808E+03  0.12500437371E+03 0.  0.
          5    1    3    3  502    0 -0.39417611227E+01 -0.37194282032E+02  0.89326952659E+02  0.96955384419E+02  0.47000000000E+01 0. -1.
         -5    1    3    3    0  502  0.39380532242E+02  0.83051457824E+02  0.85338825460E+02  0.12551165722E+03  0.47000000000E+01 0. -1.
          5    1    4    4  503    0 -0.59150151211E+02 -0.72024909607E+02  0.79409479864E+02  0.12253278535E+03  0.47000000000E+01 0.  1.
         -5    1    4    4    0  503  0.23711380091E+02  0.26167733814E+02  0.83819596268E+02  0.91075762733E+02  0.47000000000E+01 0.  1.
<mgrwt>
<rscale>  0 0.13778434E+03</rscale>
<asrwt>0</asrwt>
<pdfrwt beam="2">  1        5 0.75523642E-02 0.13778563E+03</pdfrwt>
<pdfrwt beam="1">  1       -5 0.59536189E-01 0.13778563E+03</pdfrwt>
<totfact> 0.24697228E+02</totfact>
</mgrwt>
</event>
<event>
 8    1  0.3588496E-007  0.1275248E+03  0.7546771E-02  0.1231177E+00
         -5   -1    0    0    0  501 -0.00000000000E+00  0.00000000000E+00  0.50405996168E+03  0.50408187328E+03  0.47000000000E+01 0.  1.
          5   -1    0    0  501    0  0.00000000000E+00 -0.00000000000E+00 -0.32315865059E+02  0.32655859115E+02  0.47000000000E+01 0.  1.
         25    2    1    2    0    0 -0.49447536464E+01 -0.24754493108E+02  0.25924476526E+03  0.28891247000E+03  0.12500132594E+03 0.  0.
         25    2    1    2    0    0  0.49447536464E+01  0.24754493108E+02  0.21249933136E+03  0.24782526239E+03  0.12499663730E+03 0.  0.
          5    1    3    3  502    0  0.77728407544E+01  0.27460194574E+02  0.22075772422E+03  0.22264442985E+03  0.47000000000E+01 0. -1.
         -5    1    3    3    0  502 -0.12717594401E+02 -0.52214687682E+02  0.38487041038E+02  0.66268040147E+02  0.47000000000E+01 0. -1.
          5    1    4    4  503    0  0.64057127545E+02  0.21209433716E+02  0.10242533974E+03  0.12274443323E+03  0.47000000000E+01 0. -1.
         -5    1    4    4    0  503 -0.59112373899E+02  0.35450593919E+01  0.11007399161E+03  0.12508082916E+03  0.47000000000E+01 0. -1.
<mgrwt>
<rscale>  0 0.12752362E+03</rscale>
<asrwt>0</asrwt>
<pdfrwt beam="2">  1        5 0.49995108E-02 0.12752477E+03</pdfrwt>
<pdfrwt beam="1">  1       -5 0.77575520E-01 0.12752477E+03</pdfrwt>
<totfact> 0.26606722E+02</totfact>
</mgrwt>
</event>
<event>
 8    1  0.3588496E-007  0.1360727E+03  0.7546771E-02  0.1218714E+00
          5   -1    0    0  501    0  0.00000000000E+00  0.00000000000E+00  0.25017176504E+03  0.25021591081E+03  0.47000000000E+01 0.  1.
         -5   -1    0    0    0  501 -0.00000000000E+00 -0.00000000000E+00 -0.10146650243E+03  0.10157529776E+03  0.47000000000E+01 0.  1.
         25    2    1    2    0    0 -0.30143415526E+02  0.44524670282E+02 -0.17275128404E+02  0.13716489557E+03  0.12499882700E+03 0.  0.
         25    2    1    2    0    0  0.30143415526E+02 -0.44524670282E+02  0.16598039102E+03  0.21462631300E+03  0.12499556899E+03 0.  0.
          5    1    3    3  502    0 -0.21147584311E+02  0.83457689821E+02 -0.35182862039E+02  0.93125346140E+02  0.47000000000E+01 0. -1.
         -5    1    3    3    0  502 -0.89958312149E+01 -0.38933019539E+02  0.17907733635E+02  0.44039549425E+02  0.47000000000E+01 0. -1.
          5    1    4    4  503    0 -0.18183950053E+02  0.36680101007E+02  0.44537055014E+02  0.60677220756E+02  0.47000000000E+01 0. -1.
         -5    1    4    4    0  503  0.48327365579E+02 -0.81204771289E+02  0.12144333600E+03  0.15394909225E+03  0.47000000000E+01 0. -1.
<mgrwt>
<rscale>  0 0.13607195E+03</rscale>
<asrwt>0</asrwt>
<pdfrwt beam="1">  1        5 0.38499728E-01 0.13607270E+03</pdfrwt>
<pdfrwt beam="2">  1       -5 0.15621996E-01 0.13607270E+03</pdfrwt>
<totfact> 0.17152280E+02</totfact>
</mgrwt>
</event>
<event>
 8    1  0.3588496E-007  0.1603805E+03  0.7546771E-02  0.1188273E+00
         -5   -1    0    0    0  501 -0.00000000000E+00  0.00000000000E+00  0.28668768665E+03  0.28672621031E+03  0.47000000000E+01 0. -1.
          5   -1    0    0  501    0  0.00000000000E+00 -0.00000000000E+00 -0.92534741359E+02  0.92654025052E+02  0.47000000000E+01 0. -1.
         25    2    1    2    0    0 -0.93828148779E+02  0.35941566074E+02  0.13080103489E+03  0.20694078244E+03  0.12498023456E+03 0.  0.
         25    2    1    2    0    0  0.93828148779E+02 -0.35941566074E+02  0.63351910402E+02  0.17243945292E+03  0.12500553067E+03 0.  0.
          5    1    4    4  502    0 -0.91282480027E+01  0.31974318564E+02  0.28866239457E+02  0.44283538021E+02  0.47000000000E+01 0. -1.
         -5    1    4    4    0  502  0.10295639678E+03 -0.67915884638E+02  0.34485670944E+02  0.12815591490E+03  0.47000000000E+01 0. -1.
          5    1    3    3  503    0 -0.66863540496E+02  0.37572861205E+02  0.37154118322E+01  0.76930795081E+02  0.47000000000E+01 0.  1.
         -5    1    3    3    0  503 -0.26964608283E+02 -0.16312951306E+01  0.12708562306E+03  0.13000998736E+03  0.47000000000E+01 0.  1.
<mgrwt>
<rscale>  0 0.16037556E+03</rscale>
<asrwt>0</asrwt>
<pdfrwt beam="2">  1        5 0.14248253E-01 0.16038049E+03</pdfrwt>
<pdfrwt beam="1">  1       -5 0.44117936E-01 0.16038049E+03</pdfrwt>
<totfact> 0.16156546E+02</totfact>
</mgrwt>
</event>
<event>
 8    1  0.3588496E-007  0.1552030E+03  0.7546771E-02  0.1194222E+00
          5   -1    0    0  501    0  0.00000000000E+00  0.00000000000E+00  0.81656583321E+02  0.81791733077E+02  0.47000000000E+01 0. -1.
         -5   -1    0    0    0  501 -0.00000000000E+00 -0.00000000000E+00 -0.34287399187E+03  0.34290620335E+03  0.47000000000E+01 0. -1.
         25    2    1    2    0    0 -0.89486504962E+02 -0.21318338769E+02 -0.21027760374E+03  0.26135157830E+03  0.12500268281E+03 0.  0.
         25    2    1    2    0    0  0.89486504962E+02  0.21318338769E+02 -0.50939804808E+02  0.16334635813E+03  0.12499945145E+03 0.  0.
          5    1    3    3  502    0 -0.67716759068E+02 -0.36294231254E+01 -0.22754565883E+02  0.71683976169E+02  0.47000000000E+01 0. -1.
         -5    1    3    3    0  502 -0.21769745895E+02 -0.17688915643E+02 -0.18752303785E+03  0.18966760213E+03  0.47000000000E+01 0. -1.
          5    1    4    4  503    0 -0.39176970218E+01 -0.11581737087E+02  0.31687294260E+02  0.34287892928E+02  0.47000000000E+01 0.  1.
         -5    1    4    4    0  503  0.93404201984E+02  0.32900075856E+02 -0.82627099068E+02  0.12905846520E+03  0.47000000000E+01 0.  1.
<mgrwt>
<rscale>  0 0.15520237E+03</rscale>
<asrwt>0</asrwt>
<pdfrwt beam="1">  1        5 0.12575425E-01 0.15520302E+03</pdfrwt>
<pdfrwt beam="2">  1       -5 0.52762718E-01 0.15520302E+03</pdfrwt>
<totfact> 0.13707773E+02</totfact>
</mgrwt>
</event>
<event>
 8    1  0.3588496E-007  0.2173044E+03  0.7546771E-02  0.1135910E+00
          5   -1    0    0  501    0  0.00000000000E+00  0.00000000000E+00  0.44929409831E+03  0.44931868064E+03  0.47000000000E+01 0. -1.
         -5   -1    0    0    0  501 -0.00000000000E+00 -0.00000000000E+00 -0.10946655852E+03  0.10956741046E+03  0.47000000000E+01 0. -1.
         25    2    1    2    0    0 -0.14986179878E+03 -0.95585840707E+02  0.11361522193E+03  0.24520918332E+03  0.12499565293E+03 0.  0.
         25    2    1    2    0    0  0.14986179878E+03  0.95585840707E+02  0.22621231785E+03  0.31367690778E+03  0.12500391213E+03 0.  0.
          5    1    3    3  502    0 -0.33580140864E+02 -0.61067506683E+02 -0.11608204384E+02  0.70807532382E+02  0.47000000000E+01 0.  1.
         -5    1    3    3    0  502 -0.11628165792E+03 -0.34518334023E+02  0.12522342632E+03  0.17440165094E+03  0.47000000000E+01 0.  1.
          5    1    4    4  503    0  0.88160175495E+02  0.11261462690E+03  0.19616516361E+03  0.24281089792E+03  0.47000000000E+01 0.  1.
         -5    1    4    4    0  503  0.61701623286E+02 -0.17028786191E+02  0.30047154247E+02  0.70866009861E+02  0.47000000000E+01 0.  1.
<mgrwt>
<rscale>  0 0.21730318E+03</rscale>
<asrwt>0</asrwt>
<pdfrwt beam="1">  1        5 0.69131817E-01 0.21730437E+03</pdfrwt>
<pdfrwt beam="2">  1       -5 0.16850658E-01 0.21730437E+03</pdfrwt>
<totfact> 0.48851586E+01</totfact>
</mgrwt>
</event>
<event>
 8    1  0.3588496E-007  0.1527328E+03  0.7546771E-02  0.1197157E+00
          5   -1    0    0  501    0  0.00000000000E+00  0.00000000000E+00  0.51543777092E+02  0.51757617381E+02  0.47000000000E+01 0.  1.
         -5   -1    0    0    0  501 -0.00000000000E+00 -0.00000000000E+00 -0.46636592454E+03  0.46638960705E+03  0.47000000000E+01 0.  1.
         25    2    1    2    0    0 -0.44843882899E+02 -0.75426615755E+02 -0.25382089567E+03  0.29622669364E+03  0.12500023498E+03 0.  0.
         25    2    1    2    0    0  0.44843882899E+02  0.75426615755E+02 -0.16100125177E+03  0.22192053080E+03  0.12500868258E+03 0.  0.
          5    1    4    4  502    0 -0.98608753019E+01  0.55952626120E+02 -0.72078893955E+01  0.57462830603E+02  0.47000000000E+01 0. -1.
         -5    1    4    4    0  502  0.54704758201E+02  0.19473989636E+02 -0.15379336238E+03  0.16445770019E+03  0.47000000000E+01 0. -1.
          5    1    3    3  503    0 -0.79076069471E+01  0.66016496846E+01  0.11434556992E+02  0.16091958233E+02  0.47000000000E+01 0.  1.
         -5    1    3    3    0  503 -0.36936275952E+02 -0.82028265440E+02 -0.26525545266E+03  0.28013473540E+03  0.47000000000E+01 0.  1.
<mgrwt>
<rscale>  0 0.15273111E+03</rscale>
<asrwt>0</asrwt>
<pdfrwt beam="1">  1        5 0.79480832E-02 0.15273284E+03</pdfrwt>
<pdfrwt beam="2">  1       -5 0.71766872E-01 0.15273284E+03</pdfrwt>
<totfact> 0.15444273E+02</totfact>
</mgrwt>
</event>
<event>
 8    1  0.3588496E-007  0.2153888E+03  0.7546771E-02  0.1137369E+00
         -5   -1    0    0    0  501 -0.00000000000E+00  0.00000000000E+00  0.20687848344E+03  0.20693186538E+03  0.47000000000E+01 0.  1.
          5   -1    0    0  501    0  0.00000000000E+00 -0.00000000000E+00 -0.22624820674E+03  0.22629701954E+03  0.47000000000E+01 0.  1.
         25    2    1    2    0    0  0.15546298571E+03 -0.81212875370E+02  0.11227732520E+02  0.21568120261E+03  0.12501219192E+03 0.  0.
         25    2    1    2    0    0 -0.15546298571E+03  0.81212875370E+02 -0.30597455823E+02  0.21754768231E+03  0.12500607475E+03 0.  0.
          5    1    3    3  502    0  0.13730894950E+03 -0.11289417778E+03  0.16076532987E+02  0.17854799888E+03  0.47000000000E+01 0. -1.
         -5    1    3    3    0  502  0.18154036211E+02  0.31681302415E+02 -0.48488004674E+01  0.37133203732E+02  0.47000000000E+01 0. -1.
          5    1    4    4  503    0  0.13022437290E+02  0.39263173182E+02 -0.79458359535E+01  0.42384041222E+02  0.47000000000E+01 0. -1.
         -5    1    4    4    0  503 -0.16848542300E+03  0.41949702189E+02 -0.22651619870E+02  0.17516364109E+03  0.47000000000E+01 0. -1.
<mgrwt>
<rscale>  0 0.21538788E+03</rscale>
<asrwt>0</asrwt>
<pdfrwt beam="2">  1        5 0.34815278E-01 0.21538876E+03</pdfrwt>
<pdfrwt beam="1">  1       -5 0.31835320E-01 0.21538876E+03</pdfrwt>
<totfact> 0.62315231E+01</totfact>
</mgrwt>
</event>
<event>
 8    1  0.3588496E-007  0.1390524E+03  0.7546771E-02  0.1214611E+00
          5   -1    0    0  501    0  0.00000000000E+00  0.00000000000E+00  0.21909842043E+03  0.21914882577E+03  0.47000000000E+01 0. -1.
         -5   -1    0    0    0  501 -0.00000000000E+00 -0.00000000000E+00 -0.91624376746E+02  0.91744844074E+02  0.47000000000E+01 0. -1.
         25    2    1    2    0    0  0.41707597753E+02  0.44391499068E+02  0.33389159710E+02  0.14300488442E+03  0.12500172831E+03 0.  0.
         25    2    1    2    0    0 -0.41707597753E+02 -0.44391499068E+02  0.94084883978E+02  0.16788878543E+03  0.12499819990E+03 0.  0.
          5    1    4    4  502    0 -0.61424346105E+02 -0.13991166530E+02  0.11092840305E+03  0.12765540975E+03  0.47000000000E+01 0.  1.
         -5    1    4    4    0  502  0.19716748352E+02 -0.30400332538E+02 -0.16843519068E+02  0.40233375679E+02  0.47000000000E+01 0.  1.
          5    1    3    3  503    0  0.43397975634E+02  0.31347550814E+02  0.78863547889E+02  0.95433759314E+02  0.47000000000E+01 0.  1.
         -5    1    3    3    0  503 -0.16903778817E+01  0.13043948254E+02 -0.45474388179E+02  0.47571125104E+02  0.47000000000E+01 0.  1.
<mgrwt>
<rscale>  0 0.13905157E+03</rscale>
<asrwt>0</asrwt>
<pdfrwt beam="1">  1        5 0.33720594E-01 0.13905237E+03</pdfrwt>
<pdfrwt beam="2">  1       -5 0.14109202E-01 0.13905237E+03</pdfrwt>
<totfact> 0.27124934E+02</totfact>
</mgrwt>
</event>
<event>
 8    1  0.3588496E-007  0.1330142E+03  0.7546771E-02  0.1223054E+00
         -5   -1    0    0    0  501 -0.00000000000E+00  0.00000000000E+00  0.37268765849E+03  0.37271729338E+03  0.47000000000E+01 0. -1.
          5   -1    0    0  501    0  0.00000000000E+00 -0.00000000000E+00 -0.49117412348E+02  0.49341769281E+02  0.47000000000E+01 0. -1.
         25    2    1    2    0    0  0.24320251069E+02 -0.38422274143E+02  0.20203525312E+03  0.24189052108E+03  0.12500013969E+03 0.  0.
         25    2    1    2    0    0 -0.24320251069E+02  0.38422274143E+02  0.12153499301E+03  0.18016854158E+03  0.12498881185E+03 0.  0.
          5    1    3    3  502    0  0.64219812730E+02  0.52660629526E+01  0.60909181615E+02  0.88791520829E+02  0.47000000000E+01 0.  1.
         -5    1    3    3    0  502 -0.39899561661E+02 -0.43688337096E+02  0.14112607151E+03  0.15309900025E+03  0.47000000000E+01 0.  1.
          5    1    4    4  503    0  0.14371741301E+01  0.27878897486E+02 -0.20757474051E+02  0.35103577075E+02  0.47000000000E+01 0. -1.
         -5    1    4    4    0  503 -0.25757425199E+02  0.10543376657E+02  0.14229246706E+03  0.14506496451E+03  0.47000000000E+01 0. -1.
<mgrwt>
<rscale>  0 0.13301155E+03</rscale>
<asrwt>0</asrwt>
<pdfrwt beam="2">  1        5 0.75760629E-02 0.13301421E+03</pdfrwt>
<pdfrwt beam="1">  1       -5 0.57356100E-01 0.13301421E+03</pdfrwt>
<totfact> 0.26327603E+02</totfact>
</mgrwt>
</event>
<event>
 8    1  0.3588496E-007  0.1287046E+03  0.7546771E-02  0.1229392E+00
         -5   -1    0    0    0  501 -0.00000000000E+00  0.00000000000E+00  0.83755739964E+02  0.83887507872E+02  0.47000000000E+01 0. -1.
          5   -1    0    0  501    0  0.00000000000E+00 -0.00000000000E+00 -0.19760014562E+03  0.19765603343E+03  0.47000000000E+01 0. -1.
         25    2    1    2    0    0 -0.29572960153E+02  0.81001832088E+01 -0.53118716311E+02  0.13923229731E+03  0.12499544652E+03 0.  0.
         25    2    1    2    0    0  0.29572960153E+02 -0.81001832088E+01 -0.60725689349E+02  0.14231124399E+03  0.12499883151E+03 0.  0.
          5    1    3    3  502    0  0.44589193719E+02 -0.11031462403E+02 -0.47485557708E+00  0.46175803697E+02  0.47000000000E+01 0. -1.
         -5    1    3    3    0  502 -0.74162153872E+02  0.19131645612E+02 -0.52643860734E+02  0.93056493614E+02  0.47000000000E+01 0. -1.
          5    1    4    4  503    0 -0.10395326773E+02  0.49657437843E+02 -0.49480436805E+02  0.71023429784E+02  0.47000000000E+01 0. -1.
         -5    1    4    4    0  503  0.39968286926E+02 -0.57757621052E+02 -0.11245252544E+02  0.71287814205E+02  0.47000000000E+01 0. -1.
<mgrwt>
<rscale>  0 0.12870380E+03</rscale>
<asrwt>0</asrwt>
<pdfrwt beam="2">  1        5 0.30414457E-01 0.12870463E+03</pdfrwt>
<pdfrwt beam="1">  1       -5 0.12899934E-01 0.12870463E+03</pdfrwt>
<totfact> 0.38011830E+02</totfact>
</mgrwt>
</event>
<event>
 8    1  0.3588496E-007  0.1466656E+03  0.7546771E-02  0.1204634E+00
         -5   -1    0    0    0  501 -0.00000000000E+00  0.00000000000E+00  0.71522468573E+02  0.71676729214E+02  0.47000000000E+01 0. -1.
          5   -1    0    0  501    0  0.00000000000E+00 -0.00000000000E+00 -0.30223082472E+03  0.30226736743E+03  0.47000000000E+01 0. -1.
         25    2    1    2    0    0 -0.74699602977E+02  0.17535589107E+02 -0.10018634714E+03  0.17761784491E+03  0.12499306823E+03 0.  0.
         25    2    1    2    0    0  0.74699602977E+02 -0.17535589107E+02 -0.13052200901E+03  0.19632625173E+03  0.12498189754E+03 0.  0.
          5    1    3    3  502    0 -0.73175088476E+02  0.49852746352E+02 -0.11200591886E+03  0.14285414153E+03  0.47000000000E+01 0. -1.
         -5    1    3    3    0  502 -0.15245145015E+01 -0.32317157245E+02  0.11819571723E+02  0.34763703378E+02  0.47000000000E+01 0. -1.
          5    1    4    4  503    0  0.99817946557E+02 -0.44413075657E+02 -0.92741064703E+02  0.14338458364E+03  0.47000000000E+01 0. -1.
         -5    1    4    4    0  503 -0.25118343580E+02  0.26877486550E+02 -0.37780944309E+02  0.52941668092E+02  0.47000000000E+01 0. -1.
<mgrwt>
<rscale>  0 0.14666321E+03</rscale>
<asrwt>0</asrwt>
<pdfrwt beam="2">  1        5 0.46511726E-01 0.14666559E+03</pdfrwt>
<pdfrwt beam="1">  1       -5 0.11018134E-01 0.14666559E+03</pdfrwt>
<totfact> 0.22223877E+02</totfact>
</mgrwt>
</event>
<event>
 8    1  0.3588496E-007  0.1523284E+03  0.7546771E-02  0.1197641E+00
          5   -1    0    0  501    0  0.00000000000E+00  0.00000000000E+00  0.18335278515E+03  0.18341301432E+03  0.47000000000E+01 0. -1.
         -5   -1    0    0    0  501 -0.00000000000E+00 -0.00000000000E+00 -0.12931792563E+03  0.12940330710E+03  0.47000000000E+01 0. -1.
         25    2    1    2    0    0 -0.95561643196E+01  0.86530127499E+02  0.36503525328E+01  0.15237154334E+03  0.12499991562E+03 0.  0.
         25    2    1    2    0    0  0.95561643196E+01 -0.86530127499E+02  0.50384506987E+02  0.16044477807E+03  0.12500058010E+03 0.  0.
          5    1    3    3  502    0 -0.26929924991E+02  0.65987698902E+02 -0.53359814713E+02  0.89156923975E+02  0.47000000000E+01 0.  1.
         -5    1    3    3    0  502  0.17373760671E+02  0.20542428598E+02  0.57010167246E+02  0.63214619369E+02  0.47000000000E+01 0.  1.
          5    1    4    4  503    0  0.65307970702E+01 -0.10584642928E+03 -0.47251829198E-01  0.10615182587E+03  0.47000000000E+01 0.  1.
         -5    1    4    4    0  503  0.30253672494E+01  0.19316301784E+02  0.50431758816E+02  0.54292952203E+02  0.47000000000E+01 0.  1.
<mgrwt>
<rscale>  0 0.15232822E+03</rscale>
<asrwt>0</asrwt>
<pdfrwt beam="1">  1        5 0.28219321E-01 0.15232836E+03</pdfrwt>
<pdfrwt beam="2">  1       -5 0.19906266E-01 0.15232836E+03</pdfrwt>
<totfact> 0.21141498E+02</totfact>
</mgrwt>
</event>
<event>
 8    1  0.3588496E-007  0.1870282E+03  0.7546771E-02  0.1161170E+00
          5   -1    0    0  501    0  0.00000000000E+00  0.00000000000E+00  0.72929571167E+03  0.72931085627E+03  0.47000000000E+01 0. -1.
         -5   -1    0    0    0  501 -0.00000000000E+00 -0.00000000000E+00 -0.51820062907E+02  0.52032767750E+02  0.47000000000E+01 0. -1.
         25    2    1    2    0    0  0.18500618609E+02  0.13787982387E+03  0.23060769875E+03  0.29691660046E+03  0.12500575263E+03 0.  0.
         25    2    1    2    0    0 -0.18500618609E+02 -0.13787982387E+03  0.44686795002E+03  0.48442702355E+03  0.12500183069E+03 0.  0.
          5    1    3    3  502    0  0.29594914500E+02  0.14900188248E+03  0.14605285687E+03  0.21078649612E+03  0.47000000000E+01 0. -1.
         -5    1    3    3    0  502 -0.11094295891E+02 -0.11122058612E+02  0.84554841879E+02  0.86130104344E+02  0.47000000000E+01 0. -1.
          5    1    4    4  503    0  0.22168602994E+02 -0.33528552630E+02  0.28305232201E+03  0.28593061710E+03  0.47000000000E+01 0.  1.
         -5    1    4    4    0  503 -0.40669221603E+02 -0.10435127124E+03  0.16381562801E+03  0.19849640646E+03  0.47000000000E+01 0.  1.
<mgrwt>
<rscale>  0 0.18702757E+03</rscale>
<asrwt>0</asrwt>
<pdfrwt beam="1">  1        5 0.11221686E+00 0.18702822E+03</pdfrwt>
<pdfrwt beam="2">  1       -5 0.79898447E-02 0.18702822E+03</pdfrwt>
<totfact> 0.55875687E+01</totfact>
</mgrwt>
</event>
<event>
 8    1  0.3588496E-007  0.1285453E+03  0.7546771E-02  0.1229636E+00
          5   -1    0    0  501    0  0.00000000000E+00  0.00000000000E+00  0.95415996904E+03  0.95417154460E+03  0.47000000000E+01 0. -1.
         -5   -1    0    0    0  501 -0.00000000000E+00 -0.00000000000E+00 -0.63104283344E+02  0.63279069023E+02  0.47000000000E+01 0. -1.
         25    2    1    2    0    0  0.27413172252E+02  0.12164694255E+02  0.12062702970E+02  0.12911007693E+03  0.12499776543E+03 0.  0.
         25    2    1    2    0    0 -0.27413172252E+02 -0.12164694255E+02  0.87899298273E+03  0.88834053669E+03  0.12498313345E+03 0.  0.
          5    1    3    3  502    0 -0.39155500231E+02  0.60361435801E+01  0.40008999194E+02  0.56501311880E+02  0.47000000000E+01 0.  1.
         -5    1    3    3    0  502  0.66568672483E+02  0.61285506745E+01 -0.27946296224E+02  0.72608765050E+02  0.47000000000E+01 0.  1.
          5    1    4    4  503    0 -0.29965062514E+02 -0.60267129155E+02  0.30816351783E+03  0.31546295432E+03  0.47000000000E+01 0.  1.
         -5    1    4    4    0  503  0.25518902626E+01  0.48102434900E+02  0.57082946490E+03  0.57287758237E+03  0.47000000000E+01 0.  1.
<mgrwt>
<rscale>  0 0.12854178E+03</rscale>
<asrwt>0</asrwt>
<pdfrwt beam="1">  1        5 0.14680817E+00 0.12854534E+03</pdfrwt>
<pdfrwt beam="2">  1       -5 0.97226874E-02 0.12854534E+03</pdfrwt>
<totfact> 0.17787803E+01</totfact>
</mgrwt>
</event>
<event>
 8    1  0.3588496E-007  0.1400129E+03  0.7546771E-02  0.1213318E+00
         -5   -1    0    0    0  501 -0.00000000000E+00  0.00000000000E+00  0.16245796535E+02  0.16912004762E+02  0.47000000000E+01 0. -1.
          5   -1    0    0  501    0  0.00000000000E+00 -0.00000000000E+00 -0.12120182318E+04  0.12120273447E+04  0.47000000000E+01 0. -1.
         25    2    1    2    0    0 -0.62988354902E+02 -0.34499638451E+01 -0.69514406386E+03  0.70910055320E+03  0.12497555735E+03 0.  0.
         25    2    1    2    0    0  0.62988354902E+02  0.34499638451E+01 -0.50062837144E+03  0.51983879625E+03  0.12499669074E+03 0.  0.
          5    1    4    4  502    0  0.44933457448E+02 -0.40734994859E+02 -0.10527259783E+03  0.12158439562E+03  0.47000000000E+01 0.  1.
         -5    1    4    4    0  502  0.18054897454E+02  0.44184958704E+02 -0.39535577361E+03  0.39825440063E+03  0.47000000000E+01 0.  1.
          5    1    3    3  503    0 -0.48302094538E+02 -0.15056778674E+02 -0.68576014613E+03  0.68764007078E+03  0.47000000000E+01 0.  1.
         -5    1    3    3    0  503 -0.14686260364E+02  0.11606814829E+02 -0.93839177231E+01  0.21460482422E+02  0.47000000000E+01 0.  1.
<mgrwt>
<rscale>  0 0.14000817E+03</rscale>
<asrwt>0</asrwt>
<pdfrwt beam="2">  1        5 0.18651622E+00 0.14001288E+03</pdfrwt>
<pdfrwt beam="1">  1       -5 0.25513020E-02 0.14001288E+03</pdfrwt>
<totfact> 0.85591158E+01</totfact>
</mgrwt>
</event>
<event>
 8    1  0.3588496E-007  0.1266751E+03  0.7546771E-02  0.1232486E+00
          5   -1    0    0  501    0  0.00000000000E+00  0.00000000000E+00  0.97180626305E+02  0.97294214263E+02  0.47000000000E+01 0. -1.
         -5   -1    0    0    0  501 -0.00000000000E+00 -0.00000000000E+00 -0.19519616952E+03  0.19525274542E+03  0.47000000000E+01 0. -1.
         25    2    1    2    0    0 -0.20211724733E+02 -0.24181740962E+01 -0.10666120414E+03  0.16557721441E+03  0.12499936032E+03 0.  0.
         25    2    1    2    0    0  0.20211724733E+02  0.24181740962E+01  0.86456609261E+01  0.12696974528E+03  0.12502882620E+03 0.  0.
          5    1    3    3  502    0 -0.39618364077E+02  0.44203771792E+02 -0.15941290836E+02  0.61642541854E+02  0.47000000000E+01 0. -1.
         -5    1    3    3    0  502  0.19406639343E+02 -0.46621945888E+02 -0.90719913301E+02  0.10393467255E+03  0.47000000000E+01 0. -1.
          5    1    4    4  503    0  0.56261401144E+02 -0.21089540434E+00 -0.37789382674E+02  0.67937597680E+02  0.47000000000E+01 0.  1.
         -5    1    4    4    0  503 -0.36049676411E+02  0.26290695005E+01  0.46435043600E+02  0.59032147597E+02  0.47000000000E+01 0.  1.
<mgrwt>
<rscale>  0 0.12666778E+03</rscale>
<asrwt>0</asrwt>
<pdfrwt beam="1">  1        5 0.14963955E-01 0.12667505E+03</pdfrwt>
<pdfrwt beam="2">  1       -5 0.30043269E-01 0.12667505E+03</pdfrwt>
<totfact> 0.29659568E+02</totfact>
</mgrwt>
</event>
<event>
 8    1  0.3588496E-007  0.1669515E+03  0.7546771E-02  0.1181068E+00
         -5   -1    0    0    0  501 -0.00000000000E+00  0.00000000000E+00  0.78214779292E+02  0.78355865764E+02  0.47000000000E+01 0.  1.
          5   -1    0    0  501    0  0.00000000000E+00 -0.00000000000E+00 -0.79117801262E+03  0.79119197270E+03  0.47000000000E+01 0.  1.
         25    2    1    2    0    0 -0.61520077934E+00  0.11065458614E+03 -0.34020041608E+02  0.17038241375E+03  0.12501195054E+03 0.  0.
         25    2    1    2    0    0  0.61520077934E+00 -0.11065458614E+03 -0.67894319172E+03  0.69916542471E+03  0.12499447038E+03 0.  0.
          5    1    3    3  502    0 -0.46947415857E+02  0.38578582080E+02  0.25377466932E+02  0.66018729758E+02  0.47000000000E+01 0.  1.
         -5    1    3    3    0  502  0.46332215078E+02  0.72076004055E+02 -0.59397508540E+02  0.10436368399E+03  0.47000000000E+01 0.  1.
          5    1    4    4  503    0 -0.39569024359E+02 -0.51825336620E+02 -0.52974392703E+03  0.53376239230E+03  0.47000000000E+01 0.  1.
         -5    1    4    4    0  503  0.40184225138E+02 -0.58829249515E+02 -0.14919926469E+03  0.16540303242E+03  0.47000000000E+01 0.  1.
<mgrwt>
<rscale>  0 0.16694823E+03</rscale>
<asrwt>0</asrwt>
<pdfrwt beam="2">  1        5 0.12173162E+00 0.16695150E+03</pdfrwt>
<pdfrwt beam="1">  1       -5 0.12044970E-01 0.16695150E+03</pdfrwt>
<totfact> 0.21493121E+01</totfact>
</mgrwt>
</event>
<event>
 8    1  0.3588496E-007  0.1317143E+03  0.7546771E-02  0.1224938E+00
          5   -1    0    0  501    0  0.00000000000E+00  0.00000000000E+00  0.52390696538E+03  0.52392804694E+03  0.47000000000E+01 0.  1.
         -5   -1    0    0    0  501 -0.00000000000E+00 -0.00000000000E+00 -0.33414174066E+02  0.33743103421E+02  0.47000000000E+01 0.  1.
         25    2    1    2    0    0  0.20821308571E+02 -0.35868379111E+02  0.21162036594E+03  0.24926257987E+03  0.12501434689E+03 0.  0.
         25    2    1    2    0    0 -0.20821308571E+02  0.35868379111E+02  0.27887242537E+03  0.30840857049E+03  0.12500379680E+03 0.  0.
          5    1    3    3  502    0  0.50802645403E+02 -0.67423914976E+02  0.16440591582E+03  0.18487370892E+03  0.47000000000E+01 0. -1.
         -5    1    3    3    0  502 -0.29981336831E+02  0.31555535866E+02  0.47214450122E+02  0.64388870950E+02  0.47000000000E+01 0. -1.
          5    1    4    4  503    0  0.33093839736E+02 -0.34309272147E+01  0.20900276953E+03  0.21168661072E+03  0.47000000000E+01 0. -1.
         -5    1    4    4    0  503 -0.53915148307E+02  0.39299306326E+02  0.69869655838E+02  0.96721959770E+02  0.47000000000E+01 0. -1.
<mgrwt>
<rscale>  0 0.13171179E+03</rscale>
<asrwt>0</asrwt>
<pdfrwt beam="1">  1        5 0.80627994E-01 0.13171429E+03</pdfrwt>
<pdfrwt beam="2">  1       -5 0.51675662E-02 0.13171429E+03</pdfrwt>
<totfact> 0.23308839E+02</totfact>
</mgrwt>
</event>
<event>
 8    1  0.3588496E-007  0.1476242E+03  0.7546771E-02  0.1203429E+00
         -5   -1    0    0    0  501 -0.00000000000E+00  0.00000000000E+00  0.39266560977E+02  0.39546843249E+02  0.47000000000E+01 0. -1.
          5   -1    0    0  501    0  0.00000000000E+00 -0.00000000000E+00 -0.55505090311E+03  0.55507080183E+03  0.47000000000E+01 0. -1.
         25    2    1    2    0    0  0.73506289464E+02  0.27611917458E+02 -0.27737492755E+03  0.31421292906E+03  0.12500928676E+03 0.  0.
         25    2    1    2    0    0 -0.73506289464E+02 -0.27611917458E+02 -0.23840941458E+03  0.28040471602E+03  0.12498865240E+03 0.  0.
          5    1    4    4  502    0 -0.91611924357E+02 -0.40855923072E+02 -0.23705248903E+03  0.25744499158E+03  0.47000000000E+01 0.  1.
         -5    1    4    4    0  502  0.18105634892E+02  0.13244005614E+02 -0.13569255547E+01  0.22959724444E+02  0.47000000000E+01 0.  1.
          5    1    3    3  503    0  0.27401789752E+02 -0.45199422618E+02 -0.58746913991E+02  0.79165243574E+02  0.47000000000E+01 0.  1.
         -5    1    3    3    0  503  0.46104499712E+02  0.72811340076E+02 -0.21862801356E+03  0.23504768548E+03  0.47000000000E+01 0.  1.
<mgrwt>
<rscale>  0 0.14761987E+03</rscale>
<asrwt>0</asrwt>
<pdfrwt beam="2">  1        5 0.85415532E-01 0.14762423E+03</pdfrwt>
<pdfrwt beam="1">  1       -5 0.60641006E-02 0.14762423E+03</pdfrwt>
<totfact> 0.16190118E+02</totfact>
</mgrwt>
</event>
<event>
 8    1  0.3588496E-007  0.2150213E+03  0.7546771E-02  0.1137654E+00
          5   -1    0    0  501    0  0.00000000000E+00  0.00000000000E+00  0.76294384718E+02  0.76439015820E+02  0.47000000000E+01 0.  1.
         -5   -1    0    0    0  501 -0.00000000000E+00 -0.00000000000E+00 -0.61618538430E+03  0.61620330884E+03  0.47000000000E+01 0.  1.
         25    2    1    2    0    0 -0.15804574257E+02  0.17423866805E+03 -0.22375576637E+03  0.31032370471E+03  0.12500104282E+03 0.  0.
         25    2    1    2    0    0  0.15804574257E+02 -0.17423866805E+03 -0.31613523321E+03  0.38231861995E+03  0.12496856995E+03 0.  0.
          5    1    3    3  502    0 -0.45602827513E+02  0.88450453342E+01 -0.54404419255E+02  0.71692283676E+02  0.47000000000E+01 0.  1.
         -5    1    3    3    0  502  0.29798253255E+02  0.16539362272E+03 -0.16935134712E+03  0.23863142103E+03  0.47000000000E+01 0.  1.
          5    1    4    4  503    0  0.43430712793E+00 -0.18023739933E+03 -0.21895398414E+03  0.28363470506E+03  0.47000000000E+01 0.  1.
         -5    1    4    4    0  503  0.15370267130E+02  0.59987312829E+01 -0.97181249072E+02  0.98683914899E+02  0.47000000000E+01 0.  1.
<mgrwt>
<rscale>  0 0.21501658E+03</rscale>
<asrwt>0</asrwt>
<pdfrwt beam="1">  1        5 0.11750102E-01 0.21502130E+03</pdfrwt>
<pdfrwt beam="2">  1       -5 0.94810253E-01 0.21502130E+03</pdfrwt>
<totfact> 0.44704902E+01</totfact>
</mgrwt>
</event>
<event>
 8    1  0.3588496E-007  0.1450794E+03  0.7546771E-02  0.1206657E+00
         -5   -1    0    0    0  501 -0.00000000000E+00  0.00000000000E+00  0.29641157344E+03  0.29644883348E+03  0.47000000000E+01 0. -1.
          5   -1    0    0  501    0  0.00000000000E+00 -0.00000000000E+00 -0.14236412354E+03  0.14244168516E+03  0.47000000000E+01 0. -1.
         25    2    1    2    0    0 -0.41590728633E+02 -0.60761658538E+02  0.23243681258E+03  0.27399798265E+03  0.12500501908E+03 0.  0.
         25    2    1    2    0    0  0.41590728633E+02  0.60761658538E+02 -0.78389362681E+02  0.16489253599E+03  0.12499155326E+03 0.  0.
          5    1    3    3  502    0  0.21215459669E+02 -0.24560200151E+02  0.18350111396E+03  0.18640828304E+03  0.47000000000E+01 0.  1.
         -5    1    3    3    0  502 -0.62806188302E+02 -0.36201458387E+02  0.48935698621E+02  0.87589699611E+02  0.47000000000E+01 0.  1.
          5    1    4    4  503    0  0.40735775619E+02  0.86317591392E+02 -0.94426958891E+02  0.13434534069E+03  0.47000000000E+01 0. -1.
         -5    1    4    4    0  503  0.85495301376E+00 -0.25555932854E+02  0.16037596210E+02  0.30547195303E+02  0.47000000000E+01 0. -1.
<mgrwt>
<rscale>  0 0.14507647E+03</rscale>
<asrwt>0</asrwt>
<pdfrwt beam="2">  1        5 0.21911005E-01 0.14507937E+03</pdfrwt>
<pdfrwt beam="1">  1       -5 0.45610613E-01 0.14507937E+03</pdfrwt>
<totfact> 0.66003520E+01</totfact>
</mgrwt>
</event>
<event>
 8    1  0.3588496E-007  0.1371774E+03  0.7546771E-02  0.1217180E+00
         -5   -1    0    0    0  501 -0.00000000000E+00  0.00000000000E+00  0.30036013652E+03  0.30039690679E+03  0.47000000000E+01 0.  1.
          5   -1    0    0  501    0  0.00000000000E+00 -0.00000000000E+00 -0.64499893025E+02  0.64670906907E+02  0.47000000000E+01 0.  1.
         25    2    1    2    0    0 -0.38713184025E+02  0.41153207194E+02  0.14986638394E+03  0.20316484281E+03  0.12499489284E+03 0.  0.
         25    2    1    2    0    0  0.38713184025E+02 -0.41153207194E+02  0.85993859552E+02  0.16190297089E+03  0.12500132409E+03 0.  0.
          5    1    4    4  502    0  0.79997124964E+02 -0.13381955683E+02  0.75344744132E+02  0.11080404870E+03  0.47000000000E+01 0. -1.
         -5    1    4    4    0  502 -0.41283940939E+02 -0.27771251510E+02  0.10649115421E+02  0.51098922192E+02  0.47000000000E+01 0. -1.
          5    1    3    3  503    0  0.40671029076E+02 -0.10459800122E+02  0.42484811195E+02  0.59921525406E+02  0.47000000000E+01 0. -1.
         -5    1    3    3    0  503 -0.79384213101E+02  0.51613007316E+02  0.10738157275E+03  0.14324331740E+03  0.47000000000E+01 0. -1.
<mgrwt>
<rscale>  0 0.13717589E+03</rscale>
<asrwt>0</asrwt>
<pdfrwt beam="2">  1        5 0.99390438E-02 0.13717736E+03</pdfrwt>
<pdfrwt beam="1">  1       -5 0.46225235E-01 0.13717736E+03</pdfrwt>
<totfact> 0.26371818E+02</totfact>
</mgrwt>
</event>
<event>
 8    1  0.3588496E-007  0.1330138E+03  0.7546771E-02  0.1223052E+00
          5   -1    0    0  501    0  0.00000000000E+00  0.00000000000E+00  0.14892126644E+04  0.14892200811E+04  0.47000000000E+01 0.  1.
         -5   -1    0    0    0  501 -0.00000000000E+00 -0.00000000000E+00 -0.11409624705E+02  0.12339754289E+02  0.47000000000E+01 0.  1.
         25    2    1    2    0    0  0.39821281733E+02 -0.21948435990E+02  0.72959526771E+03  0.74162065754E+03  0.12499790682E+03 0.  0.
         25    2    1    2    0    0 -0.39821281733E+02  0.21948435990E+02  0.74820777200E+03  0.75993917781E+03  0.12500086228E+03 0.  0.
          5    1    3    3  502    0  0.14068843253E+02  0.44034947622E+02  0.13436847999E+03  0.14217590294E+03  0.47000000000E+01 0. -1.
         -5    1    3    3    0  502  0.25752438480E+02 -0.65983383612E+02  0.59522678772E+03  0.59944475460E+03  0.47000000000E+01 0. -1.
          5    1    4    4  503    0 -0.45501387277E+02  0.51898425058E+02  0.69502430954E+03  0.69845880596E+03  0.47000000000E+01 0. -1.
         -5    1    4    4    0  503  0.56801055438E+01 -0.29949989068E+02  0.53183462460E+02  0.61480371855E+02  0.47000000000E+01 0. -1.
<mgrwt>
<rscale>  0 0.13301315E+03</rscale>
<asrwt>0</asrwt>
<pdfrwt beam="1">  1        5 0.22918164E+00 0.13301385E+03</pdfrwt>
<pdfrwt beam="2">  1       -5 0.18274468E-02 0.13301385E+03</pdfrwt>
<totfact> 0.74482573E+01</totfact>
</mgrwt>
</event>
<event>
 8    1  0.3588496E-007  0.1290095E+03  0.7546771E-02  0.1228944E+00
         -5   -1    0    0    0  501 -0.00000000000E+00  0.00000000000E+00  0.12514547894E+04  0.12514636151E+04  0.47000000000E+01 0. -1.
          5   -1    0    0  501    0  0.00000000000E+00 -0.00000000000E+00 -0.20042549526E+02  0.20586252488E+02  0.47000000000E+01 0. -1.
         25    2    1    2    0    0  0.27809178247E+02  0.15411350048E+02  0.98965282681E+03  0.99802236999E+03  0.12500029311E+03 0.  0.
         25    2    1    2    0    0 -0.27809178247E+02 -0.15411350048E+02  0.24175941304E+03  0.27402749757E+03  0.12503037842E+03 0.  0.
          5    1    4    4  502    0  0.34648857774E+02  0.11882269188E+02  0.17372918143E+03  0.17761095165E+03  0.47000000000E+01 0. -1.
         -5    1    4    4    0  502 -0.62458036021E+02 -0.27293619236E+02  0.68030231611E+02  0.96416545922E+02  0.47000000000E+01 0. -1.
          5    1    3    3  503    0 -0.41221105412E+02  0.19500748366E+02  0.63547406642E+03  0.63712544904E+03  0.47000000000E+01 0.  1.
         -5    1    3    3    0  503  0.69030283659E+02 -0.40893983180E+01  0.35417876039E+03  0.36089692095E+03  0.47000000000E+01 0.  1.
<mgrwt>
<rscale>  0 0.12900223E+03</rscale>
<asrwt>0</asrwt>
<pdfrwt beam="2">  1        5 0.31259710E-02 0.12900952E+03</pdfrwt>
<pdfrwt beam="1">  1       -5 0.19257403E+00 0.12900952E+03</pdfrwt>
<totfact> 0.54701112E+01</totfact>
</mgrwt>
</event>
<event>
 8    1  0.3588496E-007  0.1873580E+03  0.7546771E-02  0.1160866E+00
         -5   -1    0    0    0  501 -0.00000000000E+00  0.00000000000E+00  0.19036779666E+04  0.19036837686E+04  0.47000000000E+01 0. -1.
          5   -1    0    0  501    0  0.00000000000E+00 -0.00000000000E+00 -0.23476377066E+02  0.23942227970E+02  0.47000000000E+01 0. -1.
         25    2    1    2    0    0  0.61386711505E+02 -0.12533852127E+03  0.13946880756E+04  0.14072161583E+04  0.12499765879E+03 0.  0.
         25    2    1    2    0    0 -0.61386711505E+02  0.12533852127E+03  0.48551351398E+03  0.52040983823E+03  0.12499981683E+03 0.  0.
          5    1    4    4  502    0 -0.36336521480E+02  0.68897745669E+00  0.29690534545E+02  0.47163919735E+02  0.47000000000E+01 0. -1.
         -5    1    4    4    0  502 -0.25050190025E+02  0.12464954381E+03  0.45582297944E+03  0.47324591850E+03  0.47000000000E+01 0. -1.
          5    1    3    3  503    0  0.73230492197E+02 -0.27314306144E+02  0.39733300365E+03  0.40497454500E+03  0.47000000000E+01 0.  1.
         -5    1    3    3    0  503 -0.11843780692E+02 -0.98024215124E+02  0.99735507195E+03  0.10022416133E+04  0.47000000000E+01 0.  1.
<mgrwt>
<rscale>  0 0.18735766E+03</rscale>
<asrwt>0</asrwt>
<pdfrwt beam="2">  1        5 0.36480305E-02 0.18735802E+03</pdfrwt>
<pdfrwt beam="1">  1       -5 0.29290988E+00 0.18735802E+03</pdfrwt>
<totfact> 0.10468190E+01</totfact>
</mgrwt>
</event>
<event>
 8    1  0.3588496E-007  0.1382657E+03  0.7546771E-02  0.1215706E+00
         -5   -1    0    0    0  501 -0.00000000000E+00  0.00000000000E+00  0.15524289299E+03  0.15531402326E+03  0.47000000000E+01 0.  1.
          5   -1    0    0  501    0  0.00000000000E+00 -0.00000000000E+00 -0.46940452523E+03  0.46942805445E+03  0.47000000000E+01 0.  1.
         25    2    1    2    0    0 -0.34698626208E+02 -0.47629870357E+02  0.11125933721E+03  0.17741624779E+03  0.12500114261E+03 0.  0.
         25    2    1    2    0    0  0.34698626208E+02  0.47629870357E+02 -0.42542096946E+03  0.44732582993E+03  0.12507916556E+03 0.  0.
          5    1    3    3  502    0 -0.21832017813E+01  0.17688836433E+02  0.10207533839E+03  0.10372620697E+03  0.47000000000E+01 0.  1.
         -5    1    3    3    0  502 -0.32515424427E+02 -0.65318706790E+02  0.91839988201E+01  0.73690040824E+02  0.47000000000E+01 0.  1.
          5    1    4    4  503    0  0.97975006254E+01  0.40876555980E+02 -0.41791177296E+03  0.42004669244E+03  0.47000000000E+01 0. -1.
         -5    1    4    4    0  503  0.24901125583E+02  0.67533143765E+01 -0.75091964946E+01  0.27279137493E+02  0.47000000000E+01 0. -1.
<mgrwt>
<rscale>  0 0.13824803E+03</rscale>
<asrwt>0</asrwt>
<pdfrwt beam="2">  1        5 0.72223362E-01 0.13826567E+03</pdfrwt>
<pdfrwt beam="1">  1       -5 0.23890804E-01 0.13826567E+03</pdfrwt>
<totfact> 0.20325733E+01</totfact>
</mgrwt>
</event>
<event>
 8    1  0.3588496E-007  0.1465797E+03  0.7546771E-02  0.1204740E+00
          5   -1    0    0  501    0  0.00000000000E+00  0.00000000000E+00  0.16896546304E+04  0.16896611672E+04  0.47000000000E+01 0. -1.
         -5   -1    0    0    0  501 -0.00000000000E+00 -0.00000000000E+00 -0.14091004820E+02  0.14854171698E+02  0.47000000000E+01 0. -1.
         25    2    1    2    0    0  0.32251906361E+02  0.69423357485E+02  0.54037750433E+03  0.55990486910E+03  0.12500330887E+03 0.  0.
         25    2    1    2    0    0 -0.32251906361E+02 -0.69423357485E+02  0.11351861212E+04  0.11446104698E+04  0.12500323883E+03 0.  0.
          5    1    3    3  502    0  0.61096488131E+02  0.82122340712E+02  0.48763554574E+03  0.49828443200E+03  0.47000000000E+01 0. -1.
         -5    1    3    3    0  502 -0.28844581770E+02 -0.12698983227E+02  0.52741958591E+02  0.61620437101E+02  0.47000000000E+01 0. -1.
          5    1    4    4  503    0 -0.32850435814E+02  0.30387292499E+02  0.27766450787E+03  0.28128670002E+03  0.47000000000E+01 0.  1.
         -5    1    4    4    0  503  0.59852945360E+00 -0.99810649984E+02  0.85752161336E+03  0.86332376978E+03  0.47000000000E+01 0.  1.
<mgrwt>
<rscale>  0 0.14657971E+03</rscale>
<asrwt>0</asrwt>
<pdfrwt beam="1">  1        5 0.26000592E+00 0.14657972E+03</pdfrwt>
<pdfrwt beam="2">  1       -5 0.22270562E-02 0.14657972E+03</pdfrwt>
<totfact> 0.35568320E+01</totfact>
</mgrwt>
</event>
<event>
 8    1  0.3588496E-007  0.1433325E+03  0.7546771E-02  0.1208915E+00
         -5   -1    0    0    0  501 -0.00000000000E+00  0.00000000000E+00  0.24775087272E+02  0.25216957575E+02  0.47000000000E+01 0. -1.
          5   -1    0    0  501    0  0.00000000000E+00 -0.00000000000E+00 -0.83424914347E+03  0.83426238281E+03  0.47000000000E+01 0. -1.
         25    2    1    2    0    0  0.21170674749E+02 -0.66883668709E+02 -0.35148225185E+03  0.37958396033E+03  0.12499034749E+03 0.  0.
         25    2    1    2    0    0 -0.21170674749E+02  0.66883668709E+02 -0.45799180434E+03  0.47989538006E+03  0.12498584057E+03 0.  0.
          5    1    3    3  502    0  0.64849703156E+02 -0.32814300228E+02 -0.11100829456E+03  0.13276744240E+03  0.47000000000E+01 0.  1.
         -5    1    3    3    0  502 -0.43679028407E+02 -0.34069368480E+02 -0.24047395729E+03  0.24681651794E+03  0.47000000000E+01 0.  1.
          5    1    4    4  503    0 -0.46415016926E+02  0.11512437659E+02 -0.36820600086E+03  0.37132820939E+03  0.47000000000E+01 0. -1.
         -5    1    4    4    0  503  0.25244342177E+02  0.55371231049E+02 -0.89785803482E+02  0.10856717067E+03  0.47000000000E+01 0. -1.
<mgrwt>
<rscale>  0 0.14333153E+03</rscale>
<asrwt>0</asrwt>
<pdfrwt beam="2">  1        5 0.12838101E+00 0.14333251E+03</pdfrwt>
<pdfrwt beam="1">  1       -5 0.38465610E-02 0.14333251E+03</pdfrwt>
<totfact> 0.12499285E+02</totfact>
</mgrwt>
</event>
<event>
 8    1  0.3588496E-007  0.1599444E+03  0.7546771E-02  0.1188762E+00
          5   -1    0    0  501    0  0.00000000000E+00  0.00000000000E+00  0.24912588528E+03  0.24917021635E+03  0.47000000000E+01 0.  1.
         -5   -1    0    0    0  501 -0.00000000000E+00 -0.00000000000E+00 -0.10671737113E+03  0.10682081867E+03  0.47000000000E+01 0.  1.
         25    2    1    2    0    0  0.45562740547E+02  0.88766739695E+02  0.36158569580E+02  0.16398060115E+03  0.12500679180E+03 0.  0.
         25    2    1    2    0    0 -0.45562740547E+02 -0.88766739695E+02  0.10624994457E+03  0.19201043387E+03  0.12499383421E+03 0.  0.
          5    1    3    3  502    0 -0.97206926694E+01  0.91968655050E+02 -0.80739483106E+01  0.92951621927E+02  0.47000000000E+01 0.  1.
         -5    1    3    3    0  502  0.55283433217E+02 -0.32019153549E+01  0.44232517891E+02  0.71028979221E+02  0.47000000000E+01 0.  1.
          5    1    4    4  503    0 -0.42865330751E+02 -0.62191159156E+02  0.13356626172E+03  0.15351616568E+03  0.47000000000E+01 0.  1.
         -5    1    4    4    0  503 -0.26974097966E+01 -0.26575580539E+02 -0.27316317145E+02  0.38494268183E+02  0.47000000000E+01 0.  1.
<mgrwt>
<rscale>  0 0.15994182E+03</rscale>
<asrwt>0</asrwt>
<pdfrwt beam="1">  1        5 0.38338426E-01 0.15994435E+03</pdfrwt>
<pdfrwt beam="2">  1       -5 0.16429425E-01 0.15994435E+03</pdfrwt>
<totfact> 0.16637449E+02</totfact>
</mgrwt>
</event>
<event>
 8    1  0.3588496E-007  0.1478220E+03  0.7546771E-02  0.1203176E+00
          5   -1    0    0  501    0  0.00000000000E+00  0.00000000000E+00  0.12413141157E+03  0.12422035798E+03  0.47000000000E+01 0. -1.
         -5   -1    0    0    0  501 -0.00000000000E+00 -0.00000000000E+00 -0.18109555678E+03  0.18115653641E+03  0.47000000000E+01 0. -1.
         25    2    1    2    0    0  0.36411108136E+02 -0.69999310650E+02 -0.54468402978E+02  0.15753774157E+03  0.12500264321E+03 0.  0.
         25    2    1    2    0    0 -0.36411108136E+02  0.69999310650E+02 -0.24957422307E+01  0.14783915283E+03  0.12499805635E+03 0.  0.
          5    1    4    4  502    0 -0.17429879651E+02  0.10431391364E+03 -0.13794932741E+02  0.10675946540E+03  0.47000000000E+01 0.  1.
         -5    1    4    4    0  502 -0.18981228485E+02 -0.34314602987E+02  0.11299190511E+02  0.41079687428E+02  0.47000000000E+01 0.  1.
          5    1    3    3  503    0  0.63708038422E+02  0.86120709450E+01 -0.22661855933E+02  0.68326653949E+02  0.47000000000E+01 0.  1.
         -5    1    3    3    0  503 -0.27296930286E+02 -0.78611381595E+02 -0.31806547045E+02  0.89211087619E+02  0.47000000000E+01 0.  1.
<mgrwt>
<rscale>  0 0.14782099E+03</rscale>
<asrwt>0</asrwt>
<pdfrwt beam="1">  1        5 0.19108673E-01 0.14782196E+03</pdfrwt>
<pdfrwt beam="2">  1       -5 0.27872387E-01 0.14782196E+03</pdfrwt>
<totfact> 0.23141063E+02</totfact>
</mgrwt>
</event>
<event>
 8    1  0.3588496E-007  0.1783813E+03  0.7546771E-02  0.1169380E+00
          5   -1    0    0  501    0  0.00000000000E+00  0.00000000000E+00  0.28472696971E+02  0.28858005350E+02  0.47000000000E+01 0. -1.
         -5   -1    0    0    0  501 -0.00000000000E+00 -0.00000000000E+00 -0.15518113218E+04  0.15518184393E+04  0.47000000000E+01 0. -1.
         25    2    1    2    0    0 -0.20126578995E+02 -0.12565850183E+03 -0.11834965507E+04  0.11968633306E+04  0.12499043265E+03 0.  0.
         25    2    1    2    0    0  0.20126578995E+02  0.12565850183E+03 -0.33984207409E+03  0.38381311402E+03  0.12499893164E+03 0.  0.
          5    1    3    3  502    0  0.15631352015E+02 -0.93279153232E+02 -0.37005920716E+03  0.38198330644E+03  0.47000000000E+01 0. -1.
         -5    1    3    3    0  502 -0.35757931010E+02 -0.32379348595E+02 -0.81343734357E+03  0.81488002415E+03  0.47000000000E+01 0. -1.
          5    1    4    4  503    0  0.17068283006E+02  0.14479515868E+03 -0.33154049760E+03  0.36221285981E+03  0.47000000000E+01 0.  1.
         -5    1    4    4    0  503  0.30582959884E+01 -0.19136656854E+02 -0.83015764884E+01  0.21600254214E+02  0.47000000000E+01 0.  1.
<mgrwt>
<rscale>  0 0.17837976E+03</rscale>
<asrwt>0</asrwt>
<pdfrwt beam="1">  1        5 0.44106027E-02 0.17838125E+03</pdfrwt>
<pdfrwt beam="2">  1       -5 0.23877032E+00 0.17838125E+03</pdfrwt>
<totfact> 0.16779304E+01</totfact>
</mgrwt>
</event>
<event>
 8    1  0.3588496E-007  0.1667180E+03  0.7546771E-02  0.1181314E+00
          5   -1    0    0  501    0  0.00000000000E+00  0.00000000000E+00  0.90653285350E+03  0.90654503720E+03  0.47000000000E+01 0. -1.
         -5   -1    0    0    0  501 -0.00000000000E+00 -0.00000000000E+00 -0.30492928543E+02  0.30853017537E+02  0.47000000000E+01 0. -1.
         25    2    1    2    0    0 -0.10113862353E+03  0.44053694641E+02  0.42470034741E+03  0.45625132813E+03  0.12500056060E+03 0.  0.
         25    2    1    2    0    0  0.10113862353E+03 -0.44053694641E+02  0.45133957754E+03  0.48114672660E+03  0.12500003632E+03 0.  0.
          5    1    3    3  502    0 -0.41172277393E+02 -0.31516417829E+02  0.26132712324E+03  0.26646274854E+03  0.47000000000E+01 0.  1.
         -5    1    3    3    0  502 -0.59966346142E+02  0.75570112469E+02  0.16337322417E+03  0.18978857959E+03  0.47000000000E+01 0.  1.
          5    1    4    4  503    0  0.34525411811E+02 -0.46529495945E+02  0.37589297073E+03  0.38036116193E+03  0.47000000000E+01 0. -1.
         -5    1    4    4    0  503  0.66613211723E+02  0.24758013040E+01  0.75446606809E+02  0.10078556468E+03  0.47000000000E+01 0. -1.
<mgrwt>
<rscale>  0 0.16671790E+03</rscale>
<asrwt>0</asrwt>
<pdfrwt beam="1">  1        5 0.13949524E+00 0.16671799E+03</pdfrwt>
<pdfrwt beam="2">  1       -5 0.47198559E-02 0.16671799E+03</pdfrwt>
<totfact> 0.74996678E+01</totfact>
</mgrwt>
</event>
<event>
 8    1  0.3588496E-007  0.2279843E+03  0.7546771E-02  0.1128067E+00
          5   -1    0    0  501    0  0.00000000000E+00  0.00000000000E+00  0.14611651775E+04  0.14611727365E+04  0.47000000000E+01 0. -1.
         -5   -1    0    0    0  501 -0.00000000000E+00 -0.00000000000E+00 -0.39942597464E+02  0.40218168682E+02  0.47000000000E+01 0. -1.
         25    2    1    2    0    0  0.98379170526E+02 -0.16331669005E+03  0.45863600693E+03  0.51217416444E+03  0.12499834169E+03 0.  0.
         25    2    1    2    0    0 -0.98379170526E+02  0.16331669005E+03  0.96258657307E+03  0.98921674073E+03  0.12500418806E+03 0.  0.
          5    1    3    3  502    0  0.71663231789E+02 -0.13158579362E+03  0.19869303674E+03  0.24890048759E+03  0.47000000000E+01 0. -1.
         -5    1    3    3    0  502  0.26715938737E+02 -0.31730896426E+02  0.25994297020E+03  0.26327367686E+03  0.47000000000E+01 0. -1.
          5    1    4    4  503    0 -0.81432077871E+02  0.18328858480E+03  0.82145586070E+03  0.84559902419E+03  0.47000000000E+01 0. -1.
         -5    1    4    4    0  503 -0.16947092655E+02 -0.19971894758E+02  0.14113071237E+03  0.14361771654E+03  0.47000000000E+01 0. -1.
<mgrwt>
<rscale>  0 0.22798352E+03</rscale>
<asrwt>0</asrwt>
<pdfrwt beam="1">  1        5 0.22481647E+00 0.22798432E+03</pdfrwt>
<pdfrwt beam="2">  1       -5 0.61667929E-02 0.22798432E+03</pdfrwt>
<totfact> 0.12411039E+01</totfact>
</mgrwt>
</event>
<event>
 8    1  0.3588496E-007  0.1707202E+03  0.7546771E-02  0.1177100E+00
         -5   -1    0    0    0  501 -0.00000000000E+00  0.00000000000E+00  0.21533324298E+03  0.21538452946E+03  0.47000000000E+01 0.  1.
          5   -1    0    0  501    0  0.00000000000E+00 -0.00000000000E+00 -0.39473989233E+03  0.39476787179E+03  0.47000000000E+01 0.  1.
         25    2    1    2    0    0  0.11429474468E+03  0.21377839074E+02  0.15761891184E+03  0.23235553959E+03  0.12500029897E+03 0.  0.
         25    2    1    2    0    0 -0.11429474468E+03 -0.21377839074E+02 -0.33702556120E+03  0.37779686166E+03  0.12499575640E+03 0.  0.
          5    1    4    4  502    0 -0.58022965787E+02  0.51075307463E+02 -0.13021904812E+03  0.15150723443E+03  0.47000000000E+01 0.  1.
         -5    1    4    4    0  502 -0.56271778897E+02 -0.72453146537E+02 -0.20680651307E+03  0.22628962723E+03  0.47000000000E+01 0.  1.
          5    1    3    3  503    0  0.82301867615E+02  0.51000113296E+01  0.13413924399E+02  0.83675748555E+02  0.47000000000E+01 0.  1.
         -5    1    3    3    0  503  0.31992877069E+02  0.16277827744E+02  0.14420498744E+03  0.14867979103E+03  0.47000000000E+01 0.  1.
<mgrwt>
<rscale>  0 0.17071934E+03</rscale>
<asrwt>0</asrwt>
<pdfrwt beam="2">  1        5 0.60735312E-01 0.17072017E+03</pdfrwt>
<pdfrwt beam="1">  1       -5 0.33134289E-01 0.17072017E+03</pdfrwt>
<totfact> 0.16774979E+01</totfact>
</mgrwt>
</event>
<event>
 8    1  0.3588496E-007  0.1259844E+03  0.7546771E-02  0.1233539E+00
         -5   -1    0    0    0  501 -0.00000000000E+00  0.00000000000E+00  0.51425926815E+03  0.51428074520E+03  0.47000000000E+01 0. -1.
          5   -1    0    0  501    0  0.00000000000E+00 -0.00000000000E+00 -0.30737189857E+02  0.31094450314E+02  0.47000000000E+01 0. -1.
         25    2    1    2    0    0  0.14503650424E+02  0.59722428096E+01  0.25512189754E+03  0.28453340266E+03  0.12500420419E+03 0.  0.
         25    2    1    2    0    0 -0.14503650424E+02 -0.59722428096E+01  0.22840018075E+03  0.26084179285E+03  0.12500309904E+03 0.  0.
          5    1    3    3  502    0 -0.48957738513E+02 -0.18740197431E+02  0.15208075546E+03  0.16093073461E+03  0.47000000000E+01 0. -1.
         -5    1    3    3    0  502  0.63461388937E+02  0.24712440241E+02  0.10304114208E+03  0.12360266805E+03  0.47000000000E+01 0. -1.
          5    1    4    4  503    0 -0.39138496311E+01  0.42505783303E+00  0.24187605216E+03  0.24195374248E+03  0.47000000000E+01 0.  1.
         -5    1    4    4    0  503 -0.10589800793E+02 -0.63973006427E+01 -0.13475871409E+02  0.18888050364E+02  0.47000000000E+01 0.  1.
<mgrwt>
<rscale>  0 0.12598415E+03</rscale>
<asrwt>0</asrwt>
<pdfrwt beam="2">  1        5 0.47579319E-02 0.12598442E+03</pdfrwt>
<pdfrwt beam="1">  1       -5 0.79145948E-01 0.12598442E+03</pdfrwt>
<totfact> 0.27459806E+02</totfact>
</mgrwt>
</event>
<event>
 8    1  0.3588496E-007  0.1436500E+03  0.7546771E-02  0.1208506E+00
          5   -1    0    0  501    0  0.00000000000E+00  0.00000000000E+00  0.15364768903E+02  0.16067548769E+02  0.47000000000E+01 0. -1.
         -5   -1    0    0    0  501 -0.00000000000E+00 -0.00000000000E+00 -0.13122894991E+04  0.13122979156E+04  0.47000000000E+01 0. -1.
         25    2    1    2    0    0  0.53386630577E+02 -0.46410155039E+02 -0.64088929489E+03  0.65678685684E+03  0.12500340876E+03 0.  0.
         25    2    1    2    0    0 -0.53386630577E+02  0.46410155039E+02 -0.65603543527E+03  0.67157860755E+03  0.12502519336E+03 0.  0.
          5    1    3    3  502    0  0.26946307346E+02 -0.74170924743E+02 -0.21367380379E+03  0.22782891384E+03  0.47000000000E+01 0. -1.
         -5    1    3    3    0  502  0.26440323231E+02  0.27760769703E+02 -0.42721549110E+03  0.42895794300E+03  0.47000000000E+01 0. -1.
          5    1    4    4  503    0 -0.61480112021E+02  0.12138102312E+02 -0.13049214988E+03  0.14483586877E+03  0.47000000000E+01 0. -1.
         -5    1    4    4    0  503  0.80934814432E+01  0.34272052728E+02 -0.52554328540E+03  0.52674273879E+03  0.47000000000E+01 0. -1.
<mgrwt>
<rscale>  0 0.14364530E+03</rscale>
<asrwt>0</asrwt>
<pdfrwt beam="1">  1        5 0.24185191E-02 0.14365004E+03</pdfrwt>
<pdfrwt beam="2">  1       -5 0.20194531E+00 0.14365004E+03</pdfrwt>
<totfact> 0.73634071E+01</totfact>
</mgrwt>
</event>
<event>
 8    1  0.3588496E-007  0.1257108E+03  0.7546771E-02  0.1233963E+00
         -5   -1    0    0    0  501 -0.00000000000E+00  0.00000000000E+00  0.16224894263E+03  0.16231700276E+03  0.47000000000E+01 0. -1.
          5   -1    0    0  501    0  0.00000000000E+00 -0.00000000000E+00 -0.10066022659E+03  0.10076989242E+03  0.47000000000E+01 0. -1.
         25    2    1    2    0    0  0.43472614122E+01 -0.12600343681E+02  0.54969408153E+02  0.13720194972E+03  0.12500028732E+03 0.  0.
         25    2    1    2    0    0 -0.43472614122E+01  0.12600343681E+02  0.66193078830E+01  0.12588494546E+03  0.12500214764E+03 0.  0.
          5    1    3    3  502    0 -0.65151834008E+01 -0.67255392074E+02  0.42319480989E+02  0.79867163771E+02  0.47000000000E+01 0.  1.
         -5    1    3    3    0  502  0.10862444813E+02  0.54655048393E+02  0.12649927165E+02  0.57334785946E+02  0.47000000000E+01 0.  1.
          5    1    4    4  503    0 -0.26177854513E+01  0.68593345710E+02 -0.29146619390E+01  0.68865703587E+02  0.47000000000E+01 0.  1.
         -5    1    4    4    0  503 -0.17294759609E+01 -0.55993002029E+02  0.95339698220E+01  0.57019241874E+02  0.47000000000E+01 0.  1.
<mgrwt>
<rscale>  0 0.12571033E+03</rscale>
<asrwt>0</asrwt>
<pdfrwt beam="2">  1        5 0.15499860E-01 0.12571080E+03</pdfrwt>
<pdfrwt beam="1">  1       -5 0.24975047E-01 0.12571080E+03</pdfrwt>
<totfact> 0.39682659E+02</totfact>
</mgrwt>
</event>
<event>
 8    1  0.3588496E-007  0.1562133E+03  0.7546771E-02  0.1193045E+00
         -5   -1    0    0    0  501 -0.00000000000E+00  0.00000000000E+00  0.31942709698E+02  0.32286633502E+02  0.47000000000E+01 0. -1.
          5   -1    0    0  501    0  0.00000000000E+00 -0.00000000000E+00 -0.78918319215E+03  0.78919718751E+03  0.47000000000E+01 0. -1.
         25    2    1    2    0    0  0.69885956730E+02 -0.62370154502E+02 -0.29887830406E+03  0.33724002983E+03  0.12501405504E+03 0.  0.
         25    2    1    2    0    0 -0.69885956730E+02  0.62370154502E+02 -0.45836217839E+03  0.48424379118E+03  0.12498831785E+03 0.  0.
          5    1    4    4  502    0 -0.86423901478E+02 -0.23905556258E+01 -0.30111285783E+03  0.31331429692E+03  0.47000000000E+01 0.  1.
         -5    1    4    4    0  502  0.16537944749E+02  0.64760710128E+02 -0.15724932056E+03  0.17092949426E+03  0.47000000000E+01 0.  1.
          5    1    3    3  503    0  0.62253480093E+02  0.24460733826E+02 -0.10451859983E+03  0.12417749794E+03  0.47000000000E+01 0.  1.
         -5    1    3    3    0  503  0.76324766365E+01 -0.86830888328E+02 -0.19435970423E+03  0.21306253189E+03  0.47000000000E+01 0.  1.
<mgrwt>
<rscale>  0 0.15620816E+03</rscale>
<asrwt>0</asrwt>
<pdfrwt beam="2">  1        5 0.12144032E+00 0.15621331E+03</pdfrwt>
<pdfrwt beam="1">  1       -5 0.49417959E-02 0.15621331E+03</pdfrwt>
<totfact> 0.98005056E+01</totfact>
</mgrwt>
</event>
<event>
 8    1  0.3588496E-007  0.1470435E+03  0.7546771E-02  0.1204154E+00
          5   -1    0    0  501    0  0.00000000000E+00  0.00000000000E+00  0.48330690106E+02  0.48558682088E+02  0.47000000000E+01 0. -1.
         -5   -1    0    0    0  501 -0.00000000000E+00 -0.00000000000E+00 -0.45569858267E+03  0.45572281954E+03  0.47000000000E+01 0. -1.
         25    2    1    2    0    0  0.69747282737E+02 -0.33645357017E+02 -0.24031035712E+03  0.28172831676E+03  0.12500033291E+03 0.  0.
         25    2    1    2    0    0 -0.69747282737E+02  0.33645357017E+02 -0.16705753544E+03  0.22255318487E+03  0.12500002579E+03 0.  0.
          5    1    3    3  502    0  0.57284925324E+02  0.40883738607E+02 -0.10129403401E+03  0.12343262971E+03  0.47000000000E+01 0. -1.
         -5    1    3    3    0  502  0.12462357413E+02 -0.74529095624E+02 -0.13901632311E+03  0.15829568705E+03  0.47000000000E+01 0. -1.
          5    1    4    4  503    0 -0.38657420880E+02  0.18261520862E+02  0.82411539827E+01  0.43793674797E+02  0.47000000000E+01 0.  1.
         -5    1    4    4    0  503 -0.31089861858E+02  0.15383836156E+02 -0.17529868943E+03  0.17875951007E+03  0.47000000000E+01 0.  1.
<mgrwt>
<rscale>  0 0.14704339E+03</rscale>
<asrwt>0</asrwt>
<pdfrwt beam="1">  1        5 0.74548933E-02 0.14704345E+03</pdfrwt>
<pdfrwt beam="2">  1       -5 0.70126873E-01 0.14704345E+03</pdfrwt>
<totfact> 0.17938241E+02</totfact>
</mgrwt>
</event>
<event>
 8    1  0.3588496E-007  0.1350302E+03  0.7546771E-02  0.1220178E+00
          5   -1    0    0  501    0  0.00000000000E+00  0.00000000000E+00  0.23951012408E+03  0.23955623461E+03  0.47000000000E+01 0. -1.
         -5   -1    0    0    0  501 -0.00000000000E+00 -0.00000000000E+00 -0.82237619850E+02  0.82371816288E+02  0.47000000000E+01 0. -1.
         25    2    1    2    0    0  0.14534174037E+02 -0.48960958300E+02  0.34356233615E+02  0.13933234672E+03  0.12499893760E+03 0.  0.
         25    2    1    2    0    0 -0.14534174037E+02  0.48960958300E+02  0.12291627062E+03  0.18259570417E+03  0.12499745576E+03 0.  0.
          5    1    4    4  502    0 -0.62038638615E+02  0.37263346671E+02  0.32048652421E+02  0.79287803655E+02  0.47000000000E+01 0. -1.
         -5    1    4    4    0  502  0.47504464578E+02  0.11697611629E+02  0.90867618198E+02  0.10330790052E+03  0.47000000000E+01 0. -1.
          5    1    3    3  503    0 -0.41452182782E+02  0.65563115546E+01  0.42518047622E+02  0.59926146649E+02  0.47000000000E+01 0. -1.
         -5    1    3    3    0  503  0.55986356819E+02 -0.55517269855E+02 -0.81618140067E+01  0.79406200072E+02  0.47000000000E+01 0. -1.
<mgrwt>
<rscale>  0 0.13502985E+03</rscale>
<asrwt>0</asrwt>
<pdfrwt beam="1">  1        5 0.36861581E-01 0.13503019E+03</pdfrwt>
<pdfrwt beam="2">  1       -5 0.12665811E-01 0.13503019E+03</pdfrwt>
<totfact> 0.27246845E+02</totfact>
</mgrwt>
</event>
<event>
 8    1  0.3588496E-007  0.1813007E+03  0.7546771E-02  0.1166556E+00
          5   -1    0    0  501    0  0.00000000000E+00  0.00000000000E+00  0.41296331538E+03  0.41299006023E+03  0.47000000000E+01 0.  1.
         -5   -1    0    0    0  501 -0.00000000000E+00 -0.00000000000E+00 -0.95056347085E+02  0.95172470396E+02  0.47000000000E+01 0.  1.
         25    2    1    2    0    0 -0.92578660711E+02 -0.93140073384E+02  0.56192220316E+02  0.18978453090E+03  0.12495887666E+03 0.  0.
         25    2    1    2    0    0  0.92578660711E+02  0.93140073384E+02  0.26171474798E+03  0.31837799972E+03  0.12499623878E+03 0.  0.
          5    1    4    4  502    0 -0.17659167488E+02  0.61452279067E+02  0.11949608967E+03  0.13560838560E+03  0.47000000000E+01 0.  1.
         -5    1    4    4    0  502  0.11023782820E+03  0.31687794318E+02  0.14221865831E+03  0.18276961412E+03  0.47000000000E+01 0.  1.
          5    1    3    3  503    0 -0.34789639327E+02 -0.79137491437E+02 -0.24002180374E+02  0.89840170403E+02  0.47000000000E+01 0.  1.
         -5    1    3    3    0  503 -0.57789021385E+02 -0.14002581948E+02  0.80194400690E+02  0.99944360501E+02  0.47000000000E+01 0.  1.
<mgrwt>
<rscale>  0 0.18129425E+03</rscale>
<asrwt>0</asrwt>
<pdfrwt beam="1">  1        5 0.63543808E-01 0.18130069E+03</pdfrwt>
<pdfrwt beam="2">  1       -5 0.14635043E-01 0.18130069E+03</pdfrwt>
<totfact> 0.72811967E+01</totfact>
</mgrwt>
</event>
<event>
 8    1  0.3588496E-007  0.1338762E+03  0.7546771E-02  0.1221816E+00
          5   -1    0    0  501    0  0.00000000000E+00  0.00000000000E+00  0.80202581845E+02  0.80340177587E+02  0.47000000000E+01 0. -1.
         -5   -1    0    0    0  501 -0.00000000000E+00 -0.00000000000E+00 -0.26719718653E+03  0.26723851984E+03  0.47000000000E+01 0. -1.
         25    2    1    2    0    0  0.12817416552E+02 -0.46164050620E+02 -0.16406600871E+03  0.21175575509E+03  0.12500975507E+03 0.  0.
         25    2    1    2    0    0 -0.12817416552E+02  0.46164050620E+02 -0.22928595968E+02  0.13582294234E+03  0.12500698147E+03 0.  0.
          5    1    3    3  502    0  0.46570899690E+02  0.14600703964E+00 -0.14308969822E+03  0.15055106029E+03  0.47000000000E+01 0.  1.
         -5    1    3    3    0  502 -0.33753483138E+02 -0.46310057660E+02 -0.20976310492E+02  0.61204694805E+02  0.47000000000E+01 0.  1.
          5    1    4    4  503    0 -0.55929124181E+02 -0.13333422225E+02  0.29983318812E+01  0.57766141242E+02  0.47000000000E+01 0.  1.
         -5    1    4    4    0  503  0.43111707629E+02  0.59497472845E+02 -0.25926927849E+02  0.78056801096E+02  0.47000000000E+01 0.  1.
<mgrwt>
<rscale>  0 0.13387558E+03</rscale>
<asrwt>0</asrwt>
<pdfrwt beam="1">  1        5 0.12352623E-01 0.13387623E+03</pdfrwt>
<pdfrwt beam="2">  1       -5 0.41121023E-01 0.13387623E+03</pdfrwt>
<totfact> 0.22735652E+02</totfact>
</mgrwt>
</event>
<event>
 8    1  0.3588496E-007  0.1294619E+03  0.7546771E-02  0.1228261E+00
          5   -1    0    0  501    0  0.00000000000E+00  0.00000000000E+00  0.35270552125E+03  0.35273683494E+03  0.47000000000E+01 0.  1.
         -5   -1    0    0    0  501 -0.00000000000E+00 -0.00000000000E+00 -0.47853995162E+02  0.48084247451E+02  0.47000000000E+01 0.  1.
         25    2    1    2    0    0  0.27320524202E+02  0.19568394790E+02  0.13222112877E+03  0.18503961358E+03  0.12501159380E+03 0.  0.
         25    2    1    2    0    0 -0.27320524202E+02 -0.19568394790E+02  0.17263039732E+03  0.21578146880E+03  0.12502421798E+03 0.  0.
          5    1    3    3  502    0 -0.41390124284E+02 -0.21159658907E+02  0.31250509098E+02  0.56209944603E+02  0.47000000000E+01 0. -1.
         -5    1    3    3    0  502  0.68710648487E+02  0.40728053697E+02  0.10097061967E+03  0.12882966898E+03  0.47000000000E+01 0. -1.
          5    1    4    4  503    0 -0.24416171778E+02 -0.38510901222E+02  0.18624836703E+03  0.19180662966E+03  0.47000000000E+01 0.  1.
         -5    1    4    4    0  503 -0.29043524246E+01  0.18942506432E+02 -0.13617969714E+02  0.23974839146E+02  0.47000000000E+01 0.  1.
<mgrwt>
<rscale>  0 0.12945887E+03</rscale>
<asrwt>0</asrwt>
<pdfrwt beam="1">  1        5 0.54282506E-01 0.12946192E+03</pdfrwt>
<pdfrwt beam="2">  1       -5 0.73822739E-02 0.12946192E+03</pdfrwt>
<totfact> 0.30689476E+02</totfact>
</mgrwt>
</event>
<event>
 8    1  0.3588496E-007  0.1289819E+03  0.7546771E-02  0.1228980E+00
          5   -1    0    0  501    0  0.00000000000E+00  0.00000000000E+00  0.30121129640E+02  0.30485610553E+02  0.47000000000E+01 0. -1.
         -5   -1    0    0    0  501 -0.00000000000E+00 -0.00000000000E+00 -0.55104835137E+03  0.55106839462E+03  0.47000000000E+01 0. -1.
         25    2    1    2    0    0 -0.30627969611E+02  0.82797490603E+01 -0.24087602087E+03  0.27322787822E+03  0.12500235693E+03 0.  0.
         25    2    1    2    0    0  0.30627969611E+02 -0.82797490603E+01 -0.28005120086E+03  0.30832612695E+03  0.12501879336E+03 0.  0.
          5    1    4    4  502    0  0.56633698371E+02  0.16264252835E+02 -0.26085662623E+03  0.26746994440E+03  0.47000000000E+01 0.  1.
         -5    1    4    4    0  502 -0.26005728760E+02 -0.24544001895E+02 -0.19194574628E+02  0.40856182550E+02  0.47000000000E+01 0.  1.
          5    1    3    3  503    0 -0.75938702623E+01  0.39563278519E+02 -0.22866605220E+03  0.23223516809E+03  0.47000000000E+01 0. -1.
         -5    1    3    3    0  503 -0.23034099348E+02 -0.31283529459E+02 -0.12209968674E+02  0.40992710123E+02  0.47000000000E+01 0. -1.
<mgrwt>
<rscale>  0 0.12897790E+03</rscale>
<asrwt>0</asrwt>
<pdfrwt beam="1">  1        5 0.46635991E-02 0.12898188E+03</pdfrwt>
<pdfrwt beam="2">  1       -5 0.84806241E-01 0.12898188E+03</pdfrwt>
<totfact> 0.24384302E+02</totfact>
</mgrwt>
</event>
<event>
 8    1  0.3588496E-007  0.1314332E+03  0.7546771E-02  0.1225345E+00
         -5   -1    0    0    0  501 -0.00000000000E+00  0.00000000000E+00  0.97965227801E+01  0.10865627390E+02  0.47000000000E+01 0.  1.
          5   -1    0    0  501    0  0.00000000000E+00 -0.00000000000E+00 -0.17646260006E+04  0.17646322597E+04  0.47000000000E+01 0.  1.
         25    2    1    2    0    0  0.34756289865E+02  0.21028271375E+02 -0.67300767976E+03  0.68572125971E+03  0.12499648442E+03 0.  0.
         25    2    1    2    0    0 -0.34756289865E+02 -0.21028271375E+02 -0.10818217981E+04  0.10897766274E+04  0.12499802782E+03 0.  0.
          5    1    3    3  502    0  0.88158341009E+01 -0.46803021919E+02 -0.14431087217E+03  0.15203933576E+03  0.47000000000E+01 0.  1.
         -5    1    3    3    0  502  0.25940455764E+02  0.67831293293E+02 -0.52869680758E+03  0.53368192394E+03  0.47000000000E+01 0.  1.
          5    1    4    4  503    0 -0.45346134813E+02  0.39162623602E+02 -0.74519959601E+03  0.74761922857E+03  0.47000000000E+01 0. -1.
         -5    1    4    4    0  503  0.10589844948E+02 -0.60190894977E+02 -0.33662220205E+03  0.34215739882E+03  0.47000000000E+01 0. -1.
<mgrwt>
<rscale>  0 0.13143287E+03</rscale>
<asrwt>0</asrwt>
<pdfrwt beam="2">  1        5 0.27156340E+00 0.13143323E+03</pdfrwt>
<pdfrwt beam="1">  1       -5 0.15898790E-02 0.13143323E+03</pdfrwt>
<totfact> 0.49831569E+01</totfact>
</mgrwt>
</event>
<event>
 8    1  0.3588496E-007  0.1359728E+03  0.7546771E-02  0.1218856E+00
         -5   -1    0    0    0  501 -0.00000000000E+00  0.00000000000E+00  0.12327407498E+03  0.12336363954E+03  0.47000000000E+01 0. -1.
          5   -1    0    0  501    0  0.00000000000E+00 -0.00000000000E+00 -0.15369901311E+03  0.15377085755E+03  0.47000000000E+01 0. -1.
         25    2    1    2    0    0  0.42887820688E+02 -0.31993138755E+02  0.68750781783E+01  0.13614651314E+03  0.12500272097E+03 0.  0.
         25    2    1    2    0    0 -0.42887820688E+02  0.31993138755E+02 -0.37300016315E+02  0.14098798395E+03  0.12499357708E+03 0.  0.
          5    1    4    4  502    0 -0.11148255349E+01 -0.19747082485E+02  0.36349602448E+02  0.41648213656E+02  0.47000000000E+01 0. -1.
         -5    1    4    4    0  502 -0.41772995153E+02  0.51740221240E+02 -0.73649618763E+02  0.99339770293E+02  0.47000000000E+01 0. -1.
          5    1    3    3  503    0  0.71263022445E+02 -0.40791514608E+02  0.39954437154E+02  0.91437481813E+02  0.47000000000E+01 0.  1.
         -5    1    3    3    0  503 -0.28375201757E+02  0.87983758530E+01 -0.33079358976E+02  0.44709031332E+02  0.47000000000E+01 0.  1.
<mgrwt>
<rscale>  0 0.13597071E+03</rscale>
<asrwt>0</asrwt>
<pdfrwt beam="2">  1        5 0.23658418E-01 0.13597281E+03</pdfrwt>
<pdfrwt beam="1">  1       -5 0.18977658E-01 0.13597281E+03</pdfrwt>
<totfact> 0.31231274E+02</totfact>
</mgrwt>
</event>
<event>
 8    1  0.3588496E-007  0.1285869E+03  0.7546771E-02  0.1229572E+00
         -5   -1    0    0    0  501 -0.00000000000E+00  0.00000000000E+00  0.24239922834E+02  0.24691372158E+02  0.47000000000E+01 0.  1.
          5   -1    0    0  501    0  0.00000000000E+00 -0.00000000000E+00 -0.67717305840E+03  0.67718936866E+03  0.47000000000E+01 0.  1.
         25    2    1    2    0    0  0.19615379524E+02  0.22901834211E+02 -0.30808403193E+03  0.33383796657E+03  0.12499103994E+03 0.  0.
         25    2    1    2    0    0 -0.19615379524E+02 -0.22901834211E+02 -0.34484910364E+03  0.36804277425E+03  0.12500128910E+03 0.  0.
          5    1    3    3  502    0  0.14758276015E+02 -0.98162832818E+00 -0.30862080255E+03  0.30901077663E+03  0.47000000000E+01 0. -1.
         -5    1    3    3    0  502  0.48571035093E+01  0.23883462539E+02  0.53677062260E+00  0.24827189935E+02  0.47000000000E+01 0. -1.
          5    1    4    4  503    0 -0.54672380079E+02 -0.50422412221E+02 -0.14271886743E+03  0.16100389411E+03  0.47000000000E+01 0.  1.
         -5    1    4    4    0  503  0.35057000555E+02  0.27520578010E+02 -0.20213023621E+03  0.20703888014E+03  0.47000000000E+01 0.  1.
<mgrwt>
<rscale>  0 0.12858436E+03</rscale>
<asrwt>0</asrwt>
<pdfrwt beam="2">  1        5 0.10421644E+00 0.12858686E+03</pdfrwt>
<pdfrwt beam="1">  1       -5 0.37652009E-02 0.12858686E+03</pdfrwt>
<totfact> 0.21130872E+02</totfact>
</mgrwt>
</event>
<event>
 8    1  0.3588496E-007  0.1313165E+03  0.7546771E-02  0.1225517E+00
         -5   -1    0    0    0  501 -0.00000000000E+00  0.00000000000E+00  0.25463288428E+03  0.25467625676E+03  0.47000000000E+01 0. -1.
          5   -1    0    0  501    0  0.00000000000E+00 -0.00000000000E+00 -0.67591420856E+02  0.67754632118E+02  0.47000000000E+01 0. -1.
         25    2    1    2    0    0 -0.39581596624E+02 -0.72179456301E+01  0.92263452595E+02  0.16048371405E+03  0.12499470492E+03 0.  0.
         25    2    1    2    0    0  0.39581596624E+02  0.72179456301E+01  0.94778010833E+02  0.16194717484E+03  0.12500085827E+03 0.  0.
          5    1    3    3  502    0 -0.93970684228E+01 -0.64345000883E+02  0.34878046684E+02  0.73940193224E+02  0.47000000000E+01 0.  1.
         -5    1    3    3    0  502 -0.30184528201E+02  0.57127055253E+02  0.57385405912E+02  0.86543520822E+02  0.47000000000E+01 0.  1.
          5    1    4    4  503    0  0.41405186720E+02 -0.26836187051E+02 -0.10946562631E+02  0.50759114021E+02  0.47000000000E+01 0.  1.
         -5    1    4    4    0  503 -0.18235900959E+01  0.34054132681E+02  0.10572457346E+03  0.11118806081E+03  0.47000000000E+01 0.  1.
<mgrwt>
<rscale>  0 0.13131501E+03</rscale>
<asrwt>0</asrwt>
<pdfrwt beam="2">  1        5 0.10414571E-01 0.13131647E+03</pdfrwt>
<pdfrwt beam="1">  1       -5 0.39190180E-01 0.13131647E+03</pdfrwt>
<totfact> 0.33659315E+02</totfact>
</mgrwt>
</event>
<event>
 8    1  0.3588496E-007  0.1269303E+03  0.7546771E-02  0.1232087E+00
         -5   -1    0    0    0  501 -0.00000000000E+00  0.00000000000E+00  0.15476879394E+03  0.15484014201E+03  0.47000000000E+01 0.  1.
          5   -1    0    0  501    0  0.00000000000E+00 -0.00000000000E+00 -0.11160189935E+03  0.11170082336E+03  0.47000000000E+01 0.  1.
         25    2    1    2    0    0 -0.12042879135E+02 -0.18431232813E+02  0.56472551734E+02  0.13892601805E+03  0.12500619230E+03 0.  0.
         25    2    1    2    0    0  0.12042879135E+02  0.18431232813E+02 -0.13305657140E+02  0.12761494732E+03  0.12499517185E+03 0.  0.
          5    1    3    3  502    0  0.55464686242E+02 -0.80018361367E+01  0.12674643336E+02  0.57646312850E+02  0.47000000000E+01 0.  1.
         -5    1    3    3    0  502 -0.67507565377E+02 -0.10429396677E+02  0.43797908398E+02  0.81279705205E+02  0.47000000000E+01 0.  1.
          5    1    4    4  503    0 -0.57126818140E+01 -0.46966401206E+02 -0.31817895360E+02  0.57209667373E+02  0.47000000000E+01 0. -1.
         -5    1    4    4    0  503  0.17755560949E+02  0.65397634020E+02  0.18512238220E+02  0.70405279943E+02  0.47000000000E+01 0. -1.
<mgrwt>
<rscale>  0 0.12692754E+03</rscale>
<asrwt>0</asrwt>
<pdfrwt beam="2">  1        5 0.17182621E-01 0.12693025E+03</pdfrwt>
<pdfrwt beam="1">  1       -5 0.23823681E-01 0.12693025E+03</pdfrwt>
<totfact> 0.36112517E+02</totfact>
</mgrwt>
</event>
<event>
 8    1  0.3588496E-007  0.1268489E+03  0.7546771E-02  0.1232210E+00
         -5   -1    0    0    0  501 -0.00000000000E+00  0.00000000000E+00  0.32147023694E+03  0.32150459287E+03  0.47000000000E+01 0. -1.
          5   -1    0    0  501    0  0.00000000000E+00 -0.00000000000E+00 -0.50777043481E+02  0.50994099116E+02  0.47000000000E+01 0. -1.
         25    2    1    2    0    0  0.12258439958E+02 -0.17753104559E+02  0.15971705947E+03  0.20395689684E+03  0.12499373828E+03 0.  0.
         25    2    1    2    0    0 -0.12258439958E+02  0.17753104559E+02  0.11097613399E+03  0.16854179515E+03  0.12500076930E+03 0.  0.
          5    1    4    4  502    0  0.52648017266E+02  0.27152174761E+02  0.39128818220E+02  0.71149200498E+02  0.47000000000E+01 0. -1.
         -5    1    4    4    0  502 -0.64906457223E+02 -0.93990702024E+01  0.71847315768E+02  0.97392594652E+02  0.47000000000E+01 0. -1.
          5    1    3    3  503    0  0.67418878644E+02  0.19355112696E+01  0.94202979584E+02  0.11595405454E+03  0.47000000000E+01 0. -1.
         -5    1    3    3    0  503 -0.55160438687E+02 -0.19688615828E+02  0.65514079887E+02  0.88002842299E+02  0.47000000000E+01 0. -1.
<mgrwt>
<rscale>  0 0.12684713E+03</rscale>
<asrwt>0</asrwt>
<pdfrwt beam="2">  1        5 0.78311921E-02 0.12684886E+03</pdfrwt>
<pdfrwt beam="1">  1       -5 0.49476299E-01 0.12684886E+03</pdfrwt>
<totfact> 0.33554611E+02</totfact>
</mgrwt>
</event>
<event>
 8    1  0.3588496E-007  0.1277250E+03  0.7546771E-02  0.1230881E+00
          5   -1    0    0  501    0  0.00000000000E+00  0.00000000000E+00  0.48173208467E+02  0.48401942254E+02  0.47000000000E+01 0.  1.
         -5   -1    0    0    0  501 -0.00000000000E+00 -0.00000000000E+00 -0.34087584279E+03  0.34090824307E+03  0.47000000000E+01 0.  1.
         25    2    1    2    0    0 -0.10257407583E+02  0.24007221637E+02 -0.16565230878E+03  0.20917545222E+03  0.12502848198E+03 0.  0.
         25    2    1    2    0    0  0.10257407583E+02 -0.24007221637E+02 -0.12705032555E+03  0.18013473311E+03  0.12500070300E+03 0.  0.
          5    1    3    3  502    0 -0.28331178062E+02 -0.45803457652E+02 -0.55878518680E+02  0.77750313396E+02  0.47000000000E+01 0. -1.
         -5    1    3    3    0  502  0.18073770479E+02  0.69810679289E+02 -0.10977379010E+03  0.13142513882E+03  0.47000000000E+01 0. -1.
          5    1    4    4  503    0 -0.40597370217E+02 -0.54488759060E+02 -0.71537685558E+02  0.98777030667E+02  0.47000000000E+01 0.  1.
         -5    1    4    4    0  503  0.50854777800E+02  0.30481537423E+02 -0.55512639987E+02  0.81357702445E+02  0.47000000000E+01 0.  1.
<mgrwt>
<rscale>  0 0.12771823E+03</rscale>
<asrwt>0</asrwt>
<pdfrwt beam="1">  1        5 0.74313503E-02 0.12772503E+03</pdfrwt>
<pdfrwt beam="2">  1       -5 0.52462523E-01 0.12772503E+03</pdfrwt>
<totfact> 0.32482420E+02</totfact>
</mgrwt>
</event>
<event>
 8    1  0.3588496E-007  0.1276105E+03  0.7546771E-02  0.1231046E+00
         -5   -1    0    0    0  501 -0.00000000000E+00  0.00000000000E+00  0.56397094336E+02  0.56592598893E+02  0.47000000000E+01 0.  1.
          5   -1    0    0  501    0  0.00000000000E+00 -0.00000000000E+00 -0.32910416984E+03  0.32913772893E+03  0.47000000000E+01 0.  1.
         25    2    1    2    0    0 -0.17358934373E+02 -0.18908141681E+02 -0.68239524065E+02  0.14471031011E+03  0.12500236311E+03 0.  0.
         25    2    1    2    0    0  0.17358934373E+02  0.18908141681E+02 -0.20446755144E+03  0.24102001772E+03  0.12499927570E+03 0.  0.
          5    1    3    3  502    0  0.24615094909E+02  0.19443416147E+02  0.21537911224E+02  0.38339548103E+02  0.47000000000E+01 0.  1.
         -5    1    3    3    0  502 -0.41974029282E+02 -0.38351557828E+02 -0.89777435289E+02  0.10637076200E+03  0.47000000000E+01 0.  1.
          5    1    4    4  503    0  0.29271759887E+02 -0.45648076638E+02 -0.53457888137E+02  0.76291668167E+02  0.47000000000E+01 0. -1.
         -5    1    4    4    0  503 -0.11912825514E+02  0.64556218319E+02 -0.15100966330E+03  0.16472834955E+03  0.47000000000E+01 0. -1.
<mgrwt>
<rscale>  0 0.12760975E+03</rscale>
<asrwt>0</asrwt>
<pdfrwt beam="2">  1        5 0.50649030E-01 0.12761051E+03</pdfrwt>
<pdfrwt beam="1">  1       -5 0.86940965E-02 0.12761051E+03</pdfrwt>
<totfact> 0.26746011E+02</totfact>
</mgrwt>
</event>
<event>
 8    1  0.3588496E-007  0.1366001E+03  0.7546771E-02  0.1217979E+00
          5   -1    0    0  501    0  0.00000000000E+00  0.00000000000E+00  0.13611569091E+03  0.13619681094E+03  0.47000000000E+01 0.  1.
         -5   -1    0    0    0  501 -0.00000000000E+00 -0.00000000000E+00 -0.22251906285E+03  0.22256869351E+03  0.47000000000E+01 0.  1.
         25    2    1    2    0    0  0.17288608546E+02 -0.52301863256E+02 -0.15442192998E+03  0.20616914247E+03  0.12500080785E+03 0.  0.
         25    2    1    2    0    0 -0.17288608546E+02  0.52301863256E+02  0.68018558036E+02  0.15259636199E+03  0.12499897827E+03 0.  0.
          5    1    4    4  502    0 -0.65741155473E+02  0.39054188984E+02  0.12577005994E+02  0.77636333503E+02  0.47000000000E+01 0. -1.
         -5    1    4    4    0  502  0.48452546927E+02  0.13247674272E+02  0.55441552042E+02  0.74960028483E+02  0.47000000000E+01 0. -1.
          5    1    3    3  503    0  0.35920449720E+02 -0.87816250860E+02 -0.12043260268E+03  0.15338863847E+03  0.47000000000E+01 0. -1.
         -5    1    3    3    0  503 -0.18631841174E+02  0.35514387604E+02 -0.33989327300E+02  0.52780504002E+02  0.47000000000E+01 0. -1.
<mgrwt>
<rscale>  0 0.13659967E+03</rscale>
<asrwt>0</asrwt>
<pdfrwt beam="1">  1        5 0.20950933E-01 0.13660008E+03</pdfrwt>
<pdfrwt beam="2">  1       -5 0.34243760E-01 0.13660008E+03</pdfrwt>
<totfact> 0.12651355E+02</totfact>
</mgrwt>
</event>
<event>
 8    1  0.3588496E-007  0.2245259E+03  0.7546771E-02  0.1130564E+00
         -5   -1    0    0    0  501 -0.00000000000E+00  0.00000000000E+00  0.36952728215E+03  0.36955717048E+03  0.47000000000E+01 0. -1.
          5   -1    0    0  501    0  0.00000000000E+00 -0.00000000000E+00 -0.19299673919E+03  0.19305395965E+03  0.47000000000E+01 0. -1.
         25    2    1    2    0    0 -0.16920969941E+03 -0.78315416900E+02  0.24068884056E+03  0.32915500221E+03  0.12508665241E+03 0.  0.
         25    2    1    2    0    0  0.16920969941E+03  0.78315416900E+02 -0.64158297600E+02  0.23345612793E+03  0.12498099703E+03 0.  0.
          5    1    3    3  502    0  0.19645243747E+02 -0.12392655369E+02  0.34389741563E+02  0.41764312921E+02  0.47000000000E+01 0. -1.
         -5    1    3    3    0  502 -0.18885494315E+03 -0.65922761530E+02  0.20629909900E+03  0.28739068929E+03  0.47000000000E+01 0. -1.
          5    1    4    4  503    0  0.10132627091E+03  0.87933625043E-01  0.15624426306E+02  0.10263154294E+03  0.47000000000E+01 0.  1.
         -5    1    4    4    0  503  0.67883428500E+02  0.78227483274E+02 -0.79782723906E+02  0.13082458499E+03  0.47000000000E+01 0.  1.
<mgrwt>
<rscale>  0 0.22451123E+03</rscale>
<asrwt>0</asrwt>
<pdfrwt beam="2">  1        5 0.29698507E-01 0.22452594E+03</pdfrwt>
<pdfrwt beam="1">  1       -5 0.56857051E-01 0.22452594E+03</pdfrwt>
<totfact> 0.25813250E+01</totfact>
</mgrwt>
</event>
<event>
 8    1  0.3588496E-007  0.1386456E+03  0.7546771E-02  0.1215165E+00
         -5   -1    0    0    0  501 -0.00000000000E+00  0.00000000000E+00  0.13286890136E+02  0.14093667000E+02  0.47000000000E+01 0. -1.
          5   -1    0    0  501    0  0.00000000000E+00 -0.00000000000E+00 -0.14691825511E+04  0.14691900689E+04  0.47000000000E+01 0. -1.
         25    2    1    2    0    0 -0.41849526651E+02  0.42951368374E+02 -0.57088701870E+03  0.58748156169E+03  0.12500557701E+03 0.  0.
         25    2    1    2    0    0  0.41849526651E+02 -0.42951368374E+02 -0.88500864228E+03  0.89580217419E+03  0.12500014178E+03 0.  0.
          5    1    4    4  502    0  0.26446997995E+02 -0.53032887249E+01 -0.33304884324E+02  0.43114659851E+02  0.47000000000E+01 0.  1.
         -5    1    4    4    0  502  0.15402528656E+02 -0.37648079649E+02 -0.85170375796E+03  0.85268751434E+03  0.47000000000E+01 0.  1.
          5    1    3    3  503    0 -0.52632248423E+02  0.73418541304E+02 -0.26832876593E+03  0.28316576843E+03  0.47000000000E+01 0.  1.
         -5    1    3    3    0  503  0.10782721772E+02 -0.30467172930E+02 -0.30255825276E+03  0.30431579326E+03  0.47000000000E+01 0.  1.
<mgrwt>
<rscale>  0 0.13864436E+03</rscale>
<asrwt>0</asrwt>
<pdfrwt beam="2">  1        5 0.22609060E+00 0.13864558E+03</pdfrwt>
<pdfrwt beam="1">  1       -5 0.21067762E-02 0.13864558E+03</pdfrwt>
<totfact> 0.62980432E+01</totfact>
</mgrwt>
</event>
<event>
 8    1  0.3588496E-007  0.1580654E+03  0.7546771E-02  0.1190900E+00
         -5   -1    0    0    0  501 -0.00000000000E+00  0.00000000000E+00  0.44524386402E+02  0.44771765483E+02  0.47000000000E+01 0.  1.
          5   -1    0    0  501    0  0.00000000000E+00 -0.00000000000E+00 -0.56896873795E+03  0.56898814994E+03  0.47000000000E+01 0.  1.
         25    2    1    2    0    0  0.64081703393E+02  0.72469719793E+02 -0.30217575108E+03  0.34101829973E+03  0.12499988485E+03 0.  0.
         25    2    1    2    0    0 -0.64081703393E+02 -0.72469719793E+02 -0.22226860047E+03  0.27274161569E+03  0.12500533260E+03 0.  0.
          5    1    3    3  502    0  0.70589006151E+00  0.74636628760E+02 -0.78259890301E+02  0.10824890329E+03  0.47000000000E+01 0. -1.
         -5    1    3    3    0  502  0.63375813331E+02 -0.21669089673E+01 -0.22391586078E+03  0.23276939644E+03  0.47000000000E+01 0. -1.
          5    1    4    4  503    0 -0.94693495133E+01 -0.45122170752E+02 -0.45470640287E+01  0.46566561661E+02  0.47000000000E+01 0. -1.
         -5    1    4    4    0  503 -0.54612353880E+02 -0.27347549040E+02 -0.21772153644E+03  0.22617505403E+03  0.47000000000E+01 0. -1.
<mgrwt>
<rscale>  0 0.15806428E+03</rscale>
<asrwt>0</asrwt>
<pdfrwt beam="2">  1        5 0.87554169E-01 0.15806536E+03</pdfrwt>
<pdfrwt beam="1">  1       -5 0.68704284E-02 0.15806536E+03</pdfrwt>
<totfact> 0.12637446E+02</totfact>
</mgrwt>
</event>
<event>
 8    1  0.3588496E-007  0.1295088E+03  0.7546771E-02  0.1228187E+00
          5   -1    0    0  501    0  0.00000000000E+00  0.00000000000E+00  0.30944168747E+02  0.31299066750E+02  0.47000000000E+01 0.  1.
         -5   -1    0    0    0  501 -0.00000000000E+00 -0.00000000000E+00 -0.53926740173E+03  0.53928788283E+03  0.47000000000E+01 0.  1.
         25    2    1    2    0    0 -0.29833861916E+02  0.16035016918E+02 -0.26449661087E+03  0.29450127166E+03  0.12500144306E+03 0.  0.
         25    2    1    2    0    0  0.29833861916E+02 -0.16035016918E+02 -0.24382662212E+03  0.27608567792E+03  0.12499879525E+03 0.  0.
          5    1    4    4  502    0  0.45118386550E+02 -0.38651603973E+02 -0.43325672508E+02  0.73680521122E+02  0.47000000000E+01 0.  1.
         -5    1    4    4    0  502 -0.15284524634E+02  0.22616587055E+02 -0.20050094961E+03  0.20240515679E+03  0.47000000000E+01 0.  1.
          5    1    3    3  503    0  0.39314957279E+02  0.34344268834E+02 -0.71751122903E+02  0.88856672825E+02  0.47000000000E+01 0. -1.
         -5    1    3    3    0  503 -0.69148819195E+02 -0.18309251916E+02 -0.19274548796E+03  0.20564459884E+03  0.47000000000E+01 0. -1.
<mgrwt>
<rscale>  0 0.12950821E+03</rscale>
<asrwt>0</asrwt>
<pdfrwt beam="1">  1        5 0.47895170E-02 0.12950885E+03</pdfrwt>
<pdfrwt beam="2">  1       -5 0.82993085E-01 0.12950885E+03</pdfrwt>
<totfact> 0.24575523E+02</totfact>
</mgrwt>
</event>
<event>
 8    1  0.3588496E-007  0.1414194E+03  0.7546771E-02  0.1211435E+00
         -5   -1    0    0    0  501 -0.00000000000E+00  0.00000000000E+00  0.94823232396E+02  0.94939640836E+02  0.47000000000E+01 0.  1.
          5   -1    0    0  501    0  0.00000000000E+00 -0.00000000000E+00 -0.22854005168E+03  0.22858837508E+03  0.47000000000E+01 0.  1.
         25    2    1    2    0    0 -0.71480828068E+01 -0.65731079525E+02 -0.11213378092E+03  0.18048107273E+03  0.12501105107E+03 0.  0.
         25    2    1    2    0    0  0.71480828068E+01  0.65731079525E+02 -0.21583038363E+02  0.14304694318E+03  0.12499972202E+03 0.  0.
          5    1    3    3  502    0 -0.22785537347E+02  0.24173605170E+02  0.27807033199E+01  0.33665504750E+02  0.47000000000E+01 0.  1.
         -5    1    3    3    0  502  0.15637454540E+02 -0.89904684695E+02 -0.11491448424E+03  0.14681556798E+03  0.47000000000E+01 0.  1.
          5    1    4    4  503    0 -0.52119793566E+01 -0.28927078958E+02  0.22967066701E+02  0.37596765536E+02  0.47000000000E+01 0. -1.
         -5    1    4    4    0  503  0.12360062163E+02  0.94658158483E+02 -0.44550105065E+02  0.10545017765E+03  0.47000000000E+01 0. -1.
<mgrwt>
<rscale>  0 0.14141685E+03</rscale>
<asrwt>0</asrwt>
<pdfrwt beam="2">  1        5 0.35172679E-01 0.14141935E+03</pdfrwt>
<pdfrwt beam="1">  1       -5 0.14600861E-01 0.14141935E+03</pdfrwt>
<totfact> 0.23571438E+02</totfact>
</mgrwt>
</event>
<event>
 8    1  0.3588496E-007  0.1268706E+03  0.7546771E-02  0.1232180E+00
          5   -1    0    0  501    0  0.00000000000E+00  0.00000000000E+00  0.49700298474E+02  0.49922035900E+02  0.47000000000E+01 0. -1.
         -5   -1    0    0    0  501 -0.00000000000E+00 -0.00000000000E+00 -0.32289756051E+03  0.32293176459E+03  0.47000000000E+01 0. -1.
         25    2    1    2    0    0 -0.21499812256E+02 -0.22574555106E+01 -0.13832811284E+03  0.18769875612E+03  0.12501527193E+03 0.  0.
         25    2    1    2    0    0  0.21499812256E+02  0.22574555106E+01 -0.13486914919E+03  0.18515504437E+03  0.12500146007E+03 0.  0.
          5    1    4    4  502    0 -0.31106699373E+02  0.46963450122E+02 -0.73047020847E+02  0.92364222770E+02  0.47000000000E+01 0. -1.
         -5    1    4    4    0  502  0.52606511629E+02 -0.44705994611E+02 -0.61822128347E+02  0.92790821600E+02  0.47000000000E+01 0. -1.
          5    1    3    3  503    0 -0.32853153796E+02  0.54559655467E+02 -0.46416954963E+02  0.78947510582E+02  0.47000000000E+01 0. -1.
         -5    1    3    3    0  503  0.11353341539E+02 -0.56817110978E+02 -0.91911157876E+02  0.10875124554E+03  0.47000000000E+01 0. -1.
<mgrwt>
<rscale>  0 0.12686723E+03</rscale>
<asrwt>0</asrwt>
<pdfrwt beam="1">  1        5 0.76658878E-02 0.12687063E+03</pdfrwt>
<pdfrwt beam="2">  1       -5 0.49696234E-01 0.12687063E+03</pdfrwt>
<totfact> 0.34477442E+02</totfact>
</mgrwt>
</event>
<event>
 8    1  0.3588496E-007  0.1636640E+03  0.7546771E-02  0.1184621E+00
         -5   -1    0    0    0  501 -0.00000000000E+00  0.00000000000E+00  0.44612786454E+03  0.44615262132E+03  0.47000000000E+01 0. -1.
          5   -1    0    0  501    0  0.00000000000E+00 -0.00000000000E+00 -0.60605875433E+02  0.60787845306E+02  0.47000000000E+01 0. -1.
         25    2    1    2    0    0 -0.14422135964E+02 -0.10465690511E+03  0.21963294970E+03  0.27390594622E+03  0.12499907594E+03 0.  0.
         25    2    1    2    0    0  0.14422135964E+02  0.10465690511E+03  0.16588903940E+03  0.23303452041E+03  0.12499939407E+03 0.  0.
          5    1    4    4  502    0  0.24762882312E+02  0.12162802719E+03  0.17159231829E+03  0.21183151568E+03  0.47000000000E+01 0.  1.
         -5    1    4    4    0  502 -0.10340746348E+02 -0.16971122078E+02 -0.57032788923E+01  0.21203004734E+02  0.47000000000E+01 0.  1.
          5    1    3    3  503    0  0.33429862721E+02  0.18188715257E+00  0.10891187922E+03  0.11402401606E+03  0.47000000000E+01 0.  1.
         -5    1    3    3    0  503 -0.47851998684E+02 -0.10483879226E+03  0.11072107048E+03  0.15988193016E+03  0.47000000000E+01 0.  1.
<mgrwt>
<rscale>  0 0.16366397E+03</rscale>
<asrwt>0</asrwt>
<pdfrwt beam="2">  1        5 0.93398832E-02 0.16366403E+03</pdfrwt>
<pdfrwt beam="1">  1       -5 0.68650956E-01 0.16366403E+03</pdfrwt>
<totfact> 0.13200526E+02</totfact>
</mgrwt>
</event>
<event>
 8    1  0.3588496E-007  0.1513133E+03  0.7546771E-02  0.1198869E+00
          5   -1    0    0  501    0  0.00000000000E+00  0.00000000000E+00  0.42077405974E+02  0.42339084703E+02  0.47000000000E+01 0.  1.
         -5   -1    0    0    0  501 -0.00000000000E+00 -0.00000000000E+00 -0.65722386005E+03  0.65724066537E+03  0.47000000000E+01 0.  1.
         25    2    1    2    0    0  0.36326922133E+02 -0.77144411461E+02 -0.45389384606E+03  0.47845054364E+03  0.12499757489E+03 0.  0.
         25    2    1    2    0    0 -0.36326922133E+02  0.77144411461E+02 -0.16125260802E+03  0.22112920643E+03  0.12499926742E+03 0.  0.
          5    1    4    4  502    0  0.39878768509E+01  0.65560856729E+02 -0.13177064062E+02  0.67155447390E+02  0.47000000000E+01 0. -1.
         -5    1    4    4    0  502 -0.40314798984E+02  0.11583554732E+02 -0.14807554395E+03  0.15397375904E+03  0.47000000000E+01 0. -1.
          5    1    3    3  503    0  0.23726732286E+02  0.31035219472E+02 -0.82754676553E+02  0.91632795243E+02  0.47000000000E+01 0. -1.
         -5    1    3    3    0  503  0.12600189848E+02 -0.10817963093E+03 -0.37113916951E+03  0.38681774840E+03  0.47000000000E+01 0. -1.
<mgrwt>
<rscale>  0 0.15131298E+03</rscale>
<asrwt>0</asrwt>
<pdfrwt beam="1">  1        5 0.64948694E-02 0.15131333E+03</pdfrwt>
<pdfrwt beam="2">  1       -5 0.10113278E+00 0.15131333E+03</pdfrwt>
<totfact> 0.96975486E+01</totfact>
</mgrwt>
</event>
<event>
 8    1  0.3588496E-007  0.1350761E+03  0.7546771E-02  0.1220116E+00
         -5   -1    0    0    0  501 -0.00000000000E+00  0.00000000000E+00  0.14942840253E+02  0.15664561112E+02  0.47000000000E+01 0. -1.
          5   -1    0    0  501    0  0.00000000000E+00 -0.00000000000E+00 -0.11994967809E+04  0.11995059888E+04  0.47000000000E+01 0. -1.
         25    2    1    2    0    0 -0.48476488128E+02 -0.16327327766E+02 -0.54240221183E+03  0.55896601618E+03  0.12500518514E+03 0.  0.
         25    2    1    2    0    0  0.48476488128E+02  0.16327327766E+02 -0.64215172877E+03  0.65620453378E+03  0.12501598240E+03 0.  0.
          5    1    4    4  502    0  0.17596465234E+01  0.58216228398E+02 -0.45549129042E+03  0.45922394456E+03  0.47000000000E+01 0. -1.
         -5    1    4    4    0  502  0.46716841605E+02 -0.41888900633E+02 -0.18666043835E+03  0.19698058922E+03  0.47000000000E+01 0. -1.
          5    1    3    3  503    0 -0.17259793562E+02 -0.68792417174E+02 -0.23455822510E+03  0.24509171364E+03  0.47000000000E+01 0. -1.
         -5    1    3    3    0  503 -0.31216694566E+02  0.52465089408E+02 -0.30784398673E+03  0.31387430254E+03  0.47000000000E+01 0. -1.
<mgrwt>
<rscale>  0 0.13507358E+03</rscale>
<asrwt>0</asrwt>
<pdfrwt beam="2">  1        5 0.18459412E+00 0.13507608E+03</pdfrwt>
<pdfrwt beam="1">  1       -5 0.23551247E-02 0.13507608E+03</pdfrwt>
<totfact> 0.99268993E+01</totfact>
</mgrwt>
</event>
<event>
 8    1  0.3588496E-007  0.1262244E+03  0.7546771E-02  0.1233176E+00
          5   -1    0    0  501    0  0.00000000000E+00  0.00000000000E+00  0.61609001799E+02  0.61788017468E+02  0.47000000000E+01 0. -1.
         -5   -1    0    0    0  501 -0.00000000000E+00 -0.00000000000E+00 -0.27971970729E+03  0.27975919046E+03  0.47000000000E+01 0. -1.
         25    2    1    2    0    0 -0.15181633579E+02 -0.85465226226E+01 -0.15662399079E+03  0.20114345160E+03  0.12499635428E+03 0.  0.
         25    2    1    2    0    0  0.15181633579E+02  0.85465226226E+01 -0.61486714697E+02  0.14040375633E+03  0.12501629357E+03 0.  0.
          5    1    3    3  502    0 -0.23673119524E+02  0.14653353592E+02 -0.17022646840E+03  0.17255224688E+03  0.47000000000E+01 0. -1.
         -5    1    3    3    0  502  0.84914859450E+01 -0.23199876215E+02  0.13602477611E+02  0.28591204716E+02  0.47000000000E+01 0. -1.
          5    1    4    4  503    0  0.63336332736E+02 -0.20131844608E+02 -0.17180174891E+02  0.68804292170E+02  0.47000000000E+01 0.  1.
         -5    1    4    4    0  503 -0.48154699157E+02  0.28678367230E+02 -0.44306539806E+02  0.71599464156E+02  0.47000000000E+01 0.  1.
<mgrwt>
<rscale>  0 0.12621946E+03</rscale>
<asrwt>0</asrwt>
<pdfrwt beam="1">  1        5 0.94951157E-02 0.12622440E+03</pdfrwt>
<pdfrwt beam="2">  1       -5 0.43050608E-01 0.12622440E+03</pdfrwt>
<totfact> 0.32141766E+02</totfact>
</mgrwt>
</event>
<event>
 8    1  0.3588496E-007  0.1321007E+03  0.7546771E-02  0.1224372E+00
          5   -1    0    0  501    0  0.00000000000E+00  0.00000000000E+00  0.21516849506E+03  0.21521982080E+03  0.47000000000E+01 0.  1.
         -5   -1    0    0    0  501 -0.00000000000E+00 -0.00000000000E+00 -0.10772735090E+03  0.10782982951E+03  0.47000000000E+01 0.  1.
         25    2    1    2    0    0  0.31384206650E+02  0.28979189544E+02 -0.26713037428E+02  0.13477451314E+03  0.12500328464E+03 0.  0.
         25    2    1    2    0    0 -0.31384206650E+02 -0.28979189544E+02  0.13415418158E+03  0.18827513717E+03  0.12500168394E+03 0.  0.
          5    1    4    4  502    0 -0.25934486971E+02  0.44813869407E+02  0.83911053188E+02  0.98711880505E+02  0.47000000000E+01 0.  1.
         -5    1    4    4    0  502 -0.54497196789E+01 -0.73793058952E+02  0.50243128393E+02  0.89563256667E+02  0.47000000000E+01 0.  1.
          5    1    3    3  503    0  0.15593458811E+02  0.60356754252E+02  0.28865776005E+02  0.68857946280E+02  0.47000000000E+01 0. -1.
         -5    1    3    3    0  503  0.15790747839E+02 -0.31377564707E+02 -0.55578813433E+02  0.65916566862E+02  0.47000000000E+01 0. -1.
<mgrwt>
<rscale>  0 0.13210028E+03</rscale>
<asrwt>0</asrwt>
<pdfrwt beam="1">  1        5 0.33114676E-01 0.13210065E+03</pdfrwt>
<pdfrwt beam="2">  1       -5 0.16585270E-01 0.13210065E+03</pdfrwt>
<totfact> 0.20612679E+02</totfact>
</mgrwt>
</event>
<event>
 8    1  0.3588496E-007  0.1423263E+03  0.7546771E-02  0.1210235E+00
         -5   -1    0    0    0  501 -0.00000000000E+00  0.00000000000E+00  0.26732819957E+03  0.26736951264E+03  0.47000000000E+01 0. -1.
          5   -1    0    0  501    0  0.00000000000E+00 -0.00000000000E+00 -0.75994818487E+02  0.76140018630E+02  0.47000000000E+01 0. -1.
         25    2    1    2    0    0  0.37057476763E+02 -0.57062895492E+02  0.10720271564E+03  0.17817729903E+03  0.12500118808E+03 0.  0.
         25    2    1    2    0    0 -0.37057476763E+02  0.57062895492E+02  0.84130665444E+02  0.16533223224E+03  0.12500938974E+03 0.  0.
          5    1    4    4  502    0 -0.36955049021E+02 -0.28673057410E+01 -0.22000196835E+02  0.43358917781E+02  0.47000000000E+01 0.  1.
         -5    1    4    4    0  502 -0.10242774202E+00  0.59930201233E+02  0.10613086228E+03  0.12197331446E+03  0.47000000000E+01 0.  1.
          5    1    3    3  503    0  0.71019180555E+02 -0.75994672121E+01  0.24012382801E+02  0.75499406862E+02  0.47000000000E+01 0.  1.
         -5    1    3    3    0  503 -0.33961703792E+02 -0.49463428280E+02  0.83190332842E+02  0.10267789217E+03  0.47000000000E+01 0.  1.
<mgrwt>
<rscale>  0 0.14232451E+03</rscale>
<asrwt>0</asrwt>
<pdfrwt beam="2">  1        5 0.11705858E-01 0.14232631E+03</pdfrwt>
<pdfrwt beam="1">  1       -5 0.41141762E-01 0.14232631E+03</pdfrwt>
<totfact> 0.25505979E+02</totfact>
</mgrwt>
</event>
<event>
 8    1  0.3588496E-007  0.1273121E+03  0.7546771E-02  0.1231501E+00
         -5   -1    0    0    0  501 -0.00000000000E+00  0.00000000000E+00  0.10627756507E+03  0.10638144029E+03  0.47000000000E+01 0.  1.
          5   -1    0    0  501    0  0.00000000000E+00 -0.00000000000E+00 -0.15229216178E+03  0.15236466959E+03  0.47000000000E+01 0.  1.
         25    2    1    2    0    0 -0.24128755218E+02  0.48549015645E+00 -0.22555654785E+02  0.12929071316E+03  0.12499959367E+03 0.  0.
         25    2    1    2    0    0  0.24128755218E+02 -0.48549015645E+00 -0.23458941920E+02  0.12945539672E+03  0.12500378096E+03 0.  0.
          5    1    4    4  502    0 -0.34074093363E+02  0.38000656239E+02 -0.29706383853E+02  0.59242324015E+02  0.47000000000E+01 0. -1.
         -5    1    4    4    0  502  0.58202848580E+02 -0.38486146396E+02  0.62474419331E+01  0.70213072700E+02  0.47000000000E+01 0. -1.
          5    1    3    3  503    0  0.39258423135E+02  0.31069361152E+02  0.10536466727E+02  0.51377389195E+02  0.47000000000E+01 0.  1.
         -5    1    3    3    0  503 -0.63387178353E+02 -0.30583870995E+02 -0.33092121512E+02  0.77913323962E+02  0.47000000000E+01 0.  1.
<mgrwt>
<rscale>  0 0.12731110E+03</rscale>
<asrwt>0</asrwt>
<pdfrwt beam="2">  1        5 0.23443131E-01 0.12731213E+03</pdfrwt>
<pdfrwt beam="1">  1       -5 0.16363962E-01 0.12731213E+03</pdfrwt>
<totfact> 0.40755300E+02</totfact>
</mgrwt>
</event>
<event>
 8    1  0.3588496E-007  0.1296734E+03  0.7546771E-02  0.1227945E+00
         -5   -1    0    0    0  501 -0.00000000000E+00  0.00000000000E+00  0.26645959639E+03  0.26650104410E+03  0.47000000000E+01 0.  1.
          5   -1    0    0  501    0  0.00000000000E+00 -0.00000000000E+00 -0.63315479823E+02  0.63489684085E+02  0.47000000000E+01 0.  1.
         25    2    1    2    0    0  0.18712318608E+01  0.34404119536E+02  0.11379321887E+03  0.17251444030E+03  0.12500076200E+03 0.  0.
         25    2    1    2    0    0 -0.18712318608E+01 -0.34404119536E+02  0.89350897690E+02  0.15747628788E+03  0.12501221291E+03 0.  0.
          5    1    3    3  502    0  0.39490998266E+02  0.40777576883E+02  0.50591256474E+01  0.57184215242E+02  0.47000000000E+01 0.  1.
         -5    1    3    3    0  502 -0.37619766405E+02 -0.63734573473E+01  0.10873409322E+03  0.11533022506E+03  0.47000000000E+01 0.  1.
          5    1    4    4  503    0 -0.71775307657E+01 -0.43450660537E+02  0.11830556924E+03  0.12632408544E+03  0.47000000000E+01 0. -1.
         -5    1    4    4    0  503  0.53062989050E+01  0.90465410014E+01 -0.28954671553E+02  0.31152202441E+02  0.47000000000E+01 0. -1.
<mgrwt>
<rscale>  0 0.12967067E+03</rscale>
<asrwt>0</asrwt>
<pdfrwt beam="2">  1        5 0.97574314E-02 0.12967343E+03</pdfrwt>
<pdfrwt beam="1">  1       -5 0.41010374E-01 0.12967343E+03</pdfrwt>
<totfact> 0.34213066E+02</totfact>
</mgrwt>
</event>
<event>
 8    1  0.3588496E-007  0.1306769E+03  0.7546771E-02  0.1226455E+00
          5   -1    0    0  501    0  0.00000000000E+00  0.00000000000E+00  0.26325730572E+02  0.26741991140E+02  0.47000000000E+01 0.  1.
         -5   -1    0    0    0  501 -0.00000000000E+00 -0.00000000000E+00 -0.89998686464E+03  0.89999913696E+03  0.47000000000E+01 0.  1.
         25    2    1    2    0    0  0.13178737370E+02 -0.35745895008E+02 -0.68431093619E+03  0.69667604586E+03  0.12499842945E+03 0.  0.
         25    2    1    2    0    0 -0.13178737370E+02  0.35745895008E+02 -0.18935019788E+03  0.23006508224E+03  0.12499998599E+03 0.  0.
          5    1    3    3  502    0  0.11980849810E+02 -0.73598683735E+02 -0.25633216920E+03  0.26699920970E+03  0.47000000000E+01 0.  1.
         -5    1    3    3    0  502  0.11978875592E+01  0.37852788727E+02 -0.42797876698E+03  0.42967683617E+03  0.47000000000E+01 0.  1.
          5    1    4    4  503    0  0.13782520887E+02  0.69691437334E+02 -0.16595274452E+03  0.18058033596E+03  0.47000000000E+01 0. -1.
         -5    1    4    4    0  503 -0.26961258256E+02 -0.33945542326E+02 -0.23397453356E+02  0.49484746277E+02  0.47000000000E+01 0. -1.
<mgrwt>
<rscale>  0 0.13067650E+03</rscale>
<asrwt>0</asrwt>
<pdfrwt beam="1">  1        5 0.40830772E-02 0.13067687E+03</pdfrwt>
<pdfrwt beam="2">  1       -5 0.13849246E+00 0.13067687E+03</pdfrwt>
<totfact> 0.90259426E+01</totfact>
</mgrwt>
</event>
<event>
 8    1  0.3588496E-007  0.1408201E+03  0.7546771E-02  0.1212233E+00
         -5   -1    0    0    0  501 -0.00000000000E+00  0.00000000000E+00  0.39406440400E+02  0.39685734779E+02  0.47000000000E+01 0.  1.
          5   -1    0    0  501    0  0.00000000000E+00 -0.00000000000E+00 -0.50113355285E+03  0.50115559240E+03  0.47000000000E+01 0.  1.
         25    2    1    2    0    0  0.56163680156E+02 -0.32441658942E+02 -0.23223123044E+03  0.27159093380E+03  0.12499388275E+03 0.  0.
         25    2    1    2    0    0 -0.56163680156E+02  0.32441658942E+02 -0.22949588201E+03  0.26925039338E+03  0.12498237585E+03 0.  0.
          5    1    4    4  502    0 -0.78657246285E+02 -0.13501031352E+02 -0.88877863453E+02  0.11954331789E+03  0.47000000000E+01 0.  1.
         -5    1    4    4    0  502  0.22493566129E+02  0.45942690294E+02 -0.14061801856E+03  0.14970707549E+03  0.47000000000E+01 0.  1.
          5    1    3    3  503    0  0.90197457155E+02 -0.46715442126E+02 -0.18847684829E+03  0.21415771326E+03  0.47000000000E+01 0. -1.
         -5    1    3    3    0  503 -0.34033776999E+02  0.14273783184E+02 -0.43754382158E+02  0.57433220537E+02  0.47000000000E+01 0. -1.
<mgrwt>
<rscale>  0 0.14081751E+03</rscale>
<asrwt>0</asrwt>
<pdfrwt beam="2">  1        5 0.77120645E-01 0.14082007E+03</pdfrwt>
<pdfrwt beam="1">  1       -5 0.60857092E-02 0.14082007E+03</pdfrwt>
<totfact> 0.20091285E+02</totfact>
</mgrwt>
</event>
<event>
 8    1  0.3588496E-007  0.1383813E+03  0.7546771E-02  0.1215525E+00
          5   -1    0    0  501    0  0.00000000000E+00  0.00000000000E+00  0.42418858447E+03  0.42421462161E+03  0.47000000000E+01 0. -1.
         -5   -1    0    0    0  501 -0.00000000000E+00 -0.00000000000E+00 -0.65086441280E+02  0.65255918034E+02  0.47000000000E+01 0. -1.
         25    2    1    2    0    0  0.45448717925E+02  0.38197951657E+02  0.43812737521E+02  0.14515144116E+03  0.12499886171E+03 0.  0.
         25    2    1    2    0    0 -0.45448717925E+02 -0.38197951657E+02  0.31528940566E+03  0.34431909849E+03  0.12499425103E+03 0.  0.
          5    1    4    4  502    0 -0.19409445119E+02 -0.58693474649E+02  0.58118514040E+02  0.84979422218E+02  0.47000000000E+01 0.  1.
         -5    1    4    4    0  502 -0.26039272806E+02  0.20495522993E+02  0.25717089162E+03  0.25933967627E+03  0.47000000000E+01 0.  1.
          5    1    3    3  503    0 -0.25263440024E+02 -0.49341535264E+01  0.55510875376E+02  0.61368840285E+02  0.47000000000E+01 0. -1.
         -5    1    3    3    0  503  0.70712157950E+02  0.43132105183E+02 -0.11698137855E+02  0.83782600871E+02  0.47000000000E+01 0. -1.
<mgrwt>
<rscale>  0 0.13838026E+03</rscale>
<asrwt>0</asrwt>
<pdfrwt beam="1">  1        5 0.65274821E-01 0.13838130E+03</pdfrwt>
<pdfrwt beam="2">  1       -5 0.10028338E-01 0.13838130E+03</pdfrwt>
<totfact> 0.12377325E+02</totfact>
</mgrwt>
</event>
<event>
 8    1  0.3588496E-007  0.1325794E+03  0.7546771E-02  0.1223679E+00
          5   -1    0    0  501    0  0.00000000000E+00  0.00000000000E+00  0.28540576831E+02  0.28924981000E+02  0.47000000000E+01 0. -1.
         -5   -1    0    0    0  501 -0.00000000000E+00 -0.00000000000E+00 -0.64444327082E+03  0.64446040942E+03  0.47000000000E+01 0. -1.
         25    2    1    2    0    0 -0.44065574223E+02 -0.32255651801E+01 -0.38423054414E+03  0.40646082754E+03  0.12500045669E+03 0.  0.
         25    2    1    2    0    0  0.44065574223E+02  0.32255651801E+01 -0.23167214985E+03  0.26692456288E+03  0.12499823258E+03 0.  0.
          5    1    4    4  502    0 -0.17465263205E+02  0.42597773754E+02 -0.15127498105E+03  0.15819549816E+03  0.47000000000E+01 0.  1.
         -5    1    4    4    0  502  0.61530837428E+02 -0.39372208574E+02 -0.80397168802E+02  0.10872906472E+03  0.47000000000E+01 0.  1.
          5    1    3    3  503    0 -0.67865574104E+02 -0.15199736807E+02 -0.36877169013E+03  0.37530176870E+03  0.47000000000E+01 0.  1.
         -5    1    3    3    0  503  0.23799999881E+02  0.11974171627E+02 -0.15458854009E+02  0.31159058840E+02  0.47000000000E+01 0.  1.
<mgrwt>
<rscale>  0 0.13257886E+03</rscale>
<asrwt>0</asrwt>
<pdfrwt beam="1">  1        5 0.44217464E-02 0.13257938E+03</pdfrwt>
<pdfrwt beam="2">  1       -5 0.99175996E-01 0.13257938E+03</pdfrwt>
<totfact> 0.18523662E+02</totfact>
</mgrwt>
</event>
<event>
 8    1  0.3588496E-007  0.1497620E+03  0.7546771E-02  0.1200767E+00
         -5   -1    0    0    0  501 -0.00000000000E+00  0.00000000000E+00  0.34003041612E+03  0.34006289696E+03  0.47000000000E+01 0.  1.
          5   -1    0    0  501    0  0.00000000000E+00 -0.00000000000E+00 -0.91531325307E+02  0.91651914942E+02  0.47000000000E+01 0.  1.
         25    2    1    2    0    0 -0.81343961985E+02 -0.13630450922E+02  0.23850207029E+03  0.28162368903E+03  0.12500414132E+03 0.  0.
         25    2    1    2    0    0  0.81343961985E+02  0.13630450922E+02  0.99970205308E+01  0.15009112287E+03  0.12499910161E+03 0.  0.
          5    1    3    3  502    0 -0.73845629842E+01  0.17094405413E+02 -0.91702357577E+01  0.21282238856E+02  0.47000000000E+01 0.  1.
         -5    1    3    3    0  502 -0.73959399000E+02 -0.30724856335E+02  0.24767230604E+03  0.26034145017E+03  0.47000000000E+01 0.  1.
          5    1    4    4  503    0 -0.22426743340E+02  0.36594421288E+02 -0.59084558165E+00  0.43180430577E+02  0.47000000000E+01 0.  1.
         -5    1    4    4    0  503  0.10377070532E+03 -0.22963970366E+02  0.10587866112E+02  0.10691069230E+03  0.47000000000E+01 0.  1.
<mgrwt>
<rscale>  0 0.14976098E+03</rscale>
<asrwt>0</asrwt>
<pdfrwt beam="2">  1        5 0.14093517E-01 0.14976203E+03</pdfrwt>
<pdfrwt beam="1">  1       -5 0.52324148E-01 0.14976203E+03</pdfrwt>
<totfact> 0.11246986E+02</totfact>
</mgrwt>
</event>
<event>
 8    1  0.3588496E-007  0.1259301E+03  0.7546771E-02  0.1233624E+00
         -5   -1    0    0    0  501 -0.00000000000E+00  0.00000000000E+00  0.45884844448E+02  0.46124927642E+02  0.47000000000E+01 0.  1.
          5   -1    0    0  501    0  0.00000000000E+00 -0.00000000000E+00 -0.38988977398E+03  0.38991810147E+03  0.47000000000E+01 0.  1.
         25    2    1    2    0    0  0.67773933816E+01 -0.13629439903E+02 -0.97591750459E+02  0.15931599927E+03  0.12500297266E+03 0.  0.
         25    2    1    2    0    0 -0.67773933816E+01  0.13629439903E+02 -0.24641317907E+03  0.27672702984E+03  0.12500679793E+03 0.  0.
          5    1    3    3  502    0  0.24660525276E+02 -0.51582123687E+02 -0.50369623933E+01  0.57587481114E+02  0.47000000000E+01 0.  1.
         -5    1    3    3    0  502 -0.17883131894E+02  0.37952683784E+02 -0.92554788066E+02  0.10172851816E+03  0.47000000000E+01 0.  1.
          5    1    4    4  503    0 -0.45014409983E+02  0.23682004753E+02 -0.35783457149E+02  0.62367301214E+02  0.47000000000E+01 0. -1.
         -5    1    4    4    0  503  0.38237016601E+02 -0.10052564849E+02 -0.21062972192E+03  0.21435972862E+03  0.47000000000E+01 0. -1.
<mgrwt>
<rscale>  0 0.12592917E+03</rscale>
<asrwt>0</asrwt>
<pdfrwt beam="2">  1        5 0.60003687E-01 0.12593012E+03</pdfrwt>
<pdfrwt beam="1">  1       -5 0.70798541E-02 0.12593012E+03</pdfrwt>
<totfact> 0.26258755E+02</totfact>
</mgrwt>
</event>
<event>
 8    1  0.3588496E-007  0.1313430E+03  0.7546771E-02  0.1225477E+00
          5   -1    0    0  501    0  0.00000000000E+00  0.00000000000E+00  0.11124498929E+02  0.12076608647E+02  0.47000000000E+01 0.  1.
         -5   -1    0    0    0  501 -0.00000000000E+00 -0.00000000000E+00 -0.14980827545E+04  0.14980901272E+04  0.47000000000E+01 0.  1.
         25    2    1    2    0    0 -0.26073522943E+02  0.30754360166E+02 -0.81096086735E+03  0.82152815283E+03  0.12500127306E+03 0.  0.
         25    2    1    2    0    0  0.26073522943E+02 -0.30754360166E+02 -0.67599738822E+03  0.68863858304E+03  0.12499987964E+03 0.  0.
          5    1    4    4  502    0  0.31011899626E+02  0.14505508454E+02 -0.59177133777E+03  0.59277951542E+03  0.47000000000E+01 0.  1.
         -5    1    4    4    0  502 -0.49383766832E+01 -0.45259868619E+02 -0.84226050441E+02  0.95859067618E+02  0.47000000000E+01 0.  1.
          5    1    3    3  503    0  0.25135182573E+02  0.58216241193E+02 -0.26767469961E+03  0.27512314143E+03  0.47000000000E+01 0. -1.
         -5    1    3    3    0  503 -0.51208705516E+02 -0.27461881027E+02 -0.54328616774E+03  0.54640501140E+03  0.47000000000E+01 0. -1.
<mgrwt>
<rscale>  0 0.13134265E+03</rscale>
<asrwt>0</asrwt>
<pdfrwt beam="1">  1        5 0.17852689E-02 0.13134298E+03</pdfrwt>
<pdfrwt beam="2">  1       -5 0.23054792E+00 0.13134298E+03</pdfrwt>
<totfact> 0.75448087E+01</totfact>
</mgrwt>
</event>
<event>
 8    1  0.3588496E-007  0.1350389E+03  0.7546771E-02  0.1220167E+00
         -5   -1    0    0    0  501 -0.00000000000E+00  0.00000000000E+00  0.15121886758E+04  0.15121959798E+04  0.47000000000E+01 0. -1.
          5   -1    0    0  501    0  0.00000000000E+00 -0.00000000000E+00 -0.11659563280E+02  0.12571213779E+02  0.47000000000E+01 0. -1.
         25    2    1    2    0    0  0.45562801464E+02  0.23103498363E+02  0.69480781259E+03  0.70780888208E+03  0.12500310639E+03 0.  0.
         25    2    1    2    0    0 -0.45562801464E+02 -0.23103498363E+02  0.80572129992E+03  0.81695831145E+03  0.12499731593E+03 0.  0.
          5    1    4    4  502    0  0.10779380464E-01 -0.52923752430E+02  0.64520400148E+03  0.64738799588E+03  0.47000000000E+01 0.  1.
         -5    1    4    4    0  502 -0.45573580844E+02  0.29820254066E+02  0.16051729844E+03  0.16957031557E+03  0.47000000000E+01 0.  1.
          5    1    3    3  503    0 -0.67642818989E+01 -0.43601667962E+02  0.15005479737E+03  0.15647809167E+03  0.47000000000E+01 0.  1.
         -5    1    3    3    0  503  0.52327083362E+02  0.66705166325E+02  0.54475301522E+03  0.55133079041E+03  0.47000000000E+01 0.  1.
<mgrwt>
<rscale>  0 0.13503761E+03</rscale>
<asrwt>0</asrwt>
<pdfrwt beam="2">  1        5 0.18644684E-02 0.13503895E+03</pdfrwt>
<pdfrwt beam="1">  1       -5 0.23271502E+00 0.13503895E+03</pdfrwt>
<totfact> 0.68776379E+01</totfact>
</mgrwt>
</event>
<event>
 8    1  0.3588496E-007  0.1405384E+03  0.7546771E-02  0.1212609E+00
          5   -1    0    0  501    0  0.00000000000E+00  0.00000000000E+00  0.75203716748E+03  0.75205185411E+03  0.47000000000E+01 0.  1.
         -5   -1    0    0    0  501 -0.00000000000E+00 -0.00000000000E+00 -0.27539631194E+02  0.27937811051E+02  0.47000000000E+01 0.  1.
         25    2    1    2    0    0 -0.30501018710E+02 -0.56500442595E+02  0.45268582743E+03  0.47399948719E+03  0.12501377261E+03 0.  0.
         25    2    1    2    0    0  0.30501018710E+02  0.56500442595E+02  0.27181170886E+03  0.30599017798E+03  0.12500308712E+03 0.  0.
          5    1    4    4  502    0  0.44802590946E+01  0.92512981465E+01 -0.12335300310E+02  0.16730477360E+02  0.47000000000E+01 0.  1.
         -5    1    4    4    0  502  0.26020759616E+02  0.47249144449E+02  0.28414700917E+03  0.28925970062E+03  0.47000000000E+01 0.  1.
          5    1    3    3  503    0  0.16434567084E+02 -0.79045463202E+02  0.19574199313E+03  0.21179069414E+03  0.47000000000E+01 0. -1.
         -5    1    3    3    0  503 -0.46935585795E+02  0.22545020607E+02  0.25694383430E+03  0.26220879305E+03  0.47000000000E+01 0. -1.
<mgrwt>
<rscale>  0 0.14053607E+03</rscale>
<asrwt>0</asrwt>
<pdfrwt beam="1">  1        5 0.11572978E+00 0.14053845E+03</pdfrwt>
<pdfrwt beam="2">  1       -5 0.42686254E-02 0.14053845E+03</pdfrwt>
<totfact> 0.13655917E+02</totfact>
</mgrwt>
</event>
<event>
 8    1  0.3588496E-007  0.1444175E+03  0.7546771E-02  0.1207508E+00
          5   -1    0    0  501    0  0.00000000000E+00  0.00000000000E+00  0.91552234195E+02  0.91672796326E+02  0.47000000000E+01 0.  1.
         -5   -1    0    0    0  501 -0.00000000000E+00 -0.00000000000E+00 -0.28723997585E+03  0.28727842544E+03  0.47000000000E+01 0.  1.
         25    2    1    2    0    0  0.42832272288E+02  0.58264636753E+02 -0.18423030919E+03  0.23408807994E+03  0.12500820333E+03 0.  0.
         25    2    1    2    0    0 -0.42832272288E+02 -0.58264636753E+02 -0.11457432462E+02  0.14486314183E+03  0.12499874262E+03 0.  0.
          5    1    4    4  502    0  0.12972397958E+02 -0.73690245069E+02  0.21609264249E+02  0.78022981413E+02  0.47000000000E+01 0. -1.
         -5    1    4    4    0  502 -0.55804670246E+02  0.15425608317E+02 -0.33066696711E+02  0.66840160417E+02  0.47000000000E+01 0. -1.
          5    1    3    3  503    0 -0.13391523359E+02 -0.32854637755E+02 -0.32630942100E+02  0.48431689029E+02  0.47000000000E+01 0. -1.
         -5    1    3    3    0  503  0.56223795647E+02  0.91119274508E+02 -0.15159936709E+03  0.18565639091E+03  0.47000000000E+01 0. -1.
<mgrwt>
<rscale>  0 0.14441548E+03</rscale>
<asrwt>0</asrwt>
<pdfrwt beam="1">  1        5 0.14097191E-01 0.14441753E+03</pdfrwt>
<pdfrwt beam="2">  1       -5 0.44202997E-01 0.14441753E+03</pdfrwt>
<totfact> 0.15856511E+02</totfact>
</mgrwt>
</event>
<event>
 8    1  0.3588496E-007  0.2003188E+03  0.7546771E-02  0.1149471E+00
          5   -1    0    0  501    0  0.00000000000E+00  0.00000000000E+00  0.15739694916E+03  0.15746710642E+03  0.47000000000E+01 0. -1.
         -5   -1    0    0    0  501 -0.00000000000E+00 -0.00000000000E+00 -0.28509359000E+03  0.28513232904E+03  0.47000000000E+01 0. -1.
         25    2    1    2    0    0 -0.81672549846E+02 -0.13353834730E+03 -0.13597751887E+03  0.24211051731E+03  0.12499888541E+03 0.  0.
         25    2    1    2    0    0  0.81672549846E+02  0.13353834730E+03  0.82808780266E+01  0.20048891815E+03  0.12499735102E+03 0.  0.
          5    1    4    4  502    0  0.18853219966E+02 -0.19012952246E+02 -0.19049661400E+02  0.33195117949E+02  0.47000000000E+01 0.  1.
         -5    1    4    4    0  502  0.62819329880E+02  0.15255129955E+03  0.27330539426E+02  0.16729380020E+03  0.47000000000E+01 0.  1.
          5    1    3    3  503    0  0.91392987158E+01 -0.10208045744E+03 -0.84921976623E+02  0.13318325227E+03  0.47000000000E+01 0. -1.
         -5    1    3    3    0  503 -0.90811848561E+02 -0.31457889860E+02 -0.51055542250E+02  0.10892726504E+03  0.47000000000E+01 0. -1.
<mgrwt>
<rscale>  0 0.20031855E+03</rscale>
<asrwt>0</asrwt>
<pdfrwt beam="1">  1        5 0.24223292E-01 0.20031879E+03</pdfrwt>
<pdfrwt beam="2">  1       -5 0.43868929E-01 0.20031879E+03</pdfrwt>
<totfact> 0.64931366E+01</totfact>
</mgrwt>
</event>
<event>
 8    1  0.3588496E-007  0.1333590E+03  0.7546771E-02  0.1222558E+00
          5   -1    0    0  501    0  0.00000000000E+00  0.00000000000E+00  0.70401248110E+03  0.70402816957E+03  0.47000000000E+01 0. -1.
         -5   -1    0    0    0  501 -0.00000000000E+00 -0.00000000000E+00 -0.29504308807E+02  0.29876315673E+02  0.47000000000E+01 0. -1.
         25    2    1    2    0    0  0.14169912976E+02  0.44236193094E+02  0.19528452755E+03  0.23647114229E+03  0.12499970889E+03 0.  0.
         25    2    1    2    0    0 -0.14169912976E+02 -0.44236193094E+02  0.47922364474E+03  0.49743334295E+03  0.12500800689E+03 0.  0.
          5    1    3    3  502    0 -0.27323957132E+02  0.28001526510E+02  0.18674933532E+03  0.19086143760E+03  0.47000000000E+01 0. -1.
         -5    1    3    3    0  502  0.41493870108E+02  0.16234666584E+02  0.85351922325E+01  0.45609704692E+02  0.47000000000E+01 0. -1.
          5    1    4    4  503    0  0.36159613661E+02  0.10179420088E+00  0.34877101843E+03  0.35067198537E+03  0.47000000000E+01 0. -1.
         -5    1    4    4    0  503 -0.50329526637E+02 -0.44337987295E+02  0.13045262630E+03  0.14676135758E+03  0.47000000000E+01 0. -1.
<mgrwt>
<rscale>  0 0.13335708E+03</rscale>
<asrwt>0</asrwt>
<pdfrwt beam="1">  1        5 0.10833942E+00 0.13335902E+03</pdfrwt>
<pdfrwt beam="2">  1       -5 0.45689477E-02 0.13335902E+03</pdfrwt>
<totfact> 0.14152062E+02</totfact>
</mgrwt>
</event>
<event>
 8    1  0.3588496E-007  0.1767881E+03  0.7546771E-02  0.1170949E+00
         -5   -1    0    0    0  501 -0.00000000000E+00  0.00000000000E+00  0.24845340895E+02  0.25285983552E+02  0.47000000000E+01 0. -1.
          5   -1    0    0  501    0  0.00000000000E+00 -0.00000000000E+00 -0.12664082530E+04  0.12664169745E+04  0.47000000000E+01 0. -1.
         25    2    1    2    0    0  0.11479911915E+03  0.49489438559E+02 -0.53965764329E+03  0.56787628664E+03  0.12500025074E+03 0.  0.
         25    2    1    2    0    0 -0.11479911915E+03 -0.49489438559E+02 -0.70190526883E+03  0.72382667141E+03  0.12500400611E+03 0.  0.
          5    1    3    3  502    0  0.51079423540E+02 -0.41215614311E+02 -0.19553090337E+03  0.20630622517E+03  0.47000000000E+01 0.  1.
         -5    1    3    3    0  502  0.63719695610E+02  0.90705052869E+02 -0.34412673992E+03  0.36157006147E+03  0.47000000000E+01 0.  1.
          5    1    4    4  503    0 -0.28238858462E+02  0.38599325678E+01 -0.21911030703E+02  0.36256247367E+02  0.47000000000E+01 0.  1.
         -5    1    4    4    0  503 -0.86560260688E+02 -0.53349371127E+02 -0.67999423812E+03  0.68757042404E+03  0.47000000000E+01 0.  1.
<mgrwt>
<rscale>  0 0.17678747E+03</rscale>
<asrwt>0</asrwt>
<pdfrwt beam="2">  1        5 0.19486656E+00 0.17678813E+03</pdfrwt>
<pdfrwt beam="1">  1       -5 0.38569276E-02 0.17678813E+03</pdfrwt>
<totfact> 0.40832750E+01</totfact>
</mgrwt>
</event>
<event>
 8    1  0.3588496E-007  0.1346794E+03  0.7546771E-02  0.1220674E+00
         -5   -1    0    0    0  501 -0.00000000000E+00  0.00000000000E+00  0.30557335230E+02  0.30916674083E+02  0.47000000000E+01 0. -1.
          5   -1    0    0  501    0  0.00000000000E+00 -0.00000000000E+00 -0.82015148835E+03  0.82016495526E+03  0.47000000000E+01 0. -1.
         25    2    1    2    0    0 -0.28771687243E+02  0.41061828020E+02 -0.16929375427E+03  0.21632881971E+03  0.12499559710E+03 0.  0.
         25    2    1    2    0    0  0.28771687243E+02 -0.41061828020E+02 -0.62030039885E+03  0.63475280964E+03  0.12499864329E+03 0.  0.
          5    1    3    3  502    0 -0.53105362153E+02  0.22295333621E+02 -0.16065301796E+02  0.59978707159E+02  0.47000000000E+01 0.  1.
         -5    1    3    3    0  502  0.24333674910E+02  0.18766494399E+02 -0.15322845247E+03  0.15635011255E+03  0.47000000000E+01 0.  1.
          5    1    4    4  503    0  0.47549443881E+02 -0.71446828692E+02 -0.28931953970E+03  0.30181697268E+03  0.47000000000E+01 0. -1.
         -5    1    4    4    0  503 -0.18777756638E+02  0.30385000672E+02 -0.33098085915E+03  0.33293583696E+03  0.47000000000E+01 0. -1.
<mgrwt>
<rscale>  0 0.13467871E+03</rscale>
<asrwt>0</asrwt>
<pdfrwt beam="2">  1        5 0.12620581E+00 0.13467941E+03</pdfrwt>
<pdfrwt beam="1">  1       -5 0.47298065E-02 0.13467941E+03</pdfrwt>
<totfact> 0.91179301E+01</totfact>
</mgrwt>
</event>
<event>
 8    1  0.3588496E-007  0.1291257E+03  0.7546771E-02  0.1228759E+00
          5   -1    0    0  501    0  0.00000000000E+00  0.00000000000E+00  0.19121255551E+03  0.19127030973E+03  0.47000000000E+01 0. -1.
         -5   -1    0    0    0  501 -0.00000000000E+00 -0.00000000000E+00 -0.89048036193E+02  0.89171984108E+02  0.47000000000E+01 0. -1.
         25    2    1    2    0    0  0.31982141348E+02 -0.50681955546E+01  0.30171407556E+02  0.13260381754E+03  0.12499965848E+03 0.  0.
         25    2    1    2    0    0 -0.31982141348E+02  0.50681955546E+01  0.71993111757E+02  0.14783847630E+03  0.12499865184E+03 0.  0.
          5    1    3    3  502    0  0.24967029381E+02 -0.63701473311E+02  0.25550361397E+02  0.73185662705E+02  0.47000000000E+01 0. -1.
         -5    1    3    3    0  502  0.70151119678E+01  0.58633277756E+02  0.46210461593E+01  0.59418154834E+02  0.47000000000E+01 0. -1.
          5    1    4    4  503    0 -0.64252074348E+02  0.11536094677E+02  0.89016969465E+02  0.11048765266E+03  0.47000000000E+01 0. -1.
         -5    1    4    4    0  503  0.32269932999E+02 -0.64678991225E+01 -0.17023857707E+02  0.37350823633E+02  0.47000000000E+01 0. -1.
<mgrwt>
<rscale>  0 0.12912550E+03</rscale>
<asrwt>0</asrwt>
<pdfrwt beam="1">  1        5 0.29431293E-01 0.12912575E+03</pdfrwt>
<pdfrwt beam="2">  1       -5 0.13713675E-01 0.12912575E+03</pdfrwt>
<totfact> 0.36384331E+02</totfact>
</mgrwt>
</event>
<event>
 8    1  0.3588496E-007  0.1346365E+03  0.7546771E-02  0.1220734E+00
          5   -1    0    0  501    0  0.00000000000E+00  0.00000000000E+00  0.42927779916E+02  0.43184306044E+02  0.47000000000E+01 0. -1.
         -5   -1    0    0    0  501 -0.00000000000E+00 -0.00000000000E+00 -0.42789227292E+03  0.42791808472E+03  0.47000000000E+01 0. -1.
         25    2    1    2    0    0 -0.48203899050E+02  0.13342936900E+02 -0.22293290201E+03  0.26043389929E+03  0.12500034901E+03 0.  0.
         25    2    1    2    0    0  0.48203899050E+02 -0.13342936900E+02 -0.16203159100E+03  0.21066849147E+03  0.12500130787E+03 0.  0.
          5    1    3    3  502    0 -0.12712915647E+02 -0.55367961116E+02 -0.88370652846E+02  0.10516031393E+03  0.47000000000E+01 0.  1.
         -5    1    3    3    0  502 -0.35490983403E+02  0.68710898015E+02 -0.13456224916E+03  0.15527358536E+03  0.47000000000E+01 0.  1.
          5    1    4    4  503    0  0.75266097412E+02  0.92825642515E+01 -0.15740317728E+03  0.17478272694E+03  0.47000000000E+01 0.  1.
         -5    1    4    4    0  503 -0.27062198362E+02 -0.22625501151E+02 -0.46284137176E+01  0.35885764532E+02  0.47000000000E+01 0.  1.
<mgrwt>
<rscale>  0 0.13463624E+03</rscale>
<asrwt>0</asrwt>
<pdfrwt beam="1">  1        5 0.66259924E-02 0.13463646E+03</pdfrwt>
<pdfrwt beam="2">  1       -5 0.65851296E-01 0.13463646E+03</pdfrwt>
<totfact> 0.24506207E+02</totfact>
</mgrwt>
</event>
<event>
 8    1  0.3588496E-007  0.1282514E+03  0.7546771E-02  0.1230080E+00
          5   -1    0    0  501    0  0.00000000000E+00  0.00000000000E+00  0.16474964928E+02  0.17132263989E+02  0.47000000000E+01 0.  1.
         -5   -1    0    0    0  501 -0.00000000000E+00 -0.00000000000E+00 -0.11013565933E+04  0.11013666218E+04  0.47000000000E+01 0.  1.
         25    2    1    2    0    0  0.85597929281E+01  0.27355280171E+02 -0.72945904315E+03  0.74064491449E+03  0.12499124892E+03 0.  0.
         25    2    1    2    0    0 -0.85597929281E+01 -0.27355280171E+02 -0.35542258519E+03  0.37785397127E+03  0.12500731232E+03 0.  0.
          5    1    3    3  502    0 -0.16485297057E+02  0.50991781977E+01 -0.68267419105E+03  0.68290841828E+03  0.47000000000E+01 0. -1.
         -5    1    3    3    0  502  0.25045089985E+02  0.22256101973E+02 -0.46784852107E+02  0.57736496206E+02  0.47000000000E+01 0. -1.
          5    1    4    4  503    0 -0.32849884312E+02 -0.66156634792E+02 -0.14906958078E+03  0.16643210370E+03  0.47000000000E+01 0.  1.
         -5    1    4    4    0  503  0.24290091384E+02  0.38801354621E+02 -0.20635300441E+03  0.21142186758E+03  0.47000000000E+01 0.  1.
<mgrwt>
<rscale>  0 0.12824744E+03</rscale>
<asrwt>0</asrwt>
<pdfrwt beam="1">  1        5 0.25859437E-02 0.12825135E+03</pdfrwt>
<pdfrwt beam="2">  1       -5 0.16949075E+00 0.12825135E+03</pdfrwt>
<totfact> 0.10788750E+02</totfact>
</mgrwt>
</event>
<event>
 8    1  0.3588496E-007  0.1354492E+03  0.7546771E-02  0.1219589E+00
         -5   -1    0    0    0  501 -0.00000000000E+00  0.00000000000E+00  0.44319291076E+03  0.44321783149E+03  0.47000000000E+01 0.  1.
          5   -1    0    0  501    0  0.00000000000E+00 -0.00000000000E+00 -0.47569958392E+02  0.47801578859E+02  0.47000000000E+01 0.  1.
         25    2    1    2    0    0 -0.47004923400E+02 -0.22606028661E+02  0.28715506559E+03  0.31749729176E+03  0.12500401282E+03 0.  0.
         25    2    1    2    0    0  0.47004923400E+02  0.22606028661E+02  0.10846788678E+03  0.17352211859E+03  0.12499659125E+03 0.  0.
          5    1    3    3  502    0 -0.65442288020E+02 -0.39283455414E+02  0.87342243358E+02  0.11608893317E+03  0.47000000000E+01 0.  1.
         -5    1    3    3    0  502  0.18437364621E+02  0.16677426753E+02  0.19981282223E+03  0.20140835858E+03  0.47000000000E+01 0.  1.
          5    1    4    4  503    0  0.36495633584E+02 -0.28172164266E+02 -0.69897644215E+01  0.46867354489E+02  0.47000000000E+01 0.  1.
         -5    1    4    4    0  503  0.10509289815E+02  0.50778192928E+02  0.11545765120E+03  0.12665476410E+03  0.47000000000E+01 0.  1.
<mgrwt>
<rscale>  0 0.13544753E+03</rscale>
<asrwt>0</asrwt>
<pdfrwt beam="2">  1        5 0.73381893E-02 0.13544925E+03</pdfrwt>
<pdfrwt beam="1">  1       -5 0.68203257E-01 0.13544925E+03</pdfrwt>
<totfact> 0.19092705E+02</totfact>
</mgrwt>
</event>
<event>
 8    1  0.3588496E-007  0.1388111E+03  0.7546771E-02  0.1214946E+00
         -5   -1    0    0    0  501 -0.00000000000E+00  0.00000000000E+00  0.10566183682E+03  0.10576631676E+03  0.47000000000E+01 0. -1.
          5   -1    0    0  501    0  0.00000000000E+00 -0.00000000000E+00 -0.22665320700E+03  0.22670193260E+03  0.47000000000E+01 0. -1.
         25    2    1    2    0    0 -0.59197179939E+02 -0.11520787430E+02  0.13173252835E+02  0.13943479691E+03  0.12502597068E+03 0.  0.
         25    2    1    2    0    0  0.59197179939E+02  0.11520787430E+02 -0.13416462301E+03  0.19303345245E+03  0.12499893216E+03 0.  0.
          5    1    4    4  502    0  0.94682798877E+02 -0.10756006980E+02 -0.80811160479E+02  0.12503222683E+03  0.47000000000E+01 0. -1.
         -5    1    4    4    0  502 -0.35485618937E+02  0.22276794410E+02 -0.53353462531E+02  0.68001225611E+02  0.47000000000E+01 0. -1.
          5    1    3    3  503    0 -0.21652510020E+02 -0.44501311212E+02 -0.41831527218E+02  0.64970489911E+02  0.47000000000E+01 0.  1.
         -5    1    3    3    0  503 -0.37544669919E+02  0.32980523782E+02  0.55004780054E+02  0.74464307000E+02  0.47000000000E+01 0.  1.
<mgrwt>
<rscale>  0 0.13880503E+03</rscale>
<asrwt>0</asrwt>
<pdfrwt beam="2">  1        5 0.34881509E-01 0.13881112E+03</pdfrwt>
<pdfrwt beam="1">  1       -5 0.16267452E-01 0.13881112E+03</pdfrwt>
<totfact> 0.19574201E+02</totfact>
</mgrwt>
</event>
<event>
 8    1  0.3588496E-007  0.1938805E+03  0.7546771E-02  0.1155008E+00
         -5   -1    0    0    0  501 -0.00000000000E+00  0.00000000000E+00  0.18482532565E+03  0.18488507512E+03  0.47000000000E+01 0.  1.
          5   -1    0    0  501    0  0.00000000000E+00 -0.00000000000E+00 -0.20355924984E+03  0.20361350199E+03  0.47000000000E+01 0.  1.
         25    2    1    2    0    0 -0.29758040690E+02  0.14518779608E+03 -0.18801125528E+01  0.19388965176E+03  0.12499850047E+03 0.  0.
         25    2    1    2    0    0  0.29758040690E+02 -0.14518779608E+03 -0.16853811637E+02  0.19460892535E+03  0.12499418283E+03 0.  0.
          5    1    4    4  502    0  0.56429677882E+02 -0.13215792681E+03 -0.47756536308E+02  0.15150182482E+03  0.47000000000E+01 0. -1.
         -5    1    4    4    0  502 -0.26671637192E+02 -0.13029869273E+02  0.30902724671E+02  0.43107100527E+02  0.47000000000E+01 0. -1.
          5    1    3    3  503    0 -0.29459176269E+02  0.13023987190E+03  0.47715169067E+02  0.14187704063E+03  0.47000000000E+01 0.  1.
         -5    1    3    3    0  503 -0.29886442148E+00  0.14947924181E+02 -0.49595281620E+02  0.52012611127E+02  0.47000000000E+01 0.  1.
<mgrwt>
<rscale>  0 0.19387984E+03</rscale>
<asrwt>0</asrwt>
<pdfrwt beam="2">  1        5 0.31325577E-01 0.19388054E+03</pdfrwt>
<pdfrwt beam="1">  1       -5 0.28443435E-01 0.19388054E+03</pdfrwt>
<totfact> 0.93559659E+01</totfact>
</mgrwt>
</event>
<event>
 8    1  0.3588496E-007  0.1399570E+03  0.7546771E-02  0.1213387E+00
          5   -1    0    0  501    0  0.00000000000E+00  0.00000000000E+00  0.28152587736E+03  0.28156510725E+03  0.47000000000E+01 0. -1.
         -5   -1    0    0    0  501 -0.00000000000E+00 -0.00000000000E+00 -0.71350538310E+02  0.71505169863E+02  0.47000000000E+01 0. -1.
         25    2    1    2    0    0 -0.62207699318E+02 -0.96101086086E+01  0.76345883800E+02  0.15942599619E+03  0.12500320894E+03 0.  0.
         25    2    1    2    0    0  0.62207699318E+02  0.96101086086E+01  0.13382945525E+03  0.19364428093E+03  0.12500252958E+03 0.  0.
          5    1    4    4  502    0  0.50332391460E+02 -0.46373155455E+02  0.11370968735E+03  0.13279985758E+03  0.47000000000E+01 0. -1.
         -5    1    4    4    0  502  0.11875307857E+02  0.55983264063E+02  0.20119767897E+02  0.60844423345E+02  0.47000000000E+01 0. -1.
          5    1    3    3  503    0 -0.97289295336E+02  0.97351489349E+01  0.65072402641E+02  0.11754355660E+03  0.47000000000E+01 0.  1.
         -5    1    3    3    0  503  0.35081596018E+02 -0.19345257543E+02  0.11273481158E+02  0.41882439590E+02  0.47000000000E+01 0.  1.
<mgrwt>
<rscale>  0 0.13995682E+03</rscale>
<asrwt>0</asrwt>
<pdfrwt beam="1">  1        5 0.43326586E-01 0.13995697E+03</pdfrwt>
<pdfrwt beam="2">  1       -5 0.10991918E-01 0.13995697E+03</pdfrwt>
<totfact> 0.25470471E+02</totfact>
</mgrwt>
</event>
<event>
 8    1  0.3588496E-007  0.1315322E+03  0.7546771E-02  0.1225200E+00
         -5   -1    0    0    0  501 -0.00000000000E+00  0.00000000000E+00  0.28394984988E+03  0.28398874493E+03  0.47000000000E+01 0.  1.
          5   -1    0    0  501    0  0.00000000000E+00 -0.00000000000E+00 -0.81948781254E+02  0.82083449910E+02  0.47000000000E+01 0.  1.
         25    2    1    2    0    0  0.44757193425E+01  0.40677548512E+02  0.19388603671E+03  0.23429149290E+03  0.12500405353E+03 0.  0.
         25    2    1    2    0    0 -0.44757193425E+01 -0.40677548512E+02  0.81150319163E+01  0.13178070194E+03  0.12500241855E+03 0.  0.
          5    1    4    4  502    0  0.34887736469E+01  0.44553356169E+02  0.99722577018E+01  0.46029436355E+02  0.47000000000E+01 0. -1.
         -5    1    4    4    0  502 -0.79644929894E+01 -0.85230904681E+02 -0.18572257855E+01  0.85751265582E+02  0.47000000000E+01 0. -1.
          5    1    3    3  503    0 -0.15207481195E+02  0.55263978570E+02  0.23561497239E+02  0.62149891101E+02  0.47000000000E+01 0.  1.
         -5    1    3    3    0  503  0.19683200537E+02 -0.14586430059E+02  0.17032453947E+03  0.17214160180E+03  0.47000000000E+01 0.  1.
<mgrwt>
<rscale>  0 0.13153177E+03</rscale>
<asrwt>0</asrwt>
<pdfrwt beam="2">  1        5 0.12620856E-01 0.13153216E+03</pdfrwt>
<pdfrwt beam="1">  1       -5 0.43697944E-01 0.13153216E+03</pdfrwt>
<totfact> 0.19188208E+02</totfact>
</mgrwt>
</event>
<event>
 8    1  0.3588496E-007  0.1250070E+03  0.7546771E-02  0.1235066E+00
         -5   -1    0    0    0  501 -0.00000000000E+00  0.00000000000E+00  0.71381483491E+03  0.71383030795E+03  0.47000000000E+01 0.  1.
          5   -1    0    0  501    0  0.00000000000E+00 -0.00000000000E+00 -0.28350270048E+02  0.28737219973E+02  0.47000000000E+01 0.  1.
         25    2    1    2    0    0  0.13590394755E+01  0.16700478289E+00  0.52219744045E+03  0.53695150213E+03  0.12499949579E+03 0.  0.
         25    2    1    2    0    0 -0.13590394755E+01 -0.16700478289E+00  0.16326712442E+03  0.20561602579E+03  0.12497968342E+03 0.  0.
          5    1    3    3  502    0 -0.17759564118E+02  0.59349467455E+02  0.23641222128E+03  0.24443933762E+03  0.47000000000E+01 0.  1.
         -5    1    3    3    0  502  0.19118603594E+02 -0.59182462672E+02  0.28578521917E+03  0.29251216451E+03  0.47000000000E+01 0.  1.
          5    1    4    4  503    0 -0.11113472933E+02 -0.28546064360E+02 -0.77308789588E+01  0.31941251706E+02  0.47000000000E+01 0.  1.
         -5    1    4    4    0  503  0.97544334577E+01  0.28379059577E+02  0.17099800338E+03  0.17367477408E+03  0.47000000000E+01 0.  1.
<mgrwt>
<rscale>  0 0.12500204E+03</rscale>
<asrwt>0</asrwt>
<pdfrwt beam="2">  1        5 0.43925358E-02 0.12500700E+03</pdfrwt>
<pdfrwt beam="1">  1       -5 0.10984862E+00 0.12500700E+03</pdfrwt>
<totfact> 0.14272970E+02</totfact>
</mgrwt>
</event>
<event>
 8    1  0.3588496E-007  0.1449863E+03  0.7546771E-02  0.1206773E+00
          5   -1    0    0  501    0  0.00000000000E+00  0.00000000000E+00  0.20270889871E+03  0.20276337840E+03  0.47000000000E+01 0.  1.
         -5   -1    0    0    0  501 -0.00000000000E+00 -0.00000000000E+00 -0.10718849375E+03  0.10729148704E+03  0.47000000000E+01 0.  1.
         25    2    1    2    0    0 -0.19081739026E+02  0.70932863847E+02  0.19326140467E+02  0.14626660911E+03  0.12499934918E+03 0.  0.
         25    2    1    2    0    0  0.19081739026E+02 -0.70932863847E+02  0.76194264502E+02  0.16378825633E+03  0.12500177211E+03 0.  0.
          5    1    4    4  502    0  0.21555159148E+02  0.31709089753E+02  0.37872380572E+02  0.54097120710E+02  0.47000000000E+01 0. -1.
         -5    1    4    4    0  502 -0.24734201219E+01 -0.10264195360E+03  0.38321883930E+02  0.10969113562E+03  0.47000000000E+01 0. -1.
          5    1    3    3  503    0  0.50524612013E+02  0.95900471186E+01  0.14330046206E+01  0.51660903254E+02  0.47000000000E+01 0.  1.
         -5    1    3    3    0  503 -0.69606351039E+02  0.61342816728E+02  0.17893135847E+02  0.94605705851E+02  0.47000000000E+01 0.  1.
<mgrwt>
<rscale>  0 0.14498578E+03</rscale>
<asrwt>0</asrwt>
<pdfrwt beam="1">  1        5 0.31198097E-01 0.14498630E+03</pdfrwt>
<pdfrwt beam="2">  1       -5 0.16502651E-01 0.14498630E+03</pdfrwt>
<totfact> 0.24156170E+02</totfact>
</mgrwt>
</event>
<event>
 8    1  0.3588496E-007  0.1291630E+03  0.7546771E-02  0.1228721E+00
          5   -1    0    0  501    0  0.00000000000E+00  0.00000000000E+00  0.22935687069E+02  0.23412298933E+02  0.47000000000E+01 0.  1.
         -5   -1    0    0    0  501 -0.00000000000E+00 -0.00000000000E+00 -0.10121939622E+04  0.10122048741E+04  0.47000000000E+01 0.  1.
         25    2    1    2    0    0  0.32176655585E+02 -0.48028624777E+01 -0.77310959912E+03  0.78381700734E+03  0.12494896595E+03 0.  0.
         25    2    1    2    0    0 -0.32176655585E+02  0.48028624777E+01 -0.21614867604E+03  0.25180016571E+03  0.12499867456E+03 0.  0.
          5    1    4    4  502    0 -0.24579755905E+02  0.33253256566E+02 -0.21798642360E+03  0.22192366784E+03  0.47000000000E+01 0. -1.
         -5    1    4    4    0  502 -0.75968996800E+01 -0.28450394088E+02  0.18377475616E+01  0.29876497864E+02  0.47000000000E+01 0. -1.
          5    1    3    3  503    0  0.62134481803E+02 -0.21208071669E+02 -0.69886260578E+03  0.70195548854E+03  0.47000000000E+01 0. -1.
         -5    1    3    3    0  503 -0.29957826218E+02  0.16405209192E+02 -0.74246993339E+02  0.81861518800E+02  0.47000000000E+01 0. -1.
<mgrwt>
<rscale>  0 0.12915094E+03</rscale>
<asrwt>0</asrwt>
<pdfrwt beam="1">  1        5 0.35660699E-02 0.12916297E+03</pdfrwt>
<pdfrwt beam="2">  1       -5 0.15575961E+00 0.12916297E+03</pdfrwt>
<totfact> 0.81626162E+01</totfact>
</mgrwt>
</event>
<event>
 8    1  0.3588496E-007  0.1370392E+03  0.7546771E-02  0.1217373E+00
          5   -1    0    0  501    0  0.00000000000E+00  0.00000000000E+00  0.55257851797E+03  0.55259850572E+03  0.47000000000E+01 0. -1.
         -5   -1    0    0    0  501 -0.00000000000E+00 -0.00000000000E+00 -0.34011071013E+02  0.34334282452E+02  0.47000000000E+01 0. -1.
         25    2    1    2    0    0  0.56140310990E+02  0.32626042538E+00  0.23625128639E+03  0.27311413210E+03  0.12499927147E+03 0.  0.
         25    2    1    2    0    0 -0.56140310990E+02 -0.32626042538E+00  0.28231616056E+03  0.31381865607E+03  0.12501157313E+03 0.  0.
          5    1    4    4  502    0 -0.77738856136E+02 -0.31943877102E+02  0.11745738454E+03  0.14450629128E+03  0.47000000000E+01 0. -1.
         -5    1    4    4    0  502  0.21598545146E+02  0.31617616677E+02  0.16485877603E+03  0.16931236479E+03  0.47000000000E+01 0. -1.
          5    1    3    3  503    0 -0.19613599907E+02 -0.15972793588E+02  0.14006878201E+01  0.25765778907E+02  0.47000000000E+01 0. -1.
         -5    1    3    3    0  503  0.75753910897E+02  0.16299054013E+02  0.23485059857E+03  0.24734835320E+03  0.47000000000E+01 0. -1.
<mgrwt>
<rscale>  0 0.13703637E+03</rscale>
<asrwt>0</asrwt>
<pdfrwt beam="1">  1        5 0.85038480E-01 0.13703917E+03</pdfrwt>
<pdfrwt beam="2">  1       -5 0.52588724E-02 0.13703917E+03</pdfrwt>
<totfact> 0.20267584E+02</totfact>
</mgrwt>
</event>
<event>
 8    1  0.3588496E-007  0.1367512E+03  0.7546771E-02  0.1217769E+00
         -5   -1    0    0    0  501 -0.00000000000E+00  0.00000000000E+00  0.41877976962E+03  0.41880614304E+03  0.47000000000E+01 0. -1.
          5   -1    0    0  501    0  0.00000000000E+00 -0.00000000000E+00 -0.49213353771E+02  0.49437275303E+02  0.47000000000E+01 0. -1.
         25    2    1    2    0    0 -0.40800305468E+02 -0.37546555455E+02  0.25701615992E+03  0.29113260683E+03  0.12500591804E+03 0.  0.
         25    2    1    2    0    0  0.40800305468E+02  0.37546555455E+02  0.11255025593E+03  0.17711081151E+03  0.12500508266E+03 0.  0.
          5    1    3    3  502    0 -0.85667676509E+02 -0.19103432051E+02  0.17102918923E+03  0.19229395592E+03  0.47000000000E+01 0.  1.
         -5    1    3    3    0  502  0.44867371040E+02 -0.18443123405E+02  0.85986970687E+02  0.98838650906E+02  0.47000000000E+01 0.  1.
          5    1    4    4  503    0  0.22461911491E+02 -0.17042622713E+02 -0.18390143036E+02  0.33989348591E+02  0.47000000000E+01 0.  1.
         -5    1    4    4    0  503  0.18338393977E+02  0.54589178168E+02  0.13094039897E+03  0.14312146292E+03  0.47000000000E+01 0.  1.
<mgrwt>
<rscale>  0 0.13675100E+03</rscale>
<asrwt>0</asrwt>
<pdfrwt beam="2">  1        5 0.75905388E-02 0.13675119E+03</pdfrwt>
<pdfrwt beam="1">  1       -5 0.64446909E-01 0.13675119E+03</pdfrwt>
<totfact> 0.20513706E+02</totfact>
</mgrwt>
</event>
<event>
 8    1  0.3588496E-007  0.1555568E+03  0.7546771E-02  0.1193807E+00
         -5   -1    0    0    0  501 -0.00000000000E+00  0.00000000000E+00  0.87958105374E+02  0.88083587013E+02  0.47000000000E+01 0. -1.
          5   -1    0    0  501    0  0.00000000000E+00 -0.00000000000E+00 -0.28038226805E+03  0.28042165793E+03  0.47000000000E+01 0. -1.
         25    2    1    2    0    0  0.37813609169E+02  0.84520789441E+02 -0.70137964225E+02  0.17063774648E+03  0.12499709441E+03 0.  0.
         25    2    1    2    0    0 -0.37813609169E+02 -0.84520789441E+02 -0.12228619845E+03  0.19786749847E+03  0.12499599886E+03 0.  0.
          5    1    3    3  502    0 -0.38573694317E+02  0.14039169428E+02  0.59477601525E+01  0.41743191329E+02  0.47000000000E+01 0.  1.
         -5    1    3    3    0  502  0.76387303486E+02  0.70481620013E+02 -0.76085724377E+02  0.12889455515E+03  0.47000000000E+01 0.  1.
          5    1    4    4  503    0 -0.59728624633E+02 -0.10597048490E+03 -0.80982357696E+02  0.14621041183E+03  0.47000000000E+01 0.  1.
         -5    1    4    4    0  503  0.21915015464E+02  0.21449695459E+02 -0.41303840758E+02  0.51657086634E+02  0.47000000000E+01 0.  1.
<mgrwt>
<rscale>  0 0.15555654E+03</rscale>
<asrwt>0</asrwt>
<pdfrwt beam="2">  1        5 0.43148416E-01 0.15555676E+03</pdfrwt>
<pdfrwt beam="1">  1       -5 0.13544699E-01 0.15555676E+03</pdfrwt>
<totfact> 0.18354890E+02</totfact>
</mgrwt>
</event>
<event>
 8    1  0.3588496E-007  0.1262445E+03  0.7546771E-02  0.1233146E+00
          5   -1    0    0  501    0  0.00000000000E+00  0.00000000000E+00  0.13881570520E+03  0.13889524834E+03  0.47000000000E+01 0. -1.
         -5   -1    0    0    0  501 -0.00000000000E+00 -0.00000000000E+00 -0.11482517213E+03  0.11492132158E+03  0.47000000000E+01 0. -1.
         25    2    1    2    0    0  0.17725220920E+02  0.52668393440E+00  0.67569416381E+01  0.12642520689E+03  0.12499286310E+03 0.  0.
         25    2    1    2    0    0 -0.17725220920E+02 -0.52668393440E+00  0.17233591435E+02  0.12739136302E+03  0.12496840339E+03 0.  0.
          5    1    4    4  502    0 -0.35529187191E+02  0.97213806222E+01 -0.46936581122E+02  0.59849486473E+02  0.47000000000E+01 0.  1.
         -5    1    4    4    0  502  0.17803966271E+02 -0.10248064557E+02  0.64170172557E+02  0.67541876552E+02  0.47000000000E+01 0.  1.
          5    1    3    3  503    0 -0.15789605658E+02  0.52062137834E+02  0.27804101730E+02  0.61277531899E+02  0.47000000000E+01 0. -1.
         -5    1    3    3    0  503  0.33514826578E+02 -0.51535453899E+02 -0.21047160092E+02  0.65147674994E+02  0.47000000000E+01 0. -1.
<mgrwt>
<rscale>  0 0.12623846E+03</rscale>
<asrwt>0</asrwt>
<pdfrwt beam="1">  1        5 0.21369777E-01 0.12624451E+03</pdfrwt>
<pdfrwt beam="2">  1       -5 0.17678926E-01 0.12624451E+03</pdfrwt>
<totfact> 0.42004359E+02</totfact>
</mgrwt>
</event>
<event>
 8    1  0.3588496E-007  0.1671367E+03  0.7546771E-02  0.1180869E+00
         -5   -1    0    0    0  501 -0.00000000000E+00  0.00000000000E+00  0.14502852091E+03  0.14510465836E+03  0.47000000000E+01 0.  1.
          5   -1    0    0  501    0  0.00000000000E+00 -0.00000000000E+00 -0.19312056216E+03  0.19317774595E+03  0.47000000000E+01 0.  1.
         25    2    1    2    0    0 -0.68312700093E+02 -0.87414037908E+02 -0.14096918546E+02  0.16773014684E+03  0.12500735990E+03 0.  0.
         25    2    1    2    0    0  0.68312700093E+02  0.87414037908E+02 -0.33995122709E+02  0.17055225746E+03  0.12499826055E+03 0.  0.
          5    1    4    4  502    0  0.45119109544E+02  0.48330521914E+01  0.37290834681E+02  0.58921887196E+02  0.47000000000E+01 0.  1.
         -5    1    4    4    0  502  0.23193590550E+02  0.82580985717E+02 -0.71285957390E+02  0.11163037027E+03  0.47000000000E+01 0.  1.
          5    1    3    3  503    0 -0.21893582933E+02 -0.41441728965E+00 -0.56130365674E+02  0.60433506154E+02  0.47000000000E+01 0.  1.
         -5    1    3    3    0  503 -0.46419117161E+02 -0.86999620619E+02  0.42033447128E+02  0.10729664069E+03  0.47000000000E+01 0.  1.
<mgrwt>
<rscale>  0 0.16713501E+03</rscale>
<asrwt>0</asrwt>
<pdfrwt beam="2">  1        5 0.29721111E-01 0.16713671E+03</pdfrwt>
<pdfrwt beam="1">  1       -5 0.22322335E-01 0.16713671E+03</pdfrwt>
<totfact> 0.15853786E+02</totfact>
</mgrwt>
</event>
<event>
 8    1  0.3588496E-007  0.1567074E+03  0.7546771E-02  0.1192465E+00
          5   -1    0    0  501    0  0.00000000000E+00  0.00000000000E+00  0.27958378670E+03  0.27962328906E+03  0.47000000000E+01 0. -1.
         -5   -1    0    0    0  501 -0.00000000000E+00 -0.00000000000E+00 -0.93368875946E+02  0.93487095342E+02  0.47000000000E+01 0. -1.
         25    2    1    2    0    0 -0.91979391586E+02 -0.21702426598E+02  0.47284231730E+02  0.16368566421E+03  0.12500397715E+03 0.  0.
         25    2    1    2    0    0  0.91979391586E+02  0.21702426598E+02  0.13893067903E+03  0.20942472019E+03  0.12500310418E+03 0.  0.
          5    1    3    3  502    0 -0.38880021882E+02 -0.72909983285E+02  0.26497062179E+02  0.86900552750E+02  0.47000000000E+01 0.  1.
         -5    1    3    3    0  502 -0.53099369704E+02  0.51207556686E+02  0.20787169550E+02  0.76785111465E+02  0.47000000000E+01 0.  1.
          5    1    4    4  503    0 -0.94711055416E-01  0.54417763336E+02  0.27524617158E+02  0.61163686010E+02  0.47000000000E+01 0.  1.
         -5    1    4    4    0  503  0.92074102642E+02 -0.32715336737E+02  0.11140606187E+03  0.14826103418E+03  0.47000000000E+01 0.  1.
<mgrwt>
<rscale>  0 0.15670719E+03</rscale>
<asrwt>0</asrwt>
<pdfrwt beam="1">  1        5 0.43025023E-01 0.15670736E+03</pdfrwt>
<pdfrwt beam="2">  1       -5 0.14376575E-01 0.15670736E+03</pdfrwt>
<totfact> 0.16623697E+02</totfact>
</mgrwt>
</event>
<event>
 8    1  0.3588496E-007  0.1254587E+03  0.7546771E-02  0.1234358E+00
          5   -1    0    0  501    0  0.00000000000E+00  0.00000000000E+00  0.15128031373E+03  0.15135330628E+03  0.47000000000E+01 0. -1.
         -5   -1    0    0    0  501 -0.00000000000E+00 -0.00000000000E+00 -0.17332238787E+03  0.17338610134E+03  0.47000000000E+01 0. -1.
         25    2    1    2    0    0 -0.83769859535E+01 -0.65052295990E+01 -0.11374621566E+03  0.16933819223E+03  0.12499891946E+03 0.  0.
         25    2    1    2    0    0  0.83769859535E+01  0.65052295990E+01  0.91704141516E+02  0.15540121539E+03  0.12500958470E+03 0.  0.
          5    1    3    3  502    0 -0.48236495907E+02 -0.47140431742E+02 -0.52554036168E+02  0.85632917501E+02  0.47000000000E+01 0.  1.
         -5    1    3    3    0  502  0.39859509953E+02  0.40635202143E+02 -0.61192179493E+02  0.83705274732E+02  0.47000000000E+01 0.  1.
          5    1    4    4  503    0  0.62433341022E+02 -0.12576966486E+02  0.67724248479E+02  0.93084724790E+02  0.47000000000E+01 0.  1.
         -5    1    4    4    0  503 -0.54056355068E+02  0.19082196085E+02  0.23979893037E+02  0.62316490600E+02  0.47000000000E+01 0.  1.
<mgrwt>
<rscale>  0 0.12545605E+03</rscale>
<asrwt>0</asrwt>
<pdfrwt beam="1">  1        5 0.23284410E-01 0.12545871E+03</pdfrwt>
<pdfrwt beam="2">  1       -5 0.26675499E-01 0.12545871E+03</pdfrwt>
<totfact> 0.16437364E+02</totfact>
</mgrwt>
</event>
<event>
 8    1  0.3588496E-007  0.1563334E+03  0.7546771E-02  0.1192900E+00
         -5   -1    0    0    0  501 -0.00000000000E+00  0.00000000000E+00  0.88989311768E+02  0.89113341363E+02  0.47000000000E+01 0. -1.
          5   -1    0    0  501    0  0.00000000000E+00 -0.00000000000E+00 -0.27907133978E+03  0.27911091467E+03  0.47000000000E+01 0. -1.
         25    2    1    2    0    0  0.56220929798E+02  0.75243246960E+02 -0.70980094609E+02  0.17169250064E+03  0.12497120382E+03 0.  0.
         25    2    1    2    0    0 -0.56220929798E+02 -0.75243246960E+02 -0.11910193340E+03  0.19653175539E+03  0.12496848073E+03 0.  0.
          5    1    4    4  502    0 -0.51165349005E+02 -0.32735711490E+02 -0.13696977538E+03  0.14990773534E+03  0.47000000000E+01 0. -1.
         -5    1    4    4    0  502 -0.50555807925E+01 -0.42507535470E+02  0.17867841980E+02  0.46624020054E+02  0.47000000000E+01 0. -1.
          5    1    3    3  503    0  0.37109660844E+02 -0.30686206410E+02 -0.17929263816E+02  0.51597661699E+02  0.47000000000E+01 0. -1.
         -5    1    3    3    0  503  0.19111268954E+02  0.10592945337E+03 -0.53050830793E+02  0.12009483894E+03  0.47000000000E+01 0. -1.
<mgrwt>
<rscale>  0 0.15633288E+03</rscale>
<asrwt>0</asrwt>
<pdfrwt beam="2">  1        5 0.42946637E-01 0.15633343E+03</pdfrwt>
<pdfrwt beam="1">  1       -5 0.13703248E-01 0.15633343E+03</pdfrwt>
<totfact> 0.18179867E+02</totfact>
</mgrwt>
</event>
<event>
 8    1  0.3588496E-007  0.1407567E+03  0.7546771E-02  0.1212317E+00
          5   -1    0    0  501    0  0.00000000000E+00  0.00000000000E+00  0.52419614859E+03  0.52421721852E+03  0.47000000000E+01 0.  1.
         -5   -1    0    0    0  501 -0.00000000000E+00 -0.00000000000E+00 -0.37632198253E+02  0.37924561242E+02  0.47000000000E+01 0.  1.
         25    2    1    2    0    0  0.60739287941E+02 -0.22271982547E+02  0.24701403657E+03  0.28429897885E+03  0.12499869121E+03 0.  0.
         25    2    1    2    0    0 -0.60739287941E+02  0.22271982547E+02  0.23954991376E+03  0.27784280091E+03  0.12500863382E+03 0.  0.
          5    1    4    4  502    0 -0.74264079955E+02 -0.22292749995E+02  0.20626266354E+03  0.22040530085E+03  0.47000000000E+01 0.  1.
         -5    1    4    4    0  502  0.13524792014E+02  0.44564732542E+02  0.33287250220E+02  0.57437500057E+02  0.47000000000E+01 0.  1.
          5    1    3    3  503    0  0.50072781703E+02  0.47211509862E+02  0.14159653665E+03  0.15750517237E+03  0.47000000000E+01 0.  1.
         -5    1    3    3    0  503  0.10666506238E+02 -0.69483492409E+02  0.10541749992E+03  0.12679380648E+03  0.47000000000E+01 0.  1.
<mgrwt>
<rscale>  0 0.14075454E+03</rscale>
<asrwt>0</asrwt>
<pdfrwt beam="1">  1        5 0.80669671E-01 0.14075674E+03</pdfrwt>
<pdfrwt beam="2">  1       -5 0.58136792E-02 0.14075674E+03</pdfrwt>
<totfact> 0.19552844E+02</totfact>
</mgrwt>
</event>
<event>
 8    1  0.3588496E-007  0.1458718E+03  0.7546771E-02  0.1205640E+00
         -5   -1    0    0    0  501 -0.00000000000E+00  0.00000000000E+00  0.49904743928E+03  0.49906957096E+03  0.47000000000E+01 0.  1.
          5   -1    0    0  501    0  0.00000000000E+00 -0.00000000000E+00 -0.71849735252E+02  0.72003294756E+02  0.47000000000E+01 0.  1.
         25    2    1    2    0    0  0.31759357833E+02 -0.68153221143E+02  0.39584935012E+03  0.42187118873E+03  0.12500029409E+03 0.  0.
         25    2    1    2    0    0 -0.31759357833E+02  0.68153221143E+02  0.31348353906E+02  0.14920167698E+03  0.12499961104E+03 0.  0.
          5    1    4    4  502    0 -0.74583183055E+02  0.21898571539E+02 -0.16623939720E+01  0.77891284389E+02  0.47000000000E+01 0.  1.
         -5    1    4    4    0  502  0.42823825222E+02  0.46254649604E+02  0.33010747878E+02  0.71310392595E+02  0.47000000000E+01 0.  1.
          5    1    3    3  503    0  0.76792215373E+02 -0.19509675033E+02  0.22071920214E+03  0.23455644940E+03  0.47000000000E+01 0. -1.
         -5    1    3    3    0  503 -0.45032857540E+02 -0.48643546110E+02  0.17513014798E+03  0.18731473932E+03  0.47000000000E+01 0. -1.
<mgrwt>
<rscale>  0 0.14587169E+03</rscale>
<asrwt>0</asrwt>
<pdfrwt beam="2">  1        5 0.11067320E-01 0.14587183E+03</pdfrwt>
<pdfrwt beam="1">  1       -5 0.76790046E-01 0.14587183E+03</pdfrwt>
<totfact> 0.73347723E+01</totfact>
</mgrwt>
</event>
<event>
 8    1  0.3588496E-007  0.1415111E+03  0.7546771E-02  0.1211330E+00
          5   -1    0    0  501    0  0.00000000000E+00  0.00000000000E+00  0.10976287729E+03  0.10986345722E+03  0.47000000000E+01 0. -1.
         -5   -1    0    0    0  501 -0.00000000000E+00 -0.00000000000E+00 -0.25420286450E+03  0.25424631034E+03  0.47000000000E+01 0. -1.
         25    2    1    2    0    0  0.36517872271E+02 -0.55339253750E+02 -0.16912657191E+03  0.22052027875E+03  0.12501763081E+03 0.  0.
         25    2    1    2    0    0 -0.36517872271E+02  0.55339253750E+02  0.24686584702E+02  0.14358948880E+03  0.12495009336E+03 0.  0.
          5    1    4    4  502    0  0.34326214419E+02 -0.10746243294E+02 -0.14380549698E+02  0.39021288432E+02  0.47000000000E+01 0.  1.
         -5    1    4    4    0  502 -0.70844086690E+02  0.66085497044E+02  0.39067134400E+02  0.10456820037E+03  0.47000000000E+01 0.  1.
          5    1    3    3  503    0  0.19624055887E+02 -0.84845457530E+02 -0.59319899438E+02  0.10547414708E+03  0.47000000000E+01 0.  1.
         -5    1    3    3    0  503  0.16893816384E+02  0.29506203780E+02 -0.10980667247E+03  0.11504613167E+03  0.47000000000E+01 0.  1.
<mgrwt>
<rscale>  0 0.14149620E+03</rscale>
<asrwt>0</asrwt>
<pdfrwt beam="1">  1        5 0.16897675E-01 0.14151112E+03</pdfrwt>
<pdfrwt beam="2">  1       -5 0.39119212E-01 0.14151112E+03</pdfrwt>
<totfact> 0.14574967E+02</totfact>
</mgrwt>
</event>
<event>
 8    1  0.3588496E-007  0.1327026E+03  0.7546771E-02  0.1223520E+00
         -5   -1    0    0    0  501 -0.00000000000E+00  0.00000000000E+00  0.12344442678E+03  0.12353386784E+03  0.47000000000E+01 0. -1.
          5   -1    0    0  501    0  0.00000000000E+00 -0.00000000000E+00 -0.14358553680E+03  0.14366243900E+03  0.47000000000E+01 0. -1.
         25    2    1    2    0    0  0.70340581168E+01  0.43820188256E+02  0.19789249604E+01  0.13271732413E+03  0.12506112548E+03 0.  0.
         25    2    1    2    0    0 -0.70340581168E+01 -0.43820188256E+02 -0.22120034986E+02  0.13447898271E+03  0.12500245586E+03 0.  0.
          5    1    3    3  502    0  0.20224351478E+02  0.82154959840E+02  0.21579175913E+02  0.87442624915E+02  0.47000000000E+01 0.  1.
         -5    1    3    3    0  502 -0.13190293361E+02 -0.38334771584E+02 -0.19600250952E+02  0.45274699212E+02  0.47000000000E+01 0.  1.
          5    1    4    4  503    0  0.52698600646E+02 -0.26698382120E+02 -0.37709766633E+02  0.70242883037E+02  0.47000000000E+01 0. -1.
         -5    1    4    4    0  503 -0.59732658763E+02 -0.17121806136E+02  0.15589731647E+02  0.64236099672E+02  0.47000000000E+01 0. -1.
<mgrwt>
<rscale>  0 0.13268874E+03</rscale>
<asrwt>0</asrwt>
<pdfrwt beam="2">  1        5 0.22102878E-01 0.13270257E+03</pdfrwt>
<pdfrwt beam="1">  1       -5 0.19004246E-01 0.13270257E+03</pdfrwt>
<totfact> 0.35136961E+02</totfact>
</mgrwt>
</event>
<event>
 8    1  0.3588496E-007  0.1293347E+03  0.7546771E-02  0.1228448E+00
          5   -1    0    0  501    0  0.00000000000E+00  0.00000000000E+00  0.13428856487E+03  0.13437078795E+03  0.47000000000E+01 0. -1.
         -5   -1    0    0    0  501 -0.00000000000E+00 -0.00000000000E+00 -0.18566911726E+03  0.18572859528E+03  0.47000000000E+01 0. -1.
         25    2    1    2    0    0 -0.26571206605E+02  0.19897216654E+02 -0.11759562853E+03  0.17480332099E+03  0.12500216369E+03 0.  0.
         25    2    1    2    0    0  0.26571206605E+02 -0.19897216654E+02  0.66215076132E+02  0.14529606224E+03  0.12499832457E+03 0.  0.
          5    1    4    4  502    0 -0.38571367627E+02 -0.18767458793E+02 -0.10627710929E+02  0.44441041276E+02  0.47000000000E+01 0. -1.
         -5    1    4    4    0  502  0.65142574232E+02 -0.11297578612E+01  0.76842787061E+02  0.10085502096E+03  0.47000000000E+01 0. -1.
          5    1    3    3  503    0 -0.89516532583E+00  0.24107213855E+02  0.21842394267E+02  0.32880682294E+02  0.47000000000E+01 0.  1.
         -5    1    3    3    0  503 -0.25676041279E+02 -0.42099972007E+01 -0.13943802280E+03  0.14192263869E+03  0.47000000000E+01 0.  1.
<mgrwt>
<rscale>  0 0.12933379E+03</rscale>
<asrwt>0</asrwt>
<pdfrwt beam="1">  1        5 0.20670679E-01 0.12933472E+03</pdfrwt>
<pdfrwt beam="2">  1       -5 0.28575379E-01 0.12933472E+03</pdfrwt>
<totfact> 0.18198191E+02</totfact>
</mgrwt>
</event>
<event>
 8    1  0.3588496E-007  0.1391093E+03  0.7546771E-02  0.1214534E+00
          5   -1    0    0  501    0  0.00000000000E+00  0.00000000000E+00  0.76475738405E+02  0.76620027177E+02  0.47000000000E+01 0. -1.
         -5   -1    0    0    0  501 -0.00000000000E+00 -0.00000000000E+00 -0.25266187656E+03  0.25270558733E+03  0.47000000000E+01 0. -1.
         25    2    1    2    0    0  0.34651668511E+02 -0.50243043934E+02 -0.90085642628E+02  0.16573113190E+03  0.12500513380E+03 0.  0.
         25    2    1    2    0    0 -0.34651668511E+02  0.50243043934E+02 -0.86100495529E+02  0.16359448261E+03  0.12499903126E+03 0.  0.
          5    1    3    3  502    0  0.11286478387E+01 -0.21053427169E+02  0.30359222016E+02  0.37259804118E+02  0.47000000000E+01 0.  1.
         -5    1    3    3    0  502  0.33523020672E+02 -0.29189616765E+02 -0.12044486464E+03  0.12847132778E+03  0.47000000000E+01 0.  1.
          5    1    4    4  503    0  0.45032415636E+02  0.36053424989E+02 -0.39646722733E+02  0.70154975126E+02  0.47000000000E+01 0.  1.
         -5    1    4    4    0  503 -0.79684084147E+02  0.14189618945E+02 -0.46453772796E+02  0.93439507485E+02  0.47000000000E+01 0.  1.
<mgrwt>
<rscale>  0 0.13910788E+03</rscale>
<asrwt>0</asrwt>
<pdfrwt beam="1">  1        5 0.11779960E-01 0.13910926E+03</pdfrwt>
<pdfrwt beam="2">  1       -5 0.38885519E-01 0.13910926E+03</pdfrwt>
<totfact> 0.28089716E+02</totfact>
</mgrwt>
</event>
<event>
 8    1  0.3588496E-007  0.1298320E+03  0.7546771E-02  0.1227714E+00
          5   -1    0    0  501    0  0.00000000000E+00  0.00000000000E+00  0.18297579254E+03  0.18303614577E+03  0.47000000000E+01 0. -1.
         -5   -1    0    0    0  501 -0.00000000000E+00 -0.00000000000E+00 -0.99937996654E+02  0.10004845414E+03  0.47000000000E+01 0. -1.
         25    2    1    2    0    0 -0.25079284247E+02 -0.24424804543E+02  0.15853413885E+01  0.12981736456E+03  0.12499797302E+03 0.  0.
         25    2    1    2    0    0  0.25079284247E+02  0.24424804543E+02  0.81452454502E+02  0.15326723534E+03  0.12502320389E+03 0.  0.
          5    1    3    3  502    0  0.82534509593E+01 -0.56961277994E+02  0.39171650773E+02  0.69779759728E+02  0.47000000000E+01 0.  1.
         -5    1    3    3    0  502 -0.33332735206E+02  0.32536473451E+02 -0.37586309384E+02  0.60037604833E+02  0.47000000000E+01 0.  1.
          5    1    4    4  503    0  0.65983093728E+01  0.75164542636E+02  0.45884303108E+02  0.88434752377E+02  0.47000000000E+01 0.  1.
         -5    1    4    4    0  503  0.18480974874E+02 -0.50739738093E+02  0.35568151394E+02  0.64832482966E+02  0.47000000000E+01 0.  1.
<mgrwt>
<rscale>  0 0.12982591E+03</rscale>
<asrwt>0</asrwt>
<pdfrwt beam="1">  1        5 0.28163261E-01 0.12983198E+03</pdfrwt>
<pdfrwt beam="2">  1       -5 0.15388216E-01 0.12983198E+03</pdfrwt>
<totfact> 0.32275396E+02</totfact>
</mgrwt>
</event>
<event>
 8    1  0.3588496E-007  0.1391167E+03  0.7546771E-02  0.1214523E+00
         -5   -1    0    0    0  501 -0.00000000000E+00  0.00000000000E+00  0.60932014301E+03  0.60933826950E+03  0.47000000000E+01 0.  1.
          5   -1    0    0  501    0  0.00000000000E+00 -0.00000000000E+00 -0.31685678195E+02  0.32032361803E+02  0.47000000000E+01 0.  1.
         25    2    1    2    0    0 -0.40921366857E+02 -0.45316483871E+02  0.30812988083E+03  0.33807910676E+03  0.12500126794E+03 0.  0.
         25    2    1    2    0    0  0.40921366857E+02  0.45316483871E+02  0.26950458398E+03  0.30329152455E+03  0.12499954440E+03 0.  0.
          5    1    4    4  502    0 -0.24122130892E+02 -0.19299977181E+02  0.19183494313E+02  0.36666916587E+02  0.47000000000E+01 0. -1.
         -5    1    4    4    0  502  0.65043497749E+02  0.64616461052E+02  0.25032108967E+03  0.26662460796E+03  0.47000000000E+01 0. -1.
          5    1    3    3  503    0  0.35953944831E+02 -0.50117094804E+02  0.14315322365E+03  0.15594660876E+03  0.47000000000E+01 0.  1.
         -5    1    3    3    0  503 -0.76875311688E+02  0.48006109330E+01  0.16497665718E+03  0.18213249800E+03  0.47000000000E+01 0.  1.
<mgrwt>
<rscale>  0 0.13911632E+03</rscale>
<asrwt>0</asrwt>
<pdfrwt beam="2">  1        5 0.49027820E-02 0.13911671E+03</pdfrwt>
<pdfrwt beam="1">  1       -5 0.93769623E-01 0.13911671E+03</pdfrwt>
<totfact> 0.18158090E+02</totfact>
</mgrwt>
</event>
<event>
 8    1  0.3588496E-007  0.1473646E+03  0.7546771E-02  0.1203755E+00
         -5   -1    0    0    0  501 -0.00000000000E+00  0.00000000000E+00  0.38968040083E+02  0.39250454111E+02  0.47000000000E+01 0.  1.
          5   -1    0    0  501    0  0.00000000000E+00 -0.00000000000E+00 -0.55507052629E+03  0.55509042431E+03  0.47000000000E+01 0.  1.
         25    2    1    2    0    0 -0.76875768747E+02  0.13406001568E+02 -0.26316812767E+03  0.30161863748E+03  0.12500693724E+03 0.  0.
         25    2    1    2    0    0  0.76875768747E+02 -0.13406001568E+02 -0.25293435854E+03  0.29272224093E+03  0.12498366257E+03 0.  0.
          5    1    4    4  502    0 -0.93603505237E+00  0.33293585311E+02 -0.12835661050E+02  0.36002544064E+02  0.47000000000E+01 0. -1.
         -5    1    4    4    0  502  0.77811803800E+02 -0.46699586879E+02 -0.24009869749E+03  0.25671969687E+03  0.47000000000E+01 0. -1.
          5    1    3    3  503    0  0.12321400149E+02  0.41467441438E+02 -0.14185250356E+03  0.14837650881E+03  0.47000000000E+01 0. -1.
         -5    1    3    3    0  503 -0.89197168897E+02 -0.28061439870E+02 -0.12131562411E+03  0.15324212867E+03  0.47000000000E+01 0. -1.
<mgrwt>
<rscale>  0 0.14735971E+03</rscale>
<asrwt>0</asrwt>
<pdfrwt beam="2">  1        5 0.85418714E-01 0.14736465E+03</pdfrwt>
<pdfrwt beam="1">  1       -5 0.60183383E-02 0.14736465E+03</pdfrwt>
<totfact> 0.16387089E+02</totfact>
</mgrwt>
</event>
<event>
 8    1  0.3588496E-007  0.1382796E+03  0.7546771E-02  0.1215664E+00
         -5   -1    0    0    0  501 -0.00000000000E+00  0.00000000000E+00  0.56158725583E+03  0.56160692296E+03  0.47000000000E+01 0.  1.
          5   -1    0    0  501    0  0.00000000000E+00 -0.00000000000E+00 -0.37219304704E+02  0.37514885614E+02  0.47000000000E+01 0.  1.
         25    2    1    2    0    0 -0.10288407946E+02  0.58225407347E+02  0.35171366372E+03  0.37791884183E+03  0.12499640142E+03 0.  0.
         25    2    1    2    0    0  0.10288407946E+02 -0.58225407347E+02  0.17265428741E+03  0.22120296674E+03  0.12500080053E+03 0.  0.
          5    1    4    4  502    0 -0.29603598273E+02 -0.20142908955E+02  0.16052680445E+03  0.16453891564E+03  0.47000000000E+01 0. -1.
         -5    1    4    4    0  502  0.39892006220E+02 -0.38082498391E+02  0.12127482957E+02  0.56664051098E+02  0.47000000000E+01 0. -1.
          5    1    3    3  503    0 -0.13869504278E+02  0.97473471210E+02  0.25347523286E+03  0.27196548386E+03  0.47000000000E+01 0. -1.
         -5    1    3    3    0  503  0.35810963311E+01 -0.39248063863E+02  0.98238430859E+02  0.10595335797E+03  0.47000000000E+01 0. -1.
<mgrwt>
<rscale>  0 0.13827861E+03</rscale>
<asrwt>0</asrwt>
<pdfrwt beam="2">  1        5 0.57502967E-02 0.13827961E+03</pdfrwt>
<pdfrwt beam="1">  1       -5 0.86422289E-01 0.13827961E+03</pdfrwt>
<totfact> 0.16858319E+02</totfact>
</mgrwt>
</event>
<event>
 8    1  0.3588496E-007  0.1342286E+03  0.7546771E-02  0.1221319E+00
         -5   -1    0    0    0  501 -0.00000000000E+00  0.00000000000E+00  0.16889379363E+02  0.17531147574E+02  0.47000000000E+01 0.  1.
          5   -1    0    0  501    0  0.00000000000E+00 -0.00000000000E+00 -0.11079836397E+04  0.11079936082E+04  0.47000000000E+01 0.  1.
         25    2    1    2    0    0 -0.41901854020E+02  0.25219636311E+02 -0.41256058564E+03  0.43384183165E+03  0.12498280937E+03 0.  0.
         25    2    1    2    0    0  0.41901854020E+02 -0.25219636311E+02 -0.67853367466E+03  0.69168292410E+03  0.12500209767E+03 0.  0.
          5    1    3    3  502    0  0.34975763414E+02 -0.37153267103E+01 -0.24070041646E+03  0.24330205130E+03  0.47000000000E+01 0.  1.
         -5    1    3    3    0  502 -0.76877617434E+02  0.28934963021E+02 -0.17186016917E+03  0.19053978035E+03  0.47000000000E+01 0.  1.
          5    1    4    4  503    0  0.81921503212E+02  0.22368208444E+01 -0.34664943063E+03  0.35623595244E+03  0.47000000000E+01 0.  1.
         -5    1    4    4    0  503 -0.40019649191E+02 -0.27456457155E+02 -0.33188424403E+03  0.33544697166E+03  0.47000000000E+01 0.  1.
<mgrwt>
<rscale>  0 0.13422412E+03</rscale>
<asrwt>0</asrwt>
<pdfrwt beam="2">  1        5 0.17050910E+00 0.13422861E+03</pdfrwt>
<pdfrwt beam="1">  1       -5 0.26485005E-02 0.13422861E+03</pdfrwt>
<totfact> 0.10356084E+02</totfact>
</mgrwt>
</event>
<event>
 8    1  0.3588496E-007  0.1357423E+03  0.7546771E-02  0.1219176E+00
         -5   -1    0    0    0  501 -0.00000000000E+00  0.00000000000E+00  0.64422760257E+03  0.64424474691E+03  0.47000000000E+01 0. -1.
          5   -1    0    0  501    0  0.00000000000E+00 -0.00000000000E+00 -0.28396164743E+02  0.28782497670E+02  0.47000000000E+01 0. -1.
         25    2    1    2    0    0 -0.26262106307E+02  0.45947959187E+02  0.31258128839E+03  0.34078295836E+03  0.12500019872E+03 0.  0.
         25    2    1    2    0    0  0.26262106307E+02 -0.45947959187E+02  0.30325014945E+03  0.33224428622E+03  0.12499879761E+03 0.  0.
          5    1    3    3  502    0  0.43117952000E+02 -0.38882326756E+01  0.60229845653E+02  0.74323619701E+02  0.47000000000E+01 0.  1.
         -5    1    3    3    0  502 -0.69380058307E+02  0.49836191862E+02  0.25235144273E+03  0.26645933866E+03  0.47000000000E+01 0.  1.
          5    1    4    4  503    0 -0.79652723995E+01 -0.69195193813E+02  0.27022365262E+03  0.27909556221E+03  0.47000000000E+01 0.  1.
         -5    1    4    4    0  503  0.34227378706E+02  0.23247234626E+02  0.33026496829E+02  0.53148724008E+02  0.47000000000E+01 0.  1.
<mgrwt>
<rscale>  0 0.13574194E+03</rscale>
<asrwt>0</asrwt>
<pdfrwt beam="2">  1        5 0.43996775E-02 0.13574227E+03</pdfrwt>
<pdfrwt beam="1">  1       -5 0.99142975E-01 0.13574227E+03</pdfrwt>
<totfact> 0.18837983E+02</totfact>
</mgrwt>
</event>
<event>
 8    1  0.3588496E-007  0.1407355E+03  0.7546771E-02  0.1212345E+00
         -5   -1    0    0    0  501 -0.00000000000E+00  0.00000000000E+00  0.60863811879E+03  0.60865626559E+03  0.47000000000E+01 0.  1.
          5   -1    0    0  501    0  0.00000000000E+00 -0.00000000000E+00 -0.55306758351E+02  0.55506103442E+02  0.47000000000E+01 0.  1.
         25    2    1    2    0    0 -0.63179849378E+02  0.13715411267E+02  0.49004567568E+03  0.50985241825E+03  0.12499967305E+03 0.  0.
         25    2    1    2    0    0  0.63179849378E+02 -0.13715411267E+02  0.63285684757E+02  0.15430995079E+03  0.12500670839E+03 0.  0.
          5    1    3    3  502    0 -0.51824297991E+02  0.23630799697E+02  0.49072991569E+03  0.49404667058E+03  0.47000000000E+01 0.  1.
         -5    1    3    3    0  502 -0.11355551387E+02 -0.99153884292E+01 -0.68424000652E+00  0.15805747669E+02  0.47000000000E+01 0.  1.
          5    1    4    4  503    0  0.54579481427E+02 -0.47466622640E+02 -0.98660427397E+01  0.73153461005E+02  0.47000000000E+01 0.  1.
         -5    1    4    4    0  503  0.86003679507E+01  0.33751211373E+02  0.73151727496E+02  0.81156489782E+02  0.47000000000E+01 0.  1.
<mgrwt>
<rscale>  0 0.14073395E+03</rscale>
<asrwt>0</asrwt>
<pdfrwt beam="2">  1        5 0.85254621E-02 0.14073551E+03</pdfrwt>
<pdfrwt beam="1">  1       -5 0.93653365E-01 0.14073551E+03</pdfrwt>
<totfact> 0.71760399E+01</totfact>
</mgrwt>
</event>
<event>
 8    1  0.3588496E-007  0.1345632E+03  0.7546771E-02  0.1220838E+00
          5   -1    0    0  501    0  0.00000000000E+00  0.00000000000E+00  0.57268604794E+02  0.57461144220E+02  0.47000000000E+01 0. -1.
         -5   -1    0    0    0  501 -0.00000000000E+00 -0.00000000000E+00 -0.35291411091E+03  0.35294540609E+03  0.47000000000E+01 0. -1.
         25    2    1    2    0    0  0.96720045817E+01 -0.48866427490E+02 -0.21466889118E+03  0.25335728499E+03  0.12500282240E+03 0.  0.
         25    2    1    2    0    0 -0.96720045817E+01  0.48866427490E+02 -0.80976614936E+02  0.15704926532E+03  0.12500313661E+03 0.  0.
          5    1    3    3  502    0 -0.37210564322E+01 -0.63664349796E+02 -0.35737241384E+02  0.73254597928E+02  0.47000000000E+01 0.  1.
         -5    1    3    3    0  502  0.13393061014E+02  0.14797922306E+02 -0.17893164979E+03  0.18010268706E+03  0.47000000000E+01 0.  1.
          5    1    4    4  503    0  0.48709260038E+02  0.34325097739E+02 -0.75723940201E+02  0.96472843162E+02  0.47000000000E+01 0.  1.
         -5    1    4    4    0  503 -0.58381264620E+02  0.14541329752E+02 -0.52526747347E+01  0.60576422158E+02  0.47000000000E+01 0.  1.
<mgrwt>
<rscale>  0 0.13456314E+03</rscale>
<asrwt>0</asrwt>
<pdfrwt beam="1">  1        5 0.88277728E-02 0.13456322E+03</pdfrwt>
<pdfrwt beam="2">  1       -5 0.54311695E-01 0.13456322E+03</pdfrwt>
<totfact> 0.22869419E+02</totfact>
</mgrwt>
</event>
<event>
 8    1  0.3588496E-007  0.1409763E+03  0.7546771E-02  0.1212022E+00
         -5   -1    0    0    0  501 -0.00000000000E+00  0.00000000000E+00  0.21612869145E+03  0.21617978922E+03  0.47000000000E+01 0.  1.
          5   -1    0    0  501    0  0.00000000000E+00 -0.00000000000E+00 -0.91995921883E+02  0.92115903313E+02  0.47000000000E+01 0.  1.
         25    2    1    2    0    0  0.86698220715E+01 -0.64605885326E+02  0.55587389072E+02  0.15153970141E+03  0.12500094818E+03 0.  0.
         25    2    1    2    0    0 -0.86698220715E+01  0.64605885326E+02  0.68545380497E+02  0.15675599113E+03  0.12499954134E+03 0.  0.
          5    1    3    3  502    0  0.49428886194E+02 -0.50733031364E+02 -0.11273458064E+02  0.71876533851E+02  0.47000000000E+01 0. -1.
         -5    1    3    3    0  502 -0.40759064122E+02 -0.13872853963E+02  0.66860847136E+02  0.79663167555E+02  0.47000000000E+01 0. -1.
          5    1    4    4  503    0 -0.44579228488E+02 -0.19589392138E+02  0.18279988701E+02  0.52223556791E+02  0.47000000000E+01 0.  1.
         -5    1    4    4    0  503  0.35909406417E+02  0.84195277465E+02  0.50265391796E+02  0.10453243434E+03  0.47000000000E+01 0.  1.
<mgrwt>
<rscale>  0 0.14097601E+03</rscale>
<asrwt>0</asrwt>
<pdfrwt beam="2">  1        5 0.14166379E-01 0.14097632E+03</pdfrwt>
<pdfrwt beam="1">  1       -5 0.33263727E-01 0.14097632E+03</pdfrwt>
<totfact> 0.27799648E+02</totfact>
</mgrwt>
</event>
<event>
 8    1  0.3588496E-007  0.1295844E+03  0.7546771E-02  0.1228076E+00
         -5   -1    0    0    0  501 -0.00000000000E+00  0.00000000000E+00  0.16077602445E+03  0.16084470783E+03  0.47000000000E+01 0.  1.
          5   -1    0    0  501    0  0.00000000000E+00 -0.00000000000E+00 -0.10467172846E+03  0.10477719570E+03  0.47000000000E+01 0.  1.
         25    2    1    2    0    0 -0.33842506539E+02  0.48353110797E+01  0.36007475894E+02  0.13449405926E+03  0.12499367253E+03 0.  0.
         25    2    1    2    0    0  0.33842506539E+02 -0.48353110797E+01  0.20096820102E+02  0.13112784427E+03  0.12498773493E+03 0.  0.
          5    1    4    4  502    0  0.72583747522E+02  0.27345348521E+02  0.21155223434E+02  0.80534476894E+02  0.47000000000E+01 0. -1.
         -5    1    4    4    0  502 -0.38741240983E+02 -0.32180659600E+02 -0.10584033313E+01  0.50593367380E+02  0.47000000000E+01 0. -1.
          5    1    3    3  503    0 -0.77734766139E+01  0.16545360535E+01 -0.46692698841E+02  0.47596875457E+02  0.47000000000E+01 0. -1.
         -5    1    3    3    0  503 -0.26069029926E+02  0.31807750262E+01  0.82700174735E+02  0.86897183799E+02  0.47000000000E+01 0. -1.
<mgrwt>
<rscale>  0 0.12958296E+03</rscale>
<asrwt>0</asrwt>
<pdfrwt beam="2">  1        5 0.16116739E-01 0.12958439E+03</pdfrwt>
<pdfrwt beam="1">  1       -5 0.24748169E-01 0.12958439E+03</pdfrwt>
<totfact> 0.38041726E+02</totfact>
</mgrwt>
</event>
<event>
 8    1  0.3588496E-007  0.1388692E+03  0.7546771E-02  0.1214860E+00
         -5   -1    0    0    0  501 -0.00000000000E+00  0.00000000000E+00  0.20810070159E+02  0.21334221805E+02  0.47000000000E+01 0. -1.
          5   -1    0    0  501    0  0.00000000000E+00 -0.00000000000E+00 -0.10724211817E+04  0.10724314808E+04  0.47000000000E+01 0. -1.
         25    2    1    2    0    0 -0.25720874815E+02 -0.54745586127E+02 -0.31608244332E+03  0.34524307183E+03  0.12500410021E+03 0.  0.
         25    2    1    2    0    0  0.25720874815E+02  0.54745586127E+02 -0.73552866826E+03  0.74852263079E+03  0.12500025748E+03 0.  0.
          5    1    4    4  502    0  0.34739134708E+02 -0.28687755159E+02 -0.40292517008E+03  0.40546341076E+03  0.47000000000E+01 0.  1.
         -5    1    4    4    0  502 -0.90182598936E+01  0.83433341286E+02 -0.33260349817E+03  0.34305922003E+03  0.47000000000E+01 0.  1.
          5    1    3    3  503    0  0.31073028794E+02 -0.47540873575E+02 -0.59816273243E+02  0.82618062936E+02  0.47000000000E+01 0.  1.
         -5    1    3    3    0  503 -0.56793903608E+02 -0.72047125521E+01 -0.25626617007E+03  0.26262500889E+03  0.47000000000E+01 0.  1.
<mgrwt>
<rscale>  0 0.13886838E+03</rscale>
<asrwt>0</asrwt>
<pdfrwt beam="2">  1        5 0.16502894E+00 0.13886925E+03</pdfrwt>
<pdfrwt beam="1">  1       -5 0.32426617E-02 0.13886925E+03</pdfrwt>
<totfact> 0.82854422E+01</totfact>
</mgrwt>
</event>
<event>
 8    1  0.3588496E-007  0.1297566E+03  0.7546771E-02  0.1227819E+00
         -5   -1    0    0    0  501 -0.00000000000E+00  0.00000000000E+00  0.24346235510E+03  0.24350771723E+03  0.47000000000E+01 0.  1.
          5   -1    0    0  501    0  0.00000000000E+00 -0.00000000000E+00 -0.71971022322E+02  0.72124323595E+02  0.47000000000E+01 0.  1.
         25    2    1    2    0    0 -0.25642728653E+02  0.23520562041E+02  0.11764870407E+03  0.17514787103E+03  0.12499917114E+03 0.  0.
         25    2    1    2    0    0  0.25642728653E+02 -0.23520562041E+02  0.53842628704E+02  0.14048416979E+03  0.12500402763E+03 0.  0.
          5    1    4    4  502    0  0.39076716976E+02 -0.60836182330E+02  0.66745037722E+02  0.98514064735E+02  0.47000000000E+01 0. -1.
         -5    1    4    4    0  502 -0.13433988323E+02  0.37315620289E+02 -0.12902409018E+02  0.41970105055E+02  0.47000000000E+01 0. -1.
          5    1    3    3  503    0 -0.48128258404E+02  0.65365064516E+02  0.65133437291E+02  0.10417953527E+03  0.47000000000E+01 0. -1.
         -5    1    3    3    0  503  0.22485529751E+02 -0.41844502476E+02  0.52515266782E+02  0.70968335762E+02  0.47000000000E+01 0. -1.
<mgrwt>
<rscale>  0 0.12975542E+03</rscale>
<asrwt>0</asrwt>
<pdfrwt beam="2">  1        5 0.11087747E-01 0.12975659E+03</pdfrwt>
<pdfrwt beam="1">  1       -5 0.37471028E-01 0.12975659E+03</pdfrwt>
<totfact> 0.32887897E+02</totfact>
</mgrwt>
</event>
<event>
 8    1  0.3588496E-007  0.1469664E+03  0.7546771E-02  0.1204251E+00
          5   -1    0    0  501    0  0.00000000000E+00  0.00000000000E+00  0.29764392683E+03  0.29768103261E+03  0.47000000000E+01 0. -1.
         -5   -1    0    0    0  501 -0.00000000000E+00 -0.00000000000E+00 -0.74214184125E+02  0.74362861196E+02  0.47000000000E+01 0. -1.
         25    2    1    2    0    0  0.52660413034E+02  0.56580773627E+02  0.83057774243E+02  0.16881268924E+03  0.12499850856E+03 0.  0.
         25    2    1    2    0    0 -0.52660413034E+02 -0.56580773627E+02  0.14037196846E+03  0.20323120457E+03  0.12499651969E+03 0.  0.
          5    1    4    4  502    0 -0.58510580831E+02 -0.13745877248E+01  0.13505259958E+03  0.14726395423E+03  0.47000000000E+01 0. -1.
         -5    1    4    4    0  502  0.58501677973E+01 -0.55206185902E+02  0.53193688751E+01  0.55967250338E+02  0.47000000000E+01 0. -1.
          5    1    3    3  503    0  0.48846415224E+02  0.48047697114E+01 -0.20088741695E+02  0.53241953712E+02  0.47000000000E+01 0. -1.
         -5    1    3    3    0  503  0.38139978099E+01  0.51776003916E+02  0.10314651594E+03  0.11557073553E+03  0.47000000000E+01 0. -1.
<mgrwt>
<rscale>  0 0.14696600E+03</rscale>
<asrwt>0</asrwt>
<pdfrwt beam="1">  1        5 0.45805665E-01 0.14696643E+03</pdfrwt>
<pdfrwt beam="2">  1       -5 0.11431858E-01 0.14696643E+03</pdfrwt>
<totfact> 0.21517298E+02</totfact>
</mgrwt>
</event>
<event>
 8    1  0.3588496E-007  0.1290571E+03  0.7546771E-02  0.1228862E+00
         -5   -1    0    0    0  501 -0.00000000000E+00  0.00000000000E+00  0.63147702276E+02  0.63322368108E+02  0.47000000000E+01 0.  1.
          5   -1    0    0  501    0  0.00000000000E+00 -0.00000000000E+00 -0.26790786648E+03  0.26794909017E+03  0.47000000000E+01 0.  1.
         25    2    1    2    0    0  0.17077000730E+00 -0.32099819108E+02 -0.80426244791E+02  0.15206617918E+03  0.12500125779E+03 0.  0.
         25    2    1    2    0    0 -0.17077000730E+00  0.32099819108E+02 -0.12433391941E+03  0.17920527910E+03  0.12500072396E+03 0.  0.
          5    1    4    4  502    0 -0.22304085805E+02 -0.18355411200E+02 -0.12024792062E+03  0.12375801298E+03  0.47000000000E+01 0. -1.
         -5    1    4    4    0  502  0.22133315797E+02  0.50455230308E+02 -0.40859987936E+01  0.55447266116E+02  0.47000000000E+01 0. -1.
          5    1    3    3  503    0  0.11321477889E+02 -0.53398838851E+02 -0.10432918387E+03  0.11784006305E+03  0.47000000000E+01 0. -1.
         -5    1    3    3    0  503 -0.11150707881E+02  0.21299019743E+02  0.23902939083E+02  0.34226116126E+02  0.47000000000E+01 0. -1.
<mgrwt>
<rscale>  0 0.12905700E+03</rscale>
<asrwt>0</asrwt>
<pdfrwt beam="2">  1        5 0.41233201E-01 0.12905713E+03</pdfrwt>
<pdfrwt beam="1">  1       -5 0.97316381E-02 0.12905713E+03</pdfrwt>
<totfact> 0.33931720E+02</totfact>
</mgrwt>
</event>
<event>
 8    1  0.3588496E-007  0.1371870E+03  0.7546771E-02  0.1217169E+00
         -5   -1    0    0    0  501 -0.00000000000E+00  0.00000000000E+00  0.64512218301E+02  0.64683199597E+02  0.47000000000E+01 0. -1.
          5   -1    0    0  501    0  0.00000000000E+00 -0.00000000000E+00 -0.30663728677E+03  0.30667330441E+03  0.47000000000E+01 0. -1.
         25    2    1    2    0    0 -0.55545083084E+02  0.10469854878E+02 -0.79329853452E+02  0.15847240617E+03  0.12500161500E+03 0.  0.
         25    2    1    2    0    0  0.55545083084E+02 -0.10469854878E+02 -0.16279521502E+03  0.21288409784E+03  0.12498993145E+03 0.  0.
          5    1    3    3  502    0 -0.62498517541E+02  0.15633308578E+02 -0.10927959596E+03  0.12694323584E+03  0.47000000000E+01 0. -1.
         -5    1    3    3    0  502  0.69534344568E+01 -0.51634536998E+01  0.29949742512E+02  0.31529170325E+02  0.47000000000E+01 0. -1.
          5    1    4    4  503    0  0.66380449583E+02  0.29350891305E+02 -0.15416660609E+03  0.17046193517E+03  0.47000000000E+01 0. -1.
         -5    1    4    4    0  503 -0.10835366499E+02 -0.39820746183E+02 -0.86286089236E+01  0.42422162671E+02  0.47000000000E+01 0. -1.
<mgrwt>
<rscale>  0 0.13718436E+03</rscale>
<asrwt>0</asrwt>
<pdfrwt beam="2">  1        5 0.47190889E-01 0.13718702E+03</pdfrwt>
<pdfrwt beam="1">  1       -5 0.99408799E-02 0.13718702E+03</pdfrwt>
<totfact> 0.25246037E+02</totfact>
</mgrwt>
</event>
<event>
 8    1  0.3588496E-007  0.1417102E+03  0.7546771E-02  0.1211048E+00
          5   -1    0    0  501    0  0.00000000000E+00  0.00000000000E+00  0.82910000618E+02  0.83043110505E+02  0.47000000000E+01 0. -1.
         -5   -1    0    0    0  501 -0.00000000000E+00 -0.00000000000E+00 -0.28228915017E+03  0.28232827400E+03  0.47000000000E+01 0. -1.
         25    2    1    2    0    0 -0.56928515669E+02 -0.34857321326E+02 -0.16881017828E+03  0.22040161579E+03  0.12499642877E+03 0.  0.
         25    2    1    2    0    0  0.56928515669E+02  0.34857321326E+02 -0.30568971270E+02  0.14496976872E+03  0.12500353232E+03 0.  0.
          5    1    4    4  502    0  0.48405945591E+02  0.19726284300E+02 -0.78129637237E+02  0.94120093899E+02  0.47000000000E+01 0. -1.
         -5    1    4    4    0  502  0.85225700782E+01  0.15131037026E+02  0.47560665967E+02  0.50849674821E+02  0.47000000000E+01 0. -1.
          5    1    3    3  503    0 -0.24015463218E+02 -0.80496091868E+02 -0.87281959177E+02  0.12122950828E+03  0.47000000000E+01 0. -1.
         -5    1    3    3    0  503 -0.32913052450E+02  0.45638770542E+02 -0.81528219103E+02  0.99172107511E+02  0.47000000000E+01 0. -1.
<mgrwt>
<rscale>  0 0.14170860E+03</rscale>
<asrwt>0</asrwt>
<pdfrwt beam="1">  1        5 0.12768634E-01 0.14171017E+03</pdfrwt>
<pdfrwt beam="2">  1       -5 0.43442348E-01 0.14171017E+03</pdfrwt>
<totfact> 0.19507219E+02</totfact>
</mgrwt>
</event>
<event>
 8    1  0.3588496E-007  0.1435920E+03  0.7546771E-02  0.1208576E+00
          5   -1    0    0  501    0  0.00000000000E+00  0.00000000000E+00  0.37646462317E+02  0.37938715383E+02  0.47000000000E+01 0. -1.
         -5   -1    0    0    0  501 -0.00000000000E+00 -0.00000000000E+00 -0.56461388424E+03  0.56463344595E+03  0.47000000000E+01 0. -1.
         25    2    1    2    0    0  0.54864074415E+02 -0.44542045000E+02 -0.31923856468E+03  0.35004560600E+03  0.12499841867E+03 0.  0.
         25    2    1    2    0    0 -0.54864074415E+02  0.44542045000E+02 -0.20772885725E+03  0.25252655533E+03  0.12499729028E+03 0.  0.
          5    1    4    4  502    0  0.17104968278E+02 -0.56888237881E+01  0.74706575205E+01  0.20070958614E+02  0.47000000000E+01 0.  1.
         -5    1    4    4    0  502 -0.71969042693E+02  0.50230868788E+02 -0.21519951477E+03  0.23245559671E+03  0.47000000000E+01 0.  1.
          5    1    3    3  503    0  0.48998139956E+02  0.36051633386E+02 -0.11163322346E+03  0.12721872728E+03  0.47000000000E+01 0.  1.
         -5    1    3    3    0  503  0.58659344589E+01 -0.80593678386E+02 -0.20760534121E+03  0.22282687873E+03  0.47000000000E+01 0.  1.
<mgrwt>
<rscale>  0 0.14359176E+03</rscale>
<asrwt>0</asrwt>
<pdfrwt beam="1">  1        5 0.58157496E-02 0.14359201E+03</pdfrwt>
<pdfrwt beam="2">  1       -5 0.86887654E-01 0.14359201E+03</pdfrwt>
<totfact> 0.16535694E+02</totfact>
</mgrwt>
</event>
<event>
 8    1  0.3588496E-007  0.1305127E+03  0.7546771E-02  0.1226698E+00
          5   -1    0    0  501    0  0.00000000000E+00  0.00000000000E+00  0.28137876138E+03  0.28141801178E+03  0.47000000000E+01 0.  1.
         -5   -1    0    0    0  501 -0.00000000000E+00 -0.00000000000E+00 -0.74797708918E+02  0.74945228397E+02  0.47000000000E+01 0.  1.
         25    2    1    2    0    0 -0.33328149477E+02  0.17248565323E+02  0.25222318245E+02  0.13292752003E+03  0.12500112676E+03 0.  0.
         25    2    1    2    0    0  0.33328149477E+02 -0.17248565323E+02  0.18135873422E+03  0.22343572015E+03  0.12499700799E+03 0.  0.
          5    1    4    4  502    0  0.32115601520E+02 -0.69839810210E+02  0.96210695464E+02  0.12323797659E+03  0.47000000000E+01 0.  1.
         -5    1    4    4    0  502  0.12125479574E+01  0.52591244887E+02  0.85148038752E+02  0.10019774356E+03  0.47000000000E+01 0.  1.
          5    1    3    3  503    0  0.15397082942E+02  0.43616753662E+02 -0.29380506493E+02  0.54998141105E+02  0.47000000000E+01 0. -1.
         -5    1    3    3    0  503 -0.48725232419E+02 -0.26368188340E+02  0.54602824738E+02  0.77929378928E+02  0.47000000000E+01 0. -1.
<mgrwt>
<rscale>  0 0.13051170E+03</rscale>
<asrwt>0</asrwt>
<pdfrwt beam="1">  1        5 0.43303407E-01 0.13051268E+03</pdfrwt>
<pdfrwt beam="2">  1       -5 0.11521707E-01 0.13051268E+03</pdfrwt>
<totfact> 0.22913302E+02</totfact>
</mgrwt>
</event>
<event>
 8    1  0.3588496E-007  0.1740461E+03  0.7546771E-02  0.1173695E+00
          5   -1    0    0  501    0  0.00000000000E+00  0.00000000000E+00  0.67912089874E+03  0.67913716222E+03  0.47000000000E+01 0.  1.
         -5   -1    0    0    0  501 -0.00000000000E+00 -0.00000000000E+00 -0.44832031587E+02  0.45077722394E+02  0.47000000000E+01 0.  1.
         25    2    1    2    0    0  0.50204650622E+02 -0.11020843263E+03  0.28433124416E+03  0.33337110899E+03  0.12500253732E+03 0.  0.
         25    2    1    2    0    0 -0.50204650622E+02  0.11020843263E+03  0.34995762300E+03  0.39084377563E+03  0.12498845340E+03 0.  0.
          5    1    3    3  502    0 -0.19794071833E+02  0.17745940283E+02  0.59458089924E+02  0.65299909140E+02  0.47000000000E+01 0. -1.
         -5    1    3    3    0  502  0.69998722456E+02 -0.12795437292E+03  0.22487315423E+03  0.26807119985E+03  0.47000000000E+01 0. -1.
          5    1    4    4  503    0 -0.59797222262E+02  0.29480185635E+02  0.26444851400E+03  0.27276344273E+03  0.47000000000E+01 0.  1.
         -5    1    4    4    0  503  0.95925716395E+01  0.80728246998E+02  0.85509109001E+02  0.11808033289E+03  0.47000000000E+01 0.  1.
<mgrwt>
<rscale>  0 0.17404356E+03</rscale>
<asrwt>0</asrwt>
<pdfrwt beam="1">  1        5 0.10450028E+00 0.17404609E+03</pdfrwt>
<pdfrwt beam="2">  1       -5 0.69173864E-02 0.17404609E+03</pdfrwt>
<totfact> 0.83762553E+01</totfact>
</mgrwt>
</event>
<event>
 8    1  0.3588496E-007  0.1500824E+03  0.7546771E-02  0.1200374E+00
         -5   -1    0    0    0  501 -0.00000000000E+00  0.00000000000E+00  0.73081528523E+02  0.73232505155E+02  0.47000000000E+01 0.  1.
          5   -1    0    0  501    0  0.00000000000E+00 -0.00000000000E+00 -0.39149971546E+03  0.39152792647E+03  0.47000000000E+01 0.  1.
         25    2    1    2    0    0 -0.47985855855E+02  0.67786764066E+02 -0.51729418416E+02  0.15874141288E+03  0.12500086275E+03 0.  0.
         25    2    1    2    0    0  0.47985855855E+02 -0.67786764066E+02 -0.26668876852E+03  0.30601901875E+03  0.12500821107E+03 0.  0.
          5    1    3    3  502    0 -0.28298157771E+02 -0.33959572321E+02 -0.27288043486E+02  0.52160958606E+02  0.47000000000E+01 0. -1.
         -5    1    3    3    0  502 -0.19687698084E+02  0.10174633639E+03 -0.24441374930E+02  0.10658045427E+03  0.47000000000E+01 0. -1.
          5    1    4    4  503    0  0.86423447379E+02 -0.69361689346E+02 -0.18735169500E+03  0.21772184967E+03  0.47000000000E+01 0.  1.
         -5    1    4    4    0  503 -0.38437591524E+02  0.15749252803E+01 -0.79337073524E+02  0.88297169078E+02  0.47000000000E+01 0.  1.
<mgrwt>
<rscale>  0 0.15008092E+03</rscale>
<asrwt>0</asrwt>
<pdfrwt beam="2">  1        5 0.60244508E-01 0.15008245E+03</pdfrwt>
<pdfrwt beam="1">  1       -5 0.11257096E-01 0.15008245E+03</pdfrwt>
<totfact> 0.12381303E+02</totfact>
</mgrwt>
</event>
<event>
 8    1  0.3588496E-007  0.1327746E+03  0.7546771E-02  0.1223397E+00
         -5   -1    0    0    0  501 -0.00000000000E+00  0.00000000000E+00  0.18737939177E+03  0.18743832709E+03  0.47000000000E+01 0. -1.
          5   -1    0    0  501    0  0.00000000000E+00 -0.00000000000E+00 -0.94114626692E+02  0.94231910505E+02  0.47000000000E+01 0. -1.
         25    2    1    2    0    0  0.17951054691E+02  0.41001588391E+02  0.52574463173E+02  0.14280051335E+03  0.12499816726E+03 0.  0.
         25    2    1    2    0    0 -0.17951054691E+02 -0.41001588391E+02  0.40690301909E+02  0.13886972425E+03  0.12500291608E+03 0.  0.
          5    1    3    3  502    0 -0.78954087184E+01  0.77756293239E+02  0.57801145811E+02  0.97321328979E+02  0.47000000000E+01 0. -1.
         -5    1    3    3    0  502  0.25846463409E+02 -0.36754704848E+02 -0.52266826382E+01  0.45479184366E+02  0.47000000000E+01 0. -1.
          5    1    4    4  503    0 -0.33375726137E+00  0.44616654973E+02  0.18740466881E+02  0.48621521920E+02  0.47000000000E+01 0. -1.
         -5    1    4    4    0  503 -0.17617297429E+02 -0.85618243365E+02  0.21949835028E+02  0.90248202327E+02  0.47000000000E+01 0. -1.
<mgrwt>
<rscale>  0 0.13277350E+03</rscale>
<asrwt>0</asrwt>
<pdfrwt beam="2">  1        5 0.14492729E-01 0.13277462E+03</pdfrwt>
<pdfrwt beam="1">  1       -5 0.28841154E-01 0.13277462E+03</pdfrwt>
<totfact> 0.34624054E+02</totfact>
</mgrwt>
</event>
<event>
 8    1  0.3588496E-007  0.1261982E+03  0.7546771E-02  0.1233221E+00
         -5   -1    0    0    0  501 -0.00000000000E+00  0.00000000000E+00  0.71998481968E+03  0.72000016012E+03  0.47000000000E+01 0. -1.
          5   -1    0    0  501    0  0.00000000000E+00 -0.00000000000E+00 -0.22075753210E+02  0.22570531225E+02  0.47000000000E+01 0. -1.
         25    2    1    2    0    0  0.16992956110E+02 -0.15651134109E+01  0.38614593332E+03  0.40623419693E+03  0.12500532309E+03 0.  0.
         25    2    1    2    0    0 -0.16992956110E+02  0.15651134109E+01  0.31176313315E+03  0.33633649441E+03  0.12503909846E+03 0.  0.
          5    1    4    4  502    0 -0.49481904377E+02 -0.38296742321E+02  0.23908001533E+03  0.24717694686E+03  0.47000000000E+01 0.  1.
         -5    1    4    4    0  502  0.32488948267E+02  0.39861855732E+02  0.72683117823E+02  0.89159547544E+02  0.47000000000E+01 0.  1.
          5    1    3    3  503    0  0.40004458485E+02 -0.41405172994E+02  0.93124869618E+02  0.10958593154E+03  0.47000000000E+01 0. -1.
         -5    1    3    3    0  503 -0.23011502375E+02  0.39840059584E+02  0.29302106370E+03  0.29664826540E+03  0.47000000000E+01 0. -1.
<mgrwt>
<rscale>  0 0.12618984E+03</rscale>
<asrwt>0</asrwt>
<pdfrwt beam="2">  1        5 0.34355101E-02 0.12619820E+03</pdfrwt>
<pdfrwt beam="1">  1       -5 0.11080612E+00 0.12619820E+03</pdfrwt>
<totfact> 0.20941836E+02</totfact>
</mgrwt>
</event>
<event>
 8    1  0.3588496E-007  0.1252998E+03  0.7546771E-02  0.1234605E+00
          5   -1    0    0  501    0  0.00000000000E+00  0.00000000000E+00  0.28576722019E+02  0.28960646425E+02  0.47000000000E+01 0. -1.
         -5   -1    0    0    0  501 -0.00000000000E+00 -0.00000000000E+00 -0.83106454675E+03  0.83107783682E+03  0.47000000000E+01 0. -1.
         25    2    1    2    0    0  0.21953065441E+01 -0.83446010015E+01 -0.65335081775E+03  0.66525733432E+03  0.12500231227E+03 0.  0.
         25    2    1    2    0    0 -0.21953065441E+01  0.83446010015E+01 -0.14913700698E+03  0.19478114893E+03  0.12499358940E+03 0.  0.
          5    1    4    4  502    0 -0.32296797813E+01  0.20578729861E+02  0.17510661493E+02  0.27615724146E+02  0.47000000000E+01 0.  1.
         -5    1    4    4    0  502  0.10343732372E+01 -0.12234128860E+02 -0.16664766847E+03  0.16716542478E+03  0.47000000000E+01 0.  1.
          5    1    3    3  503    0 -0.83240876742E+01  0.48159424011E+02 -0.13394919546E+03  0.14266428257E+03  0.47000000000E+01 0. -1.
         -5    1    3    3    0  503  0.10519394218E+02 -0.56504025013E+02 -0.51940162229E+03  0.52259305175E+03  0.47000000000E+01 0. -1.
<mgrwt>
<rscale>  0 0.12529758E+03</rscale>
<asrwt>0</asrwt>
<pdfrwt beam="1">  1        5 0.44269744E-02 0.12529976E+03</pdfrwt>
<pdfrwt beam="2">  1       -5 0.12788662E+00 0.12529976E+03</pdfrwt>
<totfact> 0.95981382E+01</totfact>
</mgrwt>
</event>
<event>
 8    1  0.3588496E-007  0.1530202E+03  0.7546771E-02  0.1196811E+00
         -5   -1    0    0    0  501 -0.00000000000E+00  0.00000000000E+00  0.22210299331E+03  0.22215271693E+03  0.47000000000E+01 0.  1.
          5   -1    0    0  501    0  0.00000000000E+00 -0.00000000000E+00 -0.12241336620E+03  0.12250356005E+03  0.47000000000E+01 0.  1.
         25    2    1    2    0    0  0.74031591872E+02  0.48059440795E+02  0.11422238187E+03  0.19095005102E+03  0.12499913208E+03 0.  0.
         25    2    1    2    0    0 -0.74031591872E+02 -0.48059440795E+02 -0.14532754755E+02  0.15370622596E+03  0.12499606591E+03 0.  0.
          5    1    3    3  502    0  0.28612992973E+02 -0.18854741280E+02 -0.15586837094E+02  0.37937371103E+02  0.47000000000E+01 0.  1.
         -5    1    3    3    0  502  0.45418598899E+02  0.66914182075E+02  0.12980921896E+03  0.15301267992E+03  0.47000000000E+01 0.  1.
          5    1    4    4  503    0 -0.18717496429E+02  0.38435146037E+02  0.16931818182E+02  0.46221008107E+02  0.47000000000E+01 0. -1.
         -5    1    4    4    0  503 -0.55314095443E+02 -0.86494586832E+02 -0.31464572937E+02  0.10748521785E+03  0.47000000000E+01 0. -1.
<mgrwt>
<rscale>  0 0.15301953E+03</rscale>
<asrwt>0</asrwt>
<pdfrwt beam="2">  1        5 0.18843588E-01 0.15302016E+03</pdfrwt>
<pdfrwt beam="1">  1       -5 0.34180454E-01 0.15302016E+03</pdfrwt>
<totfact> 0.16059950E+02</totfact>
</mgrwt>
</event>
<event>
 8    1  0.3588496E-007  0.1664018E+03  0.7546771E-02  0.1181655E+00
          5   -1    0    0  501    0  0.00000000000E+00  0.00000000000E+00  0.90822425147E+03  0.90823641249E+03  0.47000000000E+01 0.  1.
         -5   -1    0    0    0  501 -0.00000000000E+00 -0.00000000000E+00 -0.39560581692E+02  0.39838795461E+02  0.47000000000E+01 0.  1.
         25    2    1    2    0    0  0.39431313780E+02 -0.10250702472E+03  0.20585408544E+03  0.26469882887E+03  0.12500818729E+03 0.  0.
         25    2    1    2    0    0 -0.39431313780E+02  0.10250702472E+03  0.66280958435E+03  0.68337637908E+03  0.12499684700E+03 0.  0.
          5    1    4    4  502    0 -0.52569298331E+02  0.10384179182E+03  0.65848314914E+03  0.66870680912E+03  0.47000000000E+01 0. -1.
         -5    1    4    4    0  502  0.13137984551E+02 -0.13347670984E+01  0.43264352018E+01  0.14669569961E+02  0.47000000000E+01 0. -1.
          5    1    3    3  503    0  0.61738619128E+02 -0.10958077653E+03  0.11407623681E+03  0.16986783533E+03  0.47000000000E+01 0. -1.
         -5    1    3    3    0  503 -0.22307305347E+02  0.70737518055E+01  0.91777848627E+02  0.94830993536E+02  0.47000000000E+01 0. -1.
<mgrwt>
<rscale>  0 0.16639969E+03</rscale>
<asrwt>0</asrwt>
<pdfrwt beam="1">  1        5 0.13974914E+00 0.16640182E+03</pdfrwt>
<pdfrwt beam="2">  1       -5 0.61085801E-02 0.16640182E+03</pdfrwt>
<totfact> 0.48438269E+01</totfact>
</mgrwt>
</event>
<event>
 8    1  0.3588496E-007  0.1501423E+03  0.7546771E-02  0.1200300E+00
         -5   -1    0    0    0  501 -0.00000000000E+00  0.00000000000E+00  0.31641609311E+04  0.31641644217E+04  0.47000000000E+01 0. -1.
          5   -1    0    0  501    0  0.00000000000E+00 -0.00000000000E+00 -0.65015831773E+01  0.80225048339E+01  0.47000000000E+01 0. -1.
         25    2    1    2    0    0  0.46110634256E+02 -0.69226110691E+02  0.18000394041E+04  0.18062899234E+04  0.12499194351E+03 0.  0.
         25    2    1    2    0    0 -0.46110634256E+02  0.69226110691E+02  0.13576199438E+04  0.13658970032E+04  0.12499706620E+03 0.  0.
          5    1    3    3  502    0 -0.10457469294E+02  0.37844532044E+01  0.16985516503E+02  0.20839350301E+02  0.47000000000E+01 0.  1.
         -5    1    3    3    0  502  0.56568103550E+02 -0.73010563895E+02  0.17830538876E+04  0.17854505731E+04  0.47000000000E+01 0.  1.
          5    1    4    4  503    0 -0.74491043483E+02  0.37966302433E+01  0.84841523901E+03  0.85170055638E+03  0.47000000000E+01 0. -1.
         -5    1    4    4    0  503  0.28380409227E+02  0.65429480448E+02  0.50920470480E+03  0.51419644683E+03  0.47000000000E+01 0. -1.
<mgrwt>
<rscale>  0 0.15014124E+03</rscale>
<asrwt>0</asrwt>
<pdfrwt beam="2">  1        5 0.11175043E-02 0.15014230E+03</pdfrwt>
<pdfrwt beam="1">  1       -5 0.48691201E+00 0.15014230E+03</pdfrwt>
<totfact> 0.28946916E+00</totfact>
</mgrwt>
</event>
<event>
 8    1  0.3588496E-007  0.1314446E+03  0.7546771E-02  0.1225328E+00
         -5   -1    0    0    0  501 -0.00000000000E+00  0.00000000000E+00  0.12458069753E+03  0.12466932340E+03  0.47000000000E+01 0.  1.
          5   -1    0    0  501    0  0.00000000000E+00 -0.00000000000E+00 -0.14003256193E+03  0.14011141424E+03  0.47000000000E+01 0.  1.
         25    2    1    2    0    0  0.28864057207E+02 -0.28632612780E+02  0.60805503795E+01  0.13158516395E+03  0.12499888785E+03 0.  0.
         25    2    1    2    0    0 -0.28864057207E+02  0.28632612780E+02 -0.21532414781E+02  0.13319557369E+03  0.12499782259E+03 0.  0.
          5    1    3    3  502    0 -0.34578483447E+02 -0.21698042112E+02  0.41534737855E+02  0.58426885915E+02  0.47000000000E+01 0. -1.
         -5    1    3    3    0  502  0.63442540653E+02 -0.69345706685E+01 -0.35454187476E+02  0.73158278031E+02  0.47000000000E+01 0. -1.
          5    1    4    4  503    0  0.28733840509E+02 -0.29667624173E+02 -0.29126219444E+02  0.50756557936E+02  0.47000000000E+01 0. -1.
         -5    1    4    4    0  503 -0.57597897715E+02  0.58300236953E+02  0.75938046624E+01  0.82439015759E+02  0.47000000000E+01 0. -1.
<mgrwt>
<rscale>  0 0.13144434E+03</rscale>
<asrwt>0</asrwt>
<pdfrwt beam="2">  1        5 0.21556354E-01 0.13144460E+03</pdfrwt>
<pdfrwt beam="1">  1       -5 0.19179144E-01 0.13144460E+03</pdfrwt>
<totfact> 0.36087514E+02</totfact>
</mgrwt>
</event>
<event>
 8    1  0.3588496E-007  0.1495469E+03  0.7546771E-02  0.1201031E+00
          5   -1    0    0  501    0  0.00000000000E+00  0.00000000000E+00  0.36410924776E+02  0.36713014628E+02  0.47000000000E+01 0.  1.
         -5   -1    0    0    0  501 -0.00000000000E+00 -0.00000000000E+00 -0.67230559842E+03  0.67232202676E+03  0.47000000000E+01 0.  1.
         25    2    1    2    0    0  0.19974618358E+02 -0.79618910336E+02 -0.42465695573E+03  0.45021918986E+03  0.12500253041E+03 0.  0.
         25    2    1    2    0    0 -0.19974618358E+02  0.79618910336E+02 -0.21123771792E+03  0.25881585153E+03  0.12500446100E+03 0.  0.
          5    1    4    4  502    0 -0.60496823665E+02  0.38111931569E+02 -0.49942791414E+02  0.87342758233E+02  0.47000000000E+01 0.  1.
         -5    1    4    4    0  502  0.40522205307E+02  0.41506978767E+02 -0.16129492650E+03  0.17147309330E+03  0.47000000000E+01 0.  1.
          5    1    3    3  503    0  0.61661298717E+02 -0.58715599696E+02 -0.36236436025E+03  0.37226288693E+03  0.47000000000E+01 0.  1.
         -5    1    3    3    0  503 -0.41686680359E+02 -0.20903310639E+02 -0.62292595485E+02  0.77956302935E+02  0.47000000000E+01 0.  1.
<mgrwt>
<rscale>  0 0.14954648E+03</rscale>
<asrwt>0</asrwt>
<pdfrwt beam="1">  1        5 0.56261827E-02 0.14954689E+03</pdfrwt>
<pdfrwt beam="2">  1       -5 0.10345612E+00 0.14954689E+03</pdfrwt>
<totfact> 0.11636416E+02</totfact>
</mgrwt>
</event>
<event>
 8    1  0.3588496E-007  0.1863148E+03  0.7546771E-02  0.1161828E+00
         -5   -1    0    0    0  501 -0.00000000000E+00  0.00000000000E+00  0.13981955267E+03  0.13989852505E+03  0.47000000000E+01 0. -1.
          5   -1    0    0  501    0  0.00000000000E+00 -0.00000000000E+00 -0.28839101975E+03  0.28842931591E+03  0.47000000000E+01 0. -1.
         25    2    1    2    0    0  0.31905829686E+01  0.13812241838E+03  0.57498466725E+01  0.18640349535E+03  0.12500088026E+03 0.  0.
         25    2    1    2    0    0 -0.31905829686E+01 -0.13812241838E+03 -0.15432131375E+03  0.24192434560E+03  0.12499735533E+03 0.  0.
          5    1    4    4  502    0 -0.57579154614E+02 -0.93970290481E+02 -0.12247838768E+03  0.16482966962E+03  0.47000000000E+01 0.  1.
         -5    1    4    4    0  502  0.54388571645E+02 -0.44152127895E+02 -0.31842926068E+02  0.77094675976E+02  0.47000000000E+01 0.  1.
          5    1    3    3  503    0 -0.39933473559E+02  0.13084816696E+03  0.23651274928E+02  0.13891507446E+03  0.47000000000E+01 0.  1.
         -5    1    3    3    0  503  0.43124056527E+02  0.72742514168E+01 -0.17901428256E+02  0.47488420890E+02  0.47000000000E+01 0.  1.
<mgrwt>
<rscale>  0 0.18631420E+03</rscale>
<asrwt>0</asrwt>
<pdfrwt beam="2">  1        5 0.44376870E-01 0.18631479E+03</pdfrwt>
<pdfrwt beam="1">  1       -5 0.21519721E-01 0.18631479E+03</pdfrwt>
<totfact> 0.77873686E+01</totfact>
</mgrwt>
</event>
<event>
 8    1  0.3588496E-007  0.1519525E+03  0.7546771E-02  0.1198095E+00
          5   -1    0    0  501    0  0.00000000000E+00  0.00000000000E+00  0.90919801544E+03  0.90921016343E+03  0.47000000000E+01 0.  1.
         -5   -1    0    0    0  501 -0.00000000000E+00 -0.00000000000E+00 -0.25165240738E+02  0.25600377758E+02  0.47000000000E+01 0.  1.
         25    2    1    2    0    0 -0.80868255422E+02 -0.30399318625E+02  0.44110656609E+03  0.46654534614E+03  0.12500305614E+03 0.  0.
         25    2    1    2    0    0  0.80868255422E+02  0.30399318625E+02  0.44292620861E+03  0.46826519505E+03  0.12499949325E+03 0.  0.
          5    1    3    3  502    0 -0.43239164450E+01 -0.16941802476E+02  0.33207013327E+03  0.33256335387E+03  0.47000000000E+01 0. -1.
         -5    1    3    3    0  502 -0.76544338977E+02 -0.13457516149E+02  0.10903643282E+03  0.13398199227E+03  0.47000000000E+01 0. -1.
          5    1    4    4  503    0  0.18864259494E+02  0.59810477229E+02  0.97265740314E+02  0.11582688682E+03  0.47000000000E+01 0.  1.
         -5    1    4    4    0  503  0.62003995928E+02 -0.29411158604E+02  0.34566046830E+03  0.35243830823E+03  0.47000000000E+01 0.  1.
<mgrwt>
<rscale>  0 0.15195175E+03</rscale>
<asrwt>0</asrwt>
<pdfrwt beam="1">  1        5 0.13991103E+00 0.15195248E+03</pdfrwt>
<pdfrwt beam="2">  1       -5 0.39059819E-02 0.15195248E+03</pdfrwt>
<totfact> 0.98969788E+01</totfact>
</mgrwt>
</event>
<event>
 8    1  0.3588496E-007  0.1559456E+03  0.7546771E-02  0.1193354E+00
          5   -1    0    0  501    0  0.00000000000E+00  0.00000000000E+00  0.13421804478E+02  0.14220929486E+02  0.47000000000E+01 0. -1.
         -5   -1    0    0    0  501 -0.00000000000E+00 -0.00000000000E+00 -0.17767161424E+04  0.17767223589E+04  0.47000000000E+01 0. -1.
         25    2    1    2    0    0  0.89121710856E+02  0.27349240551E+02 -0.79135895254E+03  0.80657797163E+03  0.12501348827E+03 0.  0.
         25    2    1    2    0    0 -0.89121710856E+02 -0.27349240551E+02 -0.97193538534E+03  0.98436531673E+03  0.12500409272E+03 0.  0.
          5    1    3    3  502    0  0.28689916816E+02 -0.55556886820E+01 -0.30147997644E+02  0.42248890703E+02  0.47000000000E+01 0. -1.
         -5    1    3    3    0  502  0.60431794041E+02  0.32904929233E+02 -0.76121095489E+03  0.76432908092E+03  0.47000000000E+01 0. -1.
          5    1    4    4  503    0 -0.15373537879E+02 -0.33866925604E+02 -0.70194784203E+02  0.79578339051E+02  0.47000000000E+01 0.  1.
         -5    1    4    4    0  503 -0.73748172978E+02  0.65176850530E+01 -0.90174060113E+03  0.90478697768E+03  0.47000000000E+01 0.  1.
<mgrwt>
<rscale>  0 0.15594372E+03</rscale>
<asrwt>0</asrwt>
<pdfrwt beam="1">  1        5 0.21268438E-02 0.15594561E+03</pdfrwt>
<pdfrwt beam="2">  1       -5 0.27340271E+00 0.15594561E+03</pdfrwt>
<totfact> 0.31990647E+01</totfact>
</mgrwt>
</event>
<event>
 8    1  0.3588496E-007  0.1494018E+03  0.7546771E-02  0.1201210E+00
         -5   -1    0    0    0  501 -0.00000000000E+00  0.00000000000E+00  0.10706589327E+04  0.10706692488E+04  0.47000000000E+01 0. -1.
          5   -1    0    0  501    0  0.00000000000E+00 -0.00000000000E+00 -0.21785705722E+02  0.22286923830E+02  0.47000000000E+01 0. -1.
         25    2    1    2    0    0  0.52094908969E+02  0.63100155530E+02  0.65188659666E+03  0.66878774100E+03  0.12500159376E+03 0.  0.
         25    2    1    2    0    0 -0.52094908969E+02 -0.63100155530E+02  0.39698663035E+03  0.42416843159E+03  0.12499985804E+03 0.  0.
          5    1    4    4  502    0 -0.55321572450E+02 -0.14258050156E+02  0.57688149332E+02  0.81325155678E+02  0.47000000000E+01 0.  1.
         -5    1    4    4    0  502  0.32266634808E+01 -0.48842105374E+02  0.33929848102E+03  0.34284327591E+03  0.47000000000E+01 0.  1.
          5    1    3    3  503    0  0.18769568208E+02 -0.49420418341E+01  0.98285704092E+01  0.22257836025E+02  0.47000000000E+01 0.  1.
         -5    1    3    3    0  503  0.33325340761E+02  0.68042197364E+02  0.64205802625E+03  0.64652990498E+03  0.47000000000E+01 0.  1.
<mgrwt>
<rscale>  0 0.14940147E+03</rscale>
<asrwt>0</asrwt>
<pdfrwt beam="2">  1        5 0.33909951E-02 0.14940183E+03</pdfrwt>
<pdfrwt beam="1">  1       -5 0.16475614E+00 0.14940183E+03</pdfrwt>
<totfact> 0.79110134E+01</totfact>
</mgrwt>
</event>
<event>
 8    1  0.3588496E-007  0.1660144E+03  0.7546771E-02  0.1182069E+00
         -5   -1    0    0    0  501 -0.00000000000E+00  0.00000000000E+00  0.14384031717E+03  0.14391708322E+03  0.47000000000E+01 0. -1.
          5   -1    0    0  501    0  0.00000000000E+00 -0.00000000000E+00 -0.19499268265E+03  0.19504931758E+03  0.47000000000E+01 0. -1.
         25    2    1    2    0    0 -0.73189421872E+02 -0.81109817638E+02 -0.27346669689E+01  0.16603560860E+03  0.12499940371E+03 0.  0.
         25    2    1    2    0    0  0.73189421872E+02  0.81109817638E+02 -0.48417698513E+02  0.17293079220E+03  0.12500116548E+03 0.  0.
          5    1    4    4  502    0 -0.10349022213E+02  0.43496763757E+02  0.28487565791E+02  0.53223135221E+02  0.47000000000E+01 0.  1.
         -5    1    4    4    0  502  0.83538444086E+02  0.37613053882E+02 -0.76905264304E+02  0.11970765698E+03  0.47000000000E+01 0.  1.
          5    1    3    3  503    0 -0.82307503711E+02 -0.56787442303E+02 -0.49999529289E+02  0.11189897989E+03  0.47000000000E+01 0. -1.
         -5    1    3    3    0  503  0.91180818385E+01 -0.24322375335E+02  0.47264862320E+02  0.54136628714E+02  0.47000000000E+01 0. -1.
<mgrwt>
<rscale>  0 0.16601408E+03</rscale>
<asrwt>0</asrwt>
<pdfrwt beam="2">  1        5 0.30009136E-01 0.16601441E+03</pdfrwt>
<pdfrwt beam="1">  1       -5 0.22139541E-01 0.16601441E+03</pdfrwt>
<totfact> 0.15767867E+02</totfact>
</mgrwt>
</event>
<event>
 8    1  0.3588496E-007  0.1507812E+03  0.7546771E-02  0.1199519E+00
          5   -1    0    0  501    0  0.00000000000E+00  0.00000000000E+00  0.12811684745E+04  0.12811770955E+04  0.47000000000E+01 0. -1.
         -5   -1    0    0    0  501 -0.00000000000E+00 -0.00000000000E+00 -0.18072399172E+02  0.18673553808E+02  0.47000000000E+01 0. -1.
         25    2    1    2    0    0 -0.22579956387E+02 -0.81236465294E+02  0.51052068312E+03  0.53231909040E+03  0.12499211332E+03 0.  0.
         25    2    1    2    0    0  0.22579956387E+02  0.81236465294E+02  0.75257539218E+03  0.76753155888E+03  0.12500302094E+03 0.  0.
          5    1    4    4  502    0  0.41632316894E+01  0.82060388357E+01  0.56842370628E+03  0.56851760872E+03  0.47000000000E+01 0. -1.
         -5    1    4    4    0  502  0.18416724697E+02  0.73030426458E+02  0.18415168591E+03  0.19901395016E+03  0.47000000000E+01 0. -1.
          5    1    3    3  503    0  0.14623374499E+02  0.10680919606E+02  0.28860762442E+03  0.28921337451E+03  0.47000000000E+01 0. -1.
         -5    1    3    3    0  503 -0.37203330886E+02 -0.91917384899E+02  0.22191305870E+03  0.24310571589E+03  0.47000000000E+01 0. -1.
<mgrwt>
<rscale>  0 0.15077895E+03</rscale>
<asrwt>0</asrwt>
<pdfrwt beam="1">  1        5 0.19714976E+00 0.15078121E+03</pdfrwt>
<pdfrwt beam="2">  1       -5 0.28272747E-02 0.15078121E+03</pdfrwt>
<totfact> 0.62609019E+01</totfact>
</mgrwt>
</event>
<event>
 8    1  0.3588496E-007  0.1303907E+03  0.7546771E-02  0.1226881E+00
          5   -1    0    0  501    0  0.00000000000E+00  0.00000000000E+00  0.59257909306E+02  0.59444005714E+02  0.47000000000E+01 0. -1.
         -5   -1    0    0    0  501 -0.00000000000E+00 -0.00000000000E+00 -0.46074482974E+03  0.46076880117E+03  0.47000000000E+01 0. -1.
         25    2    1    2    0    0  0.24971260938E+02  0.27464140301E+02 -0.36078849648E+03  0.38362751803E+03  0.12499556203E+03 0.  0.
         25    2    1    2    0    0 -0.24971260938E+02 -0.27464140301E+02 -0.40698423952E+02  0.13658528885E+03  0.12498534531E+03 0.  0.
          5    1    4    4  502    0  0.19006706497E+02  0.31308304496E+02 -0.50307577606E+02  0.62405185577E+02  0.47000000000E+01 0.  1.
         -5    1    4    4    0  502 -0.43977967435E+02 -0.58772444797E+02  0.96091536549E+01  0.74180103269E+02  0.47000000000E+01 0.  1.
          5    1    3    3  503    0  0.53053548989E+02 -0.40766307288E+01 -0.32100406104E+03  0.32541818509E+03  0.47000000000E+01 0.  1.
         -5    1    3    3    0  503 -0.28082288051E+02  0.31540771030E+02 -0.39784435436E+02  0.58209332948E+02  0.47000000000E+01 0.  1.
<mgrwt>
<rscale>  0 0.13038825E+03</rscale>
<asrwt>0</asrwt>
<pdfrwt beam="1">  1        5 0.91327608E-02 0.13039070E+03</pdfrwt>
<pdfrwt beam="2">  1       -5 0.70899977E-01 0.13039070E+03</pdfrwt>
<totfact> 0.11866548E+02</totfact>
</mgrwt>
</event>
<event>
 8    1  0.3588496E-007  0.1280788E+03  0.7546771E-02  0.1230340E+00
          5   -1    0    0  501    0  0.00000000000E+00  0.00000000000E+00  0.34214974597E+03  0.34218202564E+03  0.47000000000E+01 0. -1.
         -5   -1    0    0    0  501 -0.00000000000E+00 -0.00000000000E+00 -0.47827080267E+02  0.48057461511E+02  0.47000000000E+01 0. -1.
         25    2    1    2    0    0  0.17022907578E+02  0.22045863338E+02  0.15265460392E+03  0.19926768004E+03  0.12501352221E+03 0.  0.
         25    2    1    2    0    0 -0.17022907578E+02 -0.22045863338E+02  0.14166806179E+03  0.19097180711E+03  0.12499836763E+03 0.  0.
          5    1    3    3  502    0 -0.19789090376E+02 -0.18906728435E+02 -0.83855652213E+01  0.29008277820E+02  0.47000000000E+01 0.  1.
         -5    1    3    3    0  502  0.36811997953E+02  0.40952591772E+02  0.16104016914E+03  0.17025940222E+03  0.47000000000E+01 0.  1.
          5    1    4    4  503    0 -0.43023490647E+02 -0.46880786128E+02  0.24542014780E+02  0.68361022117E+02  0.47000000000E+01 0.  1.
         -5    1    4    4    0  503  0.26000583070E+02  0.24834922790E+02  0.11712604701E+03  0.12261078500E+03  0.47000000000E+01 0.  1.
<mgrwt>
<rscale>  0 0.12807511E+03</rscale>
<asrwt>0</asrwt>
<pdfrwt beam="1">  1        5 0.52658628E-01 0.12807880E+03</pdfrwt>
<pdfrwt beam="2">  1       -5 0.73782169E-02 0.12807880E+03</pdfrwt>
<totfact> 0.32653922E+02</totfact>
</mgrwt>
</event>
<event>
 8    1  0.3588496E-007  0.1297277E+03  0.7546771E-02  0.1227862E+00
          5   -1    0    0  501    0  0.00000000000E+00  0.00000000000E+00  0.15640833393E+03  0.15647893444E+03  0.47000000000E+01 0.  1.
         -5   -1    0    0    0  501 -0.00000000000E+00 -0.00000000000E+00 -0.22479185712E+03  0.22484098609E+03  0.47000000000E+01 0.  1.
         25    2    1    2    0    0 -0.34514160168E+02 -0.35550774365E+01 -0.17189967628E+03  0.21535732590E+03  0.12500165314E+03 0.  0.
         25    2    1    2    0    0  0.34514160168E+02  0.35550774365E+01  0.10351615309E+03  0.16596259463E+03  0.12499649210E+03 0.  0.
          5    1    4    4  502    0  0.25166221480E+02  0.62244792483E+02  0.71888095925E+02  0.98477110186E+02  0.47000000000E+01 0. -1.
         -5    1    4    4    0  502  0.93479386881E+01 -0.58689715047E+02  0.31628057168E+02  0.67485484441E+02  0.47000000000E+01 0. -1.
          5    1    3    3  503    0 -0.56850594983E+02  0.32729155337E+02 -0.40722597008E+02  0.77353782493E+02  0.47000000000E+01 0. -1.
         -5    1    3    3    0  503  0.22336434815E+02 -0.36284232774E+02 -0.13117707927E+03  0.13800354341E+03  0.47000000000E+01 0. -1.
<mgrwt>
<rscale>  0 0.12972647E+03</rscale>
<asrwt>0</asrwt>
<pdfrwt beam="1">  1        5 0.24072030E-01 0.12972771E+03</pdfrwt>
<pdfrwt beam="2">  1       -5 0.34592573E-01 0.12972771E+03</pdfrwt>
<totfact> 0.93726587E+01</totfact>
</mgrwt>
</event>
<event>
 8    1  0.3588496E-007  0.1296551E+03  0.7546771E-02  0.1227975E+00
         -5   -1    0    0    0  501 -0.00000000000E+00  0.00000000000E+00  0.53350377624E+02  0.53557005076E+02  0.47000000000E+01 0. -1.
          5   -1    0    0  501    0  0.00000000000E+00 -0.00000000000E+00 -0.38709809807E+03  0.38712662984E+03  0.47000000000E+01 0. -1.
         25    2    1    2    0    0  0.10333481475E+02 -0.32849518755E+02 -0.71305927812E+02  0.14796950249E+03  0.12499826641E+03 0.  0.
         25    2    1    2    0    0 -0.10333481475E+02  0.32849518755E+02 -0.26244179263E+03  0.29271413242E+03  0.12497998670E+03 0.  0.
          5    1    4    4  502    0 -0.58429517845E+01 -0.45576310150E+02 -0.13753983356E+03  0.14508837289E+03  0.47000000000E+01 0.  1.
         -5    1    4    4    0  502 -0.44905296908E+01  0.78425828905E+02 -0.12490195907E+03  0.14762575953E+03  0.47000000000E+01 0.  1.
          5    1    3    3  503    0 -0.12219928677E+02  0.30588641371E+02  0.16566693943E+02  0.37169032621E+02  0.47000000000E+01 0. -1.
         -5    1    3    3    0  503  0.22553410152E+02 -0.63438160126E+02 -0.87872621755E+02  0.11080046987E+03  0.47000000000E+01 0. -1.
<mgrwt>
<rscale>  0 0.12965067E+03</rscale>
<asrwt>0</asrwt>
<pdfrwt beam="2">  1        5 0.59571641E-01 0.12965507E+03</pdfrwt>
<pdfrwt beam="1">  1       -5 0.82258398E-02 0.12965507E+03</pdfrwt>
<totfact> 0.20868305E+02</totfact>
</mgrwt>
</event>
<event>
 8    1  0.3588496E-007  0.1279163E+03  0.7546771E-02  0.1230582E+00
         -5   -1    0    0    0  501 -0.00000000000E+00  0.00000000000E+00  0.49521552532E+03  0.49523782824E+03  0.47000000000E+01 0.  1.
          5   -1    0    0  501    0  0.00000000000E+00 -0.00000000000E+00 -0.42624707134E+02  0.42883046280E+02  0.47000000000E+01 0.  1.
         25    2    1    2    0    0  0.97545319907E+01 -0.25326306053E+02  0.35466000132E+03  0.37702148812E+03  0.12499965318E+03 0.  0.
         25    2    1    2    0    0 -0.97545319907E+01  0.25326306053E+02  0.97930816866E+02  0.16109938640E+03  0.12500397887E+03 0.  0.
          5    1    3    3  502    0  0.41680394517E+02 -0.33114573204E+02  0.33327667818E+03  0.33753409378E+03  0.47000000000E+01 0. -1.
         -5    1    3    3    0  502 -0.31925862527E+02  0.77882671512E+01  0.21383323143E+02  0.39487394342E+02  0.47000000000E+01 0. -1.
          5    1    4    4  503    0 -0.20456440849E+02  0.46359081730E+02 -0.88394350595E+01  0.51651292755E+02  0.47000000000E+01 0. -1.
         -5    1    4    4    0  503  0.10701908858E+02 -0.21032775677E+02  0.10677025193E+03  0.10944809364E+03  0.47000000000E+01 0. -1.
<mgrwt>
<rscale>  0 0.12791519E+03</rscale>
<asrwt>0</asrwt>
<pdfrwt beam="2">  1        5 0.65792352E-02 0.12791625E+03</pdfrwt>
<pdfrwt beam="1">  1       -5 0.76208590E-01 0.12791625E+03</pdfrwt>
<totfact> 0.17523019E+02</totfact>
</mgrwt>
</event>
<event>
 8    1  0.3588496E-007  0.1312332E+03  0.7546771E-02  0.1225648E+00
          5   -1    0    0  501    0  0.00000000000E+00  0.00000000000E+00  0.41215215319E+02  0.41482333274E+02  0.47000000000E+01 0.  1.
         -5   -1    0    0    0  501 -0.00000000000E+00 -0.00000000000E+00 -0.45630992606E+03  0.45633413046E+03  0.47000000000E+01 0.  1.
         25    2    1    2    0    0  0.31250497596E+02  0.24928036135E+02 -0.28139816053E+03  0.31049490451E+03  0.12499664151E+03 0.  0.
         25    2    1    2    0    0 -0.31250497596E+02 -0.24928036135E+02 -0.13369655021E+03  0.18732155922E+03  0.12496638919E+03 0.  0.
          5    1    3    3  502    0  0.10112654962E+02 -0.11524335674E+01  0.11254558881E+02  0.15885496188E+02  0.47000000000E+01 0.  1.
         -5    1    3    3    0  502  0.21137842634E+02  0.26080469702E+02 -0.29265271941E+03  0.29460940832E+03  0.47000000000E+01 0.  1.
          5    1    4    4  503    0 -0.61526134621E+02  0.19645822662E+02 -0.32219855179E+02  0.72330025972E+02  0.47000000000E+01 0. -1.
         -5    1    4    4    0  503  0.30275637025E+02 -0.44573858796E+02 -0.10147669503E+03  0.11499153325E+03  0.47000000000E+01 0. -1.
<mgrwt>
<rscale>  0 0.13122603E+03</rscale>
<asrwt>0</asrwt>
<pdfrwt beam="1">  1        5 0.63632121E-02 0.13123323E+03</pdfrwt>
<pdfrwt beam="2">  1       -5 0.70223933E-01 0.13123323E+03</pdfrwt>
<totfact> 0.22522299E+02</totfact>
</mgrwt>
</event>
<event>
 8    1  0.3588496E-007  0.1374615E+03  0.7546771E-02  0.1216786E+00
          5   -1    0    0  501    0  0.00000000000E+00  0.00000000000E+00  0.17341160942E+03  0.17347529012E+03  0.47000000000E+01 0.  1.
         -5   -1    0    0    0  501 -0.00000000000E+00 -0.00000000000E+00 -0.18300941550E+03  0.18306975764E+03  0.47000000000E+01 0.  1.
         25    2    1    2    0    0 -0.56775660157E+02  0.69250407693E+01 -0.11825301202E+03  0.18132687302E+03  0.12499691298E+03 0.  0.
         25    2    1    2    0    0  0.56775660157E+02 -0.69250407693E+01  0.10865520594E+03  0.17521817473E+03  0.12499609275E+03 0.  0.
          5    1    3    3  502    0 -0.76647073883E+02  0.43462063578E+02 -0.50439822745E+02  0.10163656145E+03  0.47000000000E+01 0. -1.
         -5    1    3    3    0  502  0.19871413727E+02 -0.36537022808E+02 -0.67813189271E+02  0.79690311571E+02  0.47000000000E+01 0. -1.
          5    1    4    4  503    0 -0.27871087250E+02 -0.17940242217E+02 -0.40898206920E+01  0.33726346209E+02  0.47000000000E+01 0. -1.
         -5    1    4    4    0  503  0.84646747407E+02  0.11015201447E+02  0.11274502663E+03  0.14149182852E+03  0.47000000000E+01 0. -1.
<mgrwt>
<rscale>  0 0.13746130E+03</rscale>
<asrwt>0</asrwt>
<pdfrwt beam="1">  1        5 0.26688249E-01 0.13746149E+03</pdfrwt>
<pdfrwt beam="2">  1       -5 0.28164835E-01 0.13746149E+03</pdfrwt>
<totfact> 0.11757336E+02</totfact>
</mgrwt>
</event>
<event>
 8    1  0.3588496E-007  0.1397273E+03  0.7546771E-02  0.1213697E+00
         -5   -1    0    0    0  501 -0.00000000000E+00  0.00000000000E+00  0.11879652225E+03  0.11888946000E+03  0.47000000000E+01 0. -1.
          5   -1    0    0  501    0  0.00000000000E+00 -0.00000000000E+00 -0.17486145022E+03  0.17492460311E+03  0.47000000000E+01 0. -1.
         25    2    1    2    0    0 -0.20689403440E+01 -0.62404626580E+02  0.83063203758E+01  0.13997394118E+03  0.12500036527E+03 0.  0.
         25    2    1    2    0    0  0.20689403440E+01  0.62404626580E+02 -0.64371248352E+02  0.15384012193E+03  0.12499803026E+03 0.  0.
          5    1    4    4  502    0  0.62578374742E+01  0.12133070177E+02 -0.94030755289E+02  0.95132774910E+02  0.47000000000E+01 0. -1.
         -5    1    4    4    0  502 -0.41888971303E+01  0.50271556402E+02  0.29659506938E+02  0.58707347019E+02  0.47000000000E+01 0. -1.
          5    1    3    3  503    0 -0.26611082143E+02 -0.68299436643E+02 -0.41192263947E+02  0.84213154243E+02  0.47000000000E+01 0. -1.
         -5    1    3    3    0  503  0.24542141799E+02  0.58948100631E+01  0.49498584323E+02  0.55760786936E+02  0.47000000000E+01 0. -1.
<mgrwt>
<rscale>  0 0.13972675E+03</rscale>
<asrwt>0</asrwt>
<pdfrwt beam="2">  1        5 0.26913769E-01 0.13972727E+03</pdfrwt>
<pdfrwt beam="1">  1       -5 0.18288395E-01 0.13972727E+03</pdfrwt>
<totfact> 0.26361633E+02</totfact>
</mgrwt>
</event>
<event>
 8    1  0.3588496E-007  0.1340597E+03  0.7546771E-02  0.1221566E+00
         -5   -1    0    0    0  501 -0.00000000000E+00  0.00000000000E+00  0.19454632390E+03  0.19460308873E+03  0.47000000000E+01 0.  1.
          5   -1    0    0  501    0  0.00000000000E+00 -0.00000000000E+00 -0.99632045053E+02  0.99742841355E+02  0.47000000000E+01 0.  1.
         25    2    1    2    0    0 -0.33851154619E+02 -0.34665622011E+02  0.87558558770E+02  0.16012031822E+03  0.12499763628E+03 0.  0.
         25    2    1    2    0    0  0.33851154619E+02  0.34665622011E+02  0.73557200751E+01  0.13422561186E+03  0.12495920231E+03 0.  0.
          5    1    3    3  502    0 -0.31310237519E+02  0.15063666457E+02  0.10216635248E+03  0.10801527021E+03  0.47000000000E+01 0. -1.
         -5    1    3    3    0  502 -0.25409170993E+01 -0.49729288468E+02 -0.14607793706E+02  0.52105048011E+02  0.47000000000E+01 0. -1.
          5    1    4    4  503    0 -0.23010309256E+02  0.48306119244E+02  0.40111298600E+02  0.67037017863E+02  0.47000000000E+01 0. -1.
         -5    1    4    4    0  503  0.56861463875E+02 -0.13640497233E+02 -0.32755578525E+02  0.67188593997E+02  0.47000000000E+01 0. -1.
<mgrwt>
<rscale>  0 0.13405078E+03</rscale>
<asrwt>0</asrwt>
<pdfrwt beam="2">  1        5 0.15340896E-01 0.13405974E+03</pdfrwt>
<pdfrwt beam="1">  1       -5 0.29943093E-01 0.13405974E+03</pdfrwt>
<totfact> 0.29128042E+02</totfact>
</mgrwt>
</event>
<event>
 8    1  0.3588496E-007  0.1329209E+03  0.7546771E-02  0.1223191E+00
          5   -1    0    0  501    0  0.00000000000E+00  0.00000000000E+00  0.44213504046E+02  0.44462612834E+02  0.47000000000E+01 0.  1.
         -5   -1    0    0    0  501 -0.00000000000E+00 -0.00000000000E+00 -0.40566590554E+03  0.40569313147E+03  0.47000000000E+01 0.  1.
         25    2    1    2    0    0 -0.39450052966E+02 -0.21976882318E+02 -0.21131491394E+03  0.24964364904E+03  0.12501467361E+03 0.  0.
         25    2    1    2    0    0  0.39450052966E+02  0.21976882318E+02 -0.15013748755E+03  0.20051209526E+03  0.12499818055E+03 0.  0.
          5    1    3    3  502    0 -0.13476156973E+02 -0.63676447372E+02 -0.53787371658E+02  0.84566353277E+02  0.47000000000E+01 0.  1.
         -5    1    3    3    0  502 -0.25973895993E+02  0.41699565054E+02 -0.15752754229E+03  0.16507729577E+03  0.47000000000E+01 0.  1.
          5    1    4    4  503    0  0.98679696616E+01  0.72956065433E+02 -0.82277889943E+02  0.11050658570E+03  0.47000000000E+01 0.  1.
         -5    1    4    4    0  503  0.29582083304E+02 -0.50979183115E+02 -0.67859597607E+02  0.90005509560E+02  0.47000000000E+01 0.  1.
<mgrwt>
<rscale>  0 0.13291700E+03</rscale>
<asrwt>0</asrwt>
<pdfrwt beam="1">  1        5 0.68233344E-02 0.13292087E+03</pdfrwt>
<pdfrwt beam="2">  1       -5 0.62431393E-01 0.13292087E+03</pdfrwt>
<totfact> 0.26127212E+02</totfact>
</mgrwt>
</event>
<event>
 8    1  0.3588496E-007  0.1973868E+03  0.7546771E-02  0.1151964E+00
          5   -1    0    0  501    0  0.00000000000E+00  0.00000000000E+00  0.40222306128E+02  0.40495974001E+02  0.47000000000E+01 0.  1.
         -5   -1    0    0    0  501 -0.00000000000E+00 -0.00000000000E+00 -0.11099695042E+04  0.11099794549E+04  0.47000000000E+01 0.  1.
         25    2    1    2    0    0 -0.10924352168E+03 -0.10677589681E+03 -0.74269395451E+03  0.76847633235E+03  0.12500529646E+03 0.  0.
         25    2    1    2    0    0  0.10924352168E+03  0.10677589681E+03 -0.32705324360E+03  0.38199909657E+03  0.12499698582E+03 0.  0.
          5    1    4    4  502    0  0.99680970440E+02  0.14247648497E+02 -0.13429796140E+03  0.16792058776E+03  0.47000000000E+01 0. -1.
         -5    1    4    4    0  502  0.95625512389E+01  0.92528248309E+02 -0.19275528219E+03  0.21407850881E+03  0.47000000000E+01 0. -1.
          5    1    3    3  503    0 -0.64191616450E+02 -0.60177569874E+02 -0.64595024275E+03  0.65193228916E+03  0.47000000000E+01 0.  1.
         -5    1    3    3    0  503 -0.45051905229E+02 -0.46598326933E+02 -0.96743711763E+02  0.11654404319E+03  0.47000000000E+01 0.  1.
<mgrwt>
<rscale>  0 0.19738552E+03</rscale>
<asrwt>0</asrwt>
<pdfrwt beam="1">  1        5 0.62098647E-02 0.19738684E+03</pdfrwt>
<pdfrwt beam="2">  1       -5 0.17078633E+00 0.19738684E+03</pdfrwt>
<totfact> 0.28145027E+01</totfact>
</mgrwt>
</event>
<event>
 8    1  0.3588496E-007  0.1432756E+03  0.7546771E-02  0.1208988E+00
         -5   -1    0    0    0  501 -0.00000000000E+00  0.00000000000E+00  0.82357284913E+02  0.82491286681E+02  0.47000000000E+01 0.  1.
          5   -1    0    0  501    0  0.00000000000E+00 -0.00000000000E+00 -0.29161857233E+03  0.29165644469E+03  0.47000000000E+01 0.  1.
         25    2    1    2    0    0  0.55894213939E+02  0.42166659511E+02 -0.33047478345E+02  0.14703750786E+03  0.12500281024E+03 0.  0.
         25    2    1    2    0    0 -0.55894213939E+02 -0.42166659511E+02 -0.17621380907E+03  0.22711022350E+03  0.12500222712E+03 0.  0.
          5    1    4    4  502    0 -0.50202122445E+02 -0.42758253947E+02 -0.17720950999E+02  0.68444455458E+02  0.47000000000E+01 0. -1.
         -5    1    4    4    0  502 -0.56920914942E+01  0.59159443631E+00 -0.15849285807E+03  0.15866576804E+03  0.47000000000E+01 0. -1.
          5    1    3    3  503    0  0.34493265462E+02  0.70813372039E+02 -0.62350417635E+02  0.10056830316E+03  0.47000000000E+01 0.  1.
         -5    1    3    3    0  503  0.21400948477E+02 -0.28646712529E+02  0.29302939291E+02  0.46469204701E+02  0.47000000000E+01 0.  1.
<mgrwt>
<rscale>  0 0.14327546E+03</rscale>
<asrwt>0</asrwt>
<pdfrwt beam="2">  1        5 0.44877616E-01 0.14327558E+03</pdfrwt>
<pdfrwt beam="1">  1       -5 0.12683573E-01 0.14327558E+03</pdfrwt>
<totfact> 0.18518761E+02</totfact>
</mgrwt>
</event>
<event>
 8    1  0.3588496E-007  0.1298555E+03  0.7546771E-02  0.1227672E+00
         -5   -1    0    0    0  501 -0.00000000000E+00  0.00000000000E+00  0.55338055961E+03  0.55340051839E+03  0.47000000000E+01 0.  1.
          5   -1    0    0  501    0  0.00000000000E+00 -0.00000000000E+00 -0.37389061139E+02  0.37683310534E+02  0.47000000000E+01 0.  1.
         25    2    1    2    0    0 -0.34531163082E+02 -0.66791194938E+01  0.38637103861E+03  0.40760892021E+03  0.12500176197E+03 0.  0.
         25    2    1    2    0    0  0.34531163082E+02  0.66791194938E+01  0.12962045986E+03  0.18347490872E+03  0.12499826660E+03 0.  0.
          5    1    4    4  502    0 -0.17615608853E+02 -0.46565293738E+02  0.78149899022E+02  0.92780024646E+02  0.47000000000E+01 0. -1.
         -5    1    4    4    0  502  0.52146771934E+02  0.53244413232E+02  0.51470560840E+02  0.90694884071E+02  0.47000000000E+01 0. -1.
          5    1    3    3  503    0 -0.46972288003E+01  0.39302421949E+02  0.38508837460E+02  0.55423504869E+02  0.47000000000E+01 0.  1.
         -5    1    3    3    0  503 -0.29833934281E+02 -0.45981541443E+02  0.34786220115E+03  0.35218541534E+03  0.47000000000E+01 0.  1.
<mgrwt>
<rscale>  0 0.12985466E+03</rscale>
<asrwt>0</asrwt>
<pdfrwt beam="2">  1        5 0.57763331E-02 0.12985551E+03</pdfrwt>
<pdfrwt beam="1">  1       -5 0.85159641E-01 0.12985551E+03</pdfrwt>
<totfact> 0.16957521E+02</totfact>
</mgrwt>
</event>
<event>
 8    1  0.3588496E-007  0.1294594E+03  0.7546771E-02  0.1228263E+00
          5   -1    0    0  501    0  0.00000000000E+00  0.00000000000E+00  0.18263164507E+03  0.18269211198E+03  0.47000000000E+01 0. -1.
         -5   -1    0    0    0  501 -0.00000000000E+00 -0.00000000000E+00 -0.10552804891E+03  0.10563266117E+03  0.47000000000E+01 0. -1.
         25    2    1    2    0    0  0.26534474965E+02  0.20742589049E+02 -0.13726564375E+02  0.13018508039E+03  0.12500161289E+03 0.  0.
         25    2    1    2    0    0 -0.26534474965E+02 -0.20742589049E+02  0.90830160536E+02  0.15813969276E+03  0.12499484389E+03 0.  0.
          5    1    3    3  502    0 -0.38711331797E+02 -0.21092106306E+02  0.15867609993E+02  0.47088376536E+02  0.47000000000E+01 0. -1.
         -5    1    3    3    0  502  0.65245806761E+02  0.41834695356E+02 -0.29594174367E+02  0.83096703857E+02  0.47000000000E+01 0. -1.
          5    1    4    4  503    0 -0.14923950856E+01  0.88349452526E+00  0.11612096208E+03  0.11622897935E+03  0.47000000000E+01 0. -1.
         -5    1    4    4    0  503 -0.25042079879E+02 -0.21626083574E+02 -0.25290801547E+02  0.41910713408E+02  0.47000000000E+01 0. -1.
<mgrwt>
<rscale>  0 0.12945777E+03</rscale>
<asrwt>0</asrwt>
<pdfrwt beam="1">  1        5 0.28109874E-01 0.12945940E+03</pdfrwt>
<pdfrwt beam="2">  1       -5 0.16247783E-01 0.12945940E+03</pdfrwt>
<totfact> 0.29316171E+02</totfact>
</mgrwt>
</event>
<event>
 8    1  0.3588496E-007  0.1300999E+03  0.7546771E-02  0.1227313E+00
         -5   -1    0    0    0  501 -0.00000000000E+00  0.00000000000E+00  0.42462815470E+02  0.42722133580E+02  0.47000000000E+01 0. -1.
          5   -1    0    0  501    0  0.00000000000E+00 -0.00000000000E+00 -0.39795250717E+03  0.39798026077E+03  0.47000000000E+01 0. -1.
         25    2    1    2    0    0 -0.28888470388E+02  0.21543282165E+02 -0.16740789779E+03  0.21201741756E+03  0.12500929717E+03 0.  0.
         25    2    1    2    0    0  0.28888470388E+02 -0.21543282165E+02 -0.18808179391E+03  0.22868497679E+03  0.12499360257E+03 0.  0.
          5    1    3    3  502    0  0.31660063901E+02  0.51976654112E+02 -0.65392747330E+02  0.89455204556E+02  0.47000000000E+01 0.  1.
         -5    1    3    3    0  502 -0.60548534288E+02 -0.30433371947E+02 -0.10201515046E+03  0.12256221301E+03  0.47000000000E+01 0.  1.
          5    1    4    4  503    0  0.94602054199E+01  0.21173699942E+02  0.95402104181E+01  0.25513264602E+02  0.47000000000E+01 0.  1.
         -5    1    4    4    0  503  0.19428264968E+02 -0.42716982107E+02 -0.19762200432E+03  0.20317171219E+03  0.47000000000E+01 0.  1.
<mgrwt>
<rscale>  0 0.13009612E+03</rscale>
<asrwt>0</asrwt>
<pdfrwt beam="2">  1        5 0.61245543E-01 0.13009989E+03</pdfrwt>
<pdfrwt beam="1">  1       -5 0.65548235E-02 0.13009989E+03</pdfrwt>
<totfact> 0.28944468E+02</totfact>
</mgrwt>
</event>
<event>
 8    1  0.3588496E-007  0.1254230E+03  0.7546771E-02  0.1234439E+00
         -5   -1    0    0    0  501 -0.00000000000E+00  0.00000000000E+00  0.39882157318E+02  0.40158143288E+02  0.47000000000E+01 0.  1.
          5   -1    0    0  501    0  0.00000000000E+00 -0.00000000000E+00 -0.39502475748E+03  0.39505271677E+03  0.47000000000E+01 0.  1.
         25    2    1    2    0    0 -0.37473227256E+01 -0.85931725598E+01 -0.16030761085E+03  0.20349637137E+03  0.12499743206E+03 0.  0.
         25    2    1    2    0    0  0.37473227256E+01  0.85931725598E+01 -0.19483498931E+03  0.23171448868E+03  0.12507216382E+03 0.  0.
          5    1    3    3  502    0  0.14623631014E+02 -0.64322252527E+02 -0.92378857404E+02  0.11360962129E+03  0.47000000000E+01 0. -1.
         -5    1    3    3    0  502 -0.18370953740E+02  0.55729079967E+02 -0.67928753448E+02  0.89886750082E+02  0.47000000000E+01 0. -1.
          5    1    4    4  503    0  0.64223215512E+02  0.22913131165E+01 -0.99357201704E+02  0.11842218988E+03  0.47000000000E+01 0.  1.
         -5    1    4    4    0  503 -0.60475892786E+02  0.63018594433E+01 -0.95477787607E+02  0.11329229880E+03  0.47000000000E+01 0.  1.
<mgrwt>
<rscale>  0 0.12540437E+03</rscale>
<asrwt>0</asrwt>
<pdfrwt beam="2">  1        5 0.60796417E-01 0.12542301E+03</pdfrwt>
<pdfrwt beam="1">  1       -5 0.61590972E-02 0.12542301E+03</pdfrwt>
<totfact> 0.32236815E+02</totfact>
</mgrwt>
</event>
<event>
 8    1  0.3588496E-007  0.1464124E+03  0.7546771E-02  0.1204953E+00
          5   -1    0    0  501    0  0.00000000000E+00  0.00000000000E+00  0.19988032237E+02  0.20533178826E+02  0.47000000000E+01 0.  1.
         -5   -1    0    0    0  501 -0.00000000000E+00 -0.00000000000E+00 -0.12274266620E+04  0.12274356605E+04  0.47000000000E+01 0.  1.
         25    2    1    2    0    0  0.74191214374E+02 -0.17507750836E+02 -0.83585180099E+03  0.84857761735E+03  0.12499952729E+03 0.  0.
         25    2    1    2    0    0 -0.74191214374E+02  0.17507750836E+02 -0.37158682881E+03  0.39939122198E+03  0.12500287684E+03 0.  0.
          5    1    4    4  502    0 -0.28279336013E+02 -0.22189754029E+02 -0.17765037174E+02  0.40370689553E+02  0.47000000000E+01 0.  1.
         -5    1    4    4    0  502 -0.45911878361E+02  0.39697504865E+02 -0.35382179164E+03  0.35902053243E+03  0.47000000000E+01 0.  1.
          5    1    3    3  503    0  0.43715433377E+02 -0.40033074361E+02 -0.14565195931E+03  0.15732218346E+03  0.47000000000E+01 0. -1.
         -5    1    3    3    0  503  0.30475780996E+02  0.22525323525E+02 -0.69019984168E+03  0.69125543389E+03  0.47000000000E+01 0. -1.
<mgrwt>
<rscale>  0 0.14641164E+03</rscale>
<asrwt>0</asrwt>
<pdfrwt beam="1">  1        5 0.31177094E-02 0.14641235E+03</pdfrwt>
<pdfrwt beam="2">  1       -5 0.18887744E+00 0.14641235E+03</pdfrwt>
<totfact> 0.60440455E+01</totfact>
</mgrwt>
</event>
<event>
 8    1  0.3588496E-007  0.1843732E+03  0.7546771E-02  0.1163637E+00
         -5   -1    0    0    0  501 -0.00000000000E+00  0.00000000000E+00  0.19187738061E+03  0.19193493478E+03  0.47000000000E+01 0. -1.
          5   -1    0    0  501    0  0.00000000000E+00 -0.00000000000E+00 -0.18716584132E+03  0.18722484386E+03  0.47000000000E+01 0. -1.
         25    2    1    2    0    0 -0.13279405274E+03  0.27079053981E+02  0.46425051336E+02  0.19012668320E+03  0.12500133866E+03 0.  0.
         25    2    1    2    0    0  0.13279405274E+03 -0.27079053981E+02 -0.41713512051E+02  0.18903309544E+03  0.12500383385E+03 0.  0.
          5    1    4    4  502    0 -0.10984070367E+02 -0.35323619027E+02 -0.22796676022E+02  0.43705678128E+02  0.47000000000E+01 0.  1.
         -5    1    4    4    0  502  0.14377812310E+03  0.82445650459E+01 -0.18916836029E+02  0.14532741731E+03  0.47000000000E+01 0.  1.
          5    1    3    3  503    0 -0.12933999317E+03 -0.25023334693E+02  0.36316179850E+02  0.13673315629E+03  0.47000000000E+01 0.  1.
         -5    1    3    3    0  503 -0.34540595716E+01  0.52102388674E+02  0.10108871485E+02  0.53393526909E+02  0.47000000000E+01 0.  1.
<mgrwt>
<rscale>  0 0.18437282E+03</rscale>
<asrwt>0</asrwt>
<pdfrwt beam="2">  1        5 0.28803711E-01 0.18437325E+03</pdfrwt>
<pdfrwt beam="1">  1       -5 0.29528563E-01 0.18437325E+03</pdfrwt>
<totfact> 0.10111934E+02</totfact>
</mgrwt>
</event>
<event>
 8    1  0.3588496E-007  0.1291710E+03  0.7546771E-02  0.1228693E+00
         -5   -1    0    0    0  501 -0.00000000000E+00  0.00000000000E+00  0.43465430771E+03  0.43467971797E+03  0.47000000000E+01 0. -1.
          5   -1    0    0  501    0  0.00000000000E+00 -0.00000000000E+00 -0.38688075739E+02  0.38972518579E+02  0.47000000000E+01 0. -1.
         25    2    1    2    0    0 -0.15790599771E+02 -0.28468586863E+02  0.22407665595E+03  0.25864165670E+03  0.12500142142E+03 0.  0.
         25    2    1    2    0    0  0.15790599771E+02  0.28468586863E+02  0.17188957603E+03  0.21501057985E+03  0.12499487839E+03 0.  0.
          5    1    3    3  502    0  0.71064805218E+01 -0.42466317141E+02  0.22713273526E+03  0.23122555997E+03  0.47000000000E+01 0.  1.
         -5    1    3    3    0  502 -0.22897080293E+02  0.13997730278E+02 -0.30560793095E+01  0.27416096725E+02  0.47000000000E+01 0.  1.
          5    1    4    4  503    0 -0.62980689175E+01 -0.37345705394E+02  0.10996498493E+02  0.39716248093E+02  0.47000000000E+01 0.  1.
         -5    1    4    4    0  503  0.22088668689E+02  0.65814292257E+02  0.16089307753E+03  0.17529433176E+03  0.47000000000E+01 0.  1.
<mgrwt>
<rscale>  0 0.12916946E+03</rscale>
<asrwt>0</asrwt>
<pdfrwt beam="2">  1        5 0.59758464E-02 0.12917104E+03</pdfrwt>
<pdfrwt beam="1">  1       -5 0.66893729E-01 0.12917104E+03</pdfrwt>
<totfact> 0.27752854E+02</totfact>
</mgrwt>
</event>
<event>
 8    1  0.3588496E-007  0.1252526E+03  0.7546771E-02  0.1234676E+00
         -5   -1    0    0    0  501 -0.00000000000E+00  0.00000000000E+00  0.60393842503E+03  0.60395671304E+03  0.47000000000E+01 0. -1.
          5   -1    0    0  501    0  0.00000000000E+00 -0.00000000000E+00 -0.29233664728E+02  0.29609072147E+02  0.47000000000E+01 0. -1.
         25    2    1    2    0    0  0.80581637794E+00 -0.78668162735E+01  0.39601362792E+03  0.41534859118E+03  0.12500049021E+03 0.  0.
         25    2    1    2    0    0 -0.80581637794E+00  0.78668162735E+01  0.17869113237E+03  0.21821719401E+03  0.12500274730E+03 0.  0.
          5    1    4    4  502    0  0.49654839445E+02  0.37956657841E+01  0.24185115187E+02  0.55560957116E+02  0.47000000000E+01 0.  1.
         -5    1    4    4    0  502 -0.50460655823E+02  0.40711504894E+01  0.15450601719E+03  0.16265623689E+03  0.47000000000E+01 0.  1.
          5    1    3    3  503    0  0.44285104867E+02 -0.39168972909E+02  0.11671614737E+03  0.13092031167E+03  0.47000000000E+01 0.  1.
         -5    1    3    3    0  503 -0.43479288489E+02  0.31302156636E+02  0.27929748056E+03  0.28442827951E+03  0.47000000000E+01 0.  1.
<mgrwt>
<rscale>  0 0.12525207E+03</rscale>
<asrwt>0</asrwt>
<pdfrwt beam="2">  1        5 0.45277709E-02 0.12525264E+03</pdfrwt>
<pdfrwt beam="1">  1       -5 0.92943893E-01 0.12525264E+03</pdfrwt>
<totfact> 0.20409524E+02</totfact>
</mgrwt>
</event>
<event>
 8    1  0.3588496E-007  0.1406169E+03  0.7546771E-02  0.1212502E+00
          5   -1    0    0  501    0  0.00000000000E+00  0.00000000000E+00  0.59724834667E+02  0.59909480685E+02  0.47000000000E+01 0. -1.
         -5   -1    0    0    0  501 -0.00000000000E+00 -0.00000000000E+00 -0.33351711495E+03  0.33355023005E+03  0.47000000000E+01 0. -1.
         25    2    1    2    0    0  0.64087205877E+02  0.63562000751E+01 -0.15605576883E+03  0.21006310186E+03  0.12500213015E+03 0.  0.
         25    2    1    2    0    0 -0.64087205877E+02 -0.63562000751E+01 -0.11773651145E+03  0.18339660887E+03  0.12499943512E+03 0.  0.
          5    1    3    3  502    0  0.54568416905E+02 -0.41902710910E+02 -0.14330077844E+03  0.15903066499E+03  0.47000000000E+01 0. -1.
         -5    1    3    3    0  502  0.95187889720E+01  0.48258910985E+02 -0.12754990386E+02  0.51032436868E+02  0.47000000000E+01 0. -1.
          5    1    4    4  503    0 -0.64440289476E+02  0.51459187721E+02 -0.68217453274E+02  0.10712754006E+03  0.47000000000E+01 0. -1.
         -5    1    4    4    0  503  0.35308359830E+00 -0.57815387797E+02 -0.49519058179E+02  0.76269068809E+02  0.47000000000E+01 0. -1.
<mgrwt>
<rscale>  0 0.14061627E+03</rscale>
<asrwt>0</asrwt>
<pdfrwt beam="1">  1        5 0.92051871E-02 0.14061687E+03</pdfrwt>
<pdfrwt beam="2">  1       -5 0.51327075E-01 0.14061687E+03</pdfrwt>
<totfact> 0.24363473E+02</totfact>
</mgrwt>
</event>
<event>
 8    1  0.3588496E-007  0.1269509E+03  0.7546771E-02  0.1232053E+00
         -5   -1    0    0    0  501 -0.00000000000E+00  0.00000000000E+00  0.92251051499E+02  0.92370701538E+02  0.47000000000E+01 0. -1.
          5   -1    0    0  501    0  0.00000000000E+00 -0.00000000000E+00 -0.17677171303E+03  0.17683418371E+03  0.47000000000E+01 0. -1.
         25    2    1    2    0    0  0.21219211658E+02  0.62321231456E+01 -0.26789901035E+02  0.12974679027E+03  0.12500974557E+03 0.  0.
         25    2    1    2    0    0 -0.21219211658E+02 -0.62321231456E+01 -0.57730760495E+02  0.13945809497E+03  0.12500650080E+03 0.  0.
          5    1    4    4  502    0  0.10579753569E+02  0.21452201966E+02  0.31986654842E+02  0.40216467308E+02  0.47000000000E+01 0. -1.
         -5    1    4    4    0  502 -0.31798965227E+02 -0.27684325111E+02 -0.89717415337E+02  0.99241627663E+02  0.47000000000E+01 0. -1.
          5    1    3    3  503    0 -0.37116919930E+02  0.13754207700E+02 -0.52050479180E+02  0.65560554889E+02  0.47000000000E+01 0. -1.
         -5    1    3    3    0  503  0.58336131588E+02 -0.75220845547E+01  0.25260578145E+02  0.64186235385E+02  0.47000000000E+01 0. -1.
<mgrwt>
<rscale>  0 0.12695010E+03</rscale>
<asrwt>0</asrwt>
<pdfrwt beam="2">  1        5 0.27209657E-01 0.12695090E+03</pdfrwt>
<pdfrwt beam="1">  1       -5 0.14206479E-01 0.12695090E+03</pdfrwt>
<totfact> 0.39531517E+02</totfact>
</mgrwt>
</event>
<event>
 8    1  0.3588496E-007  0.1693290E+03  0.7546771E-02  0.1178551E+00
          5   -1    0    0  501    0  0.00000000000E+00  0.00000000000E+00  0.63543920898E+02  0.63717500603E+02  0.47000000000E+01 0. -1.
         -5   -1    0    0    0  501 -0.00000000000E+00 -0.00000000000E+00 -0.58152254302E+03  0.58154153596E+03  0.47000000000E+01 0. -1.
         25    2    1    2    0    0 -0.11407543144E+03  0.55810952657E+01 -0.41216506274E+03  0.44559213218E+03  0.12501182596E+03 0.  0.
         25    2    1    2    0    0  0.11407543144E+03 -0.55810952657E+01 -0.10581355938E+03  0.19966690438E+03  0.12500404262E+03 0.  0.
          5    1    3    3  502    0 -0.11960178003E+03 -0.84513127419E+01 -0.41269631388E+03  0.42978639806E+03  0.47000000000E+01 0.  1.
         -5    1    3    3    0  502  0.55263485830E+01  0.14032408008E+02  0.53125113464E+00  0.15805734115E+02  0.47000000000E+01 0.  1.
          5    1    4    4  503    0  0.11736991435E+03 -0.33696630932E+02 -0.11670196473E+03  0.16897514108E+03  0.47000000000E+01 0.  1.
         -5    1    4    4    0  503 -0.32944829064E+01  0.28115535667E+02  0.10888405350E+02  0.30691763301E+02  0.47000000000E+01 0.  1.
<mgrwt>
<rscale>  0 0.16932756E+03</rscale>
<asrwt>0</asrwt>
<pdfrwt beam="1">  1        5 0.97908015E-02 0.16932900E+03</pdfrwt>
<pdfrwt beam="2">  1       -5 0.89479817E-01 0.16932900E+03</pdfrwt>
<totfact> 0.66509326E+01</totfact>
</mgrwt>
</event>
<event>
 8    1  0.3588496E-007  0.1493361E+03  0.7546771E-02  0.1201292E+00
          5   -1    0    0  501    0  0.00000000000E+00  0.00000000000E+00  0.16911355763E+03  0.16917885617E+03  0.47000000000E+01 0.  1.
         -5   -1    0    0    0  501 -0.00000000000E+00 -0.00000000000E+00 -0.15401336826E+03  0.15408506613E+03  0.47000000000E+01 0.  1.
         25    2    1    2    0    0 -0.55201057007E+02 -0.60249371762E+02 -0.53893881164E+02  0.15876024458E+03  0.12499248513E+03 0.  0.
         25    2    1    2    0    0  0.55201057007E+02  0.60249371762E+02  0.68994070528E+02  0.16450367771E+03  0.12499653884E+03 0.  0.
          5    1    3    3  502    0  0.36203692082E+02 -0.40687180965E+01  0.36638111238E+01  0.36915786586E+02  0.47000000000E+01 0. -1.
         -5    1    3    3    0  502 -0.91404749089E+02 -0.56180653665E+02 -0.57557692287E+02  0.12184445799E+03  0.47000000000E+01 0. -1.
          5    1    4    4  503    0 -0.29292927533E+01  0.58759210259E+02 -0.16242807299E+02  0.61213922724E+02  0.47000000000E+01 0. -1.
         -5    1    4    4    0  503  0.58130349760E+02  0.14901615028E+01  0.85236877826E+02  0.10328975499E+03  0.47000000000E+01 0. -1.
<mgrwt>
<rscale>  0 0.14933528E+03</rscale>
<asrwt>0</asrwt>
<pdfrwt beam="1">  1        5 0.26028008E-01 0.14933612E+03</pdfrwt>
<pdfrwt beam="2">  1       -5 0.23704903E-01 0.14933612E+03</pdfrwt>
<totfact> 0.17669558E+02</totfact>
</mgrwt>
</event>
<event>
 8    1  0.3588496E-007  0.2037863E+03  0.7546771E-02  0.1146584E+00
          5   -1    0    0  501    0  0.00000000000E+00  0.00000000000E+00  0.83339564410E+03  0.83340889700E+03  0.47000000000E+01 0.  1.
         -5   -1    0    0    0  501 -0.00000000000E+00 -0.00000000000E+00 -0.56902345083E+02  0.57096119622E+02  0.47000000000E+01 0.  1.
         25    2    1    2    0    0 -0.15559510423E+03  0.41165672818E+02  0.23019543061E+03  0.30743536058E+03  0.12498846179E+03 0.  0.
         25    2    1    2    0    0  0.15559510423E+03 -0.41165672818E+02  0.54629786841E+03  0.58306965605E+03  0.12499765476E+03 0.  0.
          5    1    3    3  502    0 -0.48116959305E+02  0.56229944482E+02  0.30656711643E+02  0.80243207800E+02  0.47000000000E+01 0. -1.
         -5    1    3    3    0  502 -0.10747814493E+03 -0.15064271664E+02  0.19953871896E+03  0.22719215278E+03  0.47000000000E+01 0. -1.
          5    1    4    4  503    0 -0.13763128140E+02 -0.12605746583E+02  0.14865243015E+03  0.14989317374E+03  0.47000000000E+01 0.  1.
         -5    1    4    4    0  503  0.16935823237E+03 -0.28559926235E+02  0.39764543826E+03  0.43317648231E+03  0.47000000000E+01 0.  1.
<mgrwt>
<rscale>  0 0.20378491E+03</rscale>
<asrwt>0</asrwt>
<pdfrwt beam="1">  1        5 0.12823064E+00 0.20378632E+03</pdfrwt>
<pdfrwt beam="2">  1       -5 0.87701318E-02 0.20378632E+03</pdfrwt>
<totfact> 0.34508868E+01</totfact>
</mgrwt>
</event>
<event>
 8    1  0.3588496E-007  0.1349060E+03  0.7546771E-02  0.1220354E+00
          5   -1    0    0  501    0  0.00000000000E+00  0.00000000000E+00  0.64402437262E+02  0.64573709242E+02  0.47000000000E+01 0.  1.
         -5   -1    0    0    0  501 -0.00000000000E+00 -0.00000000000E+00 -0.28771015852E+03  0.28774854528E+03  0.47000000000E+01 0.  1.
         25    2    1    2    0    0  0.39076045091E+02 -0.32356615551E+02 -0.13641855197E+03  0.19185621066E+03  0.12499958551E+03 0.  0.
         25    2    1    2    0    0 -0.39076045091E+02  0.32356615551E+02 -0.86889169282E+02  0.16046604386E+03  0.12500294247E+03 0.  0.
          5    1    4    4  502    0 -0.81573580214E+02  0.11601253917E+02 -0.33721778038E+02  0.89152040893E+02  0.47000000000E+01 0.  1.
         -5    1    4    4    0  502  0.42497535122E+02  0.20755361635E+02 -0.53167391245E+02  0.71314002971E+02  0.47000000000E+01 0.  1.
          5    1    3    3  503    0 -0.31944948493E+02 -0.33428911328E+02 -0.10344438870E+03  0.11340548223E+03  0.47000000000E+01 0.  1.
         -5    1    3    3    0  503  0.71020993584E+02  0.10722957762E+01 -0.32974163275E+02  0.78450728433E+02  0.47000000000E+01 0.  1.
<mgrwt>
<rscale>  0 0.13490520E+03</rscale>
<asrwt>0</asrwt>
<pdfrwt beam="1">  1        5 0.99241950E-02 0.13490598E+03</pdfrwt>
<pdfrwt beam="2">  1       -5 0.44279228E-01 0.13490598E+03</pdfrwt>
<totfact> 0.28756674E+02</totfact>
</mgrwt>
</event>
<event>
 8    1  0.3588496E-007  0.1298216E+03  0.7546771E-02  0.1227722E+00
         -5   -1    0    0    0  501 -0.00000000000E+00  0.00000000000E+00  0.32727173686E+03  0.32730548383E+03  0.47000000000E+01 0. -1.
          5   -1    0    0  501    0  0.00000000000E+00 -0.00000000000E+00 -0.69671157994E+02  0.69829508492E+02  0.47000000000E+01 0. -1.
         25    2    1    2    0    0  0.34241944638E+02 -0.74714772742E+01  0.23045726505E+03  0.26450615901E+03  0.12499849355E+03 0.  0.
         25    2    1    2    0    0 -0.34241944638E+02  0.74714772742E+01  0.27143313809E+02  0.13262883332E+03  0.12500125678E+03 0.  0.
          5    1    4    4  502    0  0.52790842257E+01  0.32006984539E+02 -0.39431700588E+02  0.51276357133E+02  0.47000000000E+01 0.  1.
         -5    1    4    4    0  502 -0.39521028863E+02 -0.24535507265E+02  0.66575014398E+02  0.81352476184E+02  0.47000000000E+01 0.  1.
          5    1    3    3  503    0 -0.37870420167E+02 -0.31665726576E+02  0.60358147289E+02  0.78115830069E+02  0.47000000000E+01 0. -1.
         -5    1    3    3    0  503  0.72112364804E+02  0.24194249302E+02  0.17009911776E+03  0.18639032894E+03  0.47000000000E+01 0. -1.
<mgrwt>
<rscale>  0 0.12982094E+03</rscale>
<asrwt>0</asrwt>
<pdfrwt beam="2">  1        5 0.10733416E-01 0.12982160E+03</pdfrwt>
<pdfrwt beam="1">  1       -5 0.50364275E-01 0.12982160E+03</pdfrwt>
<totfact> 0.18882297E+02</totfact>
</mgrwt>
</event>
<event>
 8    1  0.3588496E-007  0.1343557E+03  0.7546771E-02  0.1221133E+00
          5   -1    0    0  501    0  0.00000000000E+00  0.00000000000E+00  0.73698374351E+02  0.73848089900E+02  0.47000000000E+01 0. -1.
         -5   -1    0    0    0  501 -0.00000000000E+00 -0.00000000000E+00 -0.24453703635E+03  0.24458219916E+03  0.47000000000E+01 0. -1.
         25    2    1    2    0    0 -0.28213326902E+02 -0.40380543941E+02 -0.86973296619E+02  0.16004939601E+03  0.12499949878E+03 0.  0.
         25    2    1    2    0    0  0.28213326902E+02  0.40380543941E+02 -0.83865365382E+02  0.15838089305E+03  0.12499811051E+03 0.  0.
          5    1    3    3  502    0 -0.74893063601E+02 -0.39275740643E+02 -0.70864385738E+02  0.11043281190E+03  0.47000000000E+01 0. -1.
         -5    1    3    3    0  502  0.46679736700E+02 -0.11048032979E+01 -0.16108910881E+02  0.49616584107E+02  0.47000000000E+01 0. -1.
          5    1    4    4  503    0  0.31721944478E+02  0.58774206966E+02  0.52870967443E+01  0.67161987448E+02  0.47000000000E+01 0. -1.
         -5    1    4    4    0  503 -0.35086175764E+01 -0.18393663025E+02 -0.89152462127E+02  0.91218905606E+02  0.47000000000E+01 0. -1.
<mgrwt>
<rscale>  0 0.13435538E+03</rscale>
<asrwt>0</asrwt>
<pdfrwt beam="1">  1        5 0.11353202E-01 0.13435570E+03</pdfrwt>
<pdfrwt beam="2">  1       -5 0.37636073E-01 0.13435570E+03</pdfrwt>
<totfact> 0.31658176E+02</totfact>
</mgrwt>
</event>
<event>
 8    1  0.3588496E-007  0.1296285E+03  0.7546771E-02  0.1228008E+00
         -5   -1    0    0    0  501 -0.00000000000E+00  0.00000000000E+00  0.13116144828E+03  0.13124563046E+03  0.47000000000E+01 0. -1.
          5   -1    0    0  501    0  0.00000000000E+00 -0.00000000000E+00 -0.14092304024E+03  0.14100139457E+03  0.47000000000E+01 0. -1.
         25    2    1    2    0    0 -0.33936148992E+02  0.51802017104E+01  0.36404260863E+02  0.13464333802E+03  0.12500024627E+03 0.  0.
         25    2    1    2    0    0  0.33936148992E+02 -0.51802017104E+01 -0.46165852831E+02  0.13760368701E+03  0.12499996805E+03 0.  0.
          5    1    4    4  502    0  0.92018914433E+01 -0.14705220509E+02  0.41859393269E+02  0.45554551048E+02  0.47000000000E+01 0. -1.
         -5    1    4    4    0  502  0.24734257549E+02  0.95250187990E+01 -0.88025246100E+02  0.92049135958E+02  0.47000000000E+01 0. -1.
          5    1    3    3  503    0 -0.68449294354E+02  0.33057338396E+02 -0.13919782148E+01  0.76171655638E+02  0.47000000000E+01 0. -1.
         -5    1    3    3    0  503  0.34513145361E+02 -0.27877136685E+02  0.37796239078E+02  0.58471682385E+02  0.47000000000E+01 0. -1.
<mgrwt>
<rscale>  0 0.12962847E+03</rscale>
<asrwt>0</asrwt>
<pdfrwt beam="2">  1        5 0.21692971E-01 0.12962854E+03</pdfrwt>
<pdfrwt beam="1">  1       -5 0.20191187E-01 0.12962854E+03</pdfrwt>
<totfact> 0.32241536E+02</totfact>
</mgrwt>
</event>
<event>
 8    1  0.3588496E-007  0.1363332E+03  0.7546771E-02  0.1218359E+00
          5   -1    0    0  501    0  0.00000000000E+00  0.00000000000E+00  0.33542938851E+03  0.33546231484E+03  0.47000000000E+01 0. -1.
         -5   -1    0    0    0  501 -0.00000000000E+00 -0.00000000000E+00 -0.86922513941E+02  0.87049488395E+02  0.47000000000E+01 0. -1.
         25    2    1    2    0    0  0.19642993212E+02 -0.50697371297E+02 -0.31014873534E+01  0.13634139916E+03  0.12499314886E+03 0.  0.
         25    2    1    2    0    0 -0.19642993212E+02  0.50697371297E+02  0.25160836193E+03  0.28617040407E+03  0.12502264490E+03 0.  0.
          5    1    4    4  502    0 -0.36475880999E+01 -0.39187630509E+02  0.11634636920E+03  0.12291274511E+03  0.47000000000E+01 0. -1.
         -5    1    4    4    0  502 -0.15995405112E+02  0.89885001806E+02  0.13526199272E+03  0.16325765896E+03  0.47000000000E+01 0. -1.
          5    1    3    3  503    0  0.62592123982E+02 -0.64854715582E+02  0.39008010336E+01  0.90339439707E+02  0.47000000000E+01 0. -1.
         -5    1    3    3    0  503 -0.42949130771E+02  0.14157344285E+02 -0.70022883871E+01  0.46001959456E+02  0.47000000000E+01 0. -1.
<mgrwt>
<rscale>  0 0.13632640E+03</rscale>
<asrwt>0</asrwt>
<pdfrwt beam="1">  1        5 0.51616822E-01 0.13633317E+03</pdfrwt>
<pdfrwt beam="2">  1       -5 0.13384994E-01 0.13633317E+03</pdfrwt>
<totfact> 0.12323969E+02</totfact>
</mgrwt>
</event>
<event>
 8    1  0.3588496E-007  0.1630278E+03  0.7546771E-02  0.1185325E+00
         -5   -1    0    0    0  501 -0.00000000000E+00  0.00000000000E+00  0.29492861872E+03  0.29496606608E+03  0.47000000000E+01 0. -1.
          5   -1    0    0  501    0  0.00000000000E+00 -0.00000000000E+00 -0.95766264417E+02  0.95881527942E+02  0.47000000000E+01 0. -1.
         25    2    1    2    0    0 -0.89425845360E+02  0.54316064509E+02  0.14748961366E+03  0.21984366646E+03  0.12502333726E+03 0.  0.
         25    2    1    2    0    0  0.89425845360E+02 -0.54316064509E+02  0.51672740635E+02  0.17100392756E+03  0.12500021774E+03 0.  0.
          5    1    4    4  502    0  0.16012466859E+02 -0.31771451768E+02  0.81054537319E+02  0.88643963485E+02  0.47000000000E+01 0. -1.
         -5    1    4    4    0  502  0.73413378501E+02 -0.22544612741E+02 -0.29381796684E+02  0.82359964078E+02  0.47000000000E+01 0. -1.
          5    1    3    3  503    0 -0.29108395086E+02  0.56713919352E+02  0.14588540331E+03  0.15927463141E+03  0.47000000000E+01 0.  1.
         -5    1    3    3    0  503 -0.60317450274E+02 -0.23978548422E+01  0.16042103538E+01  0.60569035045E+02  0.47000000000E+01 0.  1.
<mgrwt>
<rscale>  0 0.16302333E+03</rscale>
<asrwt>0</asrwt>
<pdfrwt beam="2">  1        5 0.14745019E-01 0.16302776E+03</pdfrwt>
<pdfrwt beam="1">  1       -5 0.45385379E-01 0.16302776E+03</pdfrwt>
<totfact> 0.14384422E+02</totfact>
</mgrwt>
</event>
<event>
 8    1  0.3588496E-007  0.2175961E+03  0.7546771E-02  0.1135690E+00
          5   -1    0    0  501    0  0.00000000000E+00  0.00000000000E+00  0.42048320683E+03  0.42050947341E+03  0.47000000000E+01 0. -1.
         -5   -1    0    0    0  501 -0.00000000000E+00 -0.00000000000E+00 -0.11904092298E+03  0.11913367007E+03  0.47000000000E+01 0. -1.
         25    2    1    2    0    0  0.17169569628E+03  0.47372659978E+02  0.21384247576E+03  0.30507588644E+03  0.12497644184E+03 0.  0.
         25    2    1    2    0    0 -0.17169569628E+03 -0.47372659978E+02  0.87599808097E+02  0.23456725704E+03  0.12499796262E+03 0.  0.
          5    1    4    4  502    0 -0.13246341466E+03 -0.65090897165E+02  0.11156591429E+03  0.18507410502E+03  0.47000000000E+01 0. -1.
         -5    1    4    4    0  502 -0.39232281627E+02  0.17718237187E+02 -0.23966106192E+02  0.49493152018E+02  0.47000000000E+01 0. -1.
          5    1    3    3  503    0  0.78187379062E+01 -0.33486219436E+02  0.31201396023E+02  0.46669868956E+02  0.47000000000E+01 0. -1.
         -5    1    3    3    0  503  0.16387695838E+03  0.80858879414E+02  0.18264107973E+03  0.25840601749E+03  0.47000000000E+01 0. -1.
<mgrwt>
<rscale>  0 0.21759303E+03</rscale>
<asrwt>0</asrwt>
<pdfrwt beam="1">  1        5 0.64698879E-01 0.21759612E+03</pdfrwt>
<pdfrwt beam="2">  1       -5 0.18323143E-01 0.21759612E+03</pdfrwt>
<totfact> 0.48574617E+01</totfact>
</mgrwt>
</event>
<event>
 8    1  0.3588496E-007  0.2015637E+03  0.7546771E-02  0.1148428E+00
          5   -1    0    0  501    0  0.00000000000E+00  0.00000000000E+00  0.25964019985E+03  0.25968273600E+03  0.47000000000E+01 0.  1.
         -5   -1    0    0    0  501 -0.00000000000E+00 -0.00000000000E+00 -0.18515455408E+03  0.18521419734E+03  0.47000000000E+01 0.  1.
         25    2    1    2    0    0 -0.15762701315E+03 -0.12339262582E+02  0.12490653946E+03  0.23712774698E+03  0.12501756721E+03 0.  0.
         25    2    1    2    0    0  0.15762701315E+03  0.12339262582E+02 -0.50420893690E+02  0.20776918636E+03  0.12500894210E+03 0.  0.
          5    1    3    3  502    0 -0.90779877455E+02 -0.68671360638E+02  0.67012605610E+02  0.13217231644E+03  0.47000000000E+01 0.  1.
         -5    1    3    3    0  502 -0.66847135696E+02  0.56332098056E+02  0.57893933852E+02  0.10495543054E+03  0.47000000000E+01 0.  1.
          5    1    4    4  503    0  0.13532707387E+03  0.45075017832E+02  0.96736964857E+00  0.14271720274E+03  0.47000000000E+01 0. -1.
         -5    1    4    4    0  503  0.22299939280E+02 -0.32735755250E+02 -0.51388263338E+02  0.65051983618E+02  0.47000000000E+01 0. -1.
<mgrwt>
<rscale>  0 0.20156236E+03</rscale>
<asrwt>0</asrwt>
<pdfrwt beam="1">  1        5 0.39952506E-01 0.20156370E+03</pdfrwt>
<pdfrwt beam="2">  1       -5 0.28493176E-01 0.20156370E+03</pdfrwt>
<totfact> 0.57612785E+01</totfact>
</mgrwt>
</event>
<event>
 8    1  0.3588496E-007  0.1516727E+03  0.7546771E-02  0.1198437E+00
          5   -1    0    0  501    0  0.00000000000E+00  0.00000000000E+00  0.68810352073E+03  0.68811957191E+03  0.47000000000E+01 0. -1.
         -5   -1    0    0    0  501 -0.00000000000E+00 -0.00000000000E+00 -0.33347506346E+02  0.33677086862E+02  0.47000000000E+01 0. -1.
         25    2    1    2    0    0  0.85415058847E+02  0.92367926902E+01  0.30764077531E+03  0.34299115381E+03  0.12497613509E+03 0.  0.
         25    2    1    2    0    0 -0.85415058847E+02 -0.92367926902E+01  0.34711523907E+03  0.37880550496E+03  0.12499428296E+03 0.  0.
          5    1    3    3  502    0  0.12316105902E-04  0.51664376013E+02  0.72039328359E+02  0.88774785717E+02  0.47000000000E+01 0. -1.
         -5    1    3    3    0  502  0.85415046531E+02 -0.42427583322E+02  0.23560144695E+03  0.25421636809E+03  0.47000000000E+01 0. -1.
          5    1    4    4  503    0 -0.90114405829E+02  0.38211232442E+02  0.17985487955E+03  0.20481838814E+03  0.47000000000E+01 0.  1.
         -5    1    4    4    0  503  0.46993469816E+01 -0.47448025133E+02  0.16726035952E+03  0.17398711682E+03  0.47000000000E+01 0.  1.
<mgrwt>
<rscale>  0 0.15166901E+03</rscale>
<asrwt>0</asrwt>
<pdfrwt beam="1">  1        5 0.10588868E+00 0.15167274E+03</pdfrwt>
<pdfrwt beam="2">  1       -5 0.51569722E-02 0.15167274E+03</pdfrwt>
<totfact> 0.12764992E+02</totfact>
</mgrwt>
</event>
<event>
 8    1  0.3588496E-007  0.1298743E+03  0.7546771E-02  0.1227643E+00
          5   -1    0    0  501    0  0.00000000000E+00  0.00000000000E+00  0.65540079243E+03  0.65541764449E+03  0.47000000000E+01 0.  1.
         -5   -1    0    0    0  501 -0.00000000000E+00 -0.00000000000E+00 -0.25504827972E+02  0.25934267868E+02  0.47000000000E+01 0.  1.
         25    2    1    2    0    0 -0.31966523065E+02 -0.14830416825E+02  0.31739729143E+03  0.34294076737E+03  0.12500211780E+03 0.  0.
         25    2    1    2    0    0  0.31966523065E+02  0.14830416825E+02  0.31249867302E+03  0.33841114499E+03  0.12499953022E+03 0.  0.
          5    1    4    4  502    0  0.76202363023E+02 -0.54291975523E+01  0.23129572170E+03  0.24363102675E+03  0.47000000000E+01 0.  1.
         -5    1    4    4    0  502 -0.44235839959E+02  0.20259614377E+02  0.81202951324E+02  0.94780118249E+02  0.47000000000E+01 0.  1.
          5    1    3    3  503    0 -0.38198281961E+02  0.21911051687E+02  0.29683288344E+03  0.30011839934E+03  0.47000000000E+01 0. -1.
         -5    1    3    3    0  503  0.62317588969E+01 -0.36741468512E+02  0.20564407987E+02  0.42822368024E+02  0.47000000000E+01 0. -1.
<mgrwt>
<rscale>  0 0.12987366E+03</rscale>
<asrwt>0</asrwt>
<pdfrwt beam="1">  1        5 0.10086522E+00 0.12987428E+03</pdfrwt>
<pdfrwt beam="2">  1       -5 0.39581497E-02 0.12987428E+03</pdfrwt>
<totfact> 0.21171477E+02</totfact>
</mgrwt>
</event>
<event>
 8    1  0.3588496E-007  0.1407111E+03  0.7546771E-02  0.1212375E+00
          5   -1    0    0  501    0  0.00000000000E+00  0.00000000000E+00  0.49630914866E+03  0.49633140244E+03  0.47000000000E+01 0.  1.
         -5   -1    0    0    0  501 -0.00000000000E+00 -0.00000000000E+00 -0.45542781088E+02  0.45784658011E+02  0.47000000000E+01 0.  1.
         25    2    1    2    0    0 -0.55771109522E+02 -0.32630408389E+02  0.12886003087E+03  0.19079951486E+03  0.12499754839E+03 0.  0.
         25    2    1    2    0    0  0.55771109522E+02  0.32630408389E+02  0.32190633670E+03  0.35131654559E+03  0.12499786153E+03 0.  0.
          5    1    4    4  502    0  0.59081524401E+02 -0.33195248720E+02  0.10940576579E+03  0.12877990003E+03  0.47000000000E+01 0.  1.
         -5    1    4    4    0  502 -0.33104148788E+01  0.65825657108E+02  0.21250057092E+03  0.22253664557E+03  0.47000000000E+01 0.  1.
          5    1    3    3  503    0 -0.69767574789E+02 -0.28744280333E+02  0.14807415354E+03  0.16625821210E+03  0.47000000000E+01 0.  1.
         -5    1    3    3    0  503  0.13996465267E+02 -0.38861280553E+01 -0.19214122667E+02  0.24541302759E+02  0.47000000000E+01 0.  1.
<mgrwt>
<rscale>  0 0.14071107E+03</rscale>
<asrwt>0</asrwt>
<pdfrwt beam="1">  1        5 0.76375572E-01 0.14071114E+03</pdfrwt>
<pdfrwt beam="2">  1       -5 0.70268994E-02 0.14071114E+03</pdfrwt>
<totfact> 0.16105122E+02</totfact>
</mgrwt>
</event>
<event>
 8    1  0.3588496E-007  0.1381203E+03  0.7546771E-02  0.1215882E+00
          5   -1    0    0  501    0  0.00000000000E+00  0.00000000000E+00  0.95950837131E+03  0.95951988235E+03  0.47000000000E+01 0. -1.
         -5   -1    0    0    0  501 -0.00000000000E+00 -0.00000000000E+00 -0.12664413175E+03  0.12673131463E+03  0.47000000000E+01 0. -1.
         25    2    1    2    0    0  0.18341997843E+02  0.55816102532E+02 -0.82262984969E+02  0.16075940600E+03  0.12499808692E+03 0.  0.
         25    2    1    2    0    0 -0.18341997843E+02 -0.55816102532E+02  0.91512722453E+03  0.92549179097E+03  0.12500140756E+03 0.  0.
          5    1    3    3  502    0 -0.19352464075E+02  0.62801890683E+02 -0.98793731426E+02  0.11874715453E+03  0.47000000000E+01 0. -1.
         -5    1    3    3    0  502  0.37694461918E+02 -0.69857881514E+01  0.16530746457E+02  0.42012251473E+02  0.47000000000E+01 0. -1.
          5    1    4    4  503    0 -0.34498249712E+02  0.19547360906E+02  0.11675385137E+03  0.12339278893E+03  0.47000000000E+01 0.  1.
         -5    1    4    4    0  503  0.16156251869E+02 -0.75363463438E+02  0.79837337316E+03  0.80209900204E+03  0.47000000000E+01 0.  1.
<mgrwt>
<rscale>  0 0.13811955E+03</rscale>
<asrwt>0</asrwt>
<pdfrwt beam="1">  1        5 0.14762426E+00 0.13812030E+03</pdfrwt>
<pdfrwt beam="2">  1       -5 0.19491305E-01 0.13812030E+03</pdfrwt>
<totfact> 0.51251459E+00</totfact>
</mgrwt>
</event>
<event>
 8    1  0.3588496E-007  0.1438961E+03  0.7546771E-02  0.1208203E+00
         -5   -1    0    0    0  501 -0.00000000000E+00  0.00000000000E+00  0.36489292188E+03  0.36492318977E+03  0.47000000000E+01 0.  1.
          5   -1    0    0  501    0  0.00000000000E+00 -0.00000000000E+00 -0.64910165723E+02  0.65080101523E+02  0.47000000000E+01 0.  1.
         25    2    1    2    0    0 -0.69913191558E+02  0.13936352620E+02  0.22681857627E+03  0.26857498524E+03  0.12491509065E+03 0.  0.
         25    2    1    2    0    0  0.69913191558E+02 -0.13936352620E+02  0.73164179879E+02  0.16142830606E+03  0.12499609795E+03 0.  0.
          5    1    3    3  502    0 -0.14065861528E+02  0.28430442944E+02 -0.24037132332E+01  0.32155969645E+02  0.47000000000E+01 0.  1.
         -5    1    3    3    0  502 -0.55847330030E+02 -0.14494090324E+02  0.22922228951E+03  0.23641901559E+03  0.47000000000E+01 0.  1.
          5    1    4    4  503    0  0.85815408002E+02 -0.42727736121E+02  0.82880303261E+02  0.12681158604E+03  0.47000000000E+01 0.  1.
         -5    1    4    4    0  503 -0.15902216444E+02  0.28791383501E+02 -0.97161233823E+01  0.34616720025E+02  0.47000000000E+01 0.  1.
<mgrwt>
<rscale>  0 0.14387855E+03</rscale>
<asrwt>0</asrwt>
<pdfrwt beam="2">  1        5 0.10001579E-01 0.14389615E+03</pdfrwt>
<pdfrwt beam="1">  1       -5 0.56152774E-01 0.14389615E+03</pdfrwt>
<totfact> 0.17521682E+02</totfact>
</mgrwt>
</event>
<event>
 8    1  0.3588496E-007  0.1485711E+03  0.7546771E-02  0.1202240E+00
         -5   -1    0    0    0  501 -0.00000000000E+00  0.00000000000E+00  0.25228286576E+03  0.25232664218E+03  0.47000000000E+01 0.  1.
          5   -1    0    0  501    0  0.00000000000E+00 -0.00000000000E+00 -0.88938725491E+02  0.89062825533E+02  0.47000000000E+01 0.  1.
         25    2    1    2    0    0  0.10991647773E+02  0.79544366440E+02  0.59094601134E+02  0.15989197544E+03  0.12500059750E+03 0.  0.
         25    2    1    2    0    0 -0.10991647773E+02 -0.79544366440E+02  0.10424953913E+03  0.18149749227E+03  0.12500100295E+03 0.  0.
          5    1    4    4  502    0 -0.57458881745E+02 -0.20413038813E+01  0.34185441482E+02  0.67055383246E+02  0.47000000000E+01 0. -1.
         -5    1    4    4    0  502  0.46467233971E+02 -0.77503062559E+02  0.70064097652E+02  0.11444210903E+03  0.47000000000E+01 0. -1.
          5    1    3    3  503    0  0.24851145020E+02 -0.29014948901E+02  0.21441862877E+02  0.44060074355E+02  0.47000000000E+01 0.  1.
         -5    1    3    3    0  503 -0.13859497246E+02  0.10855931534E+03  0.37652738257E+02  0.11583190109E+03  0.47000000000E+01 0.  1.
<mgrwt>
<rscale>  0 0.14857102E+03</rscale>
<asrwt>0</asrwt>
<pdfrwt beam="2">  1        5 0.13695795E-01 0.14857111E+03</pdfrwt>
<pdfrwt beam="1">  1       -5 0.38825662E-01 0.14857111E+03</pdfrwt>
<totfact> 0.22019873E+02</totfact>
</mgrwt>
</event>
<event>
 8    1  0.3588496E-007  0.1316786E+03  0.7546771E-02  0.1224988E+00
          5   -1    0    0  501    0  0.00000000000E+00  0.00000000000E+00  0.43577115331E+02  0.43829841211E+02  0.47000000000E+01 0. -1.
         -5   -1    0    0    0  501 -0.00000000000E+00 -0.00000000000E+00 -0.39680524148E+03  0.39683307531E+03  0.47000000000E+01 0. -1.
         25    2    1    2    0    0  0.60451171329E+01 -0.40968331615E+02 -0.17019272356E+03  0.21518556490E+03  0.12499726618E+03 0.  0.
         25    2    1    2    0    0 -0.60451171329E+01  0.40968331615E+02 -0.18303540259E+03  0.22547735163E+03  0.12499251921E+03 0.  0.
          5    1    4    4  502    0 -0.26066694651E+02 -0.23349835644E+02 -0.14230081766E+03  0.14661616589E+03  0.47000000000E+01 0.  1.
         -5    1    4    4    0  502  0.20021577518E+02  0.64318167258E+02 -0.40734584926E+02  0.78861185731E+02  0.47000000000E+01 0.  1.
          5    1    3    3  503    0 -0.21716628182E+02 -0.75768266096E+02 -0.70292373175E+02  0.10571447306E+03  0.47000000000E+01 0. -1.
         -5    1    3    3    0  503  0.27761745315E+02  0.34799934482E+02 -0.99900350383E+02  0.10947109184E+03  0.47000000000E+01 0. -1.
<mgrwt>
<rscale>  0 0.13167751E+03</rscale>
<asrwt>0</asrwt>
<pdfrwt beam="1">  1        5 0.67257534E-02 0.13167864E+03</pdfrwt>
<pdfrwt beam="2">  1       -5 0.61068539E-01 0.13167864E+03</pdfrwt>
<totfact> 0.28009938E+02</totfact>
</mgrwt>
</event>
<event>
 8    1  0.3588496E-007  0.1695384E+03  0.7546771E-02  0.1178331E+00
         -5   -1    0    0    0  501 -0.00000000000E+00  0.00000000000E+00  0.12165843558E+03  0.12174918870E+03  0.47000000000E+01 0. -1.
          5   -1    0    0  501    0  0.00000000000E+00 -0.00000000000E+00 -0.25047925830E+03  0.25052334989E+03  0.47000000000E+01 0. -1.
         25    2    1    2    0    0  0.44253205801E+02 -0.10563922796E+03 -0.19757883152E+02  0.17068575601E+03  0.12500104259E+03 0.  0.
         25    2    1    2    0    0 -0.44253205801E+02  0.10563922796E+03 -0.10906293956E+03  0.20158678257E+03  0.12499805364E+03 0.  0.
          5    1    4    4  502    0 -0.58667984405E+01 -0.27017572091E+02 -0.34874235865E+02  0.44751210630E+02  0.47000000000E+01 0.  1.
         -5    1    4    4    0  502 -0.38386407360E+02  0.13265680005E+03 -0.74188703699E+02  0.15683557195E+03  0.47000000000E+01 0.  1.
          5    1    3    3  503    0  0.29373845867E+02  0.23449988831E+02 -0.14472245156E+02  0.40549484301E+02  0.47000000000E+01 0. -1.
         -5    1    3    3    0  503  0.14879359933E+02 -0.12908921679E+03 -0.52856379962E+01  0.13013627171E+03  0.47000000000E+01 0. -1.
<mgrwt>
<rscale>  0 0.16953780E+03</rscale>
<asrwt>0</asrwt>
<pdfrwt beam="2">  1        5 0.38545643E-01 0.16953835E+03</pdfrwt>
<pdfrwt beam="1">  1       -5 0.18727055E-01 0.16953835E+03</pdfrwt>
<totfact> 0.13154170E+02</totfact>
</mgrwt>
</event>
<event>
 8    1  0.3588496E-007  0.1302919E+03  0.7546771E-02  0.1227026E+00
         -5   -1    0    0    0  501 -0.00000000000E+00  0.00000000000E+00  0.27539334534E+03  0.27543344869E+03  0.47000000000E+01 0.  1.
          5   -1    0    0  501    0  0.00000000000E+00 -0.00000000000E+00 -0.83636756454E+02  0.83768711523E+02  0.47000000000E+01 0.  1.
         25    2    1    2    0    0  0.36215707115E+02  0.63207869014E+01  0.18816140053E+03  0.22886828307E+03  0.12499779421E+03 0.  0.
         25    2    1    2    0    0 -0.36215707115E+02 -0.63207869014E+01  0.35951883597E+01  0.13033387714E+03  0.12498985704E+03 0.  0.
          5    1    3    3  502    0 -0.16848366185E+02 -0.49872393332E+02  0.74938075328E+02  0.91700208253E+02  0.47000000000E+01 0. -1.
         -5    1    3    3    0  502  0.53064073301E+02  0.56193180233E+02  0.11322332520E+03  0.13716807482E+03  0.47000000000E+01 0. -1.
          5    1    4    4  503    0 -0.73920559947E+02  0.18315999095E+02 -0.20542457763E+02  0.79017767474E+02  0.47000000000E+01 0. -1.
         -5    1    4    4    0  503  0.37704852832E+02 -0.24636785996E+02  0.24137646123E+02  0.51316109669E+02  0.47000000000E+01 0. -1.
<mgrwt>
<rscale>  0 0.13028999E+03</rscale>
<asrwt>0</asrwt>
<pdfrwt beam="2">  1        5 0.12880428E-01 0.13029190E+03</pdfrwt>
<pdfrwt beam="1">  1       -5 0.42381443E-01 0.13029190E+03</pdfrwt>
<totfact> 0.19646568E+02</totfact>
</mgrwt>
</event>
<event>
 8    1  0.3588496E-007  0.1350514E+03  0.7546771E-02  0.1220148E+00
         -5   -1    0    0    0  501 -0.00000000000E+00  0.00000000000E+00  0.73744834370E+02  0.73894455788E+02  0.47000000000E+01 0.  1.
          5   -1    0    0  501    0  0.00000000000E+00 -0.00000000000E+00 -0.31505173475E+03  0.31508679054E+03  0.47000000000E+01 0.  1.
         25    2    1    2    0    0 -0.15940022921E+02 -0.48557491173E+02 -0.30218880980E+02  0.13838786787E+03  0.12500442762E+03 0.  0.
         25    2    1    2    0    0  0.15940022921E+02  0.48557491173E+02 -0.21108801940E+03  0.25059337846E+03  0.12500790020E+03 0.  0.
          5    1    3    3  502    0  0.35159580641E+01 -0.87429942940E+02 -0.35096123631E+02  0.94393775099E+02  0.47000000000E+01 0. -1.
         -5    1    3    3    0  502 -0.19455980985E+02  0.38872451767E+02  0.48772426507E+01  0.43994092766E+02  0.47000000000E+01 0. -1.
          5    1    4    4  503    0 -0.52978552051E+02  0.36452522124E+02 -0.91036217118E+02  0.11155803948E+03  0.47000000000E+01 0.  1.
         -5    1    4    4    0  503  0.68918574972E+02  0.12104969049E+02 -0.12005180229E+03  0.13903533898E+03  0.47000000000E+01 0.  1.
<mgrwt>
<rscale>  0 0.13505063E+03</rscale>
<asrwt>0</asrwt>
<pdfrwt beam="2">  1        5 0.48483703E-01 0.13505143E+03</pdfrwt>
<pdfrwt beam="1">  1       -5 0.11359565E-01 0.13505143E+03</pdfrwt>
<totfact> 0.18776273E+02</totfact>
</mgrwt>
</event>
<event>
 8    1  0.3588496E-007  0.1325711E+03  0.7546771E-02  0.1223692E+00
          5   -1    0    0  501    0  0.00000000000E+00  0.00000000000E+00  0.15441045903E+04  0.15441117433E+04  0.47000000000E+01 0.  1.
         -5   -1    0    0    0  501 -0.00000000000E+00 -0.00000000000E+00 -0.11047514737E+02  0.12005731209E+02  0.47000000000E+01 0.  1.
         25    2    1    2    0    0 -0.43264543411E+02  0.87466956363E+01  0.67715086289E+03  0.69000607767E+03  0.12500708262E+03 0.  0.
         25    2    1    2    0    0  0.43264543411E+02 -0.87466956363E+01  0.85590621269E+03  0.86611139686E+03  0.12500072575E+03 0.  0.
          5    1    3    3  502    0 -0.85806778567E+02  0.30221616418E+01  0.51857440556E+03  0.52565524901E+03  0.47000000000E+01 0.  1.
         -5    1    3    3    0  502  0.42542235156E+02  0.57245339945E+01  0.15857645733E+03  0.16435082866E+03  0.47000000000E+01 0.  1.
          5    1    4    4  503    0 -0.32427244000E+02 -0.11824050125E+02  0.54358187405E+03  0.54469686809E+03  0.47000000000E+01 0.  1.
         -5    1    4    4    0  503  0.75691787410E+02  0.30773544888E+01  0.31232433864E+03  0.32141452876E+03  0.47000000000E+01 0.  1.
<mgrwt>
<rscale>  0 0.13256960E+03</rscale>
<asrwt>0</asrwt>
<pdfrwt beam="1">  1        5 0.23762889E+00 0.13257110E+03</pdfrwt>
<pdfrwt beam="2">  1       -5 0.17738763E-02 0.13257110E+03</pdfrwt>
<totfact> 0.68851912E+01</totfact>
</mgrwt>
</event>
<event>
 8    1  0.3588496E-007  0.1392593E+03  0.7546771E-02  0.1214331E+00
         -5   -1    0    0    0  501 -0.00000000000E+00  0.00000000000E+00  0.45737527769E+02  0.45978380206E+02  0.47000000000E+01 0.  1.
          5   -1    0    0  501    0  0.00000000000E+00 -0.00000000000E+00 -0.71288027593E+03  0.71289576924E+03  0.47000000000E+01 0.  1.
         25    2    1    2    0    0  0.56050582571E+01 -0.61124442734E+02 -0.91494651807E+02  0.16662091793E+03  0.12499457911E+03 0.  0.
         25    2    1    2    0    0 -0.56050582571E+01  0.61124442734E+02 -0.57564809635E+03  0.59225323152E+03  0.12500218091E+03 0.  0.
          5    1    4    4  502    0  0.44876130435E+01  0.52242139784E+02 -0.76284329115E+02  0.92686399803E+02  0.47000000000E+01 0. -1.
         -5    1    4    4    0  502 -0.10092671301E+02  0.88823029501E+01 -0.49936376723E+03  0.49956683171E+03  0.47000000000E+01 0. -1.
          5    1    3    3  503    0 -0.20258759349E+02  0.32199675713E+01  0.23940330341E+02  0.31874989229E+02  0.47000000000E+01 0. -1.
         -5    1    3    3    0  503  0.25863817606E+02 -0.64344410306E+02 -0.11543498215E+03  0.13474592870E+03  0.47000000000E+01 0. -1.
<mgrwt>
<rscale>  0 0.13925762E+03</rscale>
<asrwt>0</asrwt>
<pdfrwt beam="2">  1        5 0.10969360E+00 0.13925932E+03</pdfrwt>
<pdfrwt beam="1">  1       -5 0.70562622E-02 0.13925932E+03</pdfrwt>
<totfact> 0.67185982E+01</totfact>
</mgrwt>
</event>
<event>
 8    1  0.3588496E-007  0.1273263E+03  0.7546771E-02  0.1231480E+00
         -5   -1    0    0    0  501 -0.00000000000E+00  0.00000000000E+00  0.12663979860E+02  0.13508011915E+02  0.47000000000E+01 0. -1.
          5   -1    0    0  501    0  0.00000000000E+00 -0.00000000000E+00 -0.12479939169E+04  0.12480027670E+04  0.47000000000E+01 0. -1.
         25    2    1    2    0    0 -0.14093646964E+02  0.19667043664E+02 -0.56121749104E+03  0.57547984415E+03  0.12500622099E+03 0.  0.
         25    2    1    2    0    0  0.14093646964E+02 -0.19667043664E+02 -0.67411244597E+03  0.68603093480E+03  0.12500172081E+03 0.  0.
          5    1    4    4  502    0 -0.60846349568E+01  0.19995070947E+02 -0.59305958821E+03  0.59344636725E+03  0.47000000000E+01 0.  1.
         -5    1    4    4    0  502  0.20178281921E+02 -0.39662114611E+02 -0.81052857764E+02  0.92584567549E+02  0.47000000000E+01 0.  1.
          5    1    3    3  503    0  0.15469202883E+01  0.11506680477E+02 -0.55647664802E+03  0.55661759445E+03  0.47000000000E+01 0. -1.
         -5    1    3    3    0  503 -0.15640567252E+02  0.81603631865E+01 -0.47408430172E+01  0.18862249702E+02  0.47000000000E+01 0. -1.
<mgrwt>
<rscale>  0 0.12732516E+03</rscale>
<asrwt>0</asrwt>
<pdfrwt beam="2">  1        5 0.19206458E+00 0.12732627E+03</pdfrwt>
<pdfrwt beam="1">  1       -5 0.20139119E-02 0.12732627E+03</pdfrwt>
<totfact> 0.11094367E+02</totfact>
</mgrwt>
</event>
<event>
 8    1  0.3588496E-007  0.1522499E+03  0.7546771E-02  0.1197735E+00
         -5   -1    0    0    0  501 -0.00000000000E+00  0.00000000000E+00  0.22231536933E+03  0.22236504545E+03  0.47000000000E+01 0. -1.
          5   -1    0    0  501    0  0.00000000000E+00 -0.00000000000E+00 -0.10546679737E+03  0.10557147033E+03  0.47000000000E+01 0. -1.
         25    2    1    2    0    0  0.74777813089E+02  0.44315690105E+02  0.76718308174E+02  0.17048657056E+03  0.12499748083E+03 0.  0.
         25    2    1    2    0    0 -0.74777813089E+02 -0.44315690105E+02  0.40130263786E+02  0.15744994522E+03  0.12499778181E+03 0.  0.
          5    1    4    4  502    0 -0.65520069895E+02 -0.73795594108E+02 -0.90161277623E+01  0.99207105736E+02  0.47000000000E+01 0.  1.
         -5    1    4    4    0  502 -0.92577431949E+01  0.29479904002E+02  0.49146391548E+02  0.58242839485E+02  0.47000000000E+01 0.  1.
          5    1    3    3  503    0  0.66790423687E+01 -0.16229443917E+02 -0.26875020038E+02  0.32440116505E+02  0.47000000000E+01 0. -1.
         -5    1    3    3    0  503  0.68098770721E+02  0.60545134022E+02  0.10359332821E+03  0.13804645406E+03  0.47000000000E+01 0. -1.
<mgrwt>
<rscale>  0 0.15224989E+03</rscale>
<asrwt>0</asrwt>
<pdfrwt beam="2">  1        5 0.16237534E-01 0.15224995E+03</pdfrwt>
<pdfrwt beam="1">  1       -5 0.34214237E-01 0.15224995E+03</pdfrwt>
<totfact> 0.21050378E+02</totfact>
</mgrwt>
</event>
<event>
 8    1  0.3588496E-007  0.1312948E+03  0.7546771E-02  0.1225552E+00
          5   -1    0    0  501    0  0.00000000000E+00  0.00000000000E+00  0.10874366195E+03  0.10884518369E+03  0.47000000000E+01 0. -1.
         -5   -1    0    0    0  501 -0.00000000000E+00 -0.00000000000E+00 -0.20021168667E+03  0.20026684568E+03  0.47000000000E+01 0. -1.
         25    2    1    2    0    0  0.96693531830E+01 -0.38960696370E+02 -0.11642204204E+03  0.17546685196E+03  0.12499236781E+03 0.  0.
         25    2    1    2    0    0 -0.96693531830E+01  0.38960696370E+02  0.24954017316E+02  0.13364517742E+03  0.12500759263E+03 0.  0.
          5    1    4    4  502    0  0.49584208390E+02  0.76417130432E+01  0.40542657746E+02  0.64674466344E+02  0.47000000000E+01 0.  1.
         -5    1    4    4    0  502 -0.59253561573E+02  0.31318983327E+02 -0.15588640429E+02  0.68970711074E+02  0.47000000000E+01 0.  1.
          5    1    3    3  503    0  0.48632276272E+02  0.19636881624E+02 -0.20723739935E+02  0.56588592598E+02  0.47000000000E+01 0.  1.
         -5    1    3    3    0  503 -0.38962923089E+02 -0.58597577994E+02 -0.95698302108E+02  0.11887825936E+03  0.47000000000E+01 0.  1.
<mgrwt>
<rscale>  0 0.13129120E+03</rscale>
<asrwt>0</asrwt>
<pdfrwt beam="1">  1        5 0.16741847E-01 0.13129482E+03</pdfrwt>
<pdfrwt beam="2">  1       -5 0.30813850E-01 0.13129482E+03</pdfrwt>
<totfact> 0.23311581E+02</totfact>
</mgrwt>
</event>
<event>
 8    1  0.3588496E-007  0.1753345E+03  0.7546771E-02  0.1172397E+00
         -5   -1    0    0    0  501 -0.00000000000E+00  0.00000000000E+00  0.38531442405E+03  0.38534308789E+03  0.47000000000E+01 0. -1.
          5   -1    0    0  501    0  0.00000000000E+00 -0.00000000000E+00 -0.83730710963E+02  0.83862518198E+02  0.47000000000E+01 0. -1.
         25    2    1    2    0    0  0.74040983270E+02  0.98155943351E+02  0.20232278131E+03  0.26772383181E+03  0.12499954345E+03 0.  0.
         25    2    1    2    0    0 -0.74040983270E+02 -0.98155943351E+02  0.99260931776E+02  0.20148177427E+03  0.12500206546E+03 0.  0.
          5    1    4    4  502    0 -0.88144871352E+02 -0.16225042078E+02  0.35128780620E+02  0.96378895843E+02  0.47000000000E+01 0.  1.
         -5    1    4    4    0  502  0.14103888082E+02 -0.81930901273E+02  0.64132151156E+02  0.10510287843E+03  0.47000000000E+01 0.  1.
          5    1    3    3  503    0 -0.74051734404E+01  0.65109870701E+02  0.15373233651E+03  0.16718209577E+03  0.47000000000E+01 0.  1.
         -5    1    3    3    0  503  0.81446156710E+02  0.33046072649E+02  0.48590444801E+02  0.10054173604E+03  0.47000000000E+01 0.  1.
<mgrwt>
<rscale>  0 0.17533401E+03</rscale>
<asrwt>0</asrwt>
<pdfrwt beam="2">  1        5 0.12893992E-01 0.17533446E+03</pdfrwt>
<pdfrwt beam="1">  1       -5 0.59291486E-01 0.17533446E+03</pdfrwt>
<totfact> 0.10559882E+02</totfact>
</mgrwt>
</event>
<event>
 8    1  0.3588496E-007  0.1698534E+03  0.7546771E-02  0.1178002E+00
          5   -1    0    0  501    0  0.00000000000E+00  0.00000000000E+00  0.37463096344E+03  0.37466044463E+03  0.47000000000E+01 0.  1.
         -5   -1    0    0    0  501 -0.00000000000E+00 -0.00000000000E+00 -0.76961548558E+02  0.77104928225E+02  0.47000000000E+01 0.  1.
         25    2    1    2    0    0 -0.11440229209E+03 -0.11671494708E+02  0.14265290086E+03  0.22181075581E+03  0.12500421211E+03 0.  0.
         25    2    1    2    0    0  0.11440229209E+03  0.11671494708E+02  0.15501651402E+03  0.22995461704E+03  0.12499959222E+03 0.  0.
          5    1    4    4  502    0  0.84292445377E+02  0.60916509776E+02  0.64405821750E+02  0.12241828861E+03  0.47000000000E+01 0.  1.
         -5    1    4    4    0  502  0.30109846712E+02 -0.49245015068E+02  0.90610692267E+02  0.10753632843E+03  0.47000000000E+01 0.  1.
          5    1    3    3  503    0 -0.11405325978E+03 -0.50827128960E+02  0.81980904212E+02  0.14944732102E+03  0.47000000000E+01 0. -1.
         -5    1    3    3    0  503 -0.34903230605E+00  0.39155634252E+02  0.60671996652E+02  0.72363434792E+02  0.47000000000E+01 0. -1.
<mgrwt>
<rscale>  0 0.16985250E+03</rscale>
<asrwt>0</asrwt>
<pdfrwt beam="1">  1        5 0.57648829E-01 0.16985335E+03</pdfrwt>
<pdfrwt beam="2">  1       -5 0.11853535E-01 0.16985335E+03</pdfrwt>
<totfact> 0.12926627E+02</totfact>
</mgrwt>
</event>
<event>
 8    1  0.3588496E-007  0.1301816E+03  0.7546771E-02  0.1227188E+00
          5   -1    0    0  501    0  0.00000000000E+00  0.00000000000E+00  0.92203061041E+02  0.92322773275E+02  0.47000000000E+01 0. -1.
         -5   -1    0    0    0  501 -0.00000000000E+00 -0.00000000000E+00 -0.26269479913E+03  0.26273684076E+03  0.47000000000E+01 0. -1.
         25    2    1    2    0    0  0.27352584890E+02 -0.23949979866E+02 -0.18267025370E+03  0.22430961106E+03  0.12499845834E+03 0.  0.
         25    2    1    2    0    0 -0.27352584890E+02  0.23949979866E+02  0.12178515610E+02  0.13075000298E+03  0.12500192639E+03 0.  0.
          5    1    4    4  502    0  0.37271114680E+01  0.51761384696E+02  0.51481564904E+02  0.73250077341E+02  0.47000000000E+01 0. -1.
         -5    1    4    4    0  502 -0.31079696358E+02 -0.27811404830E+02 -0.39303049294E+02  0.57499925636E+02  0.47000000000E+01 0. -1.
          5    1    3    3  503    0  0.45760684503E+02  0.38502617574E+02 -0.11825518909E+03  0.13260042063E+03  0.47000000000E+01 0.  1.
         -5    1    3    3    0  503 -0.18408099613E+02 -0.62452597441E+02 -0.64415064614E+02  0.91709190421E+02  0.47000000000E+01 0.  1.
<mgrwt>
<rscale>  0 0.13018076E+03</rscale>
<asrwt>0</asrwt>
<pdfrwt beam="1">  1        5 0.14197529E-01 0.13018159E+03</pdfrwt>
<pdfrwt beam="2">  1       -5 0.40427027E-01 0.13018159E+03</pdfrwt>
<totfact> 0.18178500E+02</totfact>
</mgrwt>
</event>
<event>
 8    1  0.3588496E-007  0.1437318E+03  0.7546771E-02  0.1208395E+00
         -5   -1    0    0    0  501 -0.00000000000E+00  0.00000000000E+00  0.86570973062E+02  0.86698462368E+02  0.47000000000E+01 0.  1.
          5   -1    0    0  501    0  0.00000000000E+00 -0.00000000000E+00 -0.24141904005E+03  0.24146478604E+03  0.47000000000E+01 0.  1.
         25    2    1    2    0    0 -0.22875654508E+02 -0.67150177193E+02 -0.58790522599E+02  0.15529051125E+03  0.12500550176E+03 0.  0.
         25    2    1    2    0    0  0.22875654508E+02  0.67150177193E+02 -0.96057544390E+02  0.17287273716E+03  0.12500195820E+03 0.  0.
          5    1    3    3  502    0 -0.52671786979E+02 -0.33423516873E+02 -0.83029708907E+02  0.10395898799E+03  0.47000000000E+01 0. -1.
         -5    1    3    3    0  502  0.29796132471E+02 -0.33726660320E+02  0.24239186308E+02  0.51331523252E+02  0.47000000000E+01 0. -1.
          5    1    4    4  503    0  0.30651723102E+02 -0.27412227206E+02 -0.57254851434E+01  0.41783124700E+02  0.47000000000E+01 0. -1.
         -5    1    4    4    0  503 -0.77760685945E+01  0.94562404399E+02 -0.90332059247E+02  0.13108961247E+03  0.47000000000E+01 0. -1.
<mgrwt>
<rscale>  0 0.14373098E+03</rscale>
<asrwt>0</asrwt>
<pdfrwt beam="2">  1        5 0.37154716E-01 0.14373175E+03</pdfrwt>
<pdfrwt beam="1">  1       -5 0.13331937E-01 0.14373175E+03</pdfrwt>
<totfact> 0.24991831E+02</totfact>
</mgrwt>
</event>
<event>
 8    1  0.3588496E-007  0.1447031E+03  0.7546771E-02  0.1207139E+00
          5   -1    0    0  501    0  0.00000000000E+00  0.00000000000E+00  0.11604260364E+03  0.11613774520E+03  0.47000000000E+01 0.  1.
         -5   -1    0    0    0  501 -0.00000000000E+00 -0.00000000000E+00 -0.18030590050E+03  0.18036714711E+03  0.47000000000E+01 0.  1.
         25    2    1    2    0    0 -0.33547755078E+02  0.64715062055E+02 -0.35062563983E+02  0.14889043647E+03  0.12500195019E+03 0.  0.
         25    2    1    2    0    0  0.33547755078E+02 -0.64715062055E+02 -0.29200732877E+02  0.14761445584E+03  0.12499541449E+03 0.  0.
          5    1    3    3  502    0 -0.53993261424E+02  0.89264418732E+02 -0.46519362040E+01  0.10453295768E+03  0.47000000000E+01 0.  1.
         -5    1    3    3    0  502  0.20445506346E+02 -0.24549356677E+02 -0.30410627779E+02  0.44357478793E+02  0.47000000000E+01 0.  1.
          5    1    4    4  503    0  0.91398400902E+01 -0.33104569032E+02  0.48800077199E+02  0.59858054615E+02  0.47000000000E+01 0. -1.
         -5    1    4    4    0  503  0.24407914988E+02 -0.31610493023E+02 -0.78000810076E+02  0.87756401223E+02  0.47000000000E+01 0. -1.
<mgrwt>
<rscale>  0 0.14470166E+03</rscale>
<asrwt>0</asrwt>
<pdfrwt beam="1">  1        5 0.17864738E-01 0.14470307E+03</pdfrwt>
<pdfrwt beam="2">  1       -5 0.27751399E-01 0.14470307E+03</pdfrwt>
<totfact> 0.26247520E+02</totfact>
</mgrwt>
</event>
<event>
 8    1  0.3588496E-007  0.1748680E+03  0.7546771E-02  0.1172866E+00
          5   -1    0    0  501    0  0.00000000000E+00  0.00000000000E+00  0.58093068566E+02  0.58282884412E+02  0.47000000000E+01 0.  1.
         -5   -1    0    0    0  501 -0.00000000000E+00 -0.00000000000E+00 -0.56282963421E+03  0.56284925793E+03  0.47000000000E+01 0.  1.
         25    2    1    2    0    0 -0.42703097049E+02  0.11458362865E+03 -0.33255023866E+03  0.37572393577E+03  0.12500340885E+03 0.  0.
         25    2    1    2    0    0  0.42703097049E+02 -0.11458362865E+03 -0.17218632699E+03  0.24540820657E+03  0.12499637674E+03 0.  0.
          5    1    4    4  502    0 -0.41362625212E+02 -0.64311192254E+02 -0.69854346926E+02  0.10367505003E+03  0.47000000000E+01 0.  1.
         -5    1    4    4    0  502  0.84065722261E+02 -0.50272436397E+02 -0.10233198007E+03  0.14173315655E+03  0.47000000000E+01 0.  1.
          5    1    3    3  503    0 -0.25830277052E+02  0.13997342403E+03 -0.25181093500E+03  0.28929327616E+03  0.47000000000E+01 0. -1.
         -5    1    3    3    0  503 -0.16872819997E+02 -0.25389795384E+02 -0.80739303658E+02  0.86430659603E+02  0.47000000000E+01 0. -1.
<mgrwt>
<rscale>  0 0.17486674E+03</rscale>
<asrwt>0</asrwt>
<pdfrwt beam="1">  1        5 0.89535063E-02 0.17486799E+03</pdfrwt>
<pdfrwt beam="2">  1       -5 0.86605282E-01 0.17486799E+03</pdfrwt>
<totfact> 0.84753667E+01</totfact>
</mgrwt>
</event>
<event>
 8    1  0.3588496E-007  0.1297154E+03  0.7546771E-02  0.1227880E+00
          5   -1    0    0  501    0  0.00000000000E+00  0.00000000000E+00  0.61503260116E+02  0.61682582670E+02  0.47000000000E+01 0.  1.
         -5   -1    0    0    0  501 -0.00000000000E+00 -0.00000000000E+00 -0.27300772075E+03  0.27304817448E+03  0.47000000000E+01 0.  1.
         25    2    1    2    0    0 -0.31417563941E+02 -0.14641808090E+02 -0.10751812953E+03  0.16848021655E+03  0.12499595723E+03 0.  0.
         25    2    1    2    0    0  0.31417563941E+02  0.14641808090E+02 -0.10398633110E+03  0.16625054060E+03  0.12499855729E+03 0.  0.
          5    1    3    3  502    0  0.72334225533E+01  0.15172773065E+01 -0.12319346824E+03  0.12350443372E+03  0.47000000000E+01 0. -1.
         -5    1    3    3    0  502 -0.38650986494E+02 -0.16159085396E+02  0.15675338710E+02  0.44975782834E+02  0.47000000000E+01 0. -1.
          5    1    4    4  503    0 -0.37909455146E+02 -0.23936458746E+02 -0.16375754193E+02  0.47961819942E+02  0.47000000000E+01 0.  1.
         -5    1    4    4    0  503  0.69327019087E+02  0.38578266836E+02 -0.87610576909E+02  0.11828872065E+03  0.47000000000E+01 0.  1.
<mgrwt>
<rscale>  0 0.12971477E+03</rscale>
<asrwt>0</asrwt>
<pdfrwt beam="1">  1        5 0.94789460E-02 0.12971540E+03</pdfrwt>
<pdfrwt beam="2">  1       -5 0.42018093E-01 0.12971540E+03</pdfrwt>
<totfact> 0.34232259E+02</totfact>
</mgrwt>
</event>
<event>
 8    1  0.3588496E-007  0.1295067E+03  0.7546771E-02  0.1228190E+00
          5   -1    0    0  501    0  0.00000000000E+00  0.00000000000E+00  0.19364975358E+03  0.19370678114E+03  0.47000000000E+01 0.  1.
         -5   -1    0    0    0  501 -0.00000000000E+00 -0.00000000000E+00 -0.87212567574E+02  0.87339120347E+02  0.47000000000E+01 0.  1.
         25    2    1    2    0    0  0.32385164409E+02  0.98947494425E+01  0.66127330614E+02  0.14541080259E+03  0.12499909086E+03 0.  0.
         25    2    1    2    0    0 -0.32385164409E+02 -0.98947494425E+01  0.40309855390E+02  0.13563509890E+03  0.12500116268E+03 0.  0.
          5    1    4    4  502    0  0.17134540384E+02  0.34285041443E+02 -0.22034444088E+02  0.44459681366E+02  0.47000000000E+01 0. -1.
         -5    1    4    4    0  502 -0.49519704793E+02 -0.44179790885E+02  0.62344299478E+02  0.91175417536E+02  0.47000000000E+01 0. -1.
          5    1    3    3  503    0 -0.38274057112E+02 -0.29421450146E+02  0.25290809893E+02  0.54701373306E+02  0.47000000000E+01 0.  1.
         -5    1    3    3    0  503  0.70659221521E+02  0.39316199589E+02  0.40836520720E+02  0.90709429282E+02  0.47000000000E+01 0.  1.
<mgrwt>
<rscale>  0 0.12950624E+03</rscale>
<asrwt>0</asrwt>
<pdfrwt beam="1">  1        5 0.29806391E-01 0.12950674E+03</pdfrwt>
<pdfrwt beam="2">  1       -5 0.13431440E-01 0.12950674E+03</pdfrwt>
<totfact> 0.36880635E+02</totfact>
</mgrwt>
</event>
<event>
 8    1  0.3588496E-007  0.1324843E+03  0.7546771E-02  0.1223818E+00
         -5   -1    0    0    0  501 -0.00000000000E+00  0.00000000000E+00  0.12915322298E+03  0.12923871326E+03  0.47000000000E+01 0. -1.
          5   -1    0    0  501    0  0.00000000000E+00 -0.00000000000E+00 -0.16102613222E+03  0.16109470897E+03  0.47000000000E+01 0. -1.
         25    2    1    2    0    0 -0.37732240551E+02 -0.22355081955E+02  0.41581375708E+02  0.13884867363E+03  0.12500588665E+03 0.  0.
         25    2    1    2    0    0  0.37732240551E+02  0.22355081955E+02 -0.73454284947E+02  0.15148474859E+03  0.12501450081E+03 0.  0.
          5    1    3    3  502    0 -0.55961190002E+02 -0.52400150395E+02 -0.87261655703E+01  0.77302435365E+02  0.47000000000E+01 0. -1.
         -5    1    3    3    0  502  0.18228949451E+02  0.30045068440E+02  0.50307541278E+02  0.61546238269E+02  0.47000000000E+01 0. -1.
          5    1    4    4  503    0  0.29535222051E+02 -0.50574827001E+02 -0.28613852914E+02  0.65352773823E+02  0.47000000000E+01 0. -1.
         -5    1    4    4    0  503  0.81970184996E+01  0.72929908956E+02 -0.44840432033E+02  0.86131974769E+02  0.47000000000E+01 0. -1.
<mgrwt>
<rscale>  0 0.13248230E+03</rscale>
<asrwt>0</asrwt>
<pdfrwt beam="2">  1        5 0.24785102E-01 0.13248433E+03</pdfrwt>
<pdfrwt beam="1">  1       -5 0.19881578E-01 0.13248433E+03</pdfrwt>
<totfact> 0.25977054E+02</totfact>
</mgrwt>
</event>
<event>
 8    1  0.3588496E-007  0.2059838E+03  0.7546771E-02  0.1144791E+00
         -5   -1    0    0    0  501 -0.00000000000E+00  0.00000000000E+00  0.14820309005E+03  0.14827759743E+03  0.47000000000E+01 0.  1.
          5   -1    0    0  501    0  0.00000000000E+00 -0.00000000000E+00 -0.29326315235E+03  0.29330081235E+03  0.47000000000E+01 0.  1.
         25    2    1    2    0    0 -0.13311486371E+03 -0.95282546819E+02 -0.38012560944E+02  0.20943948797E+03  0.12498645391E+03 0.  0.
         25    2    1    2    0    0  0.13311486371E+03  0.95282546819E+02 -0.10704750135E+03  0.23213892182E+03  0.12502392094E+03 0.  0.
          5    1    3    3  502    0 -0.24528037150E+02  0.30560934796E+02 -0.35789308504E+01  0.39629459851E+02  0.47000000000E+01 0.  1.
         -5    1    3    3    0  502 -0.10858682656E+03 -0.12584348162E+03 -0.34433630093E+02  0.16981002812E+03  0.47000000000E+01 0.  1.
          5    1    4    4  503    0  0.54214757132E+02 -0.16988318311E+02 -0.69312844483E+02  0.89745213022E+02  0.47000000000E+01 0. -1.
         -5    1    4    4    0  503  0.78900106576E+02  0.11227086513E+03 -0.37734656871E+02  0.14239370879E+03  0.47000000000E+01 0. -1.
<mgrwt>
<rscale>  0 0.20597808E+03</rscale>
<asrwt>0</asrwt>
<pdfrwt beam="2">  1        5 0.45126036E-01 0.20598377E+03</pdfrwt>
<pdfrwt beam="1">  1       -5 0.22809104E-01 0.20598377E+03</pdfrwt>
<totfact> 0.69177086E+01</totfact>
</mgrwt>
</event>
<event>
 8    1  0.3588496E-007  0.1367084E+03  0.7546771E-02  0.1217829E+00
          5   -1    0    0  501    0  0.00000000000E+00  0.00000000000E+00  0.77831769931E+02  0.77973549430E+02  0.47000000000E+01 0.  1.
         -5   -1    0    0    0  501 -0.00000000000E+00 -0.00000000000E+00 -0.24430653650E+03  0.24435174191E+03  0.47000000000E+01 0.  1.
         25    2    1    2    0    0  0.53705873008E+02 -0.13370590515E+02 -0.10528021047E+03  0.17254885077E+03  0.12500435872E+03 0.  0.
         25    2    1    2    0    0 -0.53705873008E+02  0.13370590515E+02 -0.61194556096E+02  0.14977644058E+03  0.12500045988E+03 0.  0.
          5    1    4    4  502    0 -0.14919579230E+02  0.14248676811E+02  0.37815621201E+02  0.43332780226E+02  0.47000000000E+01 0.  1.
         -5    1    4    4    0  502 -0.38786293777E+02 -0.87808629559E+00 -0.99010177297E+02  0.10644366035E+03  0.47000000000E+01 0.  1.
          5    1    3    3  503    0 -0.59496244921E+01  0.19177937977E+02  0.20770407499E+02  0.29269287048E+02  0.47000000000E+01 0.  1.
         -5    1    3    3    0  503  0.59655497500E+02 -0.32548528492E+02 -0.12605061797E+03  0.14327956372E+03  0.47000000000E+01 0.  1.
<mgrwt>
<rscale>  0 0.13670750E+03</rscale>
<asrwt>0</asrwt>
<pdfrwt beam="1">  1        5 0.11988502E-01 0.13670839E+03</pdfrwt>
<pdfrwt beam="2">  1       -5 0.37600004E-01 0.13670839E+03</pdfrwt>
<totfact> 0.28981640E+02</totfact>
</mgrwt>
</event>
<event>
 8    1  0.3588496E-007  0.1765455E+03  0.7546771E-02  0.1171190E+00
         -5   -1    0    0    0  501 -0.00000000000E+00  0.00000000000E+00  0.69799961801E+03  0.69801544162E+03  0.47000000000E+01 0. -1.
          5   -1    0    0  501    0  0.00000000000E+00 -0.00000000000E+00 -0.44856286581E+02  0.45101845259E+02  0.47000000000E+01 0. -1.
         25    2    1    2    0    0 -0.86927941581E+02 -0.89359734854E+02  0.35901240165E+03  0.40007019491E+03  0.12499850830E+03 0.  0.
         25    2    1    2    0    0  0.86927941581E+02  0.89359734854E+02  0.29413092978E+03  0.34304709197E+03  0.12500669669E+03 0.  0.
          5    1    4    4  502    0  0.89337107836E+02  0.40809857592E+02  0.27238173945E+03  0.28958671464E+03  0.47000000000E+01 0.  1.
         -5    1    4    4    0  502 -0.24091662547E+01  0.48549877262E+02  0.21749190336E+02  0.53460377332E+02  0.47000000000E+01 0.  1.
          5    1    3    3  503    0 -0.31919908034E+02 -0.83509012442E+02  0.31981669028E+03  0.33211058560E+03  0.47000000000E+01 0. -1.
         -5    1    3    3    0  503 -0.55008033547E+02 -0.58507224114E+01  0.39195711371E+02  0.67959609309E+02  0.47000000000E+01 0. -1.
<mgrwt>
<rscale>  0 0.17654402E+03</rscale>
<asrwt>0</asrwt>
<pdfrwt beam="2">  1        5 0.69210736E-02 0.17654547E+03</pdfrwt>
<pdfrwt beam="1">  1       -5 0.10740466E+00 0.17654547E+03</pdfrwt>
<totfact> 0.78491219E+01</totfact>
</mgrwt>
</event>
<event>
 8    1  0.3588496E-007  0.1461516E+03  0.7546771E-02  0.1205283E+00
          5   -1    0    0  501    0  0.00000000000E+00  0.00000000000E+00  0.28495251922E+03  0.28499127743E+03  0.47000000000E+01 0. -1.
         -5   -1    0    0    0  501 -0.00000000000E+00 -0.00000000000E+00 -0.76757516566E+02  0.76901276643E+02  0.47000000000E+01 0. -1.
         25    2    1    2    0    0 -0.58389782734E+02 -0.48225731067E+02  0.75555643502E+02  0.16452619003E+03  0.12500049631E+03 0.  0.
         25    2    1    2    0    0  0.58389782734E+02  0.48225731067E+02  0.13263935915E+03  0.19736636403E+03  0.12500077676E+03 0.  0.
          5    1    3    3  502    0 -0.46497445339E+02 -0.86478544579E+02  0.28080182263E+02  0.10223080618E+03  0.47000000000E+01 0.  1.
         -5    1    3    3    0  502 -0.11892337394E+02  0.38252813511E+02  0.47475461239E+02  0.62295383858E+02  0.47000000000E+01 0.  1.
          5    1    4    4  503    0  0.50089138361E+00  0.45759056581E+02 -0.66054136818E+01  0.46474333145E+02  0.47000000000E+01 0. -1.
         -5    1    4    4    0  503  0.57888891350E+02  0.24666744863E+01  0.13924477283E+03  0.15089203089E+03  0.47000000000E+01 0. -1.
<mgrwt>
<rscale>  0 0.14615151E+03</rscale>
<asrwt>0</asrwt>
<pdfrwt beam="1">  1        5 0.43852890E-01 0.14615157E+03</pdfrwt>
<pdfrwt beam="2">  1       -5 0.11822888E-01 0.14615157E+03</pdfrwt>
<totfact> 0.22160549E+02</totfact>
</mgrwt>
</event>
<event>
 8    1  0.3588496E-007  0.1315385E+03  0.7546771E-02  0.1225197E+00
         -5   -1    0    0    0  501 -0.00000000000E+00  0.00000000000E+00  0.40108126586E+02  0.40382568247E+02  0.47000000000E+01 0.  1.
          5   -1    0    0  501    0  0.00000000000E+00 -0.00000000000E+00 -0.43353690341E+03  0.43356237916E+03  0.47000000000E+01 0.  1.
         25    2    1    2    0    0 -0.40793656143E+02  0.31515817725E+01 -0.21935467773E+03  0.25577110645E+03  0.12501331691E+03 0.  0.
         25    2    1    2    0    0  0.40793656143E+02 -0.31515817725E+01 -0.17407409910E+03  0.21817384096E+03  0.12499591214E+03 0.  0.
          5    1    3    3  502    0  0.45012885935E+02  0.25457533782E+01 -0.83707853858E+02  0.95193148692E+02  0.47000000000E+01 0. -1.
         -5    1    3    3    0  502 -0.85806542078E+02  0.60582839429E+00 -0.13564682387E+03  0.16057795775E+03  0.47000000000E+01 0. -1.
          5    1    4    4  503    0  0.11165547578E+02 -0.58337750055E+02 -0.45131048324E+02  0.74745327994E+02  0.47000000000E+01 0.  1.
         -5    1    4    4    0  503  0.29628108566E+02  0.55186168283E+02 -0.12894305078E+03  0.14342851296E+03  0.47000000000E+01 0.  1.
<mgrwt>
<rscale>  0 0.13153439E+03</rscale>
<asrwt>0</asrwt>
<pdfrwt beam="2">  1        5 0.66721053E-01 0.13153853E+03</pdfrwt>
<pdfrwt beam="1">  1       -5 0.61935519E-02 0.13153853E+03</pdfrwt>
<totfact> 0.26456748E+02</totfact>
</mgrwt>
</event>
<event>
 8    1  0.3588496E-007  0.1515626E+03  0.7546771E-02  0.1198567E+00
         -5   -1    0    0    0  501 -0.00000000000E+00  0.00000000000E+00  0.19700620048E+03  0.19706225673E+03  0.47000000000E+01 0.  1.
          5   -1    0    0  501    0  0.00000000000E+00 -0.00000000000E+00 -0.12567048376E+03  0.12575834162E+03  0.47000000000E+01 0.  1.
         25    2    1    2    0    0  0.85220471065E+02  0.90130091047E+01  0.79294130078E+02  0.17105199587E+03  0.12500985243E+03 0.  0.
         25    2    1    2    0    0 -0.85220471065E+02 -0.90130091047E+01 -0.79584133586E+01  0.15176860248E+03  0.12500643717E+03 0.  0.
          5    1    4    4  502    0  0.28377694294E+02 -0.12378332775E+02 -0.20356724354E+02  0.37349737378E+02  0.47000000000E+01 0.  1.
         -5    1    4    4    0  502 -0.11359816536E+03  0.33653236703E+01  0.12398310995E+02  0.11441886510E+03  0.47000000000E+01 0.  1.
          5    1    3    3  503    0  0.42327323137E+02  0.62464900138E+02  0.67503772095E+02  0.10135243105E+03  0.47000000000E+01 0.  1.
         -5    1    3    3    0  503  0.42893147928E+02 -0.53451891033E+02  0.11790357984E+02  0.69699564816E+02  0.47000000000E+01 0.  1.
<mgrwt>
<rscale>  0 0.15156191E+03</rscale>
<asrwt>0</asrwt>
<pdfrwt beam="2">  1        5 0.19344991E-01 0.15156261E+03</pdfrwt>
<pdfrwt beam="1">  1       -5 0.30319716E-01 0.15156261E+03</pdfrwt>
<totfact> 0.19342011E+02</totfact>
</mgrwt>
</event>
<event>
 8    1  0.3588496E-007  0.1281429E+03  0.7546771E-02  0.1230241E+00
         -5   -1    0    0    0  501 -0.00000000000E+00  0.00000000000E+00  0.59436313406E+02  0.59621852968E+02  0.47000000000E+01 0.  1.
          5   -1    0    0  501    0  0.00000000000E+00 -0.00000000000E+00 -0.27816857055E+03  0.27820827386E+03  0.47000000000E+01 0.  1.
         25    2    1    2    0    0  0.35090061345E+01  0.27966031553E+02 -0.93198791879E+02  0.15844436696E+03  0.12499676224E+03 0.  0.
         25    2    1    2    0    0 -0.35090061345E+01 -0.27966031553E+02 -0.12553346527E+03  0.17938575987E+03  0.12500475149E+03 0.  0.
          5    1    4    4  502    0  0.42077331112E+02 -0.59055996427E+02 -0.74725086096E+02  0.10423071044E+03  0.47000000000E+01 0. -1.
         -5    1    4    4    0  502 -0.45586337247E+02  0.31089964874E+02 -0.50808379173E+02  0.75155049422E+02  0.47000000000E+01 0. -1.
          5    1    3    3  503    0 -0.58723237406E+02  0.26444997967E+02 -0.36863846072E+02  0.74355831487E+02  0.47000000000E+01 0.  1.
         -5    1    3    3    0  503  0.62232243541E+02  0.15210335860E+01 -0.56334945807E+02  0.84088535475E+02  0.47000000000E+01 0.  1.
<mgrwt>
<rscale>  0 0.12814094E+03</rscale>
<asrwt>0</asrwt>
<pdfrwt beam="2">  1        5 0.42812490E-01 0.12814289E+03</pdfrwt>
<pdfrwt beam="1">  1       -5 0.91613747E-02 0.12814289E+03</pdfrwt>
<totfact> 0.34783811E+02</totfact>
</mgrwt>
</event>
<event>
 8    1  0.3588496E-007  0.1307077E+03  0.7546771E-02  0.1226409E+00
          5   -1    0    0  501    0  0.00000000000E+00  0.00000000000E+00  0.49201836134E+02  0.49425809846E+02  0.47000000000E+01 0.  1.
         -5   -1    0    0    0  501 -0.00000000000E+00 -0.00000000000E+00 -0.34628103812E+03  0.34631293271E+03  0.47000000000E+01 0.  1.
         25    2    1    2    0    0 -0.70197708470E+01  0.37550680463E+02 -0.15149180017E+03  0.20008549995E+03  0.12500044395E+03 0.  0.
         25    2    1    2    0    0  0.70197708470E+01 -0.37550680463E+02 -0.14558740181E+03  0.19565324260E+03  0.12500067595E+03 0.  0.
          5    1    4    4  502    0  0.24514239571E+02  0.52328246784E+01 -0.14697576925E+03  0.14917203874E+03  0.47000000000E+01 0. -1.
         -5    1    4    4    0  502 -0.17494468724E+02 -0.42783505142E+02  0.13883674341E+01  0.46481203860E+02  0.47000000000E+01 0. -1.
          5    1    3    3  503    0 -0.10363517968E+01  0.59199952249E+02 -0.14439342856E+02  0.61125223873E+02  0.47000000000E+01 0.  1.
         -5    1    3    3    0  503 -0.59834190502E+01 -0.21649271786E+02 -0.13705245731E+03  0.13896027608E+03  0.47000000000E+01 0.  1.
<mgrwt>
<rscale>  0 0.13070763E+03</rscale>
<asrwt>0</asrwt>
<pdfrwt beam="1">  1        5 0.75891957E-02 0.13070769E+03</pdfrwt>
<pdfrwt beam="2">  1       -5 0.53293686E-01 0.13070769E+03</pdfrwt>
<totfact> 0.30559715E+02</totfact>
</mgrwt>
</event>
<event>
 8    1  0.3588496E-007  0.1322050E+03  0.7546771E-02  0.1224222E+00
          5   -1    0    0  501    0  0.00000000000E+00  0.00000000000E+00  0.77176190866E+02  0.77319172503E+02  0.47000000000E+01 0.  1.
         -5   -1    0    0    0  501 -0.00000000000E+00 -0.00000000000E+00 -0.22756604686E+03  0.22761457705E+03  0.47000000000E+01 0.  1.
         25    2    1    2    0    0  0.40727285034E+02 -0.13912881928E+02 -0.87492041781E+02  0.15852920797E+03  0.12499748948E+03 0.  0.
         25    2    1    2    0    0 -0.40727285034E+02  0.13912881928E+02 -0.62897814216E+02  0.14640454158E+03  0.12500349888E+03 0.  0.
          5    1    3    3  502    0 -0.53779172709E+00 -0.48125782223E+02 -0.92612031813E+02  0.10447707199E+03  0.47000000000E+01 0. -1.
         -5    1    3    3    0  502  0.41265076761E+02  0.34212900295E+02  0.51199900316E+01  0.54052135986E+02  0.47000000000E+01 0. -1.
          5    1    4    4  503    0  0.42811904760E+02  0.86931403090E+01 -0.43551216172E+01  0.44152994937E+02  0.47000000000E+01 0. -1.
         -5    1    4    4    0  503 -0.83539189793E+02  0.52197416187E+01 -0.58542692599E+02  0.10225154664E+03  0.47000000000E+01 0. -1.
<mgrwt>
<rscale>  0 0.13220355E+03</rscale>
<asrwt>0</asrwt>
<pdfrwt beam="1">  1        5 0.11887992E-01 0.13220497E+03</pdfrwt>
<pdfrwt beam="2">  1       -5 0.35024893E-01 0.13220497E+03</pdfrwt>
<totfact> 0.33545132E+02</totfact>
</mgrwt>
</event>
<event>
 8    1  0.3588496E-007  0.1281417E+03  0.7546771E-02  0.1230241E+00
          5   -1    0    0  501    0  0.00000000000E+00  0.00000000000E+00  0.14971787686E+02  0.15692177239E+02  0.47000000000E+01 0.  1.
         -5   -1    0    0    0  501 -0.00000000000E+00 -0.00000000000E+00 -0.10851554500E+04  0.10851656282E+04  0.47000000000E+01 0.  1.
         25    2    1    2    0    0  0.24050738244E+02 -0.14726222143E+02 -0.47052322417E+03  0.48765886297E+03  0.12499505000E+03 0.  0.
         25    2    1    2    0    0 -0.24050738244E+02  0.14726222143E+02 -0.59966043817E+03  0.61319894251E+03  0.12500000944E+03 0.  0.
          5    1    4    4  502    0 -0.75246745844E+02  0.86178792772E+01 -0.32987280051E+03  0.33848854504E+03  0.47000000000E+01 0. -1.
         -5    1    4    4    0  502  0.51196007600E+02  0.61083428659E+01 -0.26978763766E+03  0.27471039747E+03  0.47000000000E+01 0. -1.
          5    1    3    3  503    0 -0.46797961752E+01  0.19411055360E+02 -0.65670477029E+01  0.21538469722E+02  0.47000000000E+01 0.  1.
         -5    1    3    3    0  503  0.28730534419E+02 -0.34137277503E+02 -0.46395617646E+03  0.46612039325E+03  0.47000000000E+01 0.  1.
<mgrwt>
<rscale>  0 0.12814052E+03</rscale>
<asrwt>0</asrwt>
<pdfrwt beam="1">  1        5 0.23595503E-02 0.12814173E+03</pdfrwt>
<pdfrwt beam="2">  1       -5 0.16700313E+00 0.12814173E+03</pdfrwt>
<totfact> 0.13023114E+02</totfact>
</mgrwt>
</event>
<event>
 8    1  0.3588496E-007  0.2003978E+03  0.7546771E-02  0.1149405E+00
         -5   -1    0    0    0  501 -0.00000000000E+00  0.00000000000E+00  0.12300546850E+03  0.12309522850E+03  0.47000000000E+01 0.  1.
          5   -1    0    0  501    0  0.00000000000E+00 -0.00000000000E+00 -0.34883842643E+03  0.34887008721E+03  0.47000000000E+01 0.  1.
         25    2    1    2    0    0  0.20902846140E+02 -0.15523407922E+03 -0.52871574182E+02  0.20724861336E+03  0.12498814365E+03 0.  0.
         25    2    1    2    0    0 -0.20902846140E+02  0.15523407922E+03 -0.17296138375E+03  0.26471670236E+03  0.12499897564E+03 0.  0.
          5    1    3    3  502    0 -0.34444684880E+00 -0.16543522362E+03 -0.20259792101E+02  0.16673776127E+03  0.47000000000E+01 0.  1.
         -5    1    3    3    0  502  0.21247292989E+02  0.10201144397E+02 -0.32611782081E+02  0.40510852087E+02  0.47000000000E+01 0.  1.
          5    1    4    4  503    0 -0.16371321105E+02  0.37504575148E+02 -0.13453999533E+03  0.14070434839E+03  0.47000000000E+01 0. -1.
         -5    1    4    4    0  503 -0.45315250354E+01  0.11772950407E+03 -0.38421388417E+02  0.12401235397E+03  0.47000000000E+01 0. -1.
<mgrwt>
<rscale>  0 0.20039615E+03</rscale>
<asrwt>0</asrwt>
<pdfrwt beam="2">  1        5 0.53676790E-01 0.20039783E+03</pdfrwt>
<pdfrwt beam="1">  1       -5 0.18933258E-01 0.20039783E+03</pdfrwt>
<totfact> 0.67454434E+01</totfact>
</mgrwt>
</event>
<event>
 8    1  0.3588496E-007  0.1460714E+03  0.7546771E-02  0.1205390E+00
          5   -1    0    0  501    0  0.00000000000E+00  0.00000000000E+00  0.49808220353E+03  0.49810437809E+03  0.47000000000E+01 0.  1.
         -5   -1    0    0    0  501 -0.00000000000E+00 -0.00000000000E+00 -0.43301081883E+02  0.43555409449E+02  0.47000000000E+01 0.  1.
         25    2    1    2    0    0  0.21392580294E+02  0.72480618182E+02  0.19511803222E+03  0.24373735634E+03  0.12500307945E+03 0.  0.
         25    2    1    2    0    0 -0.21392580294E+02 -0.72480618182E+02  0.25966308943E+03  0.29792243121E+03  0.12498708934E+03 0.  0.
          5    1    3    3  502    0  0.70972660457E+02  0.63159642444E+02  0.11998974915E+03  0.15312050440E+03  0.47000000000E+01 0.  1.
         -5    1    3    3    0  502 -0.49580080163E+02  0.93209757375E+01  0.75128283074E+02  0.90616851939E+02  0.47000000000E+01 0.  1.
          5    1    4    4  503    0 -0.29871512679E+01  0.35719012253E+02  0.67793251898E+02  0.76829590080E+02  0.47000000000E+01 0. -1.
         -5    1    4    4    0  503 -0.18405429026E+02 -0.10819963043E+03  0.19186983753E+03  0.22109284113E+03  0.47000000000E+01 0. -1.
<mgrwt>
<rscale>  0 0.14606797E+03</rscale>
<asrwt>0</asrwt>
<pdfrwt beam="1">  1        5 0.76649302E-01 0.14607139E+03</pdfrwt>
<pdfrwt beam="2">  1       -5 0.66829742E-02 0.14607139E+03</pdfrwt>
<totfact> 0.17606875E+02</totfact>
</mgrwt>
</event>
<event>
 8    1  0.3588496E-007  0.1650579E+03  0.7546771E-02  0.1183104E+00
         -5   -1    0    0    0  501 -0.00000000000E+00  0.00000000000E+00  0.22022150579E+03  0.22027165413E+03  0.47000000000E+01 0.  1.
          5   -1    0    0  501    0  0.00000000000E+00 -0.00000000000E+00 -0.24882100456E+03  0.24886538994E+03  0.47000000000E+01 0.  1.
         25    2    1    2    0    0 -0.75685323343E+02  0.76742300991E+02  0.15206765529E+03  0.22442350059E+03  0.12499474750E+03 0.  0.
         25    2    1    2    0    0  0.75685323343E+02 -0.76742300991E+02 -0.18066715406E+03  0.24471354347E+03  0.12500579536E+03 0.  0.
          5    1    3    3  502    0 -0.54491322102E+02  0.46775095677E+01  0.13710682314E+03  0.14768735298E+03  0.47000000000E+01 0.  1.
         -5    1    3    3    0  502 -0.21194001241E+02  0.72064791423E+02  0.14960832156E+02  0.76736147611E+02  0.47000000000E+01 0.  1.
          5    1    4    4  503    0  0.73920203770E+02 -0.10611339895E+03 -0.11716468187E+03  0.17456775945E+03  0.47000000000E+01 0.  1.
         -5    1    4    4    0  503  0.17651195732E+01  0.29371097957E+02 -0.63502472192E+02  0.70145784027E+02  0.47000000000E+01 0.  1.
<mgrwt>
<rscale>  0 0.16505577E+03</rscale>
<asrwt>0</asrwt>
<pdfrwt beam="2">  1        5 0.38287427E-01 0.16505786E+03</pdfrwt>
<pdfrwt beam="1">  1       -5 0.33887503E-01 0.16505786E+03</pdfrwt>
<totfact> 0.42201872E+01</totfact>
</mgrwt>
</event>
<event>
 8    1  0.3588496E-007  0.1474438E+03  0.7546771E-02  0.1203651E+00
         -5   -1    0    0    0  501 -0.00000000000E+00  0.00000000000E+00  0.39211675407E+03  0.39214492069E+03  0.47000000000E+01 0.  1.
          5   -1    0    0  501    0  0.00000000000E+00 -0.00000000000E+00 -0.59387673197E+02  0.59573364247E+02  0.47000000000E+01 0.  1.
         25    2    1    2    0    0  0.68506467122E+02 -0.37699848019E+02  0.22543115478E+03  0.26936556075E+03  0.12499674074E+03 0.  0.
         25    2    1    2    0    0 -0.68506467122E+02  0.37699848019E+02  0.10729792610E+03  0.18235272419E+03  0.12500102598E+03 0.  0.
          5    1    4    4  502    0  0.26770669279E+02  0.21403788849E+02  0.71025985320E+02  0.79003617015E+02  0.47000000000E+01 0. -1.
         -5    1    4    4    0  502 -0.95277136402E+02  0.16296059171E+02  0.36271940775E+02  0.10334910717E+03  0.47000000000E+01 0. -1.
          5    1    3    3  503    0  0.75774629767E+02  0.27814193436E+02  0.11292175669E+03  0.13888425759E+03  0.47000000000E+01 0.  1.
         -5    1    3    3    0  503 -0.72681626448E+01 -0.65514041456E+02  0.11250939809E+03  0.13048130316E+03  0.47000000000E+01 0.  1.
<mgrwt>
<rscale>  0 0.14744288E+03</rscale>
<asrwt>0</asrwt>
<pdfrwt beam="2">  1        5 0.91530154E-02 0.14744379E+03</pdfrwt>
<pdfrwt beam="1">  1       -5 0.60342107E-01 0.14744379E+03</pdfrwt>
<totfact> 0.17618932E+02</totfact>
</mgrwt>
</event>
<event>
 8    1  0.3588496E-007  0.1300742E+03  0.7546771E-02  0.1227359E+00
         -5   -1    0    0    0  501 -0.00000000000E+00  0.00000000000E+00  0.29035335032E+03  0.29039138769E+03  0.47000000000E+01 0. -1.
          5   -1    0    0  501    0  0.00000000000E+00 -0.00000000000E+00 -0.58124296836E+02  0.58314011032E+02  0.47000000000E+01 0. -1.
         25    2    1    2    0    0 -0.35906109648E+02 -0.22101495328E+01  0.11442336645E+03  0.17323976570E+03  0.12500070464E+03 0.  0.
         25    2    1    2    0    0  0.35906109648E+02  0.22101495328E+01  0.11780568704E+03  0.17546563302E+03  0.12496349468E+03 0.  0.
          5    1    3    3  502    0  0.96302372917E+01 -0.52749015886E+02  0.21455283664E+02  0.57944968241E+02  0.47000000000E+01 0. -1.
         -5    1    3    3    0  502 -0.45536346939E+02  0.50538866354E+02  0.92968082782E+02  0.11529479746E+03  0.47000000000E+01 0. -1.
          5    1    4    4  503    0 -0.14891622691E+01 -0.18779522722E+02  0.12935688012E+03  0.13080588868E+03  0.47000000000E+01 0.  1.
         -5    1    4    4    0  503  0.37395271917E+02  0.20989672255E+02 -0.11551193082E+02  0.44659744342E+02  0.47000000000E+01 0.  1.
<mgrwt>
<rscale>  0 0.13006531E+03</rscale>
<asrwt>0</asrwt>
<pdfrwt beam="2">  1        5 0.89597189E-02 0.13007425E+03</pdfrwt>
<pdfrwt beam="1">  1       -5 0.44687266E-01 0.13007425E+03</pdfrwt>
<totfact> 0.33259753E+02</totfact>
</mgrwt>
</event>
<event>
 8    1  0.3588496E-007  0.1369525E+03  0.7546771E-02  0.1217490E+00
         -5   -1    0    0    0  501 -0.00000000000E+00  0.00000000000E+00  0.10662239126E+03  0.10672593086E+03  0.47000000000E+01 0. -1.
          5   -1    0    0  501    0  0.00000000000E+00 -0.00000000000E+00 -0.19955570785E+03  0.19961104813E+03  0.47000000000E+01 0. -1.
         25    2    1    2    0    0  0.52537633810E+02  0.19258209666E+02  0.64816150479E+01  0.13710580270E+03  0.12499963278E+03 0.  0.
         25    2    1    2    0    0 -0.52537633810E+02 -0.19258209666E+02 -0.99414931641E+02  0.16923117629E+03  0.12499912315E+03 0.  0.
          5    1    3    3  502    0  0.85908070468E+02  0.32064485910E+02 -0.17950816390E+02  0.93555596504E+02  0.47000000000E+01 0. -1.
         -5    1    3    3    0  502 -0.33370436658E+02 -0.12806276244E+02  0.24432431438E+02  0.43550206199E+02  0.47000000000E+01 0. -1.
          5    1    4    4  503    0 -0.29870492557E+02  0.52991460020E+02 -0.41578977146E+02  0.73832530101E+02  0.47000000000E+01 0. -1.
         -5    1    4    4    0  503 -0.22667141253E+02 -0.72249669685E+02 -0.57835954495E+02  0.95398646189E+02  0.47000000000E+01 0. -1.
<mgrwt>
<rscale>  0 0.13695239E+03</rscale>
<asrwt>0</asrwt>
<pdfrwt beam="2">  1        5 0.30713100E-01 0.13695251E+03</pdfrwt>
<pdfrwt beam="1">  1       -5 0.16415666E-01 0.13695251E+03</pdfrwt>
<totfact> 0.24677010E+02</totfact>
</mgrwt>
</event>
<event>
 8    1  0.3588496E-007  0.1812856E+03  0.7546771E-02  0.1166565E+00
          5   -1    0    0  501    0  0.00000000000E+00  0.00000000000E+00  0.92764000722E+03  0.92765191370E+03  0.47000000000E+01 0.  1.
         -5   -1    0    0    0  501 -0.00000000000E+00 -0.00000000000E+00 -0.66144838127E+02  0.66311609925E+02  0.47000000000E+01 0.  1.
         25    2    1    2    0    0  0.41600466277E+02  0.12453032840E+03  0.91788093025E+02  0.20319589265E+03  0.12500046113E+03 0.  0.
         25    2    1    2    0    0 -0.41600466277E+02 -0.12453032840E+03  0.76970707607E+03  0.79076763098E+03  0.12500424701E+03 0.  0.
          5    1    3    3  502    0  0.42959802708E+02  0.32455504029E+02  0.96788370287E+02  0.11085568553E+03  0.47000000000E+01 0. -1.
         -5    1    3    3    0  502 -0.13593364305E+01  0.92074824372E+02 -0.50002772618E+01  0.92340207122E+02  0.47000000000E+01 0. -1.
          5    1    4    4  503    0  0.36781153202E+02 -0.44730926362E+01  0.18353233393E+03  0.18729407195E+03  0.47000000000E+01 0. -1.
         -5    1    4    4    0  503 -0.78381619479E+02 -0.12005723576E+03  0.58617474214E+03  0.60347355904E+03  0.47000000000E+01 0. -1.
<mgrwt>
<rscale>  0 0.18128493E+03</rscale>
<asrwt>0</asrwt>
<pdfrwt beam="1">  1        5 0.14272759E+00 0.18128558E+03</pdfrwt>
<pdfrwt beam="2">  1       -5 0.10189873E-01 0.18128558E+03</pdfrwt>
<totfact> 0.19399512E+01</totfact>
</mgrwt>
</event>
<event>
 8    1  0.3588496E-007  0.1650348E+03  0.7546771E-02  0.1183134E+00
         -5   -1    0    0    0  501 -0.00000000000E+00  0.00000000000E+00  0.10552281404E+03  0.10562743149E+03  0.47000000000E+01 0. -1.
          5   -1    0    0  501    0  0.00000000000E+00 -0.00000000000E+00 -0.26722292780E+03  0.26726425714E+03  0.47000000000E+01 0. -1.
         25    2    1    2    0    0 -0.25491033127E+02  0.10469679470E+03 -0.45880608369E+02  0.17129363828E+03  0.12500107480E+03 0.  0.
         25    2    1    2    0    0  0.25491033127E+02 -0.10469679470E+03 -0.11581950539E+03  0.20159805034E+03  0.12496561319E+03 0.  0.
          5    1    3    3  502    0 -0.71013192276E+02  0.78590913822E+02 -0.52289324694E+02  0.11821873240E+03  0.47000000000E+01 0.  1.
         -5    1    3    3    0  502  0.45522159149E+02  0.26105880876E+02  0.64087163252E+01  0.53074905887E+02  0.47000000000E+01 0.  1.
          5    1    4    4  503    0 -0.32800919715E+02 -0.43672586903E+02 -0.10221516743E+03  0.11598804091E+03  0.47000000000E+01 0.  1.
         -5    1    4    4    0  503  0.58291952842E+02 -0.61024207795E+02 -0.13604337965E+02  0.85610009431E+02  0.47000000000E+01 0.  1.
<mgrwt>
<rscale>  0 0.16502807E+03</rscale>
<asrwt>0</asrwt>
<pdfrwt beam="2">  1        5 0.41122446E-01 0.16503479E+03</pdfrwt>
<pdfrwt beam="1">  1       -5 0.16245506E-01 0.16503479E+03</pdfrwt>
<totfact> 0.14852236E+02</totfact>
</mgrwt>
</event>
<event>
 8    1  0.3588496E-007  0.1258935E+03  0.7546771E-02  0.1233680E+00
          5   -1    0    0  501    0  0.00000000000E+00  0.00000000000E+00  0.40709809559E+03  0.40712522574E+03  0.47000000000E+01 0.  1.
         -5   -1    0    0    0  501 -0.00000000000E+00 -0.00000000000E+00 -0.39279691283E+02  0.39559880526E+02  0.47000000000E+01 0.  1.
         25    2    1    2    0    0 -0.43902882941E+01  0.14448232385E+02  0.15836029636E+03  0.20230452650E+03  0.12498444675E+03 0.  0.
         25    2    1    2    0    0  0.43902882941E+01 -0.14448232385E+02  0.20945810795E+03  0.24438057976E+03  0.12498456997E+03 0.  0.
          5    1    3    3  502    0 -0.16974364950E+02 -0.11600214122E+02 -0.15384637521E+02  0.26105001528E+02  0.47000000000E+01 0. -1.
         -5    1    3    3    0  502  0.12584076656E+02  0.26048446507E+02  0.17374493388E+03  0.17619952497E+03  0.47000000000E+01 0. -1.
          5    1    4    4  503    0 -0.56263242998E+02 -0.36097245948E+01  0.14222476881E+03  0.15306390001E+03  0.47000000000E+01 0.  1.
         -5    1    4    4    0  503  0.60653531292E+02 -0.10838507791E+02  0.67233339136E+02  0.91316679751E+02  0.47000000000E+01 0.  1.
<mgrwt>
<rscale>  0 0.12589345E+03</rscale>
<asrwt>0</asrwt>
<pdfrwt beam="1">  1        5 0.62654117E-01 0.12589348E+03</pdfrwt>
<pdfrwt beam="2">  1       -5 0.60666693E-02 0.12589348E+03</pdfrwt>
<totfact> 0.30993804E+02</totfact>
</mgrwt>
</event>
<event>
 8    1  0.3588496E-007  0.1260900E+03  0.7546771E-02  0.1233381E+00
         -5   -1    0    0    0  501 -0.00000000000E+00  0.00000000000E+00  0.11013242010E+03  0.11023266284E+03  0.47000000000E+01 0. -1.
          5   -1    0    0  501    0  0.00000000000E+00 -0.00000000000E+00 -0.18055772703E+03  0.18061888825E+03  0.47000000000E+01 0. -1.
         25    2    1    2    0    0 -0.52772532596E+01  0.15626296557E+02  0.30067139449E+02  0.12962531907E+03  0.12500663952E+03 0.  0.
         25    2    1    2    0    0  0.52772532596E+01 -0.15626296557E+02 -0.10049244638E+03  0.16122623202E+03  0.12499254203E+03 0.  0.
          5    1    3    3  502    0  0.52372993938E+02 -0.16019643858E+02  0.32110476768E+02  0.63661072891E+02  0.47000000000E+01 0. -1.
         -5    1    3    3    0  502 -0.57650247197E+02  0.31645940415E+02 -0.20433373187E+01  0.65964246180E+02  0.47000000000E+01 0. -1.
          5    1    4    4  503    0 -0.36624398433E+02 -0.19940958746E+02 -0.11004791679E+03  0.11777785185E+03  0.47000000000E+01 0. -1.
         -5    1    4    4    0  503  0.41901651692E+02  0.43146621895E+01  0.95554704079E+01  0.43448380166E+02  0.47000000000E+01 0. -1.
<mgrwt>
<rscale>  0 0.12608652E+03</rscale>
<asrwt>0</asrwt>
<pdfrwt beam="2">  1        5 0.27790528E-01 0.12609001E+03</pdfrwt>
<pdfrwt beam="1">  1       -5 0.16955865E-01 0.12609001E+03</pdfrwt>
<totfact> 0.27462051E+02</totfact>
</mgrwt>
</event>
<event>
 8    1  0.3588496E-007  0.1433937E+03  0.7546771E-02  0.1208834E+00
          5   -1    0    0  501    0  0.00000000000E+00  0.00000000000E+00  0.31797621700E+02  0.32143097949E+02  0.47000000000E+01 0.  1.
         -5   -1    0    0    0  501 -0.00000000000E+00 -0.00000000000E+00 -0.64288329550E+03  0.64290047569E+03  0.47000000000E+01 0.  1.
         25    2    1    2    0    0 -0.62137081963E+02  0.32804110376E+02 -0.30956137144E+03  0.34115977672E+03  0.12499849580E+03 0.  0.
         25    2    1    2    0    0  0.62137081963E+02 -0.32804110376E+02 -0.30152430236E+03  0.33388379691E+03  0.12499743323E+03 0.  0.
          5    1    3    3  502    0 -0.78874390385E+02  0.18541656413E+02 -0.30811691738E+03  0.31862687780E+03  0.47000000000E+01 0. -1.
         -5    1    3    3    0  502  0.16737308422E+02  0.14262453963E+02 -0.14444540619E+01  0.22532898921E+02  0.47000000000E+01 0. -1.
          5    1    4    4  503    0  0.77049733882E+02  0.22841075387E+02 -0.13024878466E+03  0.15311829453E+03  0.47000000000E+01 0.  1.
         -5    1    4    4    0  503 -0.14912651919E+02 -0.55645185763E+02 -0.17127551770E+03  0.18076550238E+03  0.47000000000E+01 0.  1.
<mgrwt>
<rscale>  0 0.14339346E+03</rscale>
<asrwt>0</asrwt>
<pdfrwt beam="1">  1        5 0.49198390E-02 0.14339369E+03</pdfrwt>
<pdfrwt beam="2">  1       -5 0.98933009E-01 0.14339369E+03</pdfrwt>
<totfact> 0.16022753E+02</totfact>
</mgrwt>
</event>
<event>
 8    1  0.3588496E-007  0.1773715E+03  0.7546771E-02  0.1170373E+00
          5   -1    0    0  501    0  0.00000000000E+00  0.00000000000E+00  0.13513979752E+03  0.13522150300E+03  0.47000000000E+01 0. -1.
         -5   -1    0    0    0  501 -0.00000000000E+00 -0.00000000000E+00 -0.23560053523E+03  0.23564741077E+03  0.47000000000E+01 0. -1.
         25    2    1    2    0    0  0.12533865840E+03  0.11119985531E+02 -0.71089136001E+02  0.19108194912E+03  0.12500085061E+03 0.  0.
         25    2    1    2    0    0 -0.12533865840E+03 -0.11119985531E+02 -0.29371601709E+02  0.17978696465E+03  0.12500891290E+03 0.  0.
          5    1    3    3  502    0 -0.23299124507E+02  0.16561343910E+01  0.40963997535E+01  0.24175658727E+02  0.47000000000E+01 0. -1.
         -5    1    3    3    0  502  0.14863778291E+03  0.94638511403E+01 -0.75185535755E+02  0.16690629039E+03  0.47000000000E+01 0. -1.
          5    1    4    4  503    0  0.16292892309E+02 -0.25684871968E+02 -0.20651936513E+02  0.37064315312E+02  0.47000000000E+01 0.  1.
         -5    1    4    4    0  503 -0.14163155071E+03  0.14564886437E+02 -0.87196651956E+01  0.14272264934E+03  0.47000000000E+01 0.  1.
<mgrwt>
<rscale>  0 0.17737012E+03</rscale>
<asrwt>0</asrwt>
<pdfrwt beam="1">  1        5 0.20800629E-01 0.17737154E+03</pdfrwt>
<pdfrwt beam="2">  1       -5 0.36256127E-01 0.17737154E+03</pdfrwt>
<totfact> 0.12404959E+02</totfact>
</mgrwt>
</event>
<event>
 8    1  0.3588496E-007  0.1330218E+03  0.7546771E-02  0.1223041E+00
          5   -1    0    0  501    0  0.00000000000E+00  0.00000000000E+00  0.16309574395E+03  0.16316345085E+03  0.47000000000E+01 0. -1.
         -5   -1    0    0    0  501 -0.00000000000E+00 -0.00000000000E+00 -0.12734640232E+03  0.12743310474E+03  0.47000000000E+01 0. -1.
         25    2    1    2    0    0  0.45460633479E+02  0.16729496388E+01 -0.38209407452E+02  0.13839705430E+03  0.12499727143E+03 0.  0.
         25    2    1    2    0    0 -0.45460633479E+02 -0.16729496388E+01  0.73958749076E+02  0.15219950129E+03  0.12500129468E+03 0.  0.
          5    1    3    3  502    0  0.80378488020E+02 -0.23875888079E+02 -0.43460319824E+02  0.94560291704E+02  0.47000000000E+01 0. -1.
         -5    1    3    3    0  502 -0.34917854541E+02  0.25548837718E+02  0.52509123720E+01  0.43836762600E+02  0.47000000000E+01 0. -1.
          5    1    4    4  503    0  0.42092912133E+01  0.42166631196E+02 -0.11315933931E+02  0.44112167025E+02  0.47000000000E+01 0.  1.
         -5    1    4    4    0  503 -0.49669924692E+02 -0.43839580834E+02  0.85274683008E+02  0.10808733427E+03  0.47000000000E+01 0.  1.
<mgrwt>
<rscale>  0 0.13302083E+03</rscale>
<asrwt>0</asrwt>
<pdfrwt beam="1">  1        5 0.25103531E-01 0.13302177E+03</pdfrwt>
<pdfrwt beam="2">  1       -5 0.19603632E-01 0.13302177E+03</pdfrwt>
<totfact> 0.26059862E+02</totfact>
</mgrwt>
</event>
<event>
 8    1  0.3588496E-007  0.1346760E+03  0.7546771E-02  0.1220678E+00
          5   -1    0    0  501    0  0.00000000000E+00  0.00000000000E+00  0.23515929405E+04  0.23515976373E+04  0.47000000000E+01 0. -1.
         -5   -1    0    0    0  501 -0.00000000000E+00 -0.00000000000E+00 -0.86416113317E+01  0.98370445972E+01  0.47000000000E+01 0. -1.
         25    2    1    2    0    0 -0.43058180216E+02  0.25661107836E+02  0.69093804352E+03  0.70394093368E+03  0.12499983512E+03 0.  0.
         25    2    1    2    0    0  0.43058180216E+02 -0.25661107836E+02  0.16520132856E+04  0.16574937482E+04  0.12500052056E+03 0.  0.
          5    1    3    3  502    0 -0.37245475662E+02  0.32865799370E+02  0.89935887589E+02  0.10284911328E+03  0.47000000000E+01 0. -1.
         -5    1    3    3    0  502 -0.58127045544E+01 -0.72046915342E+01  0.60100215593E+03  0.60109182040E+03  0.47000000000E+01 0. -1.
          5    1    4    4  503    0  0.58436445351E+02 -0.52979028020E+02  0.15063550407E+04  0.15084260652E+04  0.47000000000E+01 0.  1.
         -5    1    4    4    0  503 -0.15378265135E+02  0.27317920184E+02  0.14565824496E+03  0.14906768304E+03  0.47000000000E+01 0.  1.
<mgrwt>
<rscale>  0 0.13467586E+03</rscale>
<asrwt>0</asrwt>
<pdfrwt beam="1">  1        5 0.36187605E+00 0.13467602E+03</pdfrwt>
<pdfrwt beam="2">  1       -5 0.14217956E-02 0.13467602E+03</pdfrwt>
<totfact> 0.15748376E+01</totfact>
</mgrwt>
</event>
<event>
 8    1  0.3588496E-007  0.1564281E+03  0.7546771E-02  0.1192790E+00
         -5   -1    0    0    0  501 -0.00000000000E+00  0.00000000000E+00  0.27856302083E+03  0.27860266793E+03  0.47000000000E+01 0. -1.
          5   -1    0    0  501    0  0.00000000000E+00 -0.00000000000E+00 -0.12627245396E+03  0.12635989328E+03  0.47000000000E+01 0. -1.
         25    2    1    2    0    0  0.21033129641E+02 -0.91663339633E+02  0.18794149913E+03  0.24452336224E+03  0.12500042885E+03 0.  0.
         25    2    1    2    0    0 -0.21033129641E+02  0.91663339633E+02 -0.35650932257E+02  0.16043919896E+03  0.12500074887E+03 0.  0.
          5    1    4    4  502    0 -0.21984874051E+02  0.95468120689E+02  0.23595131488E+02  0.10087773285E+03  0.47000000000E+01 0.  1.
         -5    1    4    4    0  502  0.95174441001E+00 -0.38047810558E+01 -0.59246063745E+02  0.59561466113E+02  0.47000000000E+01 0.  1.
          5    1    3    3  503    0  0.51213106670E+02 -0.94168651326E+02  0.84317606350E+02  0.13646269061E+03  0.47000000000E+01 0.  1.
         -5    1    3    3    0  503 -0.30179977028E+02  0.25053116934E+01  0.10362389278E+03  0.10806067164E+03  0.47000000000E+01 0.  1.
<mgrwt>
<rscale>  0 0.15642803E+03</rscale>
<asrwt>0</asrwt>
<pdfrwt beam="2">  1        5 0.19436307E-01 0.15642809E+03</pdfrwt>
<pdfrwt beam="1">  1       -5 0.42865625E-01 0.15642809E+03</pdfrwt>
<totfact> 0.96280665E+01</totfact>
</mgrwt>
</event>
<event>
 8    1  0.3588496E-007  0.1759014E+03  0.7546771E-02  0.1171830E+00
          5   -1    0    0  501    0  0.00000000000E+00  0.00000000000E+00  0.16800797565E+03  0.16807370372E+03  0.47000000000E+01 0.  1.
         -5   -1    0    0    0  501 -0.00000000000E+00 -0.00000000000E+00 -0.39572272980E+03  0.39575063977E+03  0.47000000000E+01 0.  1.
         25    2    1    2    0    0 -0.12375756126E+03 -0.98998811098E+00 -0.32001923819E+03  0.36517531954E+03  0.12499514847E+03 0.  0.
         25    2    1    2    0    0  0.12375756126E+03  0.98998811098E+00  0.92304484041E+02  0.19864902396E+03  0.12499761157E+03 0.  0.
          5    1    4    4  502    0  0.31961552743E+02 -0.50096906317E+02  0.68544928467E+02  0.90839078016E+02  0.47000000000E+01 0.  1.
         -5    1    4    4    0  502  0.91796008520E+02  0.51086894428E+02  0.23759555574E+02  0.10780994594E+03  0.47000000000E+01 0.  1.
          5    1    3    3  503    0 -0.11829183567E+03  0.46276593146E+02 -0.21457724967E+03  0.24939921318E+03  0.47000000000E+01 0.  1.
         -5    1    3    3    0  503 -0.54657255956E+01 -0.47266581257E+02 -0.10544198852E+03  0.11577610636E+03  0.47000000000E+01 0.  1.
<mgrwt>
<rscale>  0 0.17590100E+03</rscale>
<asrwt>0</asrwt>
<pdfrwt beam="1">  1        5 0.25854584E-01 0.17590144E+03</pdfrwt>
<pdfrwt beam="2">  1       -5 0.60887623E-01 0.17590144E+03</pdfrwt>
<totfact> 0.27373950E+01</totfact>
</mgrwt>
</event>
<event>
 8    1  0.3588496E-007  0.1492501E+03  0.7546771E-02  0.1201400E+00
          5   -1    0    0  501    0  0.00000000000E+00  0.00000000000E+00  0.14027559901E+03  0.14035431478E+03  0.47000000000E+01 0.  1.
         -5   -1    0    0    0  501 -0.00000000000E+00 -0.00000000000E+00 -0.17035139088E+03  0.17041621512E+03  0.47000000000E+01 0.  1.
         25    2    1    2    0    0  0.77213529547E+02 -0.26222653110E+02  0.25698245338E+02  0.15143960331E+03  0.12499598776E+03 0.  0.
         25    2    1    2    0    0 -0.77213529547E+02  0.26222653110E+02 -0.55774037216E+02  0.15933092659E+03  0.12500417697E+03 0.  0.
          5    1    3    3  502    0 -0.12635605843E+02 -0.47711815526E+01 -0.37020377107E+02  0.39686534613E+02  0.47000000000E+01 0. -1.
         -5    1    3    3    0  502  0.89849135389E+02 -0.21451471558E+02  0.62718622445E+02  0.11175306870E+03  0.47000000000E+01 0. -1.
          5    1    4    4  503    0 -0.87892063678E+01  0.12635700086E+01  0.38680214410E+02  0.39963680318E+02  0.47000000000E+01 0.  1.
         -5    1    4    4    0  503 -0.68424323179E+02  0.24959083102E+02 -0.94454251626E+02  0.11936724627E+03  0.47000000000E+01 0.  1.
<mgrwt>
<rscale>  0 0.14924841E+03</rscale>
<asrwt>0</asrwt>
<pdfrwt beam="1">  1        5 0.21591903E-01 0.14925013E+03</pdfrwt>
<pdfrwt beam="2">  1       -5 0.26218948E-01 0.14925013E+03</pdfrwt>
<totfact> 0.20791835E+02</totfact>
</mgrwt>
</event>
<event>
 8    1  0.3588496E-007  0.1359569E+03  0.7546771E-02  0.1218876E+00
          5   -1    0    0  501    0  0.00000000000E+00  0.00000000000E+00  0.22311677602E+03  0.22316627375E+03  0.47000000000E+01 0.  1.
         -5   -1    0    0    0  501 -0.00000000000E+00 -0.00000000000E+00 -0.15237344972E+03  0.15244591887E+03  0.47000000000E+01 0.  1.
         25    2    1    2    0    0 -0.40325495405E+02  0.35116264132E+02 -0.91543022277E+02  0.16390366072E+03  0.12499994994E+03 0.  0.
         25    2    1    2    0    0  0.40325495405E+02 -0.35116264132E+02  0.16228634857E+03  0.21170853189E+03  0.12499738380E+03 0.  0.
          5    1    3    3  502    0 -0.59267676405E+02  0.20882913831E+02 -0.11442631252E+03  0.13063010585E+03  0.47000000000E+01 0. -1.
         -5    1    3    3    0  502  0.18942180999E+02  0.14233350301E+02  0.22883290242E+02  0.33273554876E+02  0.47000000000E+01 0. -1.
          5    1    4    4  503    0 -0.26921419987E+02 -0.53491159263E+02  0.44491811642E+02  0.74750774421E+02  0.47000000000E+01 0.  1.
         -5    1    4    4    0  503  0.67246915392E+02  0.18374895131E+02  0.11779453693E+03  0.13695775747E+03  0.47000000000E+01 0.  1.
<mgrwt>
<rscale>  0 0.13595633E+03</rscale>
<asrwt>0</asrwt>
<pdfrwt beam="1">  1        5 0.34335040E-01 0.13595692E+03</pdfrwt>
<pdfrwt beam="2">  1       -5 0.23451451E-01 0.13595692E+03</pdfrwt>
<totfact> 0.10155502E+02</totfact>
</mgrwt>
</event>
<event>
 8    1  0.3588496E-007  0.1277350E+03  0.7546771E-02  0.1230859E+00
         -5   -1    0    0    0  501 -0.00000000000E+00  0.00000000000E+00  0.29822341884E+02  0.30190430196E+02  0.47000000000E+01 0. -1.
          5   -1    0    0  501    0  0.00000000000E+00 -0.00000000000E+00 -0.56815414503E+03  0.56817358485E+03  0.47000000000E+01 0. -1.
         25    2    1    2    0    0 -0.14354289968E+02  0.22033665234E+02 -0.20665612057E+03  0.24294175811E+03  0.12498967006E+03 0.  0.
         25    2    1    2    0    0  0.14354289968E+02 -0.22033665234E+02 -0.33167568258E+03  0.35542225693E+03  0.12499877704E+03 0.  0.
          5    1    4    4  502    0 -0.51319066998E+02 -0.22987866601E+02 -0.10287707351E+03  0.11733657103E+03  0.47000000000E+01 0.  1.
         -5    1    4    4    0  502  0.65673356966E+02  0.95420136620E+00 -0.22879860907E+03  0.23808568590E+03  0.47000000000E+01 0.  1.
          5    1    3    3  503    0  0.16578745296E+02  0.25164016753E+02 -0.20918437572E+03  0.21139601600E+03  0.47000000000E+01 0.  1.
         -5    1    3    3    0  503 -0.30933035264E+02 -0.31303515188E+01  0.25282551535E+01  0.31545742112E+02  0.47000000000E+01 0.  1.
<mgrwt>
<rscale>  0 0.12773274E+03</rscale>
<asrwt>0</asrwt>
<pdfrwt beam="2">  1        5 0.87438132E-01 0.12773497E+03</pdfrwt>
<pdfrwt beam="1">  1       -5 0.46178629E-02 0.12773497E+03</pdfrwt>
<totfact> 0.22990404E+02</totfact>
</mgrwt>
</event>
<event>
 8    1  0.3588496E-007  0.1658027E+03  0.7546771E-02  0.1182298E+00
          5   -1    0    0  501    0  0.00000000000E+00  0.00000000000E+00  0.10405930598E+03  0.10416539330E+03  0.47000000000E+01 0. -1.
         -5   -1    0    0    0  501 -0.00000000000E+00 -0.00000000000E+00 -0.28311243543E+03  0.28315144551E+03  0.47000000000E+01 0. -1.
         25    2    1    2    0    0  0.10176549249E+03 -0.38839427692E+02 -0.13994406750E+03  0.21696742485E+03  0.12500321921E+03 0.  0.
         25    2    1    2    0    0 -0.10176549249E+03  0.38839427692E+02 -0.39109061942E+02  0.17034941396E+03  0.12499875001E+03 0.  0.
          5    1    3    3  502    0  0.29763458633E+02 -0.75207673858E+02 -0.93690462001E+02  0.12386303059E+03  0.47000000000E+01 0. -1.
         -5    1    3    3    0  502  0.72002033860E+02  0.36368246166E+02 -0.46253605501E+02  0.93104394263E+02  0.47000000000E+01 0. -1.
          5    1    4    4  503    0 -0.24130718098E+02  0.32742906084E+02  0.41409995273E+02  0.58234587345E+02  0.47000000000E+01 0.  1.
         -5    1    4    4    0  503 -0.77634774395E+02  0.60965216084E+01 -0.80519057215E+02  0.11211482661E+03  0.47000000000E+01 0.  1.
<mgrwt>
<rscale>  0 0.16580182E+03</rscale>
<asrwt>0</asrwt>
<pdfrwt beam="1">  1        5 0.16020285E-01 0.16580266E+03</pdfrwt>
<pdfrwt beam="2">  1       -5 0.43566921E-01 0.16580266E+03</pdfrwt>
<totfact> 0.13538452E+02</totfact>
</mgrwt>
</event>
<event>
 8    1  0.3588496E-007  0.1500211E+03  0.7546771E-02  0.1200451E+00
          5   -1    0    0  501    0  0.00000000000E+00  0.00000000000E+00  0.11906280709E+04  0.11906373475E+04  0.47000000000E+01 0.  1.
         -5   -1    0    0    0  501 -0.00000000000E+00 -0.00000000000E+00 -0.22366127928E+02  0.22854620507E+02  0.47000000000E+01 0.  1.
         25    2    1    2    0    0 -0.43568699186E+02  0.70588126203E+02  0.33815024516E+03  0.36993502014E+03  0.12500166284E+03 0.  0.
         25    2    1    2    0    0  0.43568699186E+02 -0.70588126203E+02  0.83011169781E+03  0.84355694785E+03  0.12498791266E+03 0.  0.
          5    1    4    4  502    0 -0.16482849256E+02 -0.86077921786E+02  0.49618329491E+03  0.50388594452E+03  0.47000000000E+01 0.  1.
         -5    1    4    4    0  502  0.60051548442E+02  0.15489795583E+02  0.33392840290E+03  0.33967100333E+03  0.47000000000E+01 0.  1.
          5    1    3    3  503    0 -0.48528258480E+02  0.11837554909E+02  0.35257097009E+02  0.61321060549E+02  0.47000000000E+01 0.  1.
         -5    1    3    3    0  503  0.49595592941E+01  0.58750571294E+02  0.30289314816E+03  0.30861395959E+03  0.47000000000E+01 0.  1.
<mgrwt>
<rscale>  0 0.15001824E+03</rscale>
<asrwt>0</asrwt>
<pdfrwt beam="1">  1        5 0.18321189E+00 0.15002110E+03</pdfrwt>
<pdfrwt beam="2">  1       -5 0.34792318E-02 0.15002110E+03</pdfrwt>
<totfact> 0.55792489E+01</totfact>
</mgrwt>
</event>
<event>
 8    1  0.3588496E-007  0.1401569E+03  0.7546771E-02  0.1213131E+00
         -5   -1    0    0    0  501 -0.00000000000E+00  0.00000000000E+00  0.19392133026E+04  0.19392189982E+04  0.47000000000E+01 0. -1.
          5   -1    0    0  501    0  0.00000000000E+00 -0.00000000000E+00 -0.95759781187E+01  0.10667209426E+02  0.47000000000E+01 0. -1.
         25    2    1    2    0    0  0.81788932865E+01 -0.62837753673E+02  0.96929523984E+03  0.97937043325E+03  0.12497082047E+03 0.  0.
         25    2    1    2    0    0 -0.81788932865E+01  0.62837753673E+02  0.96034208465E+03  0.97051577438E+03  0.12501388401E+03 0.  0.
          5    1    3    3  502    0 -0.49551379654E+02 -0.80108394493E+01  0.21315766193E+03  0.21903833366E+03  0.47000000000E+01 0.  1.
         -5    1    3    3    0  502  0.57730272940E+02 -0.54826914224E+02  0.75613757791E+03  0.76033209959E+03  0.47000000000E+01 0.  1.
          5    1    4    4  503    0  0.25331115999E+02  0.89542585839E+02  0.75280461392E+03  0.75854888890E+03  0.47000000000E+01 0. -1.
         -5    1    4    4    0  503 -0.33510009286E+02 -0.26704832165E+02  0.20753747073E+03  0.21196688548E+03  0.47000000000E+01 0. -1.
<mgrwt>
<rscale>  0 0.14014727E+03</rscale>
<asrwt>0</asrwt>
<pdfrwt beam="2">  1        5 0.15576052E-02 0.14015687E+03</pdfrwt>
<pdfrwt beam="1">  1       -5 0.29842511E+00 0.14015687E+03</pdfrwt>
<totfact> 0.35448605E+01</totfact>
</mgrwt>
</event>
<event>
 8    1  0.3588496E-007  0.1299897E+03  0.7546771E-02  0.1227474E+00
         -5   -1    0    0    0  501 -0.00000000000E+00  0.00000000000E+00  0.10323483800E+03  0.10334177169E+03  0.47000000000E+01 0.  1.
          5   -1    0    0  501    0  0.00000000000E+00 -0.00000000000E+00 -0.23986530534E+03  0.23991134760E+03  0.47000000000E+01 0.  1.
         25    2    1    2    0    0  0.29187050338E+02  0.20510263219E+02  0.28524987630E+02  0.13308269291E+03  0.12499909371E+03 0.  0.
         25    2    1    2    0    0 -0.29187050338E+02 -0.20510263219E+02 -0.16515545497E+03  0.21017042638E+03  0.12499091572E+03 0.  0.
          5    1    4    4  502    0 -0.76991959170E+02 -0.25899149789E+02 -0.11016028362E+03  0.13695220270E+03  0.47000000000E+01 0. -1.
         -5    1    4    4    0  502  0.47804908832E+02  0.53888865704E+01 -0.54995171350E+02  0.73218223679E+02  0.47000000000E+01 0. -1.
          5    1    3    3  503    0  0.18603760144E+02  0.28648401707E+02  0.76046380146E+02  0.83498339775E+02  0.47000000000E+01 0. -1.
         -5    1    3    3    0  503  0.10583290193E+02 -0.81381384880E+01 -0.47521392516E+02  0.49584353137E+02  0.47000000000E+01 0. -1.
<mgrwt>
<rscale>  0 0.12998776E+03</rscale>
<asrwt>0</asrwt>
<pdfrwt beam="2">  1        5 0.36914122E-01 0.12998972E+03</pdfrwt>
<pdfrwt beam="1">  1       -5 0.15894050E-01 0.12998972E+03</pdfrwt>
<totfact> 0.17819013E+02</totfact>
</mgrwt>
</event>
<event>
 8    1  0.3588496E-007  0.1344396E+03  0.7546771E-02  0.1221024E+00
         -5   -1    0    0    0  501 -0.00000000000E+00  0.00000000000E+00  0.16698935809E+03  0.16705548694E+03  0.47000000000E+01 0. -1.
          5   -1    0    0  501    0  0.00000000000E+00 -0.00000000000E+00 -0.10807899583E+03  0.10818114133E+03  0.47000000000E+01 0. -1.
         25    2    1    2    0    0  0.49464754692E+02  0.96618003603E+00  0.30612376415E+02  0.13788080808E+03  0.12500521664E+03 0.  0.
         25    2    1    2    0    0 -0.49464754692E+02 -0.96618003603E+00  0.28297985851E+02  0.13735582018E+03  0.12497259649E+03 0.  0.
          5    1    3    3  502    0  0.37924152171E+01 -0.32862275121E+02 -0.36717186612E+02  0.49644267866E+02  0.47000000000E+01 0. -1.
         -5    1    3    3    0  502  0.45672339475E+02  0.33828455157E+02  0.67329563027E+02  0.88236540213E+02  0.47000000000E+01 0. -1.
          5    1    4    4  503    0 -0.11938348361E+02  0.59879280141E+02  0.23366393129E+02  0.65544875312E+02  0.47000000000E+01 0.  1.
         -5    1    4    4    0  503 -0.37526406332E+02 -0.60845460177E+02  0.49315927213E+01  0.71810944870E+02  0.47000000000E+01 0.  1.
<mgrwt>
<rscale>  0 0.13443199E+03</rscale>
<asrwt>0</asrwt>
<pdfrwt beam="2">  1        5 0.16640482E-01 0.13443958E+03</pdfrwt>
<pdfrwt beam="1">  1       -5 0.25703615E-01 0.13443958E+03</pdfrwt>
<totfact> 0.33816750E+02</totfact>
</mgrwt>
</event>
<event>
 8    1  0.3588496E-007  0.1295351E+03  0.7546771E-02  0.1228149E+00
          5   -1    0    0  501    0  0.00000000000E+00  0.00000000000E+00  0.84259698042E+01  0.96481587436E+01  0.47000000000E+01 0. -1.
         -5   -1    0    0    0  501 -0.00000000000E+00 -0.00000000000E+00 -0.20602408964E+04  0.20602462574E+04  0.47000000000E+01 0. -1.
         25    2    1    2    0    0 -0.32733043996E+02 -0.90834452105E+01 -0.13520974306E+04  0.13582878470E+04  0.12499781001E+03 0.  0.
         25    2    1    2    0    0  0.32733043996E+02  0.90834452105E+01 -0.69971749605E+03  0.71160656915E+03  0.12500149531E+03 0.  0.
          5    1    3    3  502    0 -0.79930999813E+02 -0.73283055848E+01 -0.74081947019E+03  0.74516994452E+03  0.47000000000E+01 0. -1.
         -5    1    3    3    0  502  0.47197955817E+02 -0.17551396257E+01 -0.61127796037E+03  0.61311790251E+03  0.47000000000E+01 0. -1.
          5    1    4    4  503    0  0.76058783965E+02  0.94767792327E+01 -0.30616371171E+03  0.31564704391E+03  0.47000000000E+01 0. -1.
         -5    1    4    4    0  503 -0.43325739969E+02 -0.39333402222E+00 -0.39355378434E+03  0.39595952524E+03  0.47000000000E+01 0. -1.
<mgrwt>
<rscale>  0 0.12953418E+03</rscale>
<asrwt>0</asrwt>
<pdfrwt beam="1">  1        5 0.13907316E-02 0.12953507E+03</pdfrwt>
<pdfrwt beam="2">  1       -5 0.31705419E+00 0.12953507E+03</pdfrwt>
<totfact> 0.31620450E+01</totfact>
</mgrwt>
</event>
<event>
 8    1  0.3588496E-007  0.1427822E+03  0.7546771E-02  0.1209635E+00
          5   -1    0    0  501    0  0.00000000000E+00  0.00000000000E+00  0.23974501662E+02  0.24430856103E+02  0.47000000000E+01 0.  1.
         -5   -1    0    0    0  501 -0.00000000000E+00 -0.00000000000E+00 -0.91085518389E+03  0.91086730978E+03  0.47000000000E+01 0.  1.
         25    2    1    2    0    0 -0.60797064993E+02  0.32656899134E+02 -0.57211838129E+03  0.58966532110E+03  0.12499196985E+03 0.  0.
         25    2    1    2    0    0  0.60797064993E+02 -0.32656899134E+02 -0.31476230094E+03  0.34563284478E+03  0.12499600444E+03 0.  0.
          5    1    3    3  502    0 -0.68027428500E+02  0.51158375866E+02 -0.55886141595E+03  0.56532564305E+03  0.47000000000E+01 0.  1.
         -5    1    3    3    0  502  0.72303635069E+01 -0.18501476732E+02 -0.13256965338E+02  0.24339678052E+02  0.47000000000E+01 0.  1.
          5    1    4    4  503    0 -0.31251987737E+02  0.18224096932E+02 -0.10015972320E+03  0.10659673822E+03  0.47000000000E+01 0. -1.
         -5    1    4    4    0  503  0.92049052730E+02 -0.50880996066E+02 -0.21460257774E+03  0.23903610656E+03  0.47000000000E+01 0. -1.
<mgrwt>
<rscale>  0 0.14278132E+03</rscale>
<asrwt>0</asrwt>
<pdfrwt beam="1">  1        5 0.37244225E-02 0.14278220E+03</pdfrwt>
<pdfrwt beam="2">  1       -5 0.14016758E+00 0.14278220E+03</pdfrwt>
<totfact> 0.10446036E+02</totfact>
</mgrwt>
</event>
<event>
 8    1  0.3588496E-007  0.1408605E+03  0.7546771E-02  0.1212177E+00
         -5   -1    0    0    0  501 -0.00000000000E+00  0.00000000000E+00  0.42252237187E+02  0.42512839794E+02  0.47000000000E+01 0.  1.
          5   -1    0    0  501    0  0.00000000000E+00 -0.00000000000E+00 -0.47466044386E+03  0.47468371255E+03  0.47000000000E+01 0.  1.
         25    2    1    2    0    0 -0.48670753332E+02 -0.42973260057E+02 -0.18528438535E+03  0.23274874070E+03  0.12500451804E+03 0.  0.
         25    2    1    2    0    0  0.48670753332E+02  0.42973260057E+02 -0.24712382132E+03  0.28444781165E+03  0.12499932472E+03 0.  0.
          5    1    3    3  502    0  0.75325267604E+00  0.38566485088E+02 -0.25055612066E+02  0.46236510007E+02  0.47000000000E+01 0.  1.
         -5    1    3    3    0  502 -0.49424006008E+02 -0.81539745145E+02 -0.16022877328E+03  0.18651223069E+03  0.47000000000E+01 0.  1.
          5    1    4    4  503    0  0.62839950792E+02  0.45281289228E+02 -0.63676157852E+02  0.10037926902E+03  0.47000000000E+01 0. -1.
         -5    1    4    4    0  503 -0.14169197460E+02 -0.23080291710E+01 -0.18344766347E+03  0.18406854263E+03  0.47000000000E+01 0. -1.
<mgrwt>
<rscale>  0 0.14085932E+03</rscale>
<asrwt>0</asrwt>
<pdfrwt beam="2">  1        5 0.73046516E-01 0.14086047E+03</pdfrwt>
<pdfrwt beam="1">  1       -5 0.65221808E-02 0.14086047E+03</pdfrwt>
<totfact> 0.20237958E+02</totfact>
</mgrwt>
</event>
<event>
 8    1  0.3588496E-007  0.1414118E+03  0.7546771E-02  0.1211444E+00
         -5   -1    0    0    0  501 -0.00000000000E+00  0.00000000000E+00  0.26548120687E+03  0.26552280731E+03  0.47000000000E+01 0. -1.
          5   -1    0    0  501    0  0.00000000000E+00 -0.00000000000E+00 -0.76612991273E+02  0.76757022036E+02  0.47000000000E+01 0. -1.
         25    2    1    2    0    0 -0.65329724892E+02  0.10183415008E+02  0.11764013390E+03  0.18394699148E+03  0.12500247867E+03 0.  0.
         25    2    1    2    0    0  0.65329724892E+02 -0.10183415008E+02  0.71228081699E+02  0.15833283787E+03  0.12499669207E+03 0.  0.
          5    1    4    4  502    0  0.52940611852E+02 -0.10267481994E+02  0.10714867954E+03  0.12004607073E+03  0.47000000000E+01 0.  1.
         -5    1    4    4    0  502  0.12389113040E+02  0.84066985343E-01 -0.35920597840E+02  0.38286767144E+02  0.47000000000E+01 0.  1.
          5    1    3    3  503    0 -0.59445465168E+02  0.12996137355E+01 -0.58294696307E+01  0.59929333728E+02  0.47000000000E+01 0.  1.
         -5    1    3    3    0  503 -0.58842597238E+01  0.88838012728E+01  0.12346960353E+03  0.12401765775E+03  0.47000000000E+01 0.  1.
<mgrwt>
<rscale>  0 0.14141051E+03</rscale>
<asrwt>0</asrwt>
<pdfrwt beam="2">  1        5 0.11800893E-01 0.14141179E+03</pdfrwt>
<pdfrwt beam="1">  1       -5 0.40857542E-01 0.14141179E+03</pdfrwt>
<totfact> 0.25448784E+02</totfact>
</mgrwt>
</event>
<event>
 8    1  0.3588496E-007  0.1377194E+03  0.7546771E-02  0.1216432E+00
         -5   -1    0    0    0  501 -0.00000000000E+00  0.00000000000E+00  0.52079805045E+02  0.52291453350E+02  0.47000000000E+01 0.  1.
          5   -1    0    0  501    0  0.00000000000E+00 -0.00000000000E+00 -0.41223103045E+03  0.41225782281E+03  0.47000000000E+01 0.  1.
         25    2    1    2    0    0 -0.36300695313E+02 -0.44980941877E+02 -0.10000121344E+03  0.17019464607E+03  0.12499979699E+03 0.  0.
         25    2    1    2    0    0  0.36300695313E+02  0.44980941877E+02 -0.26015001196E+03  0.29435463009E+03  0.12500237566E+03 0.  0.
          5    1    4    4  502    0 -0.45238967402E+02  0.53522810255E+01 -0.70064133783E+02  0.83703547873E+02  0.47000000000E+01 0.  1.
         -5    1    4    4    0  502  0.81539662715E+02  0.39628660852E+02 -0.19008587818E+03  0.21065108222E+03  0.47000000000E+01 0.  1.
          5    1    3    3  503    0  0.25357275900E+02 -0.28306854193E+02 -0.98992959902E+02  0.10614125280E+03  0.47000000000E+01 0. -1.
         -5    1    3    3    0  503 -0.61657971213E+02 -0.16674087685E+02 -0.10082535430E+01  0.64053393270E+02  0.47000000000E+01 0. -1.
<mgrwt>
<rscale>  0 0.13771877E+03</rscale>
<asrwt>0</asrwt>
<pdfrwt beam="2">  1        5 0.63438498E-01 0.13771935E+03</pdfrwt>
<pdfrwt beam="1">  1       -5 0.80306196E-02 0.13771935E+03</pdfrwt>
<totfact> 0.19334808E+02</totfact>
</mgrwt>
</event>
<event>
 8    1  0.3588496E-007  0.1267688E+03  0.7546771E-02  0.1232331E+00
         -5   -1    0    0    0  501 -0.00000000000E+00  0.00000000000E+00  0.42016459313E+03  0.42019087962E+03  0.47000000000E+01 0. -1.
          5   -1    0    0  501    0  0.00000000000E+00 -0.00000000000E+00 -0.39331168458E+02  0.39610993578E+02  0.47000000000E+01 0. -1.
         25    2    1    2    0    0  0.14188000133E+02  0.15649601807E+02  0.23133866799E+03  0.26379422214E+03  0.12499441165E+03 0.  0.
         25    2    1    2    0    0 -0.14188000133E+02 -0.15649601807E+02  0.14949475668E+03  0.19600765106E+03  0.12499643041E+03 0.  0.
          5    1    3    3  502    0 -0.24054945611E+02 -0.29588529118E+02  0.18176007287E+02  0.42503866937E+02  0.47000000000E+01 0. -1.
         -5    1    3    3    0  502  0.38242945744E+02  0.45238130925E+02  0.21316266070E+03  0.22129035520E+03  0.47000000000E+01 0. -1.
          5    1    4    4  503    0  0.20863647913E+02  0.38967626129E+02  0.15544622179E+02  0.47090264058E+02  0.47000000000E+01 0.  1.
         -5    1    4    4    0  503 -0.35051648045E+02 -0.54617227937E+02  0.13395013450E+03  0.14891738700E+03  0.47000000000E+01 0.  1.
<mgrwt>
<rscale>  0 0.12676826E+03</rscale>
<asrwt>0</asrwt>
<pdfrwt beam="2">  1        5 0.60744961E-02 0.12676875E+03</pdfrwt>
<pdfrwt beam="1">  1       -5 0.64664253E-01 0.12676875E+03</pdfrwt>
<totfact> 0.28916230E+02</totfact>
</mgrwt>
</event>
<event>
 8    1  0.3588496E-007  0.1470558E+03  0.7546771E-02  0.1204138E+00
         -5   -1    0    0    0  501 -0.00000000000E+00  0.00000000000E+00  0.45977221164E+02  0.46216824490E+02  0.47000000000E+01 0. -1.
          5   -1    0    0  501    0  0.00000000000E+00 -0.00000000000E+00 -0.48067660522E+03  0.48069958270E+03  0.47000000000E+01 0. -1.
         25    2    1    2    0    0 -0.55188188403E+02  0.54354512507E+02 -0.17608149340E+03  0.22941243075E+03  0.12500088759E+03 0.  0.
         25    2    1    2    0    0  0.55188188403E+02 -0.54354512507E+02 -0.25861789066E+03  0.29750397644E+03  0.12500101382E+03 0.  0.
          5    1    4    4  502    0 -0.25042959245E+02 -0.46764543308E+02 -0.47065577572E+02  0.71072715657E+02  0.47000000000E+01 0. -1.
         -5    1    4    4    0  502  0.80231147648E+02 -0.75899691988E+01 -0.21155231309E+03  0.22643126078E+03  0.47000000000E+01 0. -1.
          5    1    3    3  503    0 -0.59801176775E+02 -0.65887965935E+01 -0.23116468308E+02  0.64622396205E+02  0.47000000000E+01 0.  1.
         -5    1    3    3    0  503  0.46129883720E+01  0.60943309101E+02 -0.15296502509E+03  0.16479003455E+03  0.47000000000E+01 0.  1.
<mgrwt>
<rscale>  0 0.14705575E+03</rscale>
<asrwt>0</asrwt>
<pdfrwt beam="2">  1        5 0.73970442E-01 0.14705578E+03</pdfrwt>
<pdfrwt beam="1">  1       -5 0.70936175E-02 0.14705578E+03</pdfrwt>
<totfact> 0.17298383E+02</totfact>
</mgrwt>
</event>
<event>
 8    1  0.3588496E-007  0.1429152E+03  0.7546771E-02  0.1209459E+00
          5   -1    0    0  501    0  0.00000000000E+00  0.00000000000E+00  0.38017139418E+03  0.38020044576E+03  0.47000000000E+01 0.  1.
         -5   -1    0    0    0  501 -0.00000000000E+00 -0.00000000000E+00 -0.59069509855E+02  0.59256197942E+02  0.47000000000E+01 0.  1.
         25    2    1    2    0    0  0.20383623638E+02 -0.66212482407E+02  0.93761271073E+02  0.17092671761E+03  0.12500072760E+03 0.  0.
         25    2    1    2    0    0 -0.20383623638E+02  0.66212482407E+02  0.22734061325E+03  0.26852992609E+03  0.12499992733E+03 0.  0.
          5    1    4    4  502    0 -0.82256152047E+01  0.96781308114E+02  0.11116958226E+03  0.14769918201E+03  0.47000000000E+01 0. -1.
         -5    1    4    4    0  502 -0.12158008433E+02 -0.30568825706E+02  0.11617103099E+03  0.12083074408E+03  0.47000000000E+01 0. -1.
          5    1    3    3  503    0  0.39391239575E+02  0.26790914539E+02  0.30855504011E+02  0.56952392266E+02  0.47000000000E+01 0. -1.
         -5    1    3    3    0  503 -0.19007615937E+02 -0.93003396946E+02  0.62905767062E+02  0.11397432534E+03  0.47000000000E+01 0. -1.
<mgrwt>
<rscale>  0 0.14291507E+03</rscale>
<asrwt>0</asrwt>
<pdfrwt beam="1">  1        5 0.58504503E-01 0.14291524E+03</pdfrwt>
<pdfrwt beam="2">  1       -5 0.91042122E-02 0.14291524E+03</pdfrwt>
<totfact> 0.18833375E+02</totfact>
</mgrwt>
</event>
<event>
 8    1  0.3588496E-007  0.1731424E+03  0.7546771E-02  0.1174624E+00
         -5   -1    0    0    0  501 -0.00000000000E+00  0.00000000000E+00  0.51775585169E+03  0.51777718370E+03  0.47000000000E+01 0. -1.
          5   -1    0    0  501    0  0.00000000000E+00 -0.00000000000E+00 -0.81059819798E+02  0.81195962866E+02  0.47000000000E+01 0. -1.
         25    2    1    2    0    0 -0.73140816994E+02  0.94786382452E+02  0.37869273798E+03  0.41637337170E+03  0.12499822982E+03 0.  0.
         25    2    1    2    0    0  0.73140816994E+02 -0.94786382452E+02  0.58003293917E+02  0.18259977487E+03  0.12507700935E+03 0.  0.
          5    1    3    3  502    0 -0.20838645431E+02  0.97526078346E+02  0.13997219259E+03  0.17192989792E+03  0.47000000000E+01 0.  1.
         -5    1    3    3    0  502 -0.52302171563E+02 -0.27396958942E+01  0.23872054539E+03  0.24444347378E+03  0.47000000000E+01 0.  1.
          5    1    4    4  503    0  0.46736070870E+02 -0.69841530104E+02  0.97453008474E+02  0.12876831329E+03  0.47000000000E+01 0.  1.
         -5    1    4    4    0  503  0.26404746124E+02 -0.24944852347E+02 -0.39449714557E+02  0.53831461573E+02  0.47000000000E+01 0.  1.
<mgrwt>
<rscale>  0 0.17312819E+03</rscale>
<asrwt>0</asrwt>
<pdfrwt beam="2">  1        5 0.12482855E-01 0.17314241E+03</pdfrwt>
<pdfrwt beam="1">  1       -5 0.79666860E-01 0.17314241E+03</pdfrwt>
<totfact> 0.57253998E+01</totfact>
</mgrwt>
</event>
<event>
 8    1  0.3588496E-007  0.1291215E+03  0.7546771E-02  0.1228768E+00
         -5   -1    0    0    0  501 -0.00000000000E+00  0.00000000000E+00  0.16359479140E+03  0.16366229185E+03  0.47000000000E+01 0.  1.
          5   -1    0    0  501    0  0.00000000000E+00 -0.00000000000E+00 -0.11175864919E+03  0.11185743457E+03  0.47000000000E+01 0.  1.
         25    2    1    2    0    0  0.31541710024E+02  0.70562553021E+01  0.67083985057E+02  0.14550812691E+03  0.12501073449E+03 0.  0.
         25    2    1    2    0    0 -0.31541710024E+02 -0.70562553021E+01 -0.15247842847E+02  0.13001159951E+03  0.12500339630E+03 0.  0.
          5    1    4    4  502    0 -0.21114984965E+02 -0.31548376793E+02  0.47912907222E+02  0.61309700267E+02  0.47000000000E+01 0. -1.
         -5    1    4    4    0  502 -0.10426725059E+02  0.24492121491E+02 -0.63160750069E+02  0.68701899245E+02  0.47000000000E+01 0. -1.
          5    1    3    3  503    0  0.33443989771E+02 -0.41734522515E+02  0.78538531880E+02  0.95134966291E+02  0.47000000000E+01 0. -1.
         -5    1    3    3    0  503 -0.19022797470E+01  0.48790777817E+02 -0.11454546823E+02  0.50373160623E+02  0.47000000000E+01 0. -1.
<mgrwt>
<rscale>  0 0.12911969E+03</rscale>
<asrwt>0</asrwt>
<pdfrwt beam="2">  1        5 0.17206430E-01 0.12912147E+03</pdfrwt>
<pdfrwt beam="1">  1       -5 0.25181221E-01 0.12912147E+03</pdfrwt>
<totfact> 0.32610244E+02</totfact>
</mgrwt>
</event>
<event>
 8    1  0.3588496E-007  0.1576650E+03  0.7546771E-02  0.1191359E+00
          5   -1    0    0  501    0  0.00000000000E+00  0.00000000000E+00  0.20474540905E+03  0.20479934699E+03  0.47000000000E+01 0. -1.
         -5   -1    0    0    0  501 -0.00000000000E+00 -0.00000000000E+00 -0.12143323222E+03  0.12152415352E+03  0.47000000000E+01 0. -1.
         25    2    1    2    0    0 -0.95113588395E+02 -0.13656348412E+02  0.36126454981E+02  0.16175099759E+03  0.12500069568E+03 0.  0.
         25    2    1    2    0    0  0.95113588395E+02  0.13656348412E+02  0.47185721843E+02  0.16457250292E+03  0.12499810327E+03 0.  0.
          5    1    3    3  502    0  0.20690415168E+02 -0.22411313908E+02 -0.15542219635E+02  0.34554462260E+02  0.47000000000E+01 0.  1.
         -5    1    3    3    0  502 -0.11580400356E+03  0.87549654960E+01  0.51668674615E+02  0.12719653532E+03  0.47000000000E+01 0.  1.
          5    1    4    4  503    0  0.10564606592E+03  0.40320439309E+02  0.64980332080E+02  0.13050426288E+03  0.47000000000E+01 0. -1.
         -5    1    4    4    0  503 -0.10532477530E+02 -0.26664090897E+02 -0.17794610237E+02  0.34068240045E+02  0.47000000000E+01 0. -1.
<mgrwt>
<rscale>  0 0.15766453E+03</rscale>
<asrwt>0</asrwt>
<pdfrwt beam="1">  1        5 0.31510437E-01 0.15766504E+03</pdfrwt>
<pdfrwt beam="2">  1       -5 0.18693179E-01 0.15766504E+03</pdfrwt>
<totfact> 0.19353715E+02</totfact>
</mgrwt>
</event>
<event>
 8    1  0.3588496E-007  0.1429375E+03  0.7546771E-02  0.1209432E+00
          5   -1    0    0  501    0  0.00000000000E+00  0.00000000000E+00  0.15965152122E+03  0.15972068816E+03  0.47000000000E+01 0. -1.
         -5   -1    0    0    0  501 -0.00000000000E+00 -0.00000000000E+00 -0.14607877834E+03  0.14615436867E+03  0.47000000000E+01 0. -1.
         25    2    1    2    0    0 -0.60693338457E+02  0.33499110802E+02 -0.47244737639E+02  0.15054297401E+03  0.12500100013E+03 0.  0.
         25    2    1    2    0    0  0.60693338457E+02 -0.33499110802E+02  0.60817480515E+02  0.15533208282E+03  0.12499367288E+03 0.  0.
          5    1    4    4  502    0  0.79336260968E+02 -0.11544876374E+02 -0.78779441382E+01  0.80694971831E+02  0.47000000000E+01 0.  1.
         -5    1    4    4    0  502 -0.18642922511E+02 -0.21954234428E+02  0.68695424653E+02  0.74637110993E+02  0.47000000000E+01 0.  1.
          5    1    3    3  503    0 -0.82015601428E+02 -0.18381014411E+02 -0.14491538139E+02  0.85419642038E+02  0.47000000000E+01 0.  1.
         -5    1    3    3    0  503  0.21322262970E+02  0.51880125213E+02 -0.32753199500E+02  0.65123331977E+02  0.47000000000E+01 0.  1.
<mgrwt>
<rscale>  0 0.14293587E+03</rscale>
<asrwt>0</asrwt>
<pdfrwt beam="1">  1        5 0.24572907E-01 0.14293748E+03</pdfrwt>
<pdfrwt beam="2">  1       -5 0.22484794E-01 0.14293748E+03</pdfrwt>
<totfact> 0.21504055E+02</totfact>
</mgrwt>
</event>
<event>
 8    1  0.3588496E-007  0.1273700E+03  0.7546771E-02  0.1231419E+00
          5   -1    0    0  501    0  0.00000000000E+00  0.00000000000E+00  0.11796419021E+03  0.11805778319E+03  0.47000000000E+01 0.  1.
         -5   -1    0    0    0  501 -0.00000000000E+00 -0.00000000000E+00 -0.22062236655E+03  0.22067242380E+03  0.47000000000E+01 0.  1.
         25    2    1    2    0    0  0.17206915554E+02  0.17297536119E+02 -0.15536681249E+03  0.20090289501E+03  0.12501137590E+03 0.  0.
         25    2    1    2    0    0 -0.17206915554E+02 -0.17297536119E+02  0.52708636147E+02  0.13782731198E+03  0.12499153933E+03 0.  0.
          5    1    4    4  502    0  0.24563355045E+02  0.41645732785E+02  0.51856668366E+00  0.48580699683E+02  0.47000000000E+01 0. -1.
         -5    1    4    4    0  502 -0.41770270600E+02 -0.58943268904E+02  0.52190069464E+02  0.89246612293E+02  0.47000000000E+01 0. -1.
          5    1    3    3  503    0  0.52420628301E+02  0.53777825096E+02 -0.78861443623E+02  0.10900089006E+03  0.47000000000E+01 0.  1.
         -5    1    3    3    0  503 -0.35213712747E+02 -0.36480288977E+02 -0.76505368866E+02  0.91902004954E+02  0.47000000000E+01 0.  1.
<mgrwt>
<rscale>  0 0.12736517E+03</rscale>
<asrwt>0</asrwt>
<pdfrwt beam="1">  1        5 0.18159387E-01 0.12737004E+03</pdfrwt>
<pdfrwt beam="2">  1       -5 0.33952953E-01 0.12737004E+03</pdfrwt>
<totfact> 0.16391903E+02</totfact>
</mgrwt>
</event>
<event>
 8    1  0.3588496E-007  0.1263249E+03  0.7546771E-02  0.1233024E+00
          5   -1    0    0  501    0  0.00000000000E+00  0.00000000000E+00  0.29930778864E+03  0.29934468818E+03  0.47000000000E+01 0.  1.
         -5   -1    0    0    0  501 -0.00000000000E+00 -0.00000000000E+00 -0.53179634223E+02  0.53386922519E+02  0.47000000000E+01 0.  1.
         25    2    1    2    0    0 -0.29219654502E+01 -0.18086915920E+02  0.11977172236E+03  0.17407830466E+03  0.12498926460E+03 0.  0.
         25    2    1    2    0    0  0.29219654502E+01  0.18086915920E+02  0.12635643205E+03  0.17865330604E+03  0.12496151978E+03 0.  0.
          5    1    3    3  502    0 -0.34414668537E+02  0.37581083449E+02  0.18913146818E+02  0.54557349333E+02  0.47000000000E+01 0.  1.
         -5    1    3    3    0  502  0.31492703087E+02 -0.55667999369E+02  0.10085857555E+03  0.11952095533E+03  0.47000000000E+01 0.  1.
          5    1    4    4  503    0 -0.22730938466E+02 -0.38315022513E+02  0.87564015075E+01  0.45645384006E+02  0.47000000000E+01 0. -1.
         -5    1    4    4    0  503  0.25652903916E+02  0.56401938433E+02  0.11760003055E+03  0.13300792203E+03  0.47000000000E+01 0. -1.
<mgrwt>
<rscale>  0 0.12631808E+03</rscale>
<asrwt>0</asrwt>
<pdfrwt beam="1">  1        5 0.46066136E-01 0.12632494E+03</pdfrwt>
<pdfrwt beam="2">  1       -5 0.82002657E-02 0.12632494E+03</pdfrwt>
<totfact> 0.35973052E+02</totfact>
</mgrwt>
</event>
<event>
 8    1  0.3588496E-007  0.1263645E+03  0.7546771E-02  0.1232954E+00
         -5   -1    0    0    0  501 -0.00000000000E+00  0.00000000000E+00  0.62233357215E+03  0.62235131961E+03  0.47000000000E+01 0.  1.
          5   -1    0    0  501    0  0.00000000000E+00 -0.00000000000E+00 -0.26299060797E+02  0.26715736913E+02  0.47000000000E+01 0.  1.
         25    2    1    2    0    0 -0.13346126903E+02  0.12797103573E+02  0.35674449921E+03  0.37846351823E+03  0.12500444772E+03 0.  0.
         25    2    1    2    0    0  0.13346126903E+02 -0.12797103573E+02  0.23929001214E+03  0.27060353829E+03  0.12499872025E+03 0.  0.
          5    1    4    4  502    0  0.34303125120E+01 -0.68168382637E+02  0.11018869045E+03  0.12970093654E+03  0.47000000000E+01 0.  1.
         -5    1    4    4    0  502  0.99158143912E+01  0.55371279064E+02  0.12910132168E+03  0.14090260175E+03  0.47000000000E+01 0.  1.
          5    1    3    3  503    0 -0.23080470145E+02  0.35124778798E+02  0.35028614544E+03  0.35282989085E+03  0.47000000000E+01 0. -1.
         -5    1    3    3    0  503  0.97343432416E+01 -0.22327675225E+02  0.64583537683E+01  0.25633627380E+02  0.47000000000E+01 0. -1.
<mgrwt>
<rscale>  0 0.12636312E+03</rscale>
<asrwt>0</asrwt>
<pdfrwt beam="2">  1        5 0.40794260E-02 0.12636454E+03</pdfrwt>
<pdfrwt beam="1">  1       -5 0.95777057E-01 0.12636454E+03</pdfrwt>
<totfact> 0.22617046E+02</totfact>
</mgrwt>
</event>
<event>
 8    1  0.3588496E-007  0.1331196E+03  0.7546771E-02  0.1222924E+00
          5   -1    0    0  501    0  0.00000000000E+00  0.00000000000E+00  0.13545533146E+03  0.13553684672E+03  0.47000000000E+01 0. -1.
         -5   -1    0    0    0  501 -0.00000000000E+00 -0.00000000000E+00 -0.13717659903E+03  0.13725709206E+03  0.47000000000E+01 0. -1.
         25    2    1    2    0    0  0.41533928652E+02  0.19265715086E+02 -0.30723790802E+02  0.13655161123E+03  0.12492460206E+03 0.  0.
         25    2    1    2    0    0 -0.41533928652E+02 -0.19265715086E+02  0.29002523230E+02  0.13624232756E+03  0.12499836182E+03 0.  0.
          5    1    4    4  502    0  0.12947315969E+02 -0.49446465617E+01 -0.42583795328E+02  0.45028348237E+02  0.47000000000E+01 0. -1.
         -5    1    4    4    0  502 -0.54481244620E+02 -0.14321068525E+02  0.71586318558E+02  0.91213979322E+02  0.47000000000E+01 0. -1.
          5    1    3    3  503    0  0.31115250719E+01  0.12085162928E+02 -0.75650051531E+02  0.76816359247E+02  0.47000000000E+01 0.  1.
         -5    1    3    3    0  503  0.38422403580E+02  0.71805521581E+01  0.44926260729E+02  0.59735251981E+02  0.47000000000E+01 0.  1.
<mgrwt>
<rscale>  0 0.13310227E+03</rscale>
<asrwt>0</asrwt>
<pdfrwt beam="1">  1        5 0.20851744E-01 0.13311959E+03</pdfrwt>
<pdfrwt beam="2">  1       -5 0.21116554E-01 0.13311959E+03</pdfrwt>
<totfact> 0.32242477E+02</totfact>
</mgrwt>
</event>
<event>
 8    1  0.3588496E-007  0.1294789E+03  0.7546771E-02  0.1228261E+00
          5   -1    0    0  501    0  0.00000000000E+00  0.00000000000E+00  0.13880889292E+03  0.13888843995E+03  0.47000000000E+01 0. -1.
         -5   -1    0    0    0  501 -0.00000000000E+00 -0.00000000000E+00 -0.14346185149E+03  0.14353881995E+03  0.47000000000E+01 0. -1.
         25    2    1    2    0    0 -0.24057451116E+02  0.23245515574E+02 -0.58738330505E+02  0.14210615294E+03  0.12499940913E+03 0.  0.
         25    2    1    2    0    0  0.24057451116E+02 -0.23245515574E+02  0.54085371928E+02  0.14032110697E+03  0.12508265530E+03 0.  0.
          5    1    3    3  502    0 -0.86650084190E+01  0.74408031659E+02 -0.26894382882E+02  0.79731018913E+02  0.47000000000E+01 0. -1.
         -5    1    3    3    0  502 -0.15392442697E+02 -0.51162516085E+02 -0.31843947622E+02  0.62375134024E+02  0.47000000000E+01 0. -1.
          5    1    4    4  503    0 -0.13168855751E+01 -0.14142848112E+02  0.92197009800E+02  0.93403067168E+02  0.47000000000E+01 0.  1.
         -5    1    4    4    0  503  0.25374336691E+02 -0.91026674615E+01 -0.38111637872E+02  0.46918039800E+02  0.47000000000E+01 0.  1.
<mgrwt>
<rscale>  0 0.12945879E+03</rscale>
<asrwt>0</asrwt>
<pdfrwt beam="1">  1        5 0.21367254E-01 0.12947890E+03</pdfrwt>
<pdfrwt beam="2">  1       -5 0.22083094E-01 0.12947890E+03</pdfrwt>
<totfact> 0.28029659E+02</totfact>
</mgrwt>
</event>
<event>
 8    1  0.3588496E-007  0.1294903E+03  0.7546771E-02  0.1228224E+00
         -5   -1    0    0    0  501 -0.00000000000E+00  0.00000000000E+00  0.48299342138E+02  0.48527481399E+02  0.47000000000E+01 0.  1.
          5   -1    0    0  501    0  0.00000000000E+00 -0.00000000000E+00 -0.34624709067E+03  0.34627898839E+03  0.47000000000E+01 0.  1.
         25    2    1    2    0    0 -0.29445571377E+02 -0.16547212779E+02 -0.14406426452E+03  0.19370660457E+03  0.12500753744E+03 0.  0.
         25    2    1    2    0    0  0.29445571377E+02  0.16547212779E+02 -0.15388348401E+03  0.20109986522E+03  0.12498070737E+03 0.  0.
          5    1    4    4  502    0  0.11105342804E+01 -0.41687330758E+02 -0.12149341891E+03  0.12853718400E+03  0.47000000000E+01 0.  1.
         -5    1    4    4    0  502  0.28335037097E+02  0.58234543537E+02 -0.32390065104E+02  0.72562681219E+02  0.47000000000E+01 0.  1.
          5    1    3    3  503    0  0.36600836615E+02  0.94711739722E+01 -0.10680912514E+03  0.11340019220E+03  0.47000000000E+01 0.  1.
         -5    1    3    3    0  503 -0.66046407992E+02 -0.26018386752E+02 -0.37255139382E+02  0.80306412372E+02  0.47000000000E+01 0.  1.
<mgrwt>
<rscale>  0 0.12948382E+03</rscale>
<asrwt>0</asrwt>
<pdfrwt beam="2">  1        5 0.53288784E-01 0.12949029E+03</pdfrwt>
<pdfrwt beam="1">  1       -5 0.74506711E-02 0.12949029E+03</pdfrwt>
<totfact> 0.31434038E+02</totfact>
</mgrwt>
</event>
<event>
 8    1  0.3588496E-007  0.1659707E+03  0.7546771E-02  0.1182117E+00
          5   -1    0    0  501    0  0.00000000000E+00  0.00000000000E+00  0.39387544535E+02  0.39666971960E+02  0.47000000000E+01 0. -1.
         -5   -1    0    0    0  501 -0.00000000000E+00 -0.00000000000E+00 -0.69941610319E+03  0.69943189475E+03  0.47000000000E+01 0. -1.
         25    2    1    2    0    0 -0.40549413646E+02 -0.10136991340E+03 -0.35350476814E+03  0.39052592629E+03  0.12499905485E+03 0.  0.
         25    2    1    2    0    0  0.40549413646E+02  0.10136991340E+03 -0.30652379051E+03  0.34857294042E+03  0.12500458535E+03 0.  0.
          5    1    3    3  502    0  0.77678701300E+01 -0.10013410221E+02  0.71747783084E+01  0.15302798253E+02  0.47000000000E+01 0. -1.
         -5    1    3    3    0  502 -0.48317283776E+02 -0.91356503176E+02 -0.36067954645E+03  0.37522312804E+03  0.47000000000E+01 0. -1.
          5    1    4    4  503    0  0.12419607828E+02 -0.12653462298E+02  0.19690834438E+01  0.18447874033E+02  0.47000000000E+01 0. -1.
         -5    1    4    4    0  503  0.28129805819E+02  0.11402337570E+03 -0.30849287395E+03  0.33012506639E+03  0.47000000000E+01 0. -1.
<mgrwt>
<rscale>  0 0.16596962E+03</rscale>
<asrwt>0</asrwt>
<pdfrwt beam="1">  1        5 0.60823319E-02 0.16597066E+03</pdfrwt>
<pdfrwt beam="2">  1       -5 0.10762518E+00 0.16597066E+03</pdfrwt>
<totfact> 0.95524681E+01</totfact>
</mgrwt>
</event>
<event>
 8    1  0.3588496E-007  0.1353628E+03  0.7546771E-02  0.1219709E+00
         -5   -1    0    0    0  501 -0.00000000000E+00  0.00000000000E+00  0.12040551154E+04  0.12040642886E+04  0.47000000000E+01 0. -1.
          5   -1    0    0  501    0  0.00000000000E+00 -0.00000000000E+00 -0.14845491987E+02  0.15571725413E+02  0.47000000000E+01 0. -1.
         25    2    1    2    0    0  0.25791093884E+02  0.45083707080E+02  0.59234799968E+03  0.60761732767E+03  0.12499977199E+03 0.  0.
         25    2    1    2    0    0 -0.25791093884E+02 -0.45083707080E+02  0.59686162376E+03  0.61201868629E+03  0.12500141316E+03 0.  0.
          5    1    3    3  502    0 -0.48543707558E+02  0.35345981080E+02  0.26761859792E+03  0.27431302170E+03  0.47000000000E+01 0. -1.
         -5    1    3    3    0  502  0.74334801442E+02  0.97377259996E+01  0.32472940176E+03  0.33330430598E+03  0.47000000000E+01 0. -1.
          5    1    4    4  503    0 -0.26246849439E+02  0.28653451808E+02  0.71728107796E+02  0.81712476734E+02  0.47000000000E+01 0.  1.
         -5    1    4    4    0  503  0.45575555541E+00 -0.73737158887E+02  0.52513351596E+03  0.53030620956E+03  0.47000000000E+01 0.  1.
<mgrwt>
<rscale>  0 0.13536237E+03</rscale>
<asrwt>0</asrwt>
<pdfrwt beam="2">  1        5 0.23404912E-02 0.13536275E+03</pdfrwt>
<pdfrwt beam="1">  1       -5 0.18529585E+00 0.13536275E+03</pdfrwt>
<totfact> 0.99196621E+01</totfact>
</mgrwt>
</event>
<event>
 8    1  0.3588496E-007  0.1356305E+03  0.7546771E-02  0.1219333E+00
         -5   -1    0    0    0  501 -0.00000000000E+00  0.00000000000E+00  0.32881526377E+02  0.33215730864E+02  0.47000000000E+01 0.  1.
          5   -1    0    0  501    0  0.00000000000E+00 -0.00000000000E+00 -0.56336055999E+03  0.56338016521E+03  0.47000000000E+01 0.  1.
         25    2    1    2    0    0  0.43970494435E+02  0.28927975748E+02 -0.23179415347E+03  0.26855886700E+03  0.12500041319E+03 0.  0.
         25    2    1    2    0    0 -0.43970494435E+02 -0.28927975748E+02 -0.29868488014E+03  0.32803702908E+03  0.12500161063E+03 0.  0.
          5    1    4    4  502    0 -0.67252384081E+02  0.20316233229E+01 -0.27326748454E+03  0.28146797112E+03  0.47000000000E+01 0. -1.
         -5    1    4    4    0  502  0.23281889646E+02 -0.30959599071E+02 -0.25417395598E+02  0.46569057958E+02  0.47000000000E+01 0. -1.
          5    1    3    3  503    0 -0.20669234991E+02 -0.93523429724E+01  0.17012759818E+01  0.23230754059E+02  0.47000000000E+01 0.  1.
         -5    1    3    3    0  503  0.64639729426E+02  0.38280318720E+02 -0.23349542946E+03  0.24532811294E+03  0.47000000000E+01 0.  1.
<mgrwt>
<rscale>  0 0.13563023E+03</rscale>
<asrwt>0</asrwt>
<pdfrwt beam="2">  1        5 0.86698064E-01 0.13563051E+03</pdfrwt>
<pdfrwt beam="1">  1       -5 0.50859129E-02 0.13563051E+03</pdfrwt>
<totfact> 0.20407129E+02</totfact>
</mgrwt>
</event>
<event>
 8    1  0.3588496E-007  0.1441034E+03  0.7546771E-02  0.1207917E+00
          5   -1    0    0  501    0  0.00000000000E+00  0.00000000000E+00  0.13736391456E+04  0.13736471862E+04  0.47000000000E+01 0.  1.
         -5   -1    0    0    0  501 -0.00000000000E+00 -0.00000000000E+00 -0.14892119924E+02  0.15616185060E+02  0.47000000000E+01 0.  1.
         25    2    1    2    0    0  0.53550435445E+02  0.47673998144E+02  0.61127989763E+03  0.62803219062E+03  0.12498343876E+03 0.  0.
         25    2    1    2    0    0 -0.53550435445E+02 -0.47673998144E+02  0.74746712803E+03  0.76123118069E+03  0.12500137495E+03 0.  0.
          5    1    3    3  502    0  0.34142081880E+02  0.87396703208E+02  0.48847162654E+03  0.49742384887E+03  0.47000000000E+01 0.  1.
         -5    1    3    3    0  502  0.19408353565E+02 -0.39722705064E+02  0.12280827110E+03  0.13060834175E+03  0.47000000000E+01 0.  1.
          5    1    4    4  503    0 -0.41330765894E+02  0.35917140619E+02  0.39196160858E+03  0.39579573747E+03  0.47000000000E+01 0. -1.
         -5    1    4    4    0  503 -0.12219669551E+02 -0.83591138763E+02  0.35550551945E+03  0.36543544322E+03  0.47000000000E+01 0. -1.
<mgrwt>
<rscale>  0 0.14409956E+03</rscale>
<asrwt>0</asrwt>
<pdfrwt beam="1">  1        5 0.21138551E+00 0.14410345E+03</pdfrwt>
<pdfrwt beam="2">  1       -5 0.23474101E-02 0.14410345E+03</pdfrwt>
<totfact> 0.66864957E+01</totfact>
</mgrwt>
</event>
<event>
 8    1  0.3588496E-007  0.1713255E+03  0.7546771E-02  0.1176473E+00
          5   -1    0    0  501    0  0.00000000000E+00  0.00000000000E+00  0.23883777392E+03  0.23888401422E+03  0.47000000000E+01 0. -1.
         -5   -1    0    0    0  501 -0.00000000000E+00 -0.00000000000E+00 -0.12353064271E+03  0.12362002139E+03  0.47000000000E+01 0. -1.
         25    2    1    2    0    0  0.76827585365E+02 -0.88460435249E+02  0.43658310068E+02  0.17680061798E+03  0.12499873600E+03 0.  0.
         25    2    1    2    0    0 -0.76827585365E+02  0.88460435249E+02  0.71648821140E+02  0.18570341764E+03  0.12499791708E+03 0.  0.
          5    1    4    4  502    0  0.14184058286E+02  0.72102262087E+02  0.96279251907E+01  0.74261097830E+02  0.47000000000E+01 0.  1.
         -5    1    4    4    0  502 -0.91011643652E+02  0.16358173163E+02  0.62020895949E+02  0.11144231981E+03  0.47000000000E+01 0.  1.
          5    1    3    3  503    0 -0.52783343700E+01 -0.10279791292E+02 -0.36039567571E+02  0.38137584526E+02  0.47000000000E+01 0. -1.
         -5    1    3    3    0  503  0.82105919735E+02 -0.78180643957E+02  0.79697877640E+02  0.13866303345E+03  0.47000000000E+01 0. -1.
<mgrwt>
<rscale>  0 0.17132530E+03</rscale>
<asrwt>0</asrwt>
<pdfrwt beam="1">  1        5 0.36754705E-01 0.17132545E+03</pdfrwt>
<pdfrwt beam="2">  1       -5 0.19015147E-01 0.17132545E+03</pdfrwt>
<totfact> 0.14129015E+02</totfact>
</mgrwt>
</event>
<event>
 8    1  0.3588496E-007  0.1376878E+03  0.7546771E-02  0.1216476E+00
         -5   -1    0    0    0  501 -0.00000000000E+00  0.00000000000E+00  0.91522310339E+02  0.91642911836E+02  0.47000000000E+01 0. -1.
          5   -1    0    0  501    0  0.00000000000E+00 -0.00000000000E+00 -0.21914974790E+03  0.21920014143E+03  0.47000000000E+01 0. -1.
         25    2    1    2    0    0 -0.44606120912E+02  0.36647144239E+02 -0.27004266387E+02  0.14030581887E+03  0.12499509271E+03 0.  0.
         25    2    1    2    0    0  0.44606120912E+02 -0.36647144239E+02 -0.10062317117E+03  0.17053723440E+03  0.12500082614E+03 0.  0.
          5    1    4    4  502    0 -0.39279054749E+01  0.36099293894E+02 -0.67717300705E+02  0.76982532277E+02  0.47000000000E+01 0.  1.
         -5    1    4    4    0  502  0.48534026387E+02 -0.72746438132E+02 -0.32905870468E+02  0.93554702124E+02  0.47000000000E+01 0.  1.
          5    1    3    3  503    0  0.10666878795E+01  0.54849293036E+02 -0.59590805326E+02  0.81134067129E+02  0.47000000000E+01 0.  1.
         -5    1    3    3    0  503 -0.45672808791E+02 -0.18202148797E+02  0.32586538939E+02  0.59171751738E+02  0.47000000000E+01 0.  1.
<mgrwt>
<rscale>  0 0.13768648E+03</rscale>
<asrwt>0</asrwt>
<pdfrwt beam="2">  1        5 0.33728499E-01 0.13768778E+03</pdfrwt>
<pdfrwt beam="1">  1       -5 0.14093509E-01 0.13768778E+03</pdfrwt>
<totfact> 0.27075643E+02</totfact>
</mgrwt>
</event>
<event>
 8    1  0.3588496E-007  0.1755608E+03  0.7546771E-02  0.1172171E+00
         -5   -1    0    0    0  501 -0.00000000000E+00  0.00000000000E+00  0.17566708390E+03  0.17572994727E+03  0.47000000000E+01 0.  1.
          5   -1    0    0  501    0  0.00000000000E+00 -0.00000000000E+00 -0.20996273659E+03  0.21001533457E+03  0.47000000000E+01 0.  1.
         25    2    1    2    0    0 -0.11478097977E+03  0.44940912269E+02  0.61166862471E+02  0.18591124065E+03  0.12500898137E+03 0.  0.
         25    2    1    2    0    0  0.11478097977E+03 -0.44940912269E+02 -0.95462515155E+02  0.19983404119E+03  0.12500477313E+03 0.  0.
          5    1    3    3  502    0  0.85264680744E+00  0.16846854454E+02 -0.30809530690E+02  0.35438124851E+02  0.47000000000E+01 0. -1.
         -5    1    3    3    0  502 -0.11563362658E+03  0.28094057815E+02  0.91976393161E+02  0.15047311580E+03  0.47000000000E+01 0. -1.
          5    1    4    4  503    0  0.13357026488E+03 -0.30062594216E+02 -0.10602107128E+03  0.17322624740E+03  0.47000000000E+01 0.  1.
         -5    1    4    4    0  503 -0.18789285108E+02 -0.14878318053E+02  0.10558556126E+02  0.26607793791E+02  0.47000000000E+01 0.  1.
<mgrwt>
<rscale>  0 0.17556008E+03</rscale>
<asrwt>0</asrwt>
<pdfrwt beam="2">  1        5 0.32310841E-01 0.17556083E+03</pdfrwt>
<pdfrwt beam="1">  1       -5 0.27034587E-01 0.17556083E+03</pdfrwt>
<totfact> 0.94405270E+01</totfact>
</mgrwt>
</event>
<event>
 8    1  0.3588496E-007  0.1408351E+03  0.7546771E-02  0.1212211E+00
          5   -1    0    0  501    0  0.00000000000E+00  0.00000000000E+00  0.19755322925E+03  0.19760913032E+03  0.47000000000E+01 0. -1.
         -5   -1    0    0    0  501 -0.00000000000E+00 -0.00000000000E+00 -0.11780059780E+03  0.11789432065E+03  0.47000000000E+01 0. -1.
         25    2    1    2    0    0  0.52452924746E+02 -0.38175559653E+02 -0.20931044569E+02  0.14238195975E+03  0.12500332462E+03 0.  0.
         25    2    1    2    0    0 -0.52452924746E+02  0.38175559653E+02  0.10068367602E+03  0.17312149122E+03  0.12500066174E+03 0.  0.
          5    1    4    4  502    0  0.24176352091E+02  0.56727172179E+02  0.45058672339E+02  0.76516939410E+02  0.47000000000E+01 0.  1.
         -5    1    4    4    0  502 -0.76629276837E+02 -0.18551612526E+02  0.55625003684E+02  0.96604551811E+02  0.47000000000E+01 0.  1.
          5    1    3    3  503    0  0.63784652435E+02 -0.66191105488E+01  0.37802738490E+02  0.74588414302E+02  0.47000000000E+01 0.  1.
         -5    1    3    3    0  503 -0.11331727689E+02 -0.31556449104E+02 -0.58733783059E+02  0.67793545452E+02  0.47000000000E+01 0.  1.
<mgrwt>
<rscale>  0 0.14083447E+03</rscale>
<asrwt>0</asrwt>
<pdfrwt beam="1">  1        5 0.30404314E-01 0.14083506E+03</pdfrwt>
<pdfrwt beam="2">  1       -5 0.18134678E-01 0.14083506E+03</pdfrwt>
<totfact> 0.21163586E+02</totfact>
</mgrwt>
</event>
<event>
 8    1  0.3588496E-007  0.1535274E+03  0.7546771E-02  0.1196206E+00
          5   -1    0    0  501    0  0.00000000000E+00  0.00000000000E+00  0.81125366122E+02  0.81261399375E+02  0.47000000000E+01 0. -1.
         -5   -1    0    0    0  501 -0.00000000000E+00 -0.00000000000E+00 -0.34722116943E+03  0.34725297767E+03  0.47000000000E+01 0. -1.
         25    2    1    2    0    0  0.51118877921E+02  0.73034871776E+02 -0.21990086162E+03  0.26819220596E+03  0.12499375272E+03 0.  0.
         25    2    1    2    0    0 -0.51118877921E+02 -0.73034871776E+02 -0.46194941684E+02  0.16032217108E+03  0.12498797433E+03 0.  0.
          5    1    4    4  502    0 -0.18281351174E+02  0.85432045831E+01 -0.66749008432E+02  0.69890730945E+02  0.47000000000E+01 0.  1.
         -5    1    4    4    0  502 -0.32837526747E+02 -0.81578076359E+02  0.20554066749E+02  0.90431440137E+02  0.47000000000E+01 0.  1.
          5    1    3    3  503    0  0.10811349947E+02 -0.33036838356E+02 -0.26696220567E+02  0.44080564524E+02  0.47000000000E+01 0. -1.
         -5    1    3    3    0  503  0.40307527974E+02  0.10607171013E+03 -0.19320464105E+03  0.22411164143E+03  0.47000000000E+01 0. -1.
<mgrwt>
<rscale>  0 0.15352625E+03</rscale>
<asrwt>0</asrwt>
<pdfrwt beam="1">  1        5 0.12493737E-01 0.15352743E+03</pdfrwt>
<pdfrwt beam="2">  1       -5 0.53431551E-01 0.15352743E+03</pdfrwt>
<totfact> 0.13451311E+02</totfact>
</mgrwt>
</event>
<event>
 8    1  0.3588496E-007  0.1310460E+03  0.7546771E-02  0.1225914E+00
         -5   -1    0    0    0  501 -0.00000000000E+00  0.00000000000E+00  0.28374008809E+03  0.28377901189E+03  0.47000000000E+01 0.  1.
          5   -1    0    0  501    0  0.00000000000E+00 -0.00000000000E+00 -0.71038178859E+02  0.71193488857E+02  0.47000000000E+01 0.  1.
         25    2    1    2    0    0  0.28177230491E+02 -0.27424915483E+02  0.17497628966E+03  0.21860869426E+03  0.12500790758E+03 0.  0.
         25    2    1    2    0    0 -0.28177230491E+02  0.27424915483E+02  0.37725619575E+02  0.13636380648E+03  0.12500313212E+03 0.  0.
          5    1    4    4  502    0  0.13120528550E+02 -0.33785497037E+02 -0.20777328812E+02  0.42040402853E+02  0.47000000000E+01 0. -1.
         -5    1    4    4    0  502 -0.41297759041E+02  0.61210412521E+02  0.58502948387E+02  0.94323403632E+02  0.47000000000E+01 0. -1.
          5    1    3    3  503    0  0.26808739278E+02 -0.27544170738E+02 -0.45733944081E+01  0.38992252817E+02  0.47000000000E+01 0.  1.
         -5    1    3    3    0  503  0.13684912123E+01  0.11925525480E+00  0.17954968406E+03  0.17961644144E+03  0.47000000000E+01 0.  1.
<mgrwt>
<rscale>  0 0.13104488E+03</rscale>
<asrwt>0</asrwt>
<pdfrwt beam="2">  1        5 0.10943892E-01 0.13104602E+03</pdfrwt>
<pdfrwt beam="1">  1       -5 0.43667261E-01 0.13104602E+03</pdfrwt>
<totfact> 0.24691083E+02</totfact>
</mgrwt>
</event>
<event>
 8    1  0.3588496E-007  0.1268555E+03  0.7546771E-02  0.1232198E+00
         -5   -1    0    0    0  501 -0.00000000000E+00  0.00000000000E+00  0.13709685219E+03  0.13717739202E+03  0.47000000000E+01 0.  1.
          5   -1    0    0  501    0  0.00000000000E+00 -0.00000000000E+00 -0.13556798029E+03  0.13564942786E+03  0.47000000000E+01 0.  1.
         25    2    1    2    0    0  0.57503222925E+01 -0.20836496466E+02  0.50922864547E+02  0.13669421739E+03  0.12499978057E+03 0.  0.
         25    2    1    2    0    0 -0.57503222925E+01  0.20836496466E+02 -0.49393992639E+02  0.13613260249E+03  0.12500037264E+03 0.  0.
          5    1    3    3  502    0 -0.10204703509E+02 -0.71432214543E+02  0.38840008217E+02  0.82081261482E+02  0.47000000000E+01 0.  1.
         -5    1    3    3    0  502  0.15955025801E+02  0.50595718077E+02  0.12082856330E+02  0.54612955909E+02  0.47000000000E+01 0.  1.
          5    1    4    4  503    0  0.12760504410E+02  0.67282831931E+02 -0.51584411185E+02  0.85865309775E+02  0.47000000000E+01 0.  1.
         -5    1    4    4    0  503 -0.18510826702E+02 -0.46446335465E+02  0.21904185460E+01  0.50267292713E+02  0.47000000000E+01 0.  1.
<mgrwt>
<rscale>  0 0.12685536E+03</rscale>
<asrwt>0</asrwt>
<pdfrwt beam="2">  1        5 0.20869073E-01 0.12685550E+03</pdfrwt>
<pdfrwt beam="1">  1       -5 0.21104284E-01 0.12685550E+03</pdfrwt>
<totfact> 0.31666951E+02</totfact>
</mgrwt>
</event>
<event>
 8    1  0.3588496E-007  0.1436601E+03  0.7546771E-02  0.1208491E+00
         -5   -1    0    0    0  501 -0.00000000000E+00  0.00000000000E+00  0.22003323216E+03  0.22008342340E+03  0.47000000000E+01 0.  1.
          5   -1    0    0  501    0  0.00000000000E+00 -0.00000000000E+00 -0.94053899322E+02  0.94171258767E+02  0.47000000000E+01 0.  1.
         25    2    1    2    0    0  0.59873924708E+02  0.37763668057E+02  0.73028966665E+02  0.16115657863E+03  0.12500892520E+03 0.  0.
         25    2    1    2    0    0 -0.59873924708E+02 -0.37763668057E+02  0.52950366177E+02  0.15309810353E+03  0.12499722614E+03 0.  0.
          5    1    4    4  502    0 -0.68974915107E+02 -0.50188638249E+02  0.82933130573E+02  0.11906482465E+03  0.47000000000E+01 0. -1.
         -5    1    4    4    0  502  0.91009903982E+01  0.12424970192E+02 -0.29982764396E+02  0.34033278880E+02  0.47000000000E+01 0. -1.
          5    1    3    3  503    0  0.59299102058E+02 -0.34078411126E+02  0.52321059485E+02  0.86239810270E+02  0.47000000000E+01 0.  1.
         -5    1    3    3    0  503  0.57482265075E+00  0.71842079183E+02  0.20707907180E+02  0.74916768364E+02  0.47000000000E+01 0.  1.
<mgrwt>
<rscale>  0 0.14365752E+03</rscale>
<asrwt>0</asrwt>
<pdfrwt beam="2">  1        5 0.14482719E-01 0.14366006E+03</pdfrwt>
<pdfrwt beam="1">  1       -5 0.33864155E-01 0.14366006E+03</pdfrwt>
<totfact> 0.25942978E+02</totfact>
</mgrwt>
</event>
<event>
 8    1  0.3588496E-007  0.2090286E+03  0.7546771E-02  0.1142339E+00
         -5   -1    0    0    0  501 -0.00000000000E+00  0.00000000000E+00  0.92791181725E+02  0.92910136185E+02  0.47000000000E+01 0.  1.
          5   -1    0    0  501    0  0.00000000000E+00 -0.00000000000E+00 -0.56347385300E+03  0.56349345427E+03  0.47000000000E+01 0.  1.
         25    2    1    2    0    0 -0.22192663582E+02 -0.16605707504E+03 -0.10198805382E+03  0.23257734765E+03  0.12499277191E+03 0.  0.
         25    2    1    2    0    0  0.22192663582E+02  0.16605707504E+03 -0.36869461745E+03  0.42382624281E+03  0.12500198668E+03 0.  0.
          5    1    3    3  502    0  0.15631177043E+02 -0.12684227042E+03 -0.13558811263E+02  0.12860492457E+03  0.47000000000E+01 0.  1.
         -5    1    3    3    0  502 -0.37823840625E+02 -0.39214804615E+02 -0.88429242556E+02  0.10397242307E+03  0.47000000000E+01 0.  1.
          5    1    4    4  503    0 -0.14038411712E+02  0.31925703088E+02 -0.20967539786E+03  0.21260806662E+03  0.47000000000E+01 0. -1.
         -5    1    4    4    0  503  0.36231075293E+02  0.13413137195E+03 -0.15901921959E+03  0.21121817620E+03  0.47000000000E+01 0. -1.
<mgrwt>
<rscale>  0 0.20902724E+03</rscale>
<asrwt>0</asrwt>
<pdfrwt beam="2">  1        5 0.86698941E-01 0.20902862E+03</pdfrwt>
<pdfrwt beam="1">  1       -5 0.14286225E-01 0.20902862E+03</pdfrwt>
<totfact> 0.38707572E+01</totfact>
</mgrwt>
</event>
<event>
 8    1  0.3588496E-007  0.1888267E+03  0.7546771E-02  0.1159525E+00
         -5   -1    0    0    0  501 -0.00000000000E+00  0.00000000000E+00  0.28099122077E+03  0.28103052530E+03  0.47000000000E+01 0. -1.
          5   -1    0    0  501    0  0.00000000000E+00 -0.00000000000E+00 -0.13002422474E+03  0.13010914272E+03  0.47000000000E+01 0. -1.
         25    2    1    2    0    0 -0.11472455391E+03 -0.82861243410E+02  0.43108426527E+02  0.19368490487E+03  0.12501118753E+03 0.  0.
         25    2    1    2    0    0  0.11472455391E+03  0.82861243410E+02  0.10785856951E+03  0.21745476314E+03  0.12500157626E+03 0.  0.
          5    1    4    4  502    0 -0.27175036582E+02  0.10984579793E+02  0.16894898122E+02  0.34156568754E+02  0.47000000000E+01 0.  1.
         -5    1    4    4    0  502  0.14189959049E+03  0.71876663617E+02  0.90963671384E+02  0.18329819439E+03  0.47000000000E+01 0.  1.
          5    1    3    3  503    0 -0.69314282245E+02 -0.11075160250E+03  0.10790188043E+02  0.13118271737E+03  0.47000000000E+01 0.  1.
         -5    1    3    3    0  503 -0.45410271668E+02  0.27890359090E+02  0.32318238484E+02  0.62502187497E+02  0.47000000000E+01 0.  1.
<mgrwt>
<rscale>  0 0.18882507E+03</rscale>
<asrwt>0</asrwt>
<pdfrwt beam="2">  1        5 0.20013283E-01 0.18882666E+03</pdfrwt>
<pdfrwt beam="1">  1       -5 0.43238973E-01 0.18882666E+03</pdfrwt>
<totfact> 0.94622051E+01</totfact>
</mgrwt>
</event>
<event>
 8    1  0.3588496E-007  0.1259444E+03  0.7546771E-02  0.1233606E+00
         -5   -1    0    0    0  501 -0.00000000000E+00  0.00000000000E+00  0.18673482037E+03  0.18679395905E+03  0.47000000000E+01 0. -1.
          5   -1    0    0  501    0  0.00000000000E+00 -0.00000000000E+00 -0.94382284751E+02  0.94499236372E+02  0.47000000000E+01 0. -1.
         25    2    1    2    0    0  0.14583507605E+02  0.45122475009E+01  0.90950530690E+02  0.15534094298E+03  0.12500308181E+03 0.  0.
         25    2    1    2    0    0 -0.14583507605E+02 -0.45122475009E+01  0.14020049257E+01  0.12595225244E+03  0.12501585981E+03 0.  0.
          5    1    3    3  502    0  0.62131905050E+02 -0.14837824605E+02  0.80275636809E+02  0.10269762670E+03  0.47000000000E+01 0. -1.
         -5    1    3    3    0  502 -0.47548397445E+02  0.19350072106E+02  0.10674893881E+02  0.52643316285E+02  0.47000000000E+01 0. -1.
          5    1    4    4  503    0 -0.63148129477E+02 -0.30036364938E+02  0.77968135382E+01  0.70517726683E+02  0.47000000000E+01 0. -1.
         -5    1    4    4    0  503  0.48564621872E+02  0.25524117437E+02 -0.63948086125E+01  0.55434525755E+02  0.47000000000E+01 0. -1.
<mgrwt>
<rscale>  0 0.12594128E+03</rscale>
<asrwt>0</asrwt>
<pdfrwt beam="2">  1        5 0.14533897E-01 0.12594445E+03</pdfrwt>
<pdfrwt beam="1">  1       -5 0.28741979E-01 0.12594445E+03</pdfrwt>
<totfact> 0.34014695E+02</totfact>
</mgrwt>
</event>
<event>
 8    1  0.3588496E-007  0.1650765E+03  0.7546771E-02  0.1183082E+00
         -5   -1    0    0    0  501 -0.00000000000E+00  0.00000000000E+00  0.28291375469E+03  0.28295279216E+03  0.47000000000E+01 0. -1.
          5   -1    0    0  501    0  0.00000000000E+00 -0.00000000000E+00 -0.21830808595E+03  0.21835867373E+03  0.47000000000E+01 0. -1.
         25    2    1    2    0    0  0.82006975959E+02  0.69995580213E+02  0.21970085595E+03  0.27480593161E+03  0.12500123436E+03 0.  0.
         25    2    1    2    0    0 -0.82006975959E+02 -0.69995580213E+02 -0.15509518721E+03  0.22650553427E+03  0.12500285839E+03 0.  0.
          5    1    3    3  502    0  0.85451397010E+02  0.47049098127E+00  0.16600329574E+03  0.18676548613E+03  0.47000000000E+01 0. -1.
         -5    1    3    3    0  502 -0.34444210516E+01  0.69525089232E+02  0.53697560202E+02  0.88040445482E+02  0.47000000000E+01 0. -1.
          5    1    4    4  503    0 -0.75168312058E+02 -0.59051514767E+02 -0.17667169393E+03  0.20092867882E+03  0.47000000000E+01 0. -1.
         -5    1    4    4    0  503 -0.68386639006E+01 -0.10944065446E+02  0.21576506728E+02  0.25576855456E+02  0.47000000000E+01 0. -1.
<mgrwt>
<rscale>  0 0.16507616E+03</rscale>
<asrwt>0</asrwt>
<pdfrwt beam="2">  1        5 0.33592754E-01 0.16507647E+03</pdfrwt>
<pdfrwt beam="1">  1       -5 0.43532087E-01 0.16507647E+03</pdfrwt>
<totfact> 0.32972980E+01</totfact>
</mgrwt>
</event>
<event>
 8    1  0.3588496E-007  0.1297760E+03  0.7546771E-02  0.1227789E+00
         -5   -1    0    0    0  501 -0.00000000000E+00  0.00000000000E+00  0.13905649221E+02  0.14678456330E+02  0.47000000000E+01 0.  1.
          5   -1    0    0  501    0  0.00000000000E+00 -0.00000000000E+00 -0.12204596018E+04  0.12204686516E+04  0.47000000000E+01 0.  1.
         25    2    1    2    0    0 -0.22536867243E+02 -0.26628410150E+02 -0.48761109443E+03  0.50458536269E+03  0.12499930487E+03 0.  0.
         25    2    1    2    0    0  0.22536867243E+02  0.26628410150E+02 -0.71894285813E+03  0.73056174526E+03  0.12499859105E+03 0.  0.
          5    1    3    3  502    0 -0.73117853630E+01 -0.72615639424E+02 -0.20143838663E+03  0.21430353917E+03  0.47000000000E+01 0.  1.
         -5    1    3    3    0  502 -0.15225081880E+02  0.45987229273E+02 -0.28617270781E+03  0.29028182352E+03  0.47000000000E+01 0.  1.
          5    1    4    4  503    0  0.29455045117E+02 -0.29140520068E+01 -0.35625312136E+02  0.46554744621E+02  0.47000000000E+01 0.  1.
         -5    1    4    4    0  503 -0.69181778739E+01  0.29542462157E+02 -0.68331754600E+03  0.68400700064E+03  0.47000000000E+01 0.  1.
<mgrwt>
<rscale>  0 0.12977582E+03</rscale>
<asrwt>0</asrwt>
<pdfrwt beam="2">  1        5 0.18782308E+00 0.12977599E+03</pdfrwt>
<pdfrwt beam="1">  1       -5 0.21994744E-02 0.12977599E+03</pdfrwt>
<totfact> 0.10380833E+02</totfact>
</mgrwt>
</event>
<event>
 8    1  0.3588496E-007  0.1312683E+03  0.7546771E-02  0.1225586E+00
         -5   -1    0    0    0  501 -0.00000000000E+00  0.00000000000E+00  0.84160146645E+02  0.84291282369E+02  0.47000000000E+01 0.  1.
          5   -1    0    0  501    0  0.00000000000E+00 -0.00000000000E+00 -0.20444274768E+03  0.20449676545E+03  0.47000000000E+01 0.  1.
         25    2    1    2    0    0  0.29100058806E+02  0.27574286214E+02 -0.61488212019E+02  0.14495427590E+03  0.12499514872E+03 0.  0.
         25    2    1    2    0    0 -0.29100058806E+02 -0.27574286214E+02 -0.58794389015E+02  0.14383377191E+03  0.12499687628E+03 0.  0.
          5    1    4    4  502    0  0.67587136760E+01 -0.10423405960E+02 -0.91306183455E+02  0.92267202946E+02  0.47000000000E+01 0.  1.
         -5    1    4    4    0  502 -0.35858772482E+02 -0.17150880255E+02  0.32511794440E+02  0.51566568968E+02  0.47000000000E+01 0.  1.
          5    1    3    3  503    0 -0.14776808049E+02  0.49775077280E+02  0.14687568303E+02  0.54163890527E+02  0.47000000000E+01 0.  1.
         -5    1    3    3    0  503  0.43876866855E+02 -0.22200791066E+02 -0.76175780322E+02  0.90790385375E+02  0.47000000000E+01 0.  1.
<mgrwt>
<rscale>  0 0.13126792E+03</rscale>
<asrwt>0</asrwt>
<pdfrwt beam="2">  1        5 0.31466973E-01 0.13126833E+03</pdfrwt>
<pdfrwt beam="1">  1       -5 0.12961957E-01 0.13126833E+03</pdfrwt>
<totfact> 0.35503618E+02</totfact>
</mgrwt>
</event>
<event>
 8    1  0.3588496E-007  0.1311699E+03  0.7546771E-02  0.1225731E+00
          5   -1    0    0  501    0  0.00000000000E+00  0.00000000000E+00  0.92163575915E+02  0.92283339371E+02  0.47000000000E+01 0. -1.
         -5   -1    0    0    0  501 -0.00000000000E+00 -0.00000000000E+00 -0.18685812366E+03  0.18691722333E+03  0.47000000000E+01 0. -1.
         25    2    1    2    0    0 -0.28253904947E+02  0.27924583585E+02 -0.54183064091E+02  0.14191723076E+03  0.12500652159E+03 0.  0.
         25    2    1    2    0    0  0.28253904947E+02 -0.27924583585E+02 -0.40511483658E+02  0.13728333194E+03  0.12500986924E+03 0.  0.
          5    1    4    4  502    0  0.40434553216E+02 -0.17656817084E+02 -0.81644838435E+02  0.92923010747E+02  0.47000000000E+01 0.  1.
         -5    1    4    4    0  502 -0.12180648269E+02 -0.10267766501E+02  0.41133354777E+02  0.44360321194E+02  0.47000000000E+01 0.  1.
          5    1    3    3  503    0 -0.53527312559E+02  0.63426749706E+02 -0.17939002827E+02  0.85041305202E+02  0.47000000000E+01 0. -1.
         -5    1    3    3    0  503  0.25273407612E+02 -0.35502166121E+02 -0.36244061264E+02  0.56875925562E+02  0.47000000000E+01 0. -1.
<mgrwt>
<rscale>  0 0.13116907E+03</rscale>
<asrwt>0</asrwt>
<pdfrwt beam="1">  1        5 0.14192770E-01 0.13116986E+03</pdfrwt>
<pdfrwt beam="2">  1       -5 0.28761162E-01 0.13116986E+03</pdfrwt>
<totfact> 0.35988835E+02</totfact>
</mgrwt>
</event>
<event>
 8    1  0.3588496E-007  0.1719917E+03  0.7546771E-02  0.1175788E+00
         -5   -1    0    0    0  501 -0.00000000000E+00  0.00000000000E+00  0.65714923002E+03  0.65716603725E+03  0.47000000000E+01 0. -1.
          5   -1    0    0  501    0  0.00000000000E+00 -0.00000000000E+00 -0.47780000594E+02  0.48010607753E+02  0.47000000000E+01 0. -1.
         25    2    1    2    0    0  0.22976628685E+02 -0.11587666959E+03  0.39142946993E+03  0.42754901930E+03  0.12500322377E+03 0.  0.
         25    2    1    2    0    0 -0.22976628685E+02  0.11587666959E+03  0.21793975949E+03  0.27762762570E+03  0.12499612700E+03 0.  0.
          5    1    4    4  502    0 -0.59497777970E+02  0.88376152246E+02  0.20299250528E+03  0.22929975375E+03  0.47000000000E+01 0.  1.
         -5    1    4    4    0  502  0.36521149285E+02  0.27500517340E+02  0.14947254212E+02  0.48327871954E+02  0.47000000000E+01 0.  1.
          5    1    3    3  503    0  0.52166771267E+02 -0.12864120243E+03  0.29943753493E+03  0.33008310819E+03  0.47000000000E+01 0.  1.
         -5    1    3    3    0  503 -0.29190142582E+02  0.12764532848E+02  0.91991935004E+02  0.97465911110E+02  0.47000000000E+01 0.  1.
<mgrwt>
<rscale>  0 0.17199038E+03</rscale>
<asrwt>0</asrwt>
<pdfrwt beam="2">  1        5 0.73698013E-02 0.17199167E+03</pdfrwt>
<pdfrwt beam="1">  1       -5 0.10111891E+00 0.17199167E+03</pdfrwt>
<totfact> 0.81260919E+01</totfact>
</mgrwt>
</event>
<event>
 8    1  0.3588496E-007  0.1801867E+03  0.7546771E-02  0.1167624E+00
         -5   -1    0    0    0  501 -0.00000000000E+00  0.00000000000E+00  0.83946173418E+02  0.84077642875E+02  0.47000000000E+01 0. -1.
          5   -1    0    0  501    0  0.00000000000E+00 -0.00000000000E+00 -0.39705659858E+03  0.39708441480E+03  0.47000000000E+01 0. -1.
         25    2    1    2    0    0 -0.12974669569E+03 -0.23013763871E+01 -0.11697154196E+03  0.21482072282E+03  0.12500439971E+03 0.  0.
         25    2    1    2    0    0  0.12974669569E+03  0.23013763871E+01 -0.19613888320E+03  0.26634133485E+03  0.12501097460E+03 0.  0.
          5    1    4    4  502    0  0.11028983925E+03 -0.48431715381E+02 -0.16225291668E+03  0.20213257696E+03  0.47000000000E+01 0.  1.
         -5    1    4    4    0  502  0.19456856444E+02  0.50733091768E+02 -0.33885966522E+02  0.64208757893E+02  0.47000000000E+01 0.  1.
          5    1    3    3  503    0  0.11880160764E+02 -0.32462743315E+02 -0.17083365226E+02  0.38844552910E+02  0.47000000000E+01 0. -1.
         -5    1    3    3    0  503 -0.14162685646E+03  0.30161366928E+02 -0.99888176731E+02  0.17597616991E+03  0.47000000000E+01 0. -1.
<mgrwt>
<rscale>  0 0.18018555E+03</rscale>
<asrwt>0</asrwt>
<pdfrwt beam="2">  1        5 0.61097882E-01 0.18018670E+03</pdfrwt>
<pdfrwt beam="1">  1       -5 0.12927049E-01 0.18018670E+03</pdfrwt>
<totfact> 0.99181223E+01</totfact>
</mgrwt>
</event>
<event>
 8    1  0.3588496E-007  0.1560490E+03  0.7546771E-02  0.1193232E+00
          5   -1    0    0  501    0  0.00000000000E+00  0.00000000000E+00  0.20473339973E+03  0.20478734083E+03  0.47000000000E+01 0. -1.
         -5   -1    0    0    0  501 -0.00000000000E+00 -0.00000000000E+00 -0.12416806761E+03  0.12425698779E+03  0.47000000000E+01 0. -1.
         25    2    1    2    0    0 -0.93391043805E+02 -0.19941109603E+01  0.74394135664E+02  0.17287332414E+03  0.12499934094E+03 0.  0.
         25    2    1    2    0    0  0.93391043805E+02  0.19941109603E+01  0.61711964500E+01  0.15617100448E+03  0.12500174172E+03 0.  0.
          5    1    4    4  502    0  0.37680636359E+02  0.36374364458E+02 -0.47902690750E+02  0.71131445417E+02  0.47000000000E+01 0.  1.
         -5    1    4    4    0  502  0.55710407446E+02 -0.34380253497E+02  0.54073887200E+02  0.85039559061E+02  0.47000000000E+01 0.  1.
          5    1    3    3  503    0  0.23004410829E+02  0.27089210632E+02  0.14139822963E+02  0.38536383376E+02  0.47000000000E+01 0.  1.
         -5    1    3    3    0  503 -0.11639545463E+03 -0.29083321593E+02  0.60254312701E+02  0.13433694076E+03  0.47000000000E+01 0.  1.
<mgrwt>
<rscale>  0 0.15604855E+03</rscale>
<asrwt>0</asrwt>
<pdfrwt beam="1">  1        5 0.31508435E-01 0.15604903E+03</pdfrwt>
<pdfrwt beam="2">  1       -5 0.19113769E-01 0.15604903E+03</pdfrwt>
<totfact> 0.18509545E+02</totfact>
</mgrwt>
</event>
<event>
 8    1  0.3588496E-007  0.1313682E+03  0.7546771E-02  0.1225440E+00
          5   -1    0    0  501    0  0.00000000000E+00  0.00000000000E+00  0.20022836226E+02  0.20567060328E+02  0.47000000000E+01 0.  1.
         -5   -1    0    0    0  501 -0.00000000000E+00 -0.00000000000E+00 -0.10042263335E+04  0.10042373319E+04  0.47000000000E+01 0.  1.
         25    2    1    2    0    0 -0.39809213909E+02  0.68834975817E+01 -0.69299043522E+03  0.70533191384E+03  0.12500083728E+03 0.  0.
         25    2    1    2    0    0  0.39809213909E+02 -0.68834975817E+01 -0.29121306203E+03  0.31947247842E+03  0.12500184367E+03 0.  0.
          5    1    3    3  502    0 -0.72059767731E+01 -0.43871696229E+02 -0.52275039012E+03  0.52465866257E+03  0.47000000000E+01 0.  1.
         -5    1    3    3    0  502 -0.32603237136E+02  0.50755193811E+02 -0.17024004510E+03  0.18067325128E+03  0.47000000000E+01 0.  1.
          5    1    4    4  503    0  0.11492324050E+02  0.57954834311E+02 -0.11145398688E+03  0.12623358319E+03  0.47000000000E+01 0. -1.
         -5    1    4    4    0  503  0.28316889859E+02 -0.64838331893E+02 -0.17975907514E+03  0.19323889523E+03  0.47000000000E+01 0. -1.
<mgrwt>
<rscale>  0 0.13136801E+03</rscale>
<asrwt>0</asrwt>
<pdfrwt beam="1">  1        5 0.31231466E-02 0.13136825E+03</pdfrwt>
<pdfrwt beam="2">  1       -5 0.15453903E+00 0.13136825E+03</pdfrwt>
<totfact> 0.10401199E+02</totfact>
</mgrwt>
</event>
<event>
 8    1  0.3588496E-007  0.2061318E+03  0.7546771E-02  0.1144673E+00
          5   -1    0    0  501    0  0.00000000000E+00  0.00000000000E+00  0.14546381242E+03  0.14553972215E+03  0.47000000000E+01 0. -1.
         -5   -1    0    0    0  501 -0.00000000000E+00 -0.00000000000E+00 -0.30798727619E+03  0.30802313597E+03  0.47000000000E+01 0. -1.
         25    2    1    2    0    0 -0.16157791494E+03 -0.27528771344E+02 -0.13309954205E+03  0.24534164897E+03  0.12494711192E+03 0.  0.
         25    2    1    2    0    0  0.16157791494E+03  0.27528771344E+02 -0.29423921717E+02  0.20822120915E+03  0.12500019570E+03 0.  0.
          5    1    4    4  502    0  0.12041669055E+03  0.42483973625E+02 -0.72248366146E+02  0.14678890894E+03  0.47000000000E+01 0.  1.
         -5    1    4    4    0  502  0.41161224393E+02 -0.14955202281E+02  0.42824444429E+02  0.61432300213E+02  0.47000000000E+01 0.  1.
          5    1    3    3  503    0 -0.10058391513E+03 -0.77515739986E+02 -0.83922574421E+02  0.15228559494E+03  0.47000000000E+01 0. -1.
         -5    1    3    3    0  503 -0.60993999807E+02  0.49986968642E+02 -0.49176967626E+02  0.93056054029E+02  0.47000000000E+01 0. -1.
<mgrwt>
<rscale>  0 0.20612372E+03</rscale>
<asrwt>0</asrwt>
<pdfrwt beam="1">  1        5 0.22387646E-01 0.20613177E+03</pdfrwt>
<pdfrwt beam="2">  1       -5 0.47391255E-01 0.20613177E+03</pdfrwt>
<totfact> 0.64660714E+01</totfact>
</mgrwt>
</event>
<event>
 8    1  0.3588496E-007  0.1250471E+03  0.7546771E-02  0.1235000E+00
         -5   -1    0    0    0  501 -0.00000000000E+00  0.00000000000E+00  0.51663010922E+02  0.51876359717E+02  0.47000000000E+01 0.  1.
          5   -1    0    0  501    0  0.00000000000E+00 -0.00000000000E+00 -0.32140427288E+03  0.32143863586E+03  0.47000000000E+01 0.  1.
         25    2    1    2    0    0  0.33870108322E+01 -0.54484074698E+00 -0.88780332294E+02  0.15335818340E+03  0.12500006528E+03 0.  0.
         25    2    1    2    0    0 -0.33870108322E+01  0.54484074698E+00 -0.18096092966E+03  0.21995681218E+03  0.12498948942E+03 0.  0.
          5    1    3    3  502    0  0.48601600125E+02  0.40607899881E+02 -0.49719591249E+02  0.80655097926E+02  0.47000000000E+01 0. -1.
         -5    1    3    3    0  502 -0.45214589293E+02 -0.41152740628E+02 -0.39060741044E+02  0.72703085471E+02  0.47000000000E+01 0. -1.
          5    1    4    4  503    0 -0.49614474529E+01 -0.99429664836E+00  0.18851650753E+02  0.20076835477E+02  0.47000000000E+01 0. -1.
         -5    1    4    4    0  503  0.15744366208E+01  0.15391373953E+01 -0.19981258042E+03  0.19987997670E+03  0.47000000000E+01 0. -1.
<mgrwt>
<rscale>  0 0.12504449E+03</rscale>
<asrwt>0</asrwt>
<pdfrwt beam="2">  1        5 0.49465865E-01 0.12504713E+03</pdfrwt>
<pdfrwt beam="1">  1       -5 0.79672105E-02 0.12504713E+03</pdfrwt>
<totfact> 0.32424597E+02</totfact>
</mgrwt>
</event>
<event>
 8    1  0.3588496E-007  0.1471991E+03  0.7546771E-02  0.1203958E+00
          5   -1    0    0  501    0  0.00000000000E+00  0.00000000000E+00  0.45163032171E+03  0.45165477689E+03  0.47000000000E+01 0. -1.
         -5   -1    0    0    0  501 -0.00000000000E+00 -0.00000000000E+00 -0.47900832525E+02  0.48130860750E+02  0.47000000000E+01 0. -1.
         25    2    1    2    0    0 -0.77053576872E+02  0.10241274127E+02  0.19264210499E+03  0.24244257792E+03  0.12500114226E+03 0.  0.
         25    2    1    2    0    0  0.77053576872E+02 -0.10241274127E+02  0.21108738419E+03  0.25734305973E+03  0.12500171686E+03 0.  0.
          5    1    3    3  502    0  0.17518699921E+02  0.42021565340E+02  0.44970845704E+02  0.64165284725E+02  0.47000000000E+01 0. -1.
         -5    1    3    3    0  502 -0.94572276793E+02 -0.31780291214E+02  0.14767125929E+03  0.17827729319E+03  0.47000000000E+01 0. -1.
          5    1    4    4  503    0  0.65748214101E+01  0.49099371581E+02  0.43737566874E+02  0.66249840168E+02  0.47000000000E+01 0.  1.
         -5    1    4    4    0  503  0.70478755462E+02 -0.59340645707E+02  0.16734981732E+03  0.19109321956E+03  0.47000000000E+01 0.  1.
<mgrwt>
<rscale>  0 0.14719895E+03</rscale>
<asrwt>0</asrwt>
<pdfrwt beam="1">  1        5 0.69501163E-01 0.14719907E+03</pdfrwt>
<pdfrwt beam="2">  1       -5 0.73889346E-02 0.14719907E+03</pdfrwt>
<totfact> 0.18590676E+02</totfact>
</mgrwt>
</event>
<event>
 8    1  0.3588496E-007  0.1445984E+03  0.7546771E-02  0.1207272E+00
         -5   -1    0    0    0  501 -0.00000000000E+00  0.00000000000E+00  0.22047206971E+02  0.22542611544E+02  0.47000000000E+01 0. -1.
          5   -1    0    0  501    0  0.00000000000E+00 -0.00000000000E+00 -0.93732040898E+03  0.93733219250E+03  0.47000000000E+01 0. -1.
         25    2    1    2    0    0 -0.71849181373E+02 -0.10962461004E+02 -0.45708232161E+03  0.47940878662E+03  0.12500422212E+03 0.  0.
         25    2    1    2    0    0  0.71849181373E+02  0.10962461004E+02 -0.45819088040E+03  0.48046601742E+03  0.12500492229E+03 0.  0.
          5    1    3    3  502    0  0.97689764805E+01  0.23229444987E+01  0.33532849001E+01  0.11582896539E+02  0.47000000000E+01 0. -1.
         -5    1    3    3    0  502 -0.81618157853E+02 -0.13285405503E+02 -0.46043560651E+03  0.46782589008E+03  0.47000000000E+01 0. -1.
          5    1    4    4  503    0 -0.43113490018E+01  0.44541574521E+02 -0.68493614599E+02  0.81951234475E+02  0.47000000000E+01 0.  1.
         -5    1    4    4    0  503  0.76160530375E+02 -0.33579113517E+02 -0.38969726580E+03  0.39851478294E+03  0.47000000000E+01 0.  1.
<mgrwt>
<rscale>  0 0.14459830E+03</rscale>
<asrwt>0</asrwt>
<pdfrwt beam="2">  1        5 0.14424212E+00 0.14459845E+03</pdfrwt>
<pdfrwt beam="1">  1       -5 0.34308932E-02 0.14459845E+03</pdfrwt>
<totfact> 0.11100516E+02</totfact>
</mgrwt>
</event>
<event>
 8    1  0.3588496E-007  0.1392949E+03  0.7546771E-02  0.1214283E+00
          5   -1    0    0  501    0  0.00000000000E+00  0.00000000000E+00  0.67684527259E+03  0.67686159075E+03  0.47000000000E+01 0. -1.
         -5   -1    0    0    0  501 -0.00000000000E+00 -0.00000000000E+00 -0.34648268896E+02  0.34965590764E+02  0.47000000000E+01 0. -1.
         25    2    1    2    0    0  0.39205505520E+02  0.47340854361E+02  0.17142819162E+03  0.22088284329E+03  0.12499350951E+03 0.  0.
         25    2    1    2    0    0 -0.39205505520E+02 -0.47340854361E+02  0.47076881207E+03  0.49094433823E+03  0.12499936264E+03 0.  0.
          5    1    4    4  502    0 -0.70906210229E+02 -0.61305936649E+02  0.41208627524E+03  0.42263849417E+03  0.47000000000E+01 0.  1.
         -5    1    4    4    0  502  0.31700704709E+02  0.13965082288E+02  0.58682536837E+02  0.68305844054E+02  0.47000000000E+01 0.  1.
          5    1    3    3  503    0  0.58233922864E+02 -0.13029140959E+02  0.32431313441E+02  0.68079573866E+02  0.47000000000E+01 0. -1.
         -5    1    3    3    0  503 -0.19028417344E+02  0.60369995320E+02  0.13899687818E+03  0.15280326942E+03  0.47000000000E+01 0. -1.
<mgrwt>
<rscale>  0 0.13929359E+03</rscale>
<asrwt>0</asrwt>
<pdfrwt beam="1">  1        5 0.10415571E+00 0.13929490E+03</pdfrwt>
<pdfrwt beam="2">  1       -5 0.53561675E-02 0.13929490E+03</pdfrwt>
<totfact> 0.12149789E+02</totfact>
</mgrwt>
</event>
<event>
 8    1  0.3588496E-007  0.1408245E+03  0.7546771E-02  0.1212224E+00
          5   -1    0    0  501    0  0.00000000000E+00  0.00000000000E+00  0.17009252995E+03  0.17015745280E+03  0.47000000000E+01 0.  1.
         -5   -1    0    0    0  501 -0.00000000000E+00 -0.00000000000E+00 -0.17338121357E+03  0.17344490542E+03  0.47000000000E+01 0.  1.
         25    2    1    2    0    0  0.41217570319E+02 -0.50076411060E+02 -0.10004328521E+03  0.17274281966E+03  0.12499955112E+03 0.  0.
         25    2    1    2    0    0 -0.41217570319E+02  0.50076411060E+02  0.96754601595E+02  0.17085953856E+03  0.12499997576E+03 0.  0.
          5    1    3    3  502    0  0.88208338052E+01  0.29204428123E+02 -0.78433768067E+02  0.84289095998E+02  0.47000000000E+01 0.  1.
         -5    1    3    3    0  502  0.32396736514E+02 -0.79280839183E+02 -0.21609517147E+02  0.88453723662E+02  0.47000000000E+01 0.  1.
          5    1    4    4  503    0 -0.74113618183E+02  0.69141754664E+02  0.60619137096E+02  0.11819551777E+03  0.47000000000E+01 0. -1.
         -5    1    4    4    0  503  0.32896047864E+02 -0.19065343604E+02  0.36135464499E+02  0.52664020796E+02  0.47000000000E+01 0. -1.
<mgrwt>
<rscale>  0 0.14082437E+03</rscale>
<asrwt>0</asrwt>
<pdfrwt beam="1">  1        5 0.26177975E-01 0.14082446E+03</pdfrwt>
<pdfrwt beam="2">  1       -5 0.26683926E-01 0.14082446E+03</pdfrwt>
<totfact> 0.13658412E+02</totfact>
</mgrwt>
</event>
<event>
 8    1  0.3588496E-007  0.1846010E+03  0.7546771E-02  0.1163424E+00
         -5   -1    0    0    0  501 -0.00000000000E+00  0.00000000000E+00  0.98662530914E+02  0.98774414735E+02  0.47000000000E+01 0. -1.
          5   -1    0    0  501    0  0.00000000000E+00 -0.00000000000E+00 -0.51419416820E+03  0.51421564796E+03  0.47000000000E+01 0. -1.
         25    2    1    2    0    0 -0.87205368750E+02  0.10415004637E+03 -0.32011355931E+02  0.18735592294E+03  0.12500202580E+03 0.  0.
         25    2    1    2    0    0  0.87205368750E+02 -0.10415004637E+03 -0.38352028135E+03  0.42563413975E+03  0.12499842485E+03 0.  0.
          5    1    4    4  502    0  0.29364338071E+02 -0.31197036615E+02 -0.15202110158E+02  0.45702446293E+02  0.47000000000E+01 0.  1.
         -5    1    4    4    0  502  0.57841030679E+02 -0.72953009759E+02 -0.36831817120E+03  0.37993169346E+03  0.47000000000E+01 0.  1.
          5    1    3    3  503    0 -0.53237800626E+02  0.76052361997E+02  0.41274058892E+02  0.10170478415E+03  0.47000000000E+01 0. -1.
         -5    1    3    3    0  503 -0.33967568124E+02  0.28097684377E+02 -0.73285414823E+02  0.85651138798E+02  0.47000000000E+01 0. -1.
<mgrwt>
<rscale>  0 0.18460035E+03</rscale>
<asrwt>0</asrwt>
<pdfrwt beam="2">  1        5 0.79117052E-01 0.18460096E+03</pdfrwt>
<pdfrwt beam="1">  1       -5 0.15189110E-01 0.18460096E+03</pdfrwt>
<totfact> 0.41567942E+01</totfact>
</mgrwt>
</event>
<event>
 8    1  0.3588496E-007  0.1320953E+03  0.7546771E-02  0.1224380E+00
          5   -1    0    0  501    0  0.00000000000E+00  0.00000000000E+00  0.10725005320E+04  0.10725108303E+04  0.47000000000E+01 0. -1.
         -5   -1    0    0    0  501 -0.00000000000E+00 -0.00000000000E+00 -0.16039425057E+02  0.16713861198E+02  0.47000000000E+01 0. -1.
         25    2    1    2    0    0 -0.42647832454E+02 -0.21400946951E+01  0.48205326622E+03  0.49982368390E+03  0.12499978358E+03 0.  0.
         25    2    1    2    0    0  0.42647832454E+02  0.21400946951E+01  0.57440784069E+03  0.58940100758E+03  0.12500305065E+03 0.  0.
          5    1    4    4  502    0 -0.44396756419E+01  0.54055674415E+02  0.15816238050E+03  0.16726970814E+03  0.47000000000E+01 0. -1.
         -5    1    4    4    0  502  0.47087508096E+02 -0.51915579720E+02  0.41624546019E+03  0.42213129944E+03  0.47000000000E+01 0. -1.
          5    1    3    3  503    0  0.43756131371E+02  0.40216505714E+01  0.13289128720E+03  0.14004626707E+03  0.47000000000E+01 0. -1.
         -5    1    3    3    0  503 -0.86403963825E+02 -0.61617452665E+01  0.34916197902E+03  0.35977741683E+03  0.47000000000E+01 0. -1.
<mgrwt>
<rscale>  0 0.13209457E+03</rscale>
<asrwt>0</asrwt>
<pdfrwt beam="1">  1        5 0.16505273E+00 0.13209535E+03</pdfrwt>
<pdfrwt beam="2">  1       -5 0.25202760E-02 0.13209535E+03</pdfrwt>
<totfact> 0.12240166E+02</totfact>
</mgrwt>
</event>
<event>
 8    1  0.3588496E-007  0.1928032E+03  0.7546771E-02  0.1155957E+00
         -5   -1    0    0    0  501 -0.00000000000E+00  0.00000000000E+00  0.88587420447E+03  0.88588667230E+03  0.47000000000E+01 0.  1.
          5   -1    0    0  501    0  0.00000000000E+00 -0.00000000000E+00 -0.42060658470E+02  0.42322440749E+02  0.47000000000E+01 0.  1.
         25    2    1    2    0    0  0.13851910244E+03 -0.48582159644E+02  0.45709644331E+03  0.49609498047E+03  0.12500121274E+03 0.  0.
         25    2    1    2    0    0 -0.13851910244E+03  0.48582159644E+02  0.38671710270E+03  0.43211413257E+03  0.12499895230E+03 0.  0.
          5    1    4    4  502    0 -0.10653674470E+03 -0.18815014021E+02  0.29214631475E+03  0.31156964221E+03  0.47000000000E+01 0.  1.
         -5    1    4    4    0  502 -0.31982357743E+02  0.67397173665E+02  0.94570787948E+02  0.12054449037E+03  0.47000000000E+01 0.  1.
          5    1    3    3  503    0  0.15129546772E+03 -0.43991564025E+02  0.30504066959E+03  0.34336201940E+03  0.47000000000E+01 0.  1.
         -5    1    3    3    0  503 -0.12776365283E+02 -0.45905956195E+01  0.15205577372E+03  0.15273296107E+03  0.47000000000E+01 0.  1.
<mgrwt>
<rscale>  0 0.19280283E+03</rscale>
<asrwt>0</asrwt>
<pdfrwt beam="2">  1        5 0.64919673E-02 0.19280319E+03</pdfrwt>
<pdfrwt beam="1">  1       -5 0.13630942E+00 0.19280319E+03</pdfrwt>
<totfact> 0.48581572E+01</totfact>
</mgrwt>
</event>
<event>
 8    1  0.3588496E-007  0.1372663E+03  0.7546771E-02  0.1217057E+00
         -5   -1    0    0    0  501 -0.00000000000E+00  0.00000000000E+00  0.70815538900E+02  0.70971336114E+02  0.47000000000E+01 0. -1.
          5   -1    0    0  501    0  0.00000000000E+00 -0.00000000000E+00 -0.33884255709E+03  0.33887515178E+03  0.47000000000E+01 0. -1.
         25    2    1    2    0    0 -0.54138467511E+02  0.16917729213E+02 -0.38759917895E+02  0.14262854735E+03  0.12499355206E+03 0.  0.
         25    2    1    2    0    0  0.54138467511E+02 -0.16917729213E+02 -0.22926710029E+03  0.26721794054E+03  0.12499936498E+03 0.  0.
          5    1    3    3  502    0  0.28316962841E+02 -0.29620900994E+02 -0.31693001133E+01  0.41368860553E+02  0.47000000000E+01 0. -1.
         -5    1    3    3    0  502 -0.82455430352E+02  0.46538630207E+02 -0.35590617781E+02  0.10125968680E+03  0.47000000000E+01 0. -1.
          5    1    4    4  503    0  0.22541020841E+02 -0.51148976529E+02 -0.20864944163E+03  0.21605785085E+03  0.47000000000E+01 0. -1.
         -5    1    4    4    0  503  0.31597446670E+02  0.34231247316E+02 -0.20617658660E+02  0.51160089694E+02  0.47000000000E+01 0. -1.
<mgrwt>
<rscale>  0 0.13726493E+03</rscale>
<asrwt>0</asrwt>
<pdfrwt beam="2">  1        5 0.52144115E-01 0.13726625E+03</pdfrwt>
<pdfrwt beam="1">  1       -5 0.10909190E-01 0.13726625E+03</pdfrwt>
<totfact> 0.17371825E+02</totfact>
</mgrwt>
</event>
<event>
 8    1  0.3588496E-007  0.1268338E+03  0.7546771E-02  0.1232263E+00
          5   -1    0    0  501    0  0.00000000000E+00  0.00000000000E+00  0.11371865610E+03  0.11381574032E+03  0.47000000000E+01 0. -1.
         -5   -1    0    0    0  501 -0.00000000000E+00 -0.00000000000E+00 -0.14164086809E+03  0.14171882554E+03  0.47000000000E+01 0. -1.
         25    2    1    2    0    0  0.20457252140E+02 -0.64697529812E+01 -0.21306075224E+02  0.12852835584E+03  0.12492090516E+03 0.  0.
         25    2    1    2    0    0 -0.20457252140E+02  0.64697529812E+01 -0.66161367675E+01  0.12700621002E+03  0.12500578886E+03 0.  0.
          5    1    4    4  502    0 -0.47345591895E+02  0.22985240111E+01 -0.54097180327E+02  0.72079700359E+02  0.47000000000E+01 0.  1.
         -5    1    4    4    0  502  0.26888339755E+02  0.41712289701E+01  0.47481043560E+02  0.54926509660E+02  0.47000000000E+01 0.  1.
          5    1    3    3  503    0 -0.46999037254E+02 -0.17951963247E+02 -0.30966220538E+02  0.59263642325E+02  0.47000000000E+01 0. -1.
         -5    1    3    3    0  503  0.67456289394E+02  0.11482210265E+02  0.96601453136E+01  0.69264713519E+02  0.47000000000E+01 0. -1.
<mgrwt>
<rscale>  0 0.12681285E+03</rscale>
<asrwt>0</asrwt>
<pdfrwt beam="1">  1        5 0.17508643E-01 0.12683377E+03</pdfrwt>
<pdfrwt beam="2">  1       -5 0.21804367E-01 0.12683377E+03</pdfrwt>
<totfact> 0.41241394E+02</totfact>
</mgrwt>
</event>
<event>
 8    1  0.3588496E-007  0.1256147E+03  0.7546771E-02  0.1234118E+00
          5   -1    0    0  501    0  0.00000000000E+00  0.00000000000E+00  0.73086268146E+02  0.73237235007E+02  0.47000000000E+01 0. -1.
         -5   -1    0    0    0  501 -0.00000000000E+00 -0.00000000000E+00 -0.25815424250E+03  0.25819702346E+03  0.47000000000E+01 0. -1.
         25    2    1    2    0    0  0.10671211850E+02 -0.62932362575E+01 -0.15989687713E+03  0.20333729199E+03  0.12500225363E+03 0.  0.
         25    2    1    2    0    0 -0.10671211850E+02  0.62932362575E+01 -0.25171097229E+02  0.12809696648E+03  0.12498707573E+03 0.  0.
          5    1    3    3  502    0  0.67880162595E+02 -0.28895089865E+01 -0.85542300539E+02  0.10934185346E+03  0.47000000000E+01 0.  1.
         -5    1    3    3    0  502 -0.57208950746E+02 -0.34037272710E+01 -0.74354576587E+02  0.93995438529E+02  0.47000000000E+01 0.  1.
          5    1    4    4  503    0  0.34602779754E+02 -0.23763477434E+02  0.28988960990E+02  0.51229923733E+02  0.47000000000E+01 0.  1.
         -5    1    4    4    0  503 -0.45273991603E+02  0.30056713691E+02 -0.54160058219E+02  0.76867042742E+02  0.47000000000E+01 0.  1.
<mgrwt>
<rscale>  0 0.12561088E+03</rscale>
<asrwt>0</asrwt>
<pdfrwt beam="1">  1        5 0.11258945E-01 0.12561466E+03</pdfrwt>
<pdfrwt beam="2">  1       -5 0.39730941E-01 0.12561466E+03</pdfrwt>
<totfact> 0.28088933E+02</totfact>
</mgrwt>
</event>
<event>
 8    1  0.3588496E-007  0.1496370E+03  0.7546771E-02  0.1200923E+00
          5   -1    0    0  501    0  0.00000000000E+00  0.00000000000E+00  0.81369266059E+02  0.81504892239E+02  0.47000000000E+01 0. -1.
         -5   -1    0    0    0  501 -0.00000000000E+00 -0.00000000000E+00 -0.28721783881E+03  0.28725629137E+03  0.47000000000E+01 0. -1.
         25    2    1    2    0    0  0.47499479875E+02  0.67154711572E+02 -0.14129152163E+03  0.20580213472E+03  0.12500107478E+03 0.  0.
         25    2    1    2    0    0 -0.47499479875E+02 -0.67154711572E+02 -0.64557051125E+02  0.16295904889E+03  0.12498833102E+03 0.  0.
          5    1    4    4  502    0 -0.33547054104E+02  0.15497948902E+02  0.21271905595E+02  0.42897263629E+02  0.47000000000E+01 0. -1.
         -5    1    4    4    0  502 -0.13952425772E+02 -0.82652660474E+02 -0.85828956720E+02  0.12006178526E+03  0.47000000000E+01 0. -1.
          5    1    3    3  503    0  0.59142168013E+02  0.95055718382E+02 -0.81231738200E+02  0.13839823310E+03  0.47000000000E+01 0.  1.
         -5    1    3    3    0  503 -0.11642688137E+02 -0.27901006810E+02 -0.60059783429E+02  0.67403901620E+02  0.47000000000E+01 0.  1.
<mgrwt>
<rscale>  0 0.14963431E+03</rscale>
<asrwt>0</asrwt>
<pdfrwt beam="1">  1        5 0.12531739E-01 0.14963698E+03</pdfrwt>
<pdfrwt beam="2">  1       -5 0.44200750E-01 0.14963698E+03</pdfrwt>
<totfact> 0.19810674E+02</totfact>
</mgrwt>
</event>
<event>
 8    1  0.3588496E-007  0.1302148E+03  0.7546771E-02  0.1227139E+00
         -5   -1    0    0    0  501 -0.00000000000E+00  0.00000000000E+00  0.68928002504E+02  0.69088056343E+02  0.47000000000E+01 0.  1.
          5   -1    0    0  501    0  0.00000000000E+00 -0.00000000000E+00 -0.24552243792E+03  0.24556741950E+03  0.47000000000E+01 0.  1.
         25    2    1    2    0    0  0.21916760728E+02 -0.29159435891E+02 -0.87855290867E+02  0.15708102786E+03  0.12500112031E+03 0.  0.
         25    2    1    2    0    0 -0.21916760728E+02  0.29159435891E+02 -0.88739144546E+02  0.15757444798E+03  0.12499781510E+03 0.  0.
          5    1    3    3  502    0 -0.37455094054E+02 -0.45862210107E+01 -0.84387990608E+02  0.92559928979E+02  0.47000000000E+01 0.  1.
         -5    1    3    3    0  502  0.59371854782E+02 -0.24573214880E+02 -0.34673002581E+01  0.64521098882E+02  0.47000000000E+01 0.  1.
          5    1    4    4  503    0 -0.42101233027E+02 -0.17348577616E+02 -0.95795392037E+02  0.10617124895E+03  0.47000000000E+01 0.  1.
         -5    1    4    4    0  503  0.20184472298E+02  0.46508013507E+02  0.70562474907E+01  0.51403199035E+02  0.47000000000E+01 0.  1.
<mgrwt>
<rscale>  0 0.13021402E+03</rscale>
<asrwt>0</asrwt>
<pdfrwt beam="2">  1        5 0.37788454E-01 0.13021481E+03</pdfrwt>
<pdfrwt beam="1">  1       -5 0.10620080E-01 0.13021481E+03</pdfrwt>
<totfact> 0.34916602E+02</totfact>
</mgrwt>
</event>
<event>
 8    1  0.3588496E-007  0.1314437E+03  0.7546771E-02  0.1225331E+00
          5   -1    0    0  501    0  0.00000000000E+00  0.00000000000E+00  0.25619012296E+03  0.25623323185E+03  0.47000000000E+01 0.  1.
         -5   -1    0    0    0  501 -0.00000000000E+00 -0.00000000000E+00 -0.67421525689E+02  0.67585147231E+02  0.47000000000E+01 0.  1.
         25    2    1    2    0    0  0.11546640586E+02  0.38978869337E+02  0.87709368108E+02  0.15801602404E+03  0.12499381359E+03 0.  0.
         25    2    1    2    0    0 -0.11546640586E+02 -0.38978869337E+02  0.10105922917E+03  0.16580235504E+03  0.12499910389E+03 0.  0.
          5    1    4    4  502    0 -0.27643241209E+02  0.19781410685E+02 -0.12765177349E+02  0.36612740214E+02  0.47000000000E+01 0. -1.
         -5    1    4    4    0  502  0.16096600623E+02 -0.58760280022E+02  0.11382440651E+03  0.12918961482E+03  0.47000000000E+01 0. -1.
          5    1    3    3  503    0  0.44558451391E+02 -0.30604085640E+02  0.34903766730E+02  0.64516886008E+02  0.47000000000E+01 0.  1.
         -5    1    3    3    0  503 -0.33011810805E+02  0.69582954978E+02  0.52805601378E+02  0.93499138033E+02  0.47000000000E+01 0.  1.
<mgrwt>
<rscale>  0 0.13144247E+03</rscale>
<asrwt>0</asrwt>
<pdfrwt beam="1">  1        5 0.39429767E-01 0.13144373E+03</pdfrwt>
<pdfrwt beam="2">  1       -5 0.10388445E-01 0.13144373E+03</pdfrwt>
<totfact> 0.33402127E+02</totfact>
</mgrwt>
</event>
<event>
 8    1  0.3588496E-007  0.1738766E+03  0.7546771E-02  0.1173870E+00
         -5   -1    0    0    0  501 -0.00000000000E+00  0.00000000000E+00  0.36721076679E+03  0.36724084365E+03  0.47000000000E+01 0. -1.
          5   -1    0    0  501    0  0.00000000000E+00 -0.00000000000E+00 -0.89533679269E+02  0.89656955800E+02  0.47000000000E+01 0. -1.
         25    2    1    2    0    0  0.11959221296E+03 -0.17270286018E+02  0.20406483339E+03  0.26808084946E+03  0.12499730173E+03 0.  0.
         25    2    1    2    0    0 -0.11959221296E+03  0.17270286018E+02  0.73612254124E+02  0.18881694999E+03  0.12503006225E+03 0.  0.
          5    1    3    3  502    0  0.17494026916E+02  0.43096270491E+02  0.99319681592E+02  0.10977166601E+03  0.47000000000E+01 0. -1.
         -5    1    3    3    0  502  0.10209818604E+03 -0.60366556509E+02  0.10474515180E+03  0.15830918345E+03  0.47000000000E+01 0. -1.
          5    1    4    4  503    0 -0.14501071630E+03  0.74440102362E+01  0.54330807810E+02  0.15510463503E+03  0.47000000000E+01 0.  1.
         -5    1    4    4    0  503  0.25418503340E+02  0.98262757821E+01  0.19281446314E+02  0.33712314957E+02  0.47000000000E+01 0.  1.
<mgrwt>
<rscale>  0 0.17387072E+03</rscale>
<asrwt>0</asrwt>
<pdfrwt beam="2">  1        5 0.13786209E-01 0.17387661E+03</pdfrwt>
<pdfrwt beam="1">  1       -5 0.56505760E-01 0.17387661E+03</pdfrwt>
<totfact> 0.10375685E+02</totfact>
</mgrwt>
</event>
<event>
 8    1  0.3588496E-007  0.1271260E+03  0.7546771E-02  0.1231785E+00
          5   -1    0    0  501    0  0.00000000000E+00  0.00000000000E+00  0.14658511155E+03  0.14666044091E+03  0.47000000000E+01 0. -1.
         -5   -1    0    0    0  501 -0.00000000000E+00 -0.00000000000E+00 -0.11735536112E+03  0.11744943927E+03  0.47000000000E+01 0. -1.
         25    2    1    2    0    0 -0.15143162388E+02 -0.17492305772E+02 -0.18212486238E+02  0.12841985713E+03  0.12499867568E+03 0.  0.
         25    2    1    2    0    0  0.15143162388E+02  0.17492305772E+02  0.47442236662E+02  0.13569002305E+03  0.12500288159E+03 0.  0.
          5    1    3    3  502    0 -0.20215618546E+02  0.40936909426E+01  0.51201079064E+02  0.55399188046E+02  0.47000000000E+01 0. -1.
         -5    1    3    3    0  502  0.50724561580E+01 -0.21585996714E+02 -0.69413565303E+02  0.73020669085E+02  0.47000000000E+01 0. -1.
          5    1    4    4  503    0 -0.15781393593E+02 -0.43912003666E+02 -0.75799170675E+01  0.47506437379E+02  0.47000000000E+01 0. -1.
         -5    1    4    4    0  503  0.30924555982E+02  0.61404309438E+02  0.55022153730E+02  0.88183585668E+02  0.47000000000E+01 0. -1.
<mgrwt>
<rscale>  0 0.12712495E+03</rscale>
<asrwt>0</asrwt>
<pdfrwt beam="1">  1        5 0.22564587E-01 0.12712599E+03</pdfrwt>
<pdfrwt beam="2">  1       -5 0.18067702E-01 0.12712599E+03</pdfrwt>
<totfact> 0.36519868E+02</totfact>
</mgrwt>
</event>
<event>
 8    1  0.3588496E-007  0.1290592E+03  0.7546771E-02  0.1228859E+00
         -5   -1    0    0    0  501 -0.00000000000E+00  0.00000000000E+00  0.11021282382E+04  0.11021382597E+04  0.47000000000E+01 0.  1.
          5   -1    0    0  501    0  0.00000000000E+00 -0.00000000000E+00 -0.15177801670E+02  0.15888853437E+02  0.47000000000E+01 0.  1.
         25    2    1    2    0    0 -0.31992920266E+02 -0.27489519085E+01  0.63654884234E+03  0.64950035991E+03  0.12500074061E+03 0.  0.
         25    2    1    2    0    0  0.31992920266E+02  0.27489519085E+01  0.45040159419E+03  0.46852675320E+03  0.12499847493E+03 0.  0.
          5    1    4    4  502    0  0.18809164275E+02 -0.24739877846E+02  0.43087276716E+03  0.43201768216E+03  0.47000000000E+01 0.  1.
         -5    1    4    4    0  502  0.13183755990E+02  0.27488829755E+02  0.19528827026E+02  0.36509071042E+02  0.47000000000E+01 0.  1.
          5    1    3    3  503    0  0.20615490321E+02  0.33621239447E+02  0.80490631878E+02  0.89756437113E+02  0.47000000000E+01 0.  1.
         -5    1    3    3    0  503 -0.52608410587E+02 -0.36370191355E+02  0.55605821047E+03  0.55974392280E+03  0.47000000000E+01 0.  1.
<mgrwt>
<rscale>  0 0.12905870E+03</rscale>
<asrwt>0</asrwt>
<pdfrwt beam="2">  1        5 0.23905141E-02 0.12905925E+03</pdfrwt>
<pdfrwt beam="1">  1       -5 0.16961362E+00 0.12905925E+03</pdfrwt>
<totfact> 0.12232529E+02</totfact>
</mgrwt>
</event>
<event>
 8    1  0.3588496E-007  0.1354569E+03  0.7546771E-02  0.1219579E+00
          5   -1    0    0  501    0  0.00000000000E+00  0.00000000000E+00  0.79103697104E+02  0.79243200942E+02  0.47000000000E+01 0. -1.
         -5   -1    0    0    0  501 -0.00000000000E+00 -0.00000000000E+00 -0.28769603980E+03  0.28773442845E+03  0.47000000000E+01 0. -1.
         25    2    1    2    0    0 -0.41871531345E+02 -0.31123991425E+02 -0.18530886814E+03  0.22953425614E+03  0.12499868061E+03 0.  0.
         25    2    1    2    0    0  0.41871531345E+02  0.31123991425E+02 -0.23283474559E+02  0.13744337325E+03  0.12500653056E+03 0.  0.
          5    1    3    3  502    0 -0.54787176040E+02  0.34037894354E+02 -0.11967788125E+03  0.13603344505E+03  0.47000000000E+01 0. -1.
         -5    1    3    3    0  502  0.12915644695E+02 -0.65161885779E+02 -0.65630986882E+02  0.93500811094E+02  0.47000000000E+01 0. -1.
          5    1    4    4  503    0  0.68656715828E+02  0.17129834166E+01 -0.53569080307E+02  0.87226230604E+02  0.47000000000E+01 0.  1.
         -5    1    4    4    0  503 -0.26785184483E+02  0.29411008009E+02  0.30285605749E+02  0.50217142645E+02  0.47000000000E+01 0.  1.
<mgrwt>
<rscale>  0 0.13545505E+03</rscale>
<asrwt>0</asrwt>
<pdfrwt beam="1">  1        5 0.12183484E-01 0.13545686E+03</pdfrwt>
<pdfrwt beam="2">  1       -5 0.44274613E-01 0.13545686E+03</pdfrwt>
<totfact> 0.20081096E+02</totfact>
</mgrwt>
</event>
<event>
 8    1  0.3588496E-007  0.2114843E+03  0.7546771E-02  0.1140397E+00
         -5   -1    0    0    0  501 -0.00000000000E+00  0.00000000000E+00  0.31919525912E+02  0.32263696850E+02  0.47000000000E+01 0.  1.
          5   -1    0    0  501    0  0.00000000000E+00 -0.00000000000E+00 -0.16003466319E+04  0.16003535336E+04  0.47000000000E+01 0.  1.
         25    2    1    2    0    0  0.16673351414E+03  0.36031844983E+02 -0.49064562311E+03  0.53428338173E+03  0.12500898339E+03 0.  0.
         25    2    1    2    0    0 -0.16673351414E+03 -0.36031844983E+02 -0.10777814829E+04  0.10983338487E+04  0.12500383845E+03 0.  0.
          5    1    3    3  502    0  0.17487970046E+03  0.24000781195E+02 -0.34238386502E+03  0.38523726216E+03  0.47000000000E+01 0. -1.
         -5    1    3    3    0  502 -0.81461863238E+01  0.12031063787E+02 -0.14826175809E+03  0.14904611957E+03  0.47000000000E+01 0. -1.
          5    1    4    4  503    0 -0.56078376614E+02 -0.95189701603E+01 -0.11048138130E+03  0.12435280749E+03  0.47000000000E+01 0. -1.
         -5    1    4    4    0  503 -0.11065513752E+03 -0.26512874822E+02 -0.96730010162E+03  0.97398104119E+03  0.47000000000E+01 0. -1.
<mgrwt>
<rscale>  0 0.21148353E+03</rscale>
<asrwt>0</asrwt>
<pdfrwt beam="2">  1        5 0.24623412E+00 0.21148429E+03</pdfrwt>
<pdfrwt beam="1">  1       -5 0.49377031E-02 0.21148429E+03</pdfrwt>
<totfact> 0.12898059E+01</totfact>
</mgrwt>
</event>
<event>
 8    1  0.3588496E-007  0.1385047E+03  0.7546771E-02  0.1215357E+00
          5   -1    0    0  501    0  0.00000000000E+00  0.00000000000E+00  0.35871147312E+02  0.36177744671E+02  0.47000000000E+01 0.  1.
         -5   -1    0    0    0  501 -0.00000000000E+00 -0.00000000000E+00 -0.54043323130E+03  0.54045366822E+03  0.47000000000E+01 0.  1.
         25    2    1    2    0    0 -0.11121889684E+02 -0.58608259721E+02 -0.28791704790E+03  0.31949925551E+03  0.12499969305E+03 0.  0.
         25    2    1    2    0    0  0.11121889684E+02  0.58608259721E+02 -0.21664503609E+03  0.25713215738E+03  0.12499300045E+03 0.  0.
          5    1    4    4  502    0  0.49564599025E+02  0.76733689000E+02 -0.17489248649E+03  0.19736813404E+03  0.47000000000E+01 0. -1.
         -5    1    4    4    0  502 -0.38442709341E+02 -0.18125429279E+02 -0.41752549595E+02  0.59764023339E+02  0.47000000000E+01 0. -1.
          5    1    3    3  503    0 -0.58718448646E+02 -0.10781243710E+02 -0.19878152207E+03  0.20760605710E+03  0.47000000000E+01 0. -1.
         -5    1    3    3    0  503  0.47596558962E+02 -0.47827016012E+02 -0.89135525829E+02  0.11189319841E+03  0.47000000000E+01 0. -1.
<mgrwt>
<rscale>  0 0.13850318E+03</rscale>
<asrwt>0</asrwt>
<pdfrwt beam="1">  1        5 0.55437949E-02 0.13850469E+03</pdfrwt>
<pdfrwt beam="2">  1       -5 0.83168725E-01 0.13850469E+03</pdfrwt>
<totfact> 0.19618028E+02</totfact>
</mgrwt>
</event>
<event>
 8    1  0.3588496E-007  0.1828663E+03  0.7546771E-02  0.1165070E+00
          5   -1    0    0  501    0  0.00000000000E+00  0.00000000000E+00  0.24002941447E+03  0.24007542526E+03  0.47000000000E+01 0. -1.
         -5   -1    0    0    0  501 -0.00000000000E+00 -0.00000000000E+00 -0.13990169192E+03  0.13998061795E+03  0.47000000000E+01 0. -1.
         25    2    1    2    0    0  0.26103827364E+02 -0.13082473744E+03  0.36410234205E+02  0.18645588589E+03  0.12507425994E+03 0.  0.
         25    2    1    2    0    0 -0.26103827364E+02  0.13082473744E+03  0.63717488353E+02  0.19360015732E+03  0.12499832344E+03 0.  0.
          5    1    4    4  502    0  0.23267420053E+02  0.53321004497E+02  0.81140525193E+02  0.99951874345E+02  0.47000000000E+01 0. -1.
         -5    1    4    4    0  502 -0.49371247418E+02  0.77503732939E+02 -0.17423036840E+02  0.93648282973E+02  0.47000000000E+01 0. -1.
          5    1    3    3  503    0  0.36608237010E+01 -0.62772111528E+02  0.80449926704E+02  0.10221555812E+03  0.47000000000E+01 0. -1.
         -5    1    3    3    0  503  0.22443003663E+02 -0.68052625908E+02 -0.44039692499E+02  0.84240327764E+02  0.47000000000E+01 0. -1.
<mgrwt>
<rscale>  0 0.18285334E+03</rscale>
<asrwt>0</asrwt>
<pdfrwt beam="1">  1        5 0.36937212E-01 0.18286632E+03</pdfrwt>
<pdfrwt beam="2">  1       -5 0.21532948E-01 0.18286632E+03</pdfrwt>
<totfact> 0.11291085E+02</totfact>
</mgrwt>
</event>
<event>
 8    1  0.3588496E-007  0.1283145E+03  0.7546771E-02  0.1229982E+00
          5   -1    0    0  501    0  0.00000000000E+00  0.00000000000E+00  0.14545766810E+03  0.14553358104E+03  0.47000000000E+01 0. -1.
         -5   -1    0    0    0  501 -0.00000000000E+00 -0.00000000000E+00 -0.11888817156E+03  0.11898103772E+03  0.47000000000E+01 0. -1.
         25    2    1    2    0    0  0.17537367092E+02 -0.23058680051E+02 -0.16054769867E+02  0.12931499567E+03  0.12500140199E+03 0.  0.
         25    2    1    2    0    0 -0.17537367092E+02  0.23058680051E+02  0.42624266413E+02  0.13519962308E+03  0.12499139180E+03 0.  0.
          5    1    4    4  502    0  0.47298318218E+02  0.38464160256E+02  0.25383464273E+02  0.66204477107E+02  0.47000000000E+01 0.  1.
         -5    1    4    4    0  502 -0.64835685310E+02 -0.15405480205E+02  0.17240802140E+02  0.68995145977E+02  0.47000000000E+01 0.  1.
          5    1    3    3  503    0  0.14640626390E+02  0.51255514633E+02 -0.10951708888E+02  0.54621476078E+02  0.47000000000E+01 0.  1.
         -5    1    3    3    0  503  0.28967407016E+01 -0.74314194684E+02 -0.51030609781E+01  0.74693519595E+02  0.47000000000E+01 0.  1.
<mgrwt>
<rscale>  0 0.12831207E+03</rscale>
<asrwt>0</asrwt>
<pdfrwt beam="1">  1        5 0.22391086E-01 0.12831451E+03</pdfrwt>
<pdfrwt beam="2">  1       -5 0.18303471E-01 0.12831451E+03</pdfrwt>
<totfact> 0.36305493E+02</totfact>
</mgrwt>
</event>
<event>
 8    1  0.3588496E-007  0.1252898E+03  0.7546771E-02  0.1234622E+00
          5   -1    0    0  501    0  0.00000000000E+00  0.00000000000E+00  0.34170477033E+03  0.34173709202E+03  0.47000000000E+01 0. -1.
         -5   -1    0    0    0  501 -0.00000000000E+00 -0.00000000000E+00 -0.53661051320E+02  0.53866487065E+02  0.47000000000E+01 0. -1.
         25    2    1    2    0    0  0.11720473481E+00 -0.83246119475E+01  0.68402095950E+02  0.14274586679E+03  0.12501289075E+03 0.  0.
         25    2    1    2    0    0 -0.11720473481E+00  0.83246119475E+01  0.21964162306E+03  0.25285771230E+03  0.12500106876E+03 0.  0.
          5    1    4    4  502    0 -0.23889343843E+02 -0.32109303694E+02  0.19604279360E+03  0.20014138766E+03  0.47000000000E+01 0.  1.
         -5    1    4    4    0  502  0.23772139108E+02  0.40433915641E+02  0.23598829460E+02  0.52716324641E+02  0.47000000000E+01 0.  1.
          5    1    3    3  503    0  0.48298993624E+02 -0.16602774078E+02 -0.80108928712E+01  0.51910589447E+02  0.47000000000E+01 0. -1.
         -5    1    3    3    0  503 -0.48181788889E+02  0.82781621303E+01  0.76412988821E+02  0.90835277340E+02  0.47000000000E+01 0. -1.
<mgrwt>
<rscale>  0 0.12528686E+03</rscale>
<asrwt>0</asrwt>
<pdfrwt beam="1">  1        5 0.52588255E-01 0.12528981E+03</pdfrwt>
<pdfrwt beam="2">  1       -5 0.82738352E-02 0.12528981E+03</pdfrwt>
<totfact> 0.26708682E+02</totfact>
</mgrwt>
</event>
<event>
 8    1  0.3588496E-007  0.1338877E+03  0.7546771E-02  0.1221799E+00
         -5   -1    0    0    0  501 -0.00000000000E+00  0.00000000000E+00  0.20131400284E+03  0.20136885990E+03  0.47000000000E+01 0.  1.
          5   -1    0    0  501    0  0.00000000000E+00 -0.00000000000E+00 -0.96278918049E+02  0.96393568565E+02  0.47000000000E+01 0.  1.
         25    2    1    2    0    0  0.85949812623E+01 -0.47195052684E+02  0.93654757313E+02  0.16339256314E+03  0.12499867767E+03 0.  0.
         25    2    1    2    0    0 -0.85949812623E+01  0.47195052684E+02  0.11380327475E+02  0.13436986533E+03  0.12499800860E+03 0.  0.
          5    1    4    4  502    0  0.21277160583E+02 -0.74381860978E+01 -0.44801758643E+02  0.50371934174E+02  0.47000000000E+01 0.  1.
         -5    1    4    4    0  502 -0.29872141846E+02  0.54633238782E+02  0.56182086118E+02  0.83997931158E+02  0.47000000000E+01 0.  1.
          5    1    3    3  503    0 -0.10747058279E+02  0.28803157898E+02 -0.10595186882E+02  0.32855275857E+02  0.47000000000E+01 0. -1.
         -5    1    3    3    0  503  0.19342039541E+02 -0.75998210583E+02  0.10424994419E+03  0.13053728728E+03  0.47000000000E+01 0. -1.
<mgrwt>
<rscale>  0 0.13388754E+03</rscale>
<asrwt>0</asrwt>
<pdfrwt beam="2">  1        5 0.14825180E-01 0.13388770E+03</pdfrwt>
<pdfrwt beam="1">  1       -5 0.30984424E-01 0.13388770E+03</pdfrwt>
<totfact> 0.28961790E+02</totfact>
</mgrwt>
</event>
<event>
 8    1  0.3588496E-007  0.2289176E+03  0.7546771E-02  0.1127410E+00
         -5   -1    0    0    0  501 -0.00000000000E+00  0.00000000000E+00  0.28328239435E+03  0.28332138103E+03  0.47000000000E+01 0.  1.
          5   -1    0    0  501    0  0.00000000000E+00 -0.00000000000E+00 -0.19403971777E+03  0.19409663076E+03  0.47000000000E+01 0.  1.
         25    2    1    2    0    0  0.18857961567E+03  0.34809595355E+02  0.96475106111E+02  0.24838616484E+03  0.12495703827E+03 0.  0.
         25    2    1    2    0    0 -0.18857961567E+03 -0.34809595355E+02 -0.72324295352E+01  0.22903184695E+03  0.12501719685E+03 0.  0.
          5    1    3    3  502    0  0.76367956587E+02  0.55791635801E+01 -0.24708352134E+02  0.80596429975E+02  0.47000000000E+01 0.  1.
         -5    1    3    3    0  502  0.11221165908E+03  0.29230431775E+02  0.12118345824E+03  0.16778973487E+03  0.47000000000E+01 0.  1.
          5    1    4    4  503    0 -0.12504737572E+03 -0.81167830633E+02 -0.14769884353E+02  0.14988429667E+03  0.47000000000E+01 0.  1.
         -5    1    4    4    0  503 -0.63532239944E+02  0.46358235277E+02  0.75374548177E+01  0.79147550281E+02  0.47000000000E+01 0.  1.
<mgrwt>
<rscale>  0 0.22890941E+03</rscale>
<asrwt>0</asrwt>
<pdfrwt beam="2">  1        5 0.29859641E-01 0.22891762E+03</pdfrwt>
<pdfrwt beam="1">  1       -5 0.43589284E-01 0.22891762E+03</pdfrwt>
<totfact> 0.45294650E+01</totfact>
</mgrwt>
</event>
<event>
 8    1  0.3588496E-007  0.1259424E+03  0.7546771E-02  0.1233610E+00
          5   -1    0    0  501    0  0.00000000000E+00  0.00000000000E+00  0.99182889939E+02  0.99294187426E+02  0.47000000000E+01 0.  1.
         -5   -1    0    0    0  501 -0.00000000000E+00 -0.00000000000E+00 -0.17376325742E+03  0.17382680929E+03  0.47000000000E+01 0.  1.
         25    2    1    2    0    0 -0.94600735611E+01  0.12012783224E+02 -0.76165283554E+02  0.14716858741E+03  0.12499457088E+03 0.  0.
         25    2    1    2    0    0  0.94600735611E+01 -0.12012783224E+02  0.15849160775E+01  0.12595240930E+03  0.12501078953E+03 0.  0.
          5    1    3    3  502    0  0.16596365219E+02  0.63297718534E+02 -0.25561130273E+02  0.70409529830E+02  0.47000000000E+01 0. -1.
         -5    1    3    3    0  502 -0.26056438781E+02 -0.51284935310E+02 -0.50604153280E+02  0.76759057582E+02  0.47000000000E+01 0. -1.
          5    1    4    4  503    0  0.86610903561E+01 -0.54872787959E+02 -0.37955735049E+02  0.67444534008E+02  0.47000000000E+01 0. -1.
         -5    1    4    4    0  503  0.79898320504E+00  0.42860004735E+02  0.39540651126E+02  0.58507875295E+02  0.47000000000E+01 0. -1.
<mgrwt>
<rscale>  0 0.12593841E+03</rscale>
<asrwt>0</asrwt>
<pdfrwt beam="1">  1        5 0.15272356E-01 0.12594244E+03</pdfrwt>
<pdfrwt beam="2">  1       -5 0.26746259E-01 0.12594244E+03</pdfrwt>
<totfact> 0.35758365E+02</totfact>
</mgrwt>
</event>
<event>
 8    1  0.3588496E-007  0.1302878E+03  0.7546771E-02  0.1227032E+00
          5   -1    0    0  501    0  0.00000000000E+00  0.00000000000E+00  0.78655888988E+03  0.78657293193E+03  0.47000000000E+01 0. -1.
         -5   -1    0    0    0  501 -0.00000000000E+00 -0.00000000000E+00 -0.23704986793E+02  0.24166431240E+02  0.47000000000E+01 0. -1.
         25    2    1    2    0    0 -0.30717195976E+02  0.20122928946E+02  0.25389339482E+03  0.28536738441E+03  0.12499683896E+03 0.  0.
         25    2    1    2    0    0  0.30717195976E+02 -0.20122928946E+02  0.50896050826E+03  0.52537197876E+03  0.12500575467E+03 0.  0.
          5    1    3    3  502    0  0.12810854354E+02  0.98709047879E+01  0.23658828853E+03  0.23718697481E+03  0.47000000000E+01 0.  1.
         -5    1    3    3    0  502 -0.43528050330E+02  0.10252024158E+02  0.17305106290E+02  0.48180409593E+02  0.47000000000E+01 0.  1.
          5    1    4    4  503    0  0.50114092773E+02  0.41659410296E+02  0.26033481297E+03  0.26840870628E+03  0.47000000000E+01 0.  1.
         -5    1    4    4    0  503 -0.19396896797E+02 -0.61782339242E+02  0.24862569529E+03  0.25696327248E+03  0.47000000000E+01 0.  1.
<mgrwt>
<rscale>  0 0.13028569E+03</rscale>
<asrwt>0</asrwt>
<pdfrwt beam="1">  1        5 0.12104562E+00 0.13028782E+03</pdfrwt>
<pdfrwt beam="2">  1       -5 0.36834974E-02 0.13028782E+03</pdfrwt>
<totfact> 0.15139438E+02</totfact>
</mgrwt>
</event>
<event>
 8    1  0.3588496E-007  0.1347161E+03  0.7546771E-02  0.1220628E+00
         -5   -1    0    0    0  501 -0.00000000000E+00  0.00000000000E+00  0.85220916637E+02  0.85350422567E+02  0.47000000000E+01 0.  1.
          5   -1    0    0  501    0  0.00000000000E+00 -0.00000000000E+00 -0.22599078463E+03  0.22603965302E+03  0.47000000000E+01 0.  1.
         25    2    1    2    0    0  0.10639289204E+02 -0.49087498712E+02 -0.10826095998E+03  0.17282613427E+03  0.12500264088E+03 0.  0.
         25    2    1    2    0    0 -0.10639289204E+02  0.49087498712E+02 -0.32508908014E+02  0.13856394132E+03  0.12498143754E+03 0.  0.
          5    1    3    3  502    0  0.55956758291E+02  0.34128154880E+01 -0.79972054558E+02  0.97777428981E+02  0.47000000000E+01 0.  1.
         -5    1    3    3    0  502 -0.45317469087E+02 -0.52500314200E+02 -0.28288905425E+02  0.75048705290E+02  0.47000000000E+01 0.  1.
          5    1    4    4  503    0 -0.24132207949E+02 -0.18330313046E+02 -0.57573991160E+02  0.65232034270E+02  0.47000000000E+01 0.  1.
         -5    1    4    4    0  503  0.13492918745E+02  0.67417811758E+02  0.25065083147E+02  0.73331907050E+02  0.47000000000E+01 0.  1.
<mgrwt>
<rscale>  0 0.13471122E+03</rscale>
<asrwt>0</asrwt>
<pdfrwt beam="2">  1        5 0.34781534E-01 0.13471614E+03</pdfrwt>
<pdfrwt beam="1">  1       -5 0.13124631E-01 0.13471614E+03</pdfrwt>
<totfact> 0.28716061E+02</totfact>
</mgrwt>
</event>
<event>
 8    1  0.3588496E-007  0.1948714E+03  0.7546771E-02  0.1154142E+00
          5   -1    0    0  501    0  0.00000000000E+00  0.00000000000E+00  0.10960243035E+04  0.10960343808E+04  0.47000000000E+01 0. -1.
         -5   -1    0    0    0  501 -0.00000000000E+00 -0.00000000000E+00 -0.35918550139E+02  0.36224746294E+02  0.47000000000E+01 0. -1.
         25    2    1    2    0    0  0.37941360676E+02  0.14459949345E+03  0.41707780036E+03  0.46035152426E+03  0.12498429492E+03 0.  0.
         25    2    1    2    0    0 -0.37941360676E+02 -0.14459949345E+03  0.64302795302E+03  0.67190760284E+03  0.12500527203E+03 0.  0.
          5    1    4    4  502    0 -0.17909488165E+02  0.20984561097E+02  0.88407482047E+02  0.92731194603E+02  0.47000000000E+01 0. -1.
         -5    1    4    4    0  502 -0.20031872511E+02 -0.16558405455E+03  0.55462047097E+03  0.57917640824E+03  0.47000000000E+01 0. -1.
          5    1    3    3  503    0  0.77685319196E+02  0.51201090558E+02  0.20636917187E+03  0.22642191942E+03  0.47000000000E+01 0.  1.
         -5    1    3    3    0  503 -0.39743958520E+02  0.93398402892E+02  0.21070862849E+03  0.23392960484E+03  0.47000000000E+01 0.  1.
<mgrwt>
<rscale>  0 0.19486808E+03</rscale>
<asrwt>0</asrwt>
<pdfrwt beam="1">  1        5 0.16864343E+00 0.19487144E+03</pdfrwt>
<pdfrwt beam="2">  1       -5 0.55502601E-02 0.19487144E+03</pdfrwt>
<totfact> 0.35180583E+01</totfact>
</mgrwt>
</event>
<event>
 8    1  0.3588496E-007  0.2180203E+03  0.7546771E-02  0.1135368E+00
          5   -1    0    0  501    0  0.00000000000E+00  0.00000000000E+00  0.11882644634E+03  0.11891936071E+03  0.47000000000E+01 0.  1.
         -5   -1    0    0    0  501 -0.00000000000E+00 -0.00000000000E+00 -0.43975149355E+03  0.43977660929E+03  0.47000000000E+01 0.  1.
         25    2    1    2    0    0  0.14454759059E+03  0.10494152294E+03 -0.24470086181E+03  0.32773671212E+03  0.12500444600E+03 0.  0.
         25    2    1    2    0    0 -0.14454759059E+03 -0.10494152294E+03 -0.76224185395E+02  0.23095925788E+03  0.12500129271E+03 0.  0.
          5    1    3    3  502    0  0.64714052219E+02  0.12018885292E+03 -0.15562884481E+03  0.20706447367E+03  0.47000000000E+01 0. -1.
         -5    1    3    3    0  502  0.79833538367E+02 -0.15247329974E+02 -0.89072017000E+02  0.12067223845E+03  0.47000000000E+01 0. -1.
          5    1    4    4  503    0 -0.33746695870E+02  0.26652422967E+02 -0.30394210054E+02  0.52868602563E+02  0.47000000000E+01 0. -1.
         -5    1    4    4    0  503 -0.11080089472E+03 -0.13159394591E+03 -0.45829975341E+02  0.17809065531E+03  0.47000000000E+01 0. -1.
<mgrwt>
<rscale>  0 0.21801982E+03</rscale>
<asrwt>0</asrwt>
<pdfrwt beam="1">  1        5 0.18290071E-01 0.21802028E+03</pdfrwt>
<pdfrwt beam="2">  1       -5 0.67663154E-01 0.21802028E+03</pdfrwt>
<totfact> 0.44089580E+01</totfact>
</mgrwt>
</event>
<event>
 8    1  0.3588496E-007  0.1419118E+03  0.7546771E-02  0.1210781E+00
          5   -1    0    0  501    0  0.00000000000E+00  0.00000000000E+00  0.58602317650E+02  0.58790489315E+02  0.47000000000E+01 0.  1.
         -5   -1    0    0    0  501 -0.00000000000E+00 -0.00000000000E+00 -0.36496740316E+03  0.36499766488E+03  0.47000000000E+01 0.  1.
         25    2    1    2    0    0  0.18729326552E+02  0.64511507587E+02 -0.20528692229E+03  0.24956298739E+03  0.12500576758E+03 0.  0.
         25    2    1    2    0    0 -0.18729326552E+02 -0.64511507587E+02 -0.10107816322E+03  0.17422516681E+03  0.12500036554E+03 0.  0.
          5    1    3    3  502    0 -0.11469046054E+02 -0.13014191381E+02  0.86674490577E+01  0.19953016510E+02  0.47000000000E+01 0.  1.
         -5    1    3    3    0  502  0.30198372606E+02  0.77525698968E+02 -0.21395437135E+03  0.22960997088E+03  0.47000000000E+01 0.  1.
          5    1    4    4  503    0 -0.59034701492E+02 -0.31753623328E+02 -0.81845931334E+01  0.67693915085E+02  0.47000000000E+01 0.  1.
         -5    1    4    4    0  503  0.40305374940E+02 -0.32757884259E+02 -0.92893570090E+02  0.10653125173E+03  0.47000000000E+01 0.  1.
<mgrwt>
<rscale>  0 0.14191063E+03</rscale>
<asrwt>0</asrwt>
<pdfrwt beam="1">  1        5 0.90325440E-02 0.14191182E+03</pdfrwt>
<pdfrwt beam="2">  1       -5 0.56165632E-01 0.14191182E+03</pdfrwt>
<totfact> 0.20813369E+02</totfact>
</mgrwt>
</event>
<event>
 8    1  0.3588496E-007  0.1318127E+03  0.7546771E-02  0.1224796E+00
          5   -1    0    0  501    0  0.00000000000E+00  0.00000000000E+00  0.53551792311E+03  0.53553854761E+03  0.47000000000E+01 0.  1.
         -5   -1    0    0    0  501 -0.00000000000E+00 -0.00000000000E+00 -0.32680831770E+02  0.33017067786E+02  0.47000000000E+01 0.  1.
         25    2    1    2    0    0 -0.13047078801E+02  0.39689949377E+02  0.21890166975E+03  0.25551582542E+03  0.12499951071E+03 0.  0.
         25    2    1    2    0    0  0.13047078801E+02 -0.39689949377E+02  0.28393542160E+03  0.31303978997E+03  0.12501627143E+03 0.  0.
          5    1    4    4  502    0  0.60556602989E+02  0.11360208499E+02  0.14006000699E+03  0.15308511378E+03  0.47000000000E+01 0.  1.
         -5    1    4    4    0  502 -0.47509524187E+02 -0.51050157876E+02  0.14387541460E+03  0.15995467619E+03  0.47000000000E+01 0.  1.
          5    1    3    3  503    0 -0.42500502292E+02  0.74519866909E+02  0.14509320224E+03  0.16862274638E+03  0.47000000000E+01 0.  1.
         -5    1    3    3    0  503  0.29453423490E+02 -0.34829917532E+02  0.73808467503E+02  0.86893079044E+02  0.47000000000E+01 0.  1.
<mgrwt>
<rscale>  0 0.13180872E+03</rscale>
<asrwt>0</asrwt>
<pdfrwt beam="1">  1        5 0.82414824E-01 0.13181269E+03</pdfrwt>
<pdfrwt beam="2">  1       -5 0.50552710E-02 0.13181269E+03</pdfrwt>
<totfact> 0.22982944E+02</totfact>
</mgrwt>
</event>
<event>
 8    1  0.3588496E-007  0.2556674E+03  0.7546771E-02  0.1109775E+00
         -5   -1    0    0    0  501 -0.00000000000E+00  0.00000000000E+00  0.46717027640E+03  0.46719391814E+03  0.47000000000E+01 0. -1.
          5   -1    0    0  501    0  0.00000000000E+00 -0.00000000000E+00 -0.14564038970E+03  0.14571620745E+03  0.47000000000E+01 0. -1.
         25    2    1    2    0    0  0.21481686663E+03  0.59953807048E+02  0.22184095562E+03  0.33849488472E+03  0.12499852889E+03 0.  0.
         25    2    1    2    0    0 -0.21481686663E+03 -0.59953807048E+02  0.99688931073E+02  0.27441524087E+03  0.12500038511E+03 0.  0.
          5    1    3    3  502    0  0.27518991681E+02  0.62306884513E+02  0.61104653030E+02  0.91625931825E+02  0.47000000000E+01 0.  1.
         -5    1    3    3    0  502  0.18729787495E+03 -0.23530774647E+01  0.16073630259E+03  0.24686895289E+03  0.47000000000E+01 0.  1.
          5    1    4    4  503    0 -0.17460895097E+03 -0.33784552046E+02  0.17023385545E+02  0.17872203941E+03  0.47000000000E+01 0. -1.
         -5    1    4    4    0  503 -0.40207915660E+02 -0.26169255002E+02  0.82665545528E+02  0.95693201464E+02  0.47000000000E+01 0. -1.
<mgrwt>
<rscale>  0 0.25566722E+03</rscale>
<asrwt>0</asrwt>
<pdfrwt beam="2">  1        5 0.22413864E-01 0.25566744E+03</pdfrwt>
<pdfrwt beam="1">  1       -5 0.71880002E-01 0.25566744E+03</pdfrwt>
<totfact> 0.27185989E+01</totfact>
</mgrwt>
</event>
<event>
 8    1  0.3588496E-007  0.1262766E+03  0.7546771E-02  0.1233095E+00
         -5   -1    0    0    0  501 -0.00000000000E+00  0.00000000000E+00  0.32729622933E+03  0.32732997378E+03  0.47000000000E+01 0.  1.
          5   -1    0    0  501    0  0.00000000000E+00 -0.00000000000E+00 -0.54012439835E+02  0.54216544125E+02  0.47000000000E+01 0.  1.
         25    2    1    2    0    0 -0.13337714032E+02  0.11761831511E+02  0.19709122154E+03  0.23406399538E+03  0.12499907612E+03 0.  0.
         25    2    1    2    0    0  0.13337714032E+02 -0.11761831511E+02  0.76192567961E+02  0.14748252252E+03  0.12501820564E+03 0.  0.
          5    1    3    3  502    0  0.54833306684E+02  0.10292115861E+02  0.68807624366E+02  0.88708502082E+02  0.47000000000E+01 0. -1.
         -5    1    3    3    0  502 -0.68171020716E+02  0.14697156509E+01  0.12828359717E+03  0.14535549330E+03  0.47000000000E+01 0. -1.
          5    1    4    4  503    0 -0.19281301719E+02 -0.23724327064E+02  0.10028245205E+03  0.10494413981E+03  0.47000000000E+01 0.  1.
         -5    1    4    4    0  503  0.32619015751E+02  0.11962495553E+02 -0.24089884091E+02  0.42538382714E+02  0.47000000000E+01 0.  1.
<mgrwt>
<rscale>  0 0.12627189E+03</rscale>
<asrwt>0</asrwt>
<pdfrwt beam="2">  1        5 0.83279022E-02 0.12627663E+03</pdfrwt>
<pdfrwt beam="1">  1       -5 0.50371562E-01 0.12627663E+03</pdfrwt>
<totfact> 0.29027019E+02</totfact>
</mgrwt>
</event>
<event>
 8    1  0.3588496E-007  0.1277254E+03  0.7546771E-02  0.1230883E+00
          5   -1    0    0  501    0  0.00000000000E+00  0.00000000000E+00  0.46032394234E+02  0.46271711865E+02  0.47000000000E+01 0.  1.
         -5   -1    0    0    0  501 -0.00000000000E+00 -0.00000000000E+00 -0.53263223422E+03  0.53265297045E+03  0.47000000000E+01 0.  1.
         25    2    1    2    0    0  0.82854743084E+01 -0.24719012188E+02 -0.41131868563E+03  0.43069345131E+03  0.12503643148E+03 0.  0.
         25    2    1    2    0    0 -0.82854743084E+01  0.24719012188E+02 -0.75281154355E+02  0.14823123101E+03  0.12500226797E+03 0.  0.
          5    1    4    4  502    0 -0.65748147706E+02  0.23502350596E+02 -0.43207599950E+02  0.82244550602E+02  0.47000000000E+01 0. -1.
         -5    1    4    4    0  502  0.57462673398E+02  0.12166615916E+01 -0.32073554405E+02  0.65986680411E+02  0.47000000000E+01 0. -1.
          5    1    3    3  503    0  0.14263795156E+02  0.49367004077E+02 -0.13536571019E+03  0.14486725799E+03  0.47000000000E+01 0. -1.
         -5    1    3    3    0  503 -0.59783208473E+01 -0.74086016264E+02 -0.27595297545E+03  0.28582619331E+03  0.47000000000E+01 0. -1.
<mgrwt>
<rscale>  0 0.12771708E+03</rscale>
<asrwt>0</asrwt>
<pdfrwt beam="1">  1        5 0.71019113E-02 0.12772544E+03</pdfrwt>
<pdfrwt beam="2">  1       -5 0.81963421E-01 0.12772544E+03</pdfrwt>
<totfact> 0.13011230E+02</totfact>
</mgrwt>
</event>
<event>
 8    1  0.3588496E-007  0.1396289E+03  0.7546771E-02  0.1213831E+00
          5   -1    0    0  501    0  0.00000000000E+00  0.00000000000E+00  0.84612528456E+03  0.84613833808E+03  0.47000000000E+01 0.  1.
         -5   -1    0    0    0  501 -0.00000000000E+00 -0.00000000000E+00 -0.43559732067E+02  0.43812558220E+02  0.47000000000E+01 0.  1.
         25    2    1    2    0    0 -0.50642017116E+02 -0.36137976577E+02  0.95329753242E+02  0.16906346196E+03  0.12499650022E+03 0.  0.
         25    2    1    2    0    0  0.50642017116E+02  0.36137976577E+02  0.70723579925E+03  0.72088743434E+03  0.12500259997E+03 0.  0.
          5    1    4    4  502    0 -0.70361123845E+01  0.57446200227E+02  0.16042368115E+03  0.17060896891E+03  0.47000000000E+01 0.  1.
         -5    1    4    4    0  502  0.57678129501E+02 -0.21308223650E+02  0.54681211810E+03  0.55027846543E+03  0.47000000000E+01 0.  1.
          5    1    3    3  503    0 -0.74493955762E+01  0.15676976097E+02  0.99693909897E+02  0.10130264925E+03  0.47000000000E+01 0. -1.
         -5    1    3    3    0  503 -0.43192621540E+02 -0.51814952675E+02 -0.43641566554E+01  0.67760812713E+02  0.47000000000E+01 0. -1.
<mgrwt>
<rscale>  0 0.13962749E+03</rscale>
<asrwt>0</asrwt>
<pdfrwt beam="1">  1        5 0.13019357E+00 0.13962886E+03</pdfrwt>
<pdfrwt beam="2">  1       -5 0.67219499E-02 0.13962886E+03</pdfrwt>
<totfact> 0.47220782E+01</totfact>
</mgrwt>
</event>
<event>
 8    1  0.3588496E-007  0.1474041E+03  0.7546771E-02  0.1203701E+00
          5   -1    0    0  501    0  0.00000000000E+00  0.00000000000E+00  0.41820521533E+02  0.42083797610E+02  0.47000000000E+01 0. -1.
         -5   -1    0    0    0  501 -0.00000000000E+00 -0.00000000000E+00 -0.63409020541E+03  0.63410762383E+03  0.47000000000E+01 0. -1.
         25    2    1    2    0    0  0.73695647779E+00 -0.78105727961E+02 -0.44099068310E+03  0.46497278849E+03  0.12500345441E+03 0.  0.
         25    2    1    2    0    0 -0.73695647779E+00  0.78105727961E+02 -0.15127900078E+03  0.21121863295E+03  0.12500770769E+03 0.  0.
          5    1    3    3  502    0  0.56137613545E+02 -0.52880474581E+02 -0.16339620497E+03  0.18074342601E+03  0.47000000000E+01 0. -1.
         -5    1    3    3    0  502 -0.55400657067E+02 -0.25225253380E+02 -0.27759447813E+03  0.28422936249E+03  0.47000000000E+01 0. -1.
          5    1    4    4  503    0 -0.30505652312E+02  0.67859908199E+02 -0.21492951155E+02  0.77586074222E+02  0.47000000000E+01 0.  1.
         -5    1    4    4    0  503  0.29768695834E+02  0.10245819762E+02 -0.12978604963E+03  0.13363255873E+03  0.47000000000E+01 0.  1.
<mgrwt>
<rscale>  0 0.14740322E+03</rscale>
<asrwt>0</asrwt>
<pdfrwt beam="1">  1        5 0.64555187E-02 0.14740412E+03</pdfrwt>
<pdfrwt beam="2">  1       -5 0.97573924E-01 0.14740412E+03</pdfrwt>
<totfact> 0.10603570E+02</totfact>
</mgrwt>
</event>
<event>
 8    1  0.3588496E-007  0.1286670E+03  0.7546771E-02  0.1229454E+00
         -5   -1    0    0    0  501 -0.00000000000E+00  0.00000000000E+00  0.23492327912E+03  0.23497028976E+03  0.47000000000E+01 0.  1.
          5   -1    0    0  501    0  0.00000000000E+00 -0.00000000000E+00 -0.77839608385E+02  0.77981373632E+02  0.47000000000E+01 0.  1.
         25    2    1    2    0    0 -0.21688576445E+02 -0.21433427048E+02  0.12708380334E+03  0.18083353722E+03  0.12498275469E+03 0.  0.
         25    2    1    2    0    0  0.21688576445E+02  0.21433427048E+02  0.29999867387E+02  0.13211812617E+03  0.12500168429E+03 0.  0.
          5    1    3    3  502    0 -0.11250289230E+02  0.32951459051E+02  0.11972245913E+03  0.12477149066E+03  0.47000000000E+01 0.  1.
         -5    1    3    3    0  502 -0.10438287215E+02 -0.54384886099E+02  0.73613442102E+01  0.56062046560E+02  0.47000000000E+01 0.  1.
          5    1    4    4  503    0  0.47504805428E+02 -0.37379198048E+02 -0.10137309791E+01  0.60638507864E+02  0.47000000000E+01 0.  1.
         -5    1    4    4    0  503 -0.25816228983E+02  0.58812625096E+02  0.31013598366E+02  0.71479618306E+02  0.47000000000E+01 0.  1.
<mgrwt>
<rscale>  0 0.12866244E+03</rscale>
<asrwt>0</asrwt>
<pdfrwt beam="2">  1        5 0.11989846E-01 0.12866704E+03</pdfrwt>
<pdfrwt beam="1">  1       -5 0.36156564E-01 0.12866704E+03</pdfrwt>
<totfact> 0.30693712E+02</totfact>
</mgrwt>
</event>
<event>
 8    1  0.3588496E-007  0.1350798E+03  0.7546771E-02  0.1220110E+00
         -5   -1    0    0    0  501 -0.00000000000E+00  0.00000000000E+00  0.24632554134E+03  0.24637037630E+03  0.47000000000E+01 0. -1.
          5   -1    0    0  501    0  0.00000000000E+00 -0.00000000000E+00 -0.10254116548E+03  0.10264882180E+03  0.47000000000E+01 0. -1.
         25    2    1    2    0    0  0.39606378072E+02  0.32440990443E+02  0.16396990355E+03  0.21243950273E+03  0.12499331985E+03 0.  0.
         25    2    1    2    0    0 -0.39606378072E+02 -0.32440990443E+02 -0.20185527688E+02  0.13657969537E+03  0.12500189844E+03 0.  0.
          5    1    3    3  502    0  0.58875244521E+02  0.74123258602E+01  0.16809163266E+02  0.61853657627E+02  0.47000000000E+01 0. -1.
         -5    1    3    3    0  502 -0.19268866449E+02  0.25028664583E+02  0.14716074029E+03  0.15058584511E+03  0.47000000000E+01 0. -1.
          5    1    4    4  503    0  0.32498162232E+02 -0.50774711166E+02 -0.69284901409E+01  0.60862926467E+02  0.47000000000E+01 0.  1.
         -5    1    4    4    0  503 -0.72104540304E+02  0.18333720724E+02 -0.13257037547E+02  0.75716768899E+02  0.47000000000E+01 0.  1.
<mgrwt>
<rscale>  0 0.13507783E+03</rscale>
<asrwt>0</asrwt>
<pdfrwt beam="2">  1        5 0.15787294E-01 0.13507982E+03</pdfrwt>
<pdfrwt beam="1">  1       -5 0.37907967E-01 0.13507982E+03</pdfrwt>
<totfact> 0.17322405E+02</totfact>
</mgrwt>
</event>
<event>
 8    1  0.3588496E-007  0.2066864E+03  0.7546771E-02  0.1144220E+00
         -5   -1    0    0    0  501 -0.00000000000E+00  0.00000000000E+00  0.18799694242E+03  0.18805568420E+03  0.47000000000E+01 0.  1.
          5   -1    0    0  501    0  0.00000000000E+00 -0.00000000000E+00 -0.26435068432E+03  0.26439246264E+03  0.47000000000E+01 0.  1.
         25    2    1    2    0    0 -0.16018872845E+03 -0.37839523185E+02  0.46725944053E+02  0.21190228888E+03  0.12500803154E+03 0.  0.
         25    2    1    2    0    0  0.16018872845E+03  0.37839523185E+02 -0.12307968595E+03  0.24054585796E+03  0.12498576900E+03 0.  0.
          5    1    4    4  502    0  0.59089597116E+02 -0.84203706714E+01 -0.11416286932E+03  0.12890978962E+03  0.47000000000E+01 0.  1.
         -5    1    4    4    0  502  0.10109913133E+03  0.46259893856E+02 -0.89168166365E+01  0.11163606834E+03  0.47000000000E+01 0.  1.
          5    1    3    3  503    0  0.96183604169E+00 -0.39120384100E+02 -0.10559258578E+02  0.40803400868E+02  0.47000000000E+01 0. -1.
         -5    1    3    3    0  503 -0.16115056449E+03  0.12808609148E+01  0.57285202631E+02  0.17109888801E+03  0.47000000000E+01 0. -1.
<mgrwt>
<rscale>  0 0.20668303E+03</rscale>
<asrwt>0</asrwt>
<pdfrwt beam="2">  1        5 0.40677068E-01 0.20668640E+03</pdfrwt>
<pdfrwt beam="1">  1       -5 0.28930339E-01 0.20668640E+03</pdfrwt>
<totfact> 0.54231965E+01</totfact>
</mgrwt>
</event>
<event>
 8    1  0.3588496E-007  0.1734390E+03  0.7546771E-02  0.1174309E+00
         -5   -1    0    0    0  501 -0.00000000000E+00  0.00000000000E+00  0.12863609091E+02  0.13695343692E+02  0.47000000000E+01 0.  1.
          5   -1    0    0  501    0  0.00000000000E+00 -0.00000000000E+00 -0.22889308092E+04  0.22889356346E+04  0.47000000000E+01 0.  1.
         25    2    1    2    0    0  0.10205703151E+02  0.11979750932E+03 -0.10188156334E+04  0.10334727520E+04  0.12500013852E+03 0.  0.
         25    2    1    2    0    0 -0.10205703151E+02 -0.11979750932E+03 -0.12572515667E+04  0.12691582263E+04  0.12500200702E+03 0.  0.
          5    1    3    3  502    0 -0.52276211174E+02  0.29937377285E+02 -0.26945045446E+03  0.27614251071E+03  0.47000000000E+01 0. -1.
         -5    1    3    3    0  502  0.62481914326E+02  0.89860132039E+02 -0.74936517895E+03  0.75733024129E+03  0.47000000000E+01 0. -1.
          5    1    4    4  503    0 -0.16140346841E+02 -0.10383882465E+03 -0.12400479076E+04  0.12445014727E+04  0.47000000000E+01 0. -1.
         -5    1    4    4    0  503  0.59346436899E+01 -0.15958684676E+02 -0.17203659050E+02  0.24656753578E+02  0.47000000000E+01 0. -1.
<mgrwt>
<rscale>  0 0.17343871E+03</rscale>
<asrwt>0</asrwt>
<pdfrwt beam="2">  1        5 0.35220724E+00 0.17343904E+03</pdfrwt>
<pdfrwt beam="1">  1       -5 0.20433694E-02 0.17343904E+03</pdfrwt>
<totfact> 0.10846668E+01</totfact>
</mgrwt>
</event>
<event>
 8    1  0.3588496E-007  0.1282690E+03  0.7546771E-02  0.1230053E+00
          5   -1    0    0  501    0  0.00000000000E+00  0.00000000000E+00  0.17619183416E+03  0.17625451037E+03  0.47000000000E+01 0.  1.
         -5   -1    0    0    0  501 -0.00000000000E+00 -0.00000000000E+00 -0.10331066697E+03  0.10341752226E+03  0.47000000000E+01 0.  1.
         25    2    1    2    0    0 -0.65990507559E+01  0.27989146936E+02 -0.72013189682E+01  0.12845647188E+03  0.12498906494E+03 0.  0.
         25    2    1    2    0    0  0.65990507559E+01 -0.27989146936E+02  0.80082486157E+02  0.15121556075E+03  0.12500400557E+03 0.  0.
          5    1    3    3  502    0  0.39242567339E+02  0.48185235234E+02  0.26687361113E+02  0.67794551618E+02  0.47000000000E+01 0.  1.
         -5    1    3    3    0  502 -0.45841618095E+02 -0.20196088298E+02 -0.33888680081E+02  0.60661920261E+02  0.47000000000E+01 0.  1.
          5    1    4    4  503    0 -0.21750400120E+02 -0.22935217839E+01 -0.28362415772E+02  0.36122801331E+02  0.47000000000E+01 0. -1.
         -5    1    4    4    0  503  0.28349450876E+02 -0.25695625152E+02  0.10844490193E+03  0.11509275942E+03  0.47000000000E+01 0. -1.
<mgrwt>
<rscale>  0 0.12826538E+03</rscale>
<asrwt>0</asrwt>
<pdfrwt beam="1">  1        5 0.27119477E-01 0.12826902E+03</pdfrwt>
<pdfrwt beam="2">  1       -5 0.15906990E-01 0.12826902E+03</pdfrwt>
<totfact> 0.32553618E+02</totfact>
</mgrwt>
</event>
<event>
 8    1  0.3588496E-007  0.1328234E+03  0.7546771E-02  0.1223326E+00
         -5   -1    0    0    0  501 -0.00000000000E+00  0.00000000000E+00  0.22965414486E+03  0.22970223389E+03  0.47000000000E+01 0. -1.
          5   -1    0    0  501    0  0.00000000000E+00 -0.00000000000E+00 -0.77859604370E+02  0.78001333275E+02  0.47000000000E+01 0. -1.
         25    2    1    2    0    0  0.63802664582E+01  0.44449903979E+02  0.94716963385E+02  0.16313554372E+03  0.12500160282E+03 0.  0.
         25    2    1    2    0    0 -0.63802664582E+01 -0.44449903979E+02  0.57077577109E+02  0.14456802344E+03  0.12500224730E+03 0.  0.
          5    1    3    3  502    0  0.59659744959E+02  0.33676019479E+01  0.21723330988E+02  0.63754364718E+02  0.47000000000E+01 0.  1.
         -5    1    3    3    0  502 -0.53279478501E+02  0.41082302032E+02  0.72993632397E+02  0.99381179003E+02  0.47000000000E+01 0.  1.
          5    1    4    4  503    0  0.58510478824E+02 -0.21116276999E+02  0.16940349920E+02  0.64640844223E+02  0.47000000000E+01 0. -1.
         -5    1    4    4    0  503 -0.64890745282E+02 -0.23333626980E+02  0.40137227189E+02  0.79927179218E+02  0.47000000000E+01 0. -1.
<mgrwt>
<rscale>  0 0.13282328E+03</rscale>
<asrwt>0</asrwt>
<pdfrwt beam="2">  1        5 0.11993002E-01 0.13282343E+03</pdfrwt>
<pdfrwt beam="1">  1       -5 0.35346008E-01 0.13282343E+03</pdfrwt>
<totfact> 0.32482201E+02</totfact>
</mgrwt>
</event>
<event>
 8    1  0.3588496E-007  0.2249545E+03  0.7546771E-02  0.1130243E+00
          5   -1    0    0  501    0  0.00000000000E+00  0.00000000000E+00  0.35557460418E+03  0.35560566522E+03  0.47000000000E+01 0.  1.
         -5   -1    0    0    0  501 -0.00000000000E+00 -0.00000000000E+00 -0.14329759118E+03  0.14337464782E+03  0.47000000000E+01 0.  1.
         25    2    1    2    0    0  0.43332802510E+02  0.18193538922E+03  0.84716315658E+02  0.24037587621E+03  0.12500196039E+03 0.  0.
         25    2    1    2    0    0 -0.43332802510E+02 -0.18193538922E+03  0.12756069734E+03  0.25860443683E+03  0.12500522236E+03 0.  0.
          5    1    4    4  502    0 -0.53266218208E+02 -0.65060811755E+02 -0.13851014952E+01  0.84227119947E+02  0.47000000000E+01 0.  1.
         -5    1    4    4    0  502  0.99334156985E+01 -0.11687457747E+03  0.12894579883E+03  0.17437731688E+03  0.47000000000E+01 0.  1.
          5    1    3    3  503    0  0.50871367136E+02  0.15941914740E+02 -0.61796005555E+00  0.53521140818E+02  0.47000000000E+01 0.  1.
         -5    1    3    3    0  503 -0.75385646264E+01  0.16599347448E+03  0.85334275714E+02  0.18685473539E+03  0.47000000000E+01 0.  1.
<mgrwt>
<rscale>  0 0.22495404E+03</rscale>
<asrwt>0</asrwt>
<pdfrwt beam="1">  1        5 0.54712101E-01 0.22495449E+03</pdfrwt>
<pdfrwt beam="2">  1       -5 0.22054100E-01 0.22495449E+03</pdfrwt>
<totfact> 0.50010940E+01</totfact>
</mgrwt>
</event>
<event>
 8    1  0.3588496E-007  0.1582564E+03  0.7546771E-02  0.1190681E+00
         -5   -1    0    0    0  501 -0.00000000000E+00  0.00000000000E+00  0.33351523124E+02  0.33681064334E+02  0.47000000000E+01 0.  1.
          5   -1    0    0  501    0  0.00000000000E+00 -0.00000000000E+00 -0.11180522615E+04  0.11180621403E+04  0.47000000000E+01 0.  1.
         25    2    1    2    0    0  0.45812076879E+02  0.85552377944E+02 -0.21060613890E+03  0.26343885787E+03  0.12500852105E+03 0.  0.
         25    2    1    2    0    0 -0.45812076879E+02 -0.85552377944E+02 -0.87409459949E+03  0.88830434672E+03  0.12500115112E+03 0.  0.
          5    1    3    3  502    0 -0.28295247518E+02  0.77970140820E+02 -0.10008649660E+03  0.13007444289E+03  0.47000000000E+01 0. -1.
         -5    1    3    3    0  502  0.74107324397E+02  0.75822371238E+01 -0.11051964229E+03  0.13336441498E+03  0.47000000000E+01 0. -1.
          5    1    4    4  503    0  0.40681337130E+02 -0.74639304033E+01 -0.23104585437E+03  0.23476575191E+03  0.47000000000E+01 0.  1.
         -5    1    4    4    0  503 -0.86493414009E+02 -0.78088447540E+02 -0.64304874512E+03  0.65353859481E+03  0.47000000000E+01 0.  1.
<mgrwt>
<rscale>  0 0.15825494E+03</rscale>
<asrwt>0</asrwt>
<pdfrwt beam="2">  1        5 0.17203412E+00 0.15825639E+03</pdfrwt>
<pdfrwt beam="1">  1       -5 0.51571136E-02 0.15825639E+03</pdfrwt>
<totfact> 0.35617825E+01</totfact>
</mgrwt>
</event>
<event>
 8    1  0.3588496E-007  0.1253077E+03  0.7546771E-02  0.1234591E+00
          5   -1    0    0  501    0  0.00000000000E+00  0.00000000000E+00  0.82294935369E+02  0.82429038496E+02  0.47000000000E+01 0. -1.
         -5   -1    0    0    0  501 -0.00000000000E+00 -0.00000000000E+00 -0.19286923233E+03  0.19292649061E+03  0.47000000000E+01 0. -1.
         25    2    1    2    0    0 -0.52637264323E+01  0.70065613704E+01 -0.70618947640E+02  0.14383191986E+03  0.12499514665E+03 0.  0.
         25    2    1    2    0    0  0.52637264323E+01 -0.70065613704E+01 -0.39955349318E+02  0.13152360924E+03  0.12500092452E+03 0.  0.
          5    1    4    4  502    0 -0.51816550273E+02 -0.33088909786E+02 -0.12760048611E+02  0.62966178807E+02  0.47000000000E+01 0. -1.
         -5    1    4    4    0  502  0.57080276705E+02  0.26082348415E+02 -0.27195300707E+02  0.68557430437E+02  0.47000000000E+01 0. -1.
          5    1    3    3  503    0  0.37979573579E+02  0.50763912245E+02 -0.34264341477E+02  0.72218819518E+02  0.47000000000E+01 0. -1.
         -5    1    3    3    0  503 -0.43243300011E+02 -0.43757350875E+02 -0.36354606163E+02  0.71613100343E+02  0.47000000000E+01 0. -1.
<mgrwt>
<rscale>  0 0.12530630E+03</rscale>
<asrwt>0</asrwt>
<pdfrwt beam="1">  1        5 0.12675479E-01 0.12530774E+03</pdfrwt>
<pdfrwt beam="2">  1       -5 0.29686910E-01 0.12530774E+03</pdfrwt>
<totfact> 0.40718023E+02</totfact>
</mgrwt>
</event>
<event>
 8    1  0.3588496E-007  0.1550926E+03  0.7546771E-02  0.1194351E+00
         -5   -1    0    0    0  501 -0.00000000000E+00  0.00000000000E+00  0.52174970382E+02  0.52386234206E+02  0.47000000000E+01 0.  1.
          5   -1    0    0  501    0  0.00000000000E+00 -0.00000000000E+00 -0.47772269760E+03  0.47774581715E+03  0.47000000000E+01 0.  1.
         25    2    1    2    0    0 -0.60174611998E+02 -0.69349181844E+02 -0.16153888461E+03  0.22393869571E+03  0.12499374082E+03 0.  0.
         25    2    1    2    0    0  0.60174611998E+02  0.69349181844E+02 -0.26400884262E+03  0.30619335565E+03  0.12499363629E+03 0.  0.
          5    1    3    3  502    0 -0.88337170203E+01  0.16293993329E+02 -0.10966036551E+03  0.11131493403E+03  0.47000000000E+01 0. -1.
         -5    1    3    3    0  502 -0.51340894977E+02 -0.85643175172E+02 -0.51878519100E+02  0.11262376168E+03  0.47000000000E+01 0. -1.
          5    1    4    4  503    0  0.56430552155E+01 -0.34648847450E+02 -0.84656168021E+02  0.91766788578E+02  0.47000000000E+01 0.  1.
         -5    1    4    4    0  503  0.54531556782E+02  0.10399802929E+03 -0.17935267459E+03  0.21442656707E+03  0.47000000000E+01 0.  1.
<mgrwt>
<rscale>  0 0.15509262E+03</rscale>
<asrwt>0</asrwt>
<pdfrwt beam="2">  1        5 0.73513826E-01 0.15509264E+03</pdfrwt>
<pdfrwt beam="1">  1       -5 0.80449483E-02 0.15509264E+03</pdfrwt>
<totfact> 0.14391575E+02</totfact>
</mgrwt>
</event>
<event>
 8    1  0.3588496E-007  0.1339874E+03  0.7546771E-02  0.1221661E+00
         -5   -1    0    0    0  501 -0.00000000000E+00  0.00000000000E+00  0.59389623833E+02  0.59575308804E+02  0.47000000000E+01 0. -1.
          5   -1    0    0  501    0  0.00000000000E+00 -0.00000000000E+00 -0.38182336873E+03  0.38185229462E+03  0.47000000000E+01 0. -1.
         25    2    1    2    0    0 -0.48156085250E+02 -0.25943517280E+01 -0.60070161715E+02  0.14683680136E+03  0.12500753056E+03 0.  0.
         25    2    1    2    0    0  0.48156085250E+02  0.25943517280E+01 -0.26236358318E+03  0.29459080207E+03  0.12499340653E+03 0.  0.
          5    1    4    4  502    0  0.74020400809E+02  0.35023687738E+02 -0.22139352429E+03  0.23609926098E+03  0.47000000000E+01 0. -1.
         -5    1    4    4    0  502 -0.25864315559E+02 -0.32429336010E+02 -0.40970058896E+02  0.58491541092E+02  0.47000000000E+01 0. -1.
          5    1    3    3  503    0 -0.16595156687E+02 -0.53721874453E+02 -0.65350897340E+02  0.86338107481E+02  0.47000000000E+01 0. -1.
         -5    1    3    3    0  503 -0.31560928563E+02  0.51127522725E+02  0.52807356252E+01  0.60498693875E+02  0.47000000000E+01 0. -1.
<mgrwt>
<rscale>  0 0.13398410E+03</rscale>
<asrwt>0</asrwt>
<pdfrwt beam="2">  1        5 0.58758564E-01 0.13398739E+03</pdfrwt>
<pdfrwt beam="1">  1       -5 0.91533740E-02 0.13398739E+03</pdfrwt>
<totfact> 0.18091696E+02</totfact>
</mgrwt>
</event>
<event>
 8    1  0.3588496E-007  0.1523088E+03  0.7546771E-02  0.1197666E+00
         -5   -1    0    0    0  501 -0.00000000000E+00  0.00000000000E+00  0.64718235964E+03  0.64719942570E+03  0.47000000000E+01 0.  1.
          5   -1    0    0  501    0  0.00000000000E+00 -0.00000000000E+00 -0.40005407367E+02  0.40280548886E+02  0.47000000000E+01 0.  1.
         25    2    1    2    0    0 -0.85597170948E+02 -0.15657018635E+02  0.41629717527E+03  0.44328469187E+03  0.12500384794E+03 0.  0.
         25    2    1    2    0    0  0.85597170948E+02  0.15657018635E+02  0.19087977700E+03  0.24419528272E+03  0.12499691567E+03 0.  0.
          5    1    3    3  502    0 -0.68090942913E+02 -0.63578401693E+02  0.32994811354E+03  0.34287962509E+03  0.47000000000E+01 0.  1.
         -5    1    3    3    0  502 -0.17506228035E+02  0.47921383057E+02  0.86349061729E+02  0.10040506678E+03  0.47000000000E+01 0.  1.
          5    1    4    4  503    0  0.10542753795E+03 -0.20034532597E+01  0.86736892613E+02  0.13661756155E+03  0.47000000000E+01 0. -1.
         -5    1    4    4    0  503 -0.19830367007E+02  0.17660471895E+02  0.10414288439E+03  0.10757772117E+03  0.47000000000E+01 0. -1.
<mgrwt>
<rscale>  0 0.15230741E+03</rscale>
<asrwt>0</asrwt>
<pdfrwt beam="2">  1        5 0.61771561E-02 0.15230883E+03</pdfrwt>
<pdfrwt beam="1">  1       -5 0.99588985E-01 0.15230883E+03</pdfrwt>
<totfact> 0.10982261E+02</totfact>
</mgrwt>
</event>
<event>
 8    1  0.3588496E-007  0.1542943E+03  0.7546771E-02  0.1195294E+00
         -5   -1    0    0    0  501 -0.00000000000E+00  0.00000000000E+00  0.31357857766E+03  0.31361379812E+03  0.47000000000E+01 0. -1.
          5   -1    0    0  501    0  0.00000000000E+00 -0.00000000000E+00 -0.76949268089E+02  0.77092670594E+02  0.47000000000E+01 0. -1.
         25    2    1    2    0    0 -0.11562990070E+02 -0.89711733267E+02  0.94535508698E+02  0.18095095149E+03  0.12499754643E+03 0.  0.
         25    2    1    2    0    0  0.11562990070E+02  0.89711733267E+02  0.14209380088E+03  0.20975551723E+03  0.12499932373E+03 0.  0.
          5    1    3    3  502    0  0.14277868061E+02  0.22887423272E+01 -0.24128959578E+02  0.28520037660E+02  0.47000000000E+01 0. -1.
         -5    1    3    3    0  502 -0.25840858131E+02 -0.92000475594E+02  0.11866446828E+03  0.15243091383E+03  0.47000000000E+01 0. -1.
          5    1    4    4  503    0  0.15330057136E+02 -0.28296113993E+02  0.51295718051E+02  0.60737314801E+02  0.47000000000E+01 0. -1.
         -5    1    4    4    0  503 -0.37670670664E+01  0.11800784726E+03  0.90798082826E+02  0.14901820243E+03  0.47000000000E+01 0. -1.
<mgrwt>
<rscale>  0 0.15429393E+03</rscale>
<asrwt>0</asrwt>
<pdfrwt beam="2">  1        5 0.11852089E-01 0.15429429E+03</pdfrwt>
<pdfrwt beam="1">  1       -5 0.48256597E-01 0.15429429E+03</pdfrwt>
<totfact> 0.18382156E+02</totfact>
</mgrwt>
</event>
<event>
 8    1  0.3588496E-007  0.1279431E+03  0.7546771E-02  0.1230544E+00
          5   -1    0    0  501    0  0.00000000000E+00  0.00000000000E+00  0.65885714458E+02  0.66053140498E+02  0.47000000000E+01 0. -1.
         -5   -1    0    0    0  501 -0.00000000000E+00 -0.00000000000E+00 -0.30808381833E+03  0.30811966687E+03  0.47000000000E+01 0. -1.
         25    2    1    2    0    0 -0.22652752234E+02  0.15143327357E+02 -0.20374582654E+03  0.24058635190E+03  0.12500785310E+03 0.  0.
         25    2    1    2    0    0  0.22652752234E+02 -0.15143327357E+02 -0.38452277326E+02  0.13358645548E+03  0.12499718360E+03 0.  0.
          5    1    3    3  502    0 -0.38383615778E+01 -0.54620350961E+02 -0.99352349300E+02  0.11353895838E+03  0.47000000000E+01 0.  1.
         -5    1    3    3    0  502 -0.18814390657E+02  0.69763678318E+02 -0.10439347724E+03  0.12704739352E+03  0.47000000000E+01 0.  1.
          5    1    4    4  503    0  0.52117476818E+02 -0.56200792543E+02 -0.28214061619E+02  0.81810046726E+02  0.47000000000E+01 0.  1.
         -5    1    4    4    0  503 -0.29464724583E+02  0.41057465186E+02 -0.10238215707E+02  0.51776408751E+02  0.47000000000E+01 0.  1.
<mgrwt>
<rscale>  0 0.12794047E+03</rscale>
<asrwt>0</asrwt>
<pdfrwt beam="1">  1        5 0.10151900E-01 0.12794308E+03</pdfrwt>
<pdfrwt beam="2">  1       -5 0.47413146E-01 0.12794308E+03</pdfrwt>
<totfact> 0.23518364E+02</totfact>
</mgrwt>
</event>
<event>
 8    1  0.3588496E-007  0.1874862E+03  0.7546771E-02  0.1160749E+00
         -5   -1    0    0    0  501 -0.00000000000E+00  0.00000000000E+00  0.57327208332E+02  0.57519551590E+02  0.47000000000E+01 0. -1.
          5   -1    0    0  501    0  0.00000000000E+00 -0.00000000000E+00 -0.63823873969E+03  0.63825604489E+03  0.47000000000E+01 0. -1.
         25    2    1    2    0    0  0.12829654736E+03  0.55365181152E+02 -0.36107040843E+03  0.40684446775E+03  0.12500109498E+03 0.  0.
         25    2    1    2    0    0 -0.12829654736E+03 -0.55365181152E+02 -0.21984112293E+03  0.28893112874E+03  0.12500308185E+03 0.  0.
          5    1    3    3  502    0  0.11652826077E+03  0.92059844057E+02 -0.28124174507E+03  0.31807681402E+03  0.47000000000E+01 0. -1.
         -5    1    3    3    0  502  0.11768286583E+02 -0.36694662905E+02 -0.79828663360E+02  0.88767653729E+02  0.47000000000E+01 0. -1.
          5    1    4    4  503    0 -0.69762809929E+02  0.35566551203E+02 -0.10564394826E+03  0.13158481302E+03  0.47000000000E+01 0. -1.
         -5    1    4    4    0  503 -0.58533737428E+02 -0.90931732355E+02 -0.11419717467E+03  0.15734631572E+03  0.47000000000E+01 0. -1.
<mgrwt>
<rscale>  0 0.18748588E+03</rscale>
<asrwt>0</asrwt>
<pdfrwt beam="2">  1        5 0.98206697E-01 0.18748621E+03</pdfrwt>
<pdfrwt beam="1">  1       -5 0.88356977E-02 0.18748621E+03</pdfrwt>
<totfact> 0.65409444E+01</totfact>
</mgrwt>
</event>
<event>
 8    1  0.3588496E-007  0.1810533E+03  0.7546771E-02  0.1166788E+00
          5   -1    0    0  501    0  0.00000000000E+00  0.00000000000E+00  0.27635375171E+03  0.27639371571E+03  0.47000000000E+01 0. -1.
         -5   -1    0    0    0  501 -0.00000000000E+00 -0.00000000000E+00 -0.11856859287E+03  0.11866170913E+03  0.47000000000E+01 0. -1.
         25    2    1    2    0    0 -0.23919689175E+02  0.12877105159E+03  0.74917507535E+02  0.19593898412E+03  0.12500126921E+03 0.  0.
         25    2    1    2    0    0  0.23919689175E+02 -0.12877105159E+03  0.82867651306E+02  0.19911644072E+03  0.12500469622E+03 0.  0.
          5    1    4    4  502    0  0.45546726756E+02 -0.10609846003E+03  0.57002210527E+01  0.11569775305E+03  0.47000000000E+01 0.  1.
         -5    1    4    4    0  502 -0.21627037581E+02 -0.22672591554E+02  0.77167430253E+02  0.83418687679E+02  0.47000000000E+01 0.  1.
          5    1    3    3  503    0 -0.29775949050E+02  0.13632542262E+03  0.97958215160E+02  0.17055535732E+03  0.47000000000E+01 0. -1.
         -5    1    3    3    0  503  0.58562598743E+01 -0.75543710327E+01 -0.23040707625E+02  0.25383626795E+02  0.47000000000E+01 0. -1.
<mgrwt>
<rscale>  0 0.18105274E+03</rscale>
<asrwt>0</asrwt>
<pdfrwt beam="1">  1        5 0.42526198E-01 0.18105333E+03</pdfrwt>
<pdfrwt beam="2">  1       -5 0.18251559E-01 0.18105333E+03</pdfrwt>
<totfact> 0.11492166E+02</totfact>
</mgrwt>
</event>
<event>
 8    1  0.3588496E-007  0.1390443E+03  0.7546771E-02  0.1214630E+00
         -5   -1    0    0    0  501 -0.00000000000E+00  0.00000000000E+00  0.16056994733E+03  0.16063871882E+03  0.47000000000E+01 0. -1.
          5   -1    0    0  501    0  0.00000000000E+00 -0.00000000000E+00 -0.12229926554E+03  0.12238954347E+03  0.47000000000E+01 0. -1.
         25    2    1    2    0    0 -0.49146388764E+02 -0.35888895084E+02  0.37485144122E+02  0.14400854051E+03  0.12501977200E+03 0.  0.
         25    2    1    2    0    0  0.49146388764E+02  0.35888895084E+02  0.78553767120E+00  0.13901972178E+03  0.12498994222E+03 0.  0.
          5    1    3    3  502    0 -0.48662615586E+02  0.39898410087E+02  0.17711891726E+02  0.65541852214E+02  0.47000000000E+01 0.  1.
         -5    1    3    3    0  502 -0.48377317770E+00 -0.75787305171E+02  0.19773252396E+02  0.78466688294E+02  0.47000000000E+01 0.  1.
          5    1    4    4  503    0  0.40694756322E+02  0.46093197545E+02 -0.54301613383E+02  0.82166911028E+02  0.47000000000E+01 0. -1.
         -5    1    4    4    0  503  0.84516324422E+01 -0.10204302461E+02  0.55087151054E+02  0.56852810756E+02  0.47000000000E+01 0. -1.
<mgrwt>
<rscale>  0 0.13903762E+03</rscale>
<asrwt>0</asrwt>
<pdfrwt beam="2">  1        5 0.18827506E-01 0.13904432E+03</pdfrwt>
<pdfrwt beam="1">  1       -5 0.24715303E-01 0.13904432E+03</pdfrwt>
<totfact> 0.29383026E+02</totfact>
</mgrwt>
</event>
<event>
 8    1  0.3588496E-007  0.1483227E+03  0.7546771E-02  0.1202551E+00
         -5   -1    0    0    0  501 -0.00000000000E+00  0.00000000000E+00  0.32349455651E+03  0.32352869748E+03  0.47000000000E+01 0.  1.
          5   -1    0    0  501    0  0.00000000000E+00 -0.00000000000E+00 -0.86389797775E+02  0.86517554055E+02  0.47000000000E+01 0.  1.
         25    2    1    2    0    0  0.54419274809E+02  0.58406388141E+02  0.21334152645E+03  0.25983207190E+03  0.12500134013E+03 0.  0.
         25    2    1    2    0    0 -0.54419274809E+02 -0.58406388141E+02  0.23763232288E+02  0.15021417964E+03  0.12500737942E+03 0.  0.
          5    1    4    4  502    0 -0.88653403355E+02 -0.62254259389E+02  0.34564820375E+02  0.11380613141E+03  0.47000000000E+01 0.  1.
         -5    1    4    4    0  502  0.34234128547E+02  0.38478712484E+01 -0.10801588087E+02  0.36408048227E+02  0.47000000000E+01 0.  1.
          5    1    3    3  503    0  0.34055481731E+02  0.94845762196E+02  0.11550719599E+03  0.15336067543E+03  0.47000000000E+01 0. -1.
         -5    1    3    3    0  503  0.20363793078E+02 -0.36439374055E+02  0.97834330460E+02  0.10647139647E+03  0.47000000000E+01 0. -1.
<mgrwt>
<rscale>  0 0.14832138E+03</rscale>
<asrwt>0</asrwt>
<pdfrwt beam="2">  1        5 0.13303192E-01 0.14832265E+03</pdfrwt>
<pdfrwt beam="1">  1       -5 0.49780847E-01 0.14832265E+03</pdfrwt>
<totfact> 0.13830196E+02</totfact>
</mgrwt>
</event>
<event>
 8    1  0.3588496E-007  0.1306907E+03  0.7546771E-02  0.1226437E+00
         -5   -1    0    0    0  501 -0.00000000000E+00  0.00000000000E+00  0.19190055656E+03  0.19195810378E+03  0.47000000000E+01 0. -1.
          5   -1    0    0  501    0  0.00000000000E+00 -0.00000000000E+00 -0.11611654481E+03  0.11621162583E+03  0.47000000000E+01 0. -1.
         25    2    1    2    0    0  0.36473779352E+01 -0.37950060215E+02  0.11248144411E+03  0.17242451934E+03  0.12499851665E+03 0.  0.
         25    2    1    2    0    0 -0.36473779352E+01  0.37950060215E+02 -0.36697432361E+02  0.13574521028E+03  0.12500620039E+03 0.  0.
          5    1    3    3  502    0 -0.33313735204E+02  0.31531513493E+01  0.11195680001E+03  0.11694512553E+03  0.47000000000E+01 0.  1.
         -5    1    3    3    0  502  0.36961113139E+02 -0.41103211564E+02  0.52464409265E+00  0.55479393803E+02  0.47000000000E+01 0.  1.
          5    1    4    4  503    0 -0.95906029763E+01 -0.15532047619E+02 -0.69862054840E+02  0.72360354305E+02  0.47000000000E+01 0.  1.
         -5    1    4    4    0  503  0.59432250412E+01  0.53482107833E+02  0.33164622479E+02  0.63384855970E+02  0.47000000000E+01 0.  1.
<mgrwt>
<rscale>  0 0.13068887E+03</rscale>
<asrwt>0</asrwt>
<pdfrwt beam="2">  1        5 0.17875824E-01 0.13069071E+03</pdfrwt>
<pdfrwt beam="1">  1       -5 0.29534903E-01 0.13069071E+03</pdfrwt>
<totfact> 0.22425787E+02</totfact>
</mgrwt>
</event>
<event>
 8    1  0.3588496E-007  0.1988138E+03  0.7546771E-02  0.1150744E+00
         -5   -1    0    0    0  501 -0.00000000000E+00  0.00000000000E+00  0.10286579707E+03  0.10297311400E+03  0.47000000000E+01 0. -1.
          5   -1    0    0  501    0  0.00000000000E+00 -0.00000000000E+00 -0.38786780440E+03  0.38789627956E+03  0.47000000000E+01 0. -1.
         25    2    1    2    0    0  0.14853563258E+03  0.42884593866E+02 -0.11778191633E+03  0.23108197457E+03  0.12499750645E+03 0.  0.
         25    2    1    2    0    0 -0.14853563258E+03 -0.42884593866E+02 -0.16722009100E+03  0.25978741899E+03  0.12500008677E+03 0.  0.
          5    1    4    4  502    0 -0.16196716623E+03 -0.43953877105E+02 -0.17583701334E+03  0.24311736160E+03  0.47000000000E+01 0.  1.
         -5    1    4    4    0  502  0.13431533648E+02  0.10692832383E+01  0.86169223392E+01  0.16670057390E+02  0.47000000000E+01 0.  1.
          5    1    3    3  503    0  0.14631776649E+03  0.45108489568E+02 -0.14038495153E+03  0.20778279342E+03  0.47000000000E+01 0. -1.
         -5    1    3    3    0  503  0.22178660921E+01 -0.22238957018E+01  0.22603035205E+02  0.23299181157E+02  0.47000000000E+01 0. -1.
<mgrwt>
<rscale>  0 0.19881344E+03</rscale>
<asrwt>0</asrwt>
<pdfrwt beam="2">  1        5 0.59682415E-01 0.19881384E+03</pdfrwt>
<pdfrwt beam="1">  1       -5 0.15835953E-01 0.19881384E+03</pdfrwt>
<totfact> 0.74318212E+01</totfact>
</mgrwt>
</event>
<event>
 8    1  0.3588496E-007  0.1334411E+03  0.7546771E-02  0.1222438E+00
          5   -1    0    0  501    0  0.00000000000E+00  0.00000000000E+00  0.33250972708E+02  0.33581500652E+02  0.47000000000E+01 0. -1.
         -5   -1    0    0    0  501 -0.00000000000E+00 -0.00000000000E+00 -0.54158546696E+03  0.54160586040E+03  0.47000000000E+01 0. -1.
         25    2    1    2    0    0  0.43512062706E+02  0.16971839533E+02 -0.29135381577E+03  0.32045782808E+03  0.12499932271E+03 0.  0.
         25    2    1    2    0    0 -0.43512062706E+02 -0.16971839533E+02 -0.21698067849E+03  0.25472953297E+03  0.12500070878E+03 0.  0.
          5    1    4    4  502    0  0.37676175515E+02  0.21246025878E+02 -0.74860478163E+02  0.86585616634E+02  0.47000000000E+01 0. -1.
         -5    1    4    4    0  502 -0.81188238222E+02 -0.38217865411E+02 -0.14212020032E+03  0.16814391634E+03  0.47000000000E+01 0. -1.
          5    1    3    3  503    0  0.27320213800E+02  0.11612197618E+02 -0.29948342767E+03  0.30098779156E+03  0.47000000000E+01 0.  1.
         -5    1    3    3    0  503  0.16191848906E+02  0.53596419143E+01  0.81296119079E+01  0.19470036523E+02  0.47000000000E+01 0.  1.
<mgrwt>
<rscale>  0 0.13344075E+03</rscale>
<asrwt>0</asrwt>
<pdfrwt beam="1">  1        5 0.51425286E-02 0.13344107E+03</pdfrwt>
<pdfrwt beam="2">  1       -5 0.83347829E-01 0.13344107E+03</pdfrwt>
<totfact> 0.21852633E+02</totfact>
</mgrwt>
</event>
<event>
 8    1  0.3588496E-007  0.1402253E+03  0.7546771E-02  0.1213027E+00
         -5   -1    0    0    0  501 -0.00000000000E+00  0.00000000000E+00  0.79627163180E+02  0.79765751523E+02  0.47000000000E+01 0.  1.
          5   -1    0    0  501    0  0.00000000000E+00 -0.00000000000E+00 -0.24715107740E+03  0.24719576262E+03  0.47000000000E+01 0.  1.
         25    2    1    2    0    0 -0.62823200362E+02  0.95622508523E+01 -0.91767904716E+02  0.16758116016E+03  0.12499562296E+03 0.  0.
         25    2    1    2    0    0  0.62823200362E+02 -0.95622508523E+01 -0.75756009500E+02  0.15938035399E+03  0.12499973247E+03 0.  0.
          5    1    4    4  502    0 -0.19445718182E+02  0.25951822066E+02 -0.59875919927E+02  0.68255760279E+02  0.47000000000E+01 0. -1.
         -5    1    4    4    0  502  0.82268918545E+02 -0.35514072918E+02 -0.15880089573E+02  0.91124593709E+02  0.47000000000E+01 0. -1.
          5    1    3    3  503    0 -0.29717195109E+02  0.40473949050E+02  0.14074387849E+02  0.52358672922E+02  0.47000000000E+01 0. -1.
         -5    1    3    3    0  503 -0.33106005253E+02 -0.30911698198E+02 -0.10584229256E+03  0.11522248723E+03  0.47000000000E+01 0. -1.
<mgrwt>
<rscale>  0 0.14022435E+03</rscale>
<asrwt>0</asrwt>
<pdfrwt beam="2">  1        5 0.38037340E-01 0.14022526E+03</pdfrwt>
<pdfrwt beam="1">  1       -5 0.12264431E-01 0.14022526E+03</pdfrwt>
<totfact> 0.27426077E+02</totfact>
</mgrwt>
</event>
<event>
 8    1  0.3588496E-007  0.1250983E+03  0.7546771E-02  0.1234918E+00
         -5   -1    0    0    0  501 -0.00000000000E+00  0.00000000000E+00  0.24958506442E+03  0.24962931395E+03  0.47000000000E+01 0. -1.
          5   -1    0    0  501    0  0.00000000000E+00 -0.00000000000E+00 -0.63076497900E+02  0.63251360360E+02  0.47000000000E+01 0. -1.
         25    2    1    2    0    0  0.15295698967E+01  0.45693755096E+01  0.10736408520E+03  0.16485332936E+03  0.12500541842E+03 0.  0.
         25    2    1    2    0    0 -0.15295698967E+01 -0.45693755096E+01  0.79144481325E+02  0.14802734495E+03  0.12500010860E+03 0.  0.
          5    1    4    4  502    0  0.44549612145E+02  0.77233999104E+01  0.88230028654E+02  0.99251936025E+02  0.47000000000E+01 0.  1.
         -5    1    4    4    0  502 -0.46079182041E+02 -0.12292775420E+02 -0.90855473287E+01  0.48775408921E+02  0.47000000000E+01 0.  1.
          5    1    3    3  503    0 -0.28227994186E+02 -0.36773091755E+02  0.10355704383E+03  0.11355717177E+03  0.47000000000E+01 0. -1.
         -5    1    3    3    0  503  0.29757564083E+02  0.41342467265E+02  0.38070413618E+01  0.51296157591E+02  0.47000000000E+01 0. -1.
<mgrwt>
<rscale>  0 0.12509693E+03</rscale>
<asrwt>0</asrwt>
<pdfrwt beam="2">  1        5 0.97209315E-02 0.12509826E+03</pdfrwt>
<pdfrwt beam="1">  1       -5 0.38414557E-01 0.12509826E+03</pdfrwt>
<totfact> 0.38832098E+02</totfact>
</mgrwt>
</event>
<event>
 8    1  0.3588496E-007  0.1609510E+03  0.7546771E-02  0.1187628E+00
          5   -1    0    0  501    0  0.00000000000E+00  0.00000000000E+00  0.21260794274E+02  0.21774098676E+02  0.47000000000E+01 0.  1.
         -5   -1    0    0    0  501 -0.00000000000E+00 -0.00000000000E+00 -0.12492358758E+04  0.12492447171E+04  0.47000000000E+01 0.  1.
         25    2    1    2    0    0 -0.41468982569E+02 -0.92522731051E+02 -0.73570852009E+03  0.75310839554E+03  0.12500038652E+03 0.  0.
         25    2    1    2    0    0  0.41468982569E+02  0.92522731051E+02 -0.49226656139E+03  0.51791042026E+03  0.12499881469E+03 0.  0.
          5    1    4    4  502    0 -0.43817122969E+02  0.45237276128E+02 -0.20491935367E+03  0.21443036848E+03  0.47000000000E+01 0. -1.
         -5    1    4    4    0  502  0.85286105539E+02  0.47285454923E+02 -0.28734720772E+03  0.30348005178E+03  0.47000000000E+01 0. -1.
          5    1    3    3  503    0 -0.79866923119E+02 -0.37625843975E+02 -0.51052279091E+03  0.51812164555E+03  0.47000000000E+01 0. -1.
         -5    1    3    3    0  503  0.38397940550E+02 -0.54896887076E+02 -0.22518572918E+03  0.23498675000E+03  0.47000000000E+01 0. -1.
<mgrwt>
<rscale>  0 0.16095071E+03</rscale>
<asrwt>0</asrwt>
<pdfrwt beam="1">  1        5 0.33110575E-02 0.16095101E+03</pdfrwt>
<pdfrwt beam="2">  1       -5 0.19223024E+00 0.16095101E+03</pdfrwt>
<totfact> 0.53354835E+01</totfact>
</mgrwt>
</event>
<event>
 8    1  0.3588496E-007  0.1414514E+03  0.7546771E-02  0.1211393E+00
         -5   -1    0    0    0  501 -0.00000000000E+00  0.00000000000E+00  0.42642946815E+02  0.42901176127E+02  0.47000000000E+01 0.  1.
          5   -1    0    0  501    0  0.00000000000E+00 -0.00000000000E+00 -0.61837582231E+03  0.61839368336E+03  0.47000000000E+01 0.  1.
         25    2    1    2    0    0  0.56122428276E+01 -0.65971621615E+02 -0.12457988496E+03  0.18849040721E+03  0.12499893499E+03 0.  0.
         25    2    1    2    0    0 -0.56122428276E+01  0.65971621615E+02 -0.45115299054E+03  0.47280445227E+03  0.12498510747E+03 0.  0.
          5    1    4    4  502    0 -0.42412691326E+02  0.86926604096E+02 -0.34738411611E+03  0.36062845840E+03  0.47000000000E+01 0. -1.
         -5    1    4    4    0  502  0.36800448498E+02 -0.20954982481E+02 -0.10376887443E+03  0.11217599387E+03  0.47000000000E+01 0. -1.
          5    1    3    3  503    0 -0.54707824059E+02 -0.11865551543E+02 -0.73797367529E+02  0.92746314110E+02  0.47000000000E+01 0.  1.
         -5    1    3    3    0  503  0.60320066887E+02 -0.54106070072E+02 -0.50782517428E+02  0.95744093103E+02  0.47000000000E+01 0.  1.
<mgrwt>
<rscale>  0 0.14144830E+03</rscale>
<asrwt>0</asrwt>
<pdfrwt beam="2">  1        5 0.95155973E-01 0.14145136E+03</pdfrwt>
<pdfrwt beam="1">  1       -5 0.65816916E-02 0.14145136E+03</pdfrwt>
<totfact> 0.10761317E+02</totfact>
</mgrwt>
</event>
<event>
 8    1  0.3588496E-007  0.1352320E+03  0.7546771E-02  0.1219895E+00
          5   -1    0    0  501    0  0.00000000000E+00  0.00000000000E+00  0.56234169648E+03  0.56236133722E+03  0.47000000000E+01 0.  1.
         -5   -1    0    0    0  501 -0.00000000000E+00 -0.00000000000E+00 -0.32727197494E+02  0.33062961994E+02  0.47000000000E+01 0.  1.
         25    2    1    2    0    0  0.35769486080E+02  0.37212585665E+02  0.23214122253E+03  0.26865518070E+03  0.12498730436E+03 0.  0.
         25    2    1    2    0    0 -0.35769486080E+02 -0.37212585665E+02  0.29747327645E+03  0.32676911851E+03  0.12499389563E+03 0.  0.
          5    1    4    4  502    0 -0.64890979531E+02  0.10088807445E+02  0.23004555580E+03  0.23928157263E+03  0.47000000000E+01 0. -1.
         -5    1    4    4    0  502  0.29121493451E+02 -0.47301393110E+02  0.67427720653E+02  0.87487545876E+02  0.47000000000E+01 0. -1.
          5    1    3    3  503    0 -0.39734962087E+02  0.42192141633E+02  0.82880812476E+02  0.10124407688E+03  0.47000000000E+01 0.  1.
         -5    1    3    3    0  503  0.75504448166E+02 -0.49795559686E+01  0.14926041005E+03  0.16741110381E+03  0.47000000000E+01 0.  1.
<mgrwt>
<rscale>  0 0.13523052E+03</rscale>
<asrwt>0</asrwt>
<pdfrwt beam="1">  1        5 0.86541437E-01 0.13523205E+03</pdfrwt>
<pdfrwt beam="2">  1       -5 0.50622928E-02 0.13523205E+03</pdfrwt>
<totfact> 0.20633065E+02</totfact>
</mgrwt>
</event>
<event>
 8    1  0.3588496E-007  0.1389667E+03  0.7546771E-02  0.1214727E+00
         -5   -1    0    0    0  501 -0.00000000000E+00  0.00000000000E+00  0.22082680900E+03  0.22087681991E+03  0.47000000000E+01 0.  1.
          5   -1    0    0  501    0  0.00000000000E+00 -0.00000000000E+00 -0.96198303861E+02  0.96313050340E+02  0.47000000000E+01 0.  1.
         25    2    1    2    0    0 -0.57111897414E+02 -0.20617961763E+02  0.11043542144E+03  0.17750414810E+03  0.12499948444E+03 0.  0.
         25    2    1    2    0    0  0.57111897414E+02  0.20617961763E+02  0.14193083706E+02  0.13968572215E+03  0.12499515261E+03 0.  0.
          5    1    3    3  502    0 -0.42102808728E+02 -0.69739161312E+02  0.41894735541E+02  0.91724892965E+02  0.47000000000E+01 0. -1.
         -5    1    3    3    0  502 -0.15009088687E+02  0.49121199549E+02  0.68540685894E+02  0.85779255133E+02  0.47000000000E+01 0. -1.
          5    1    4    4  503    0  0.53377292844E+01  0.60652918398E+02 -0.21804072340E+02  0.64844239795E+02  0.47000000000E+01 0. -1.
         -5    1    4    4    0  503  0.51774168130E+02 -0.40034956634E+02  0.35997156046E+02  0.74841482359E+02  0.47000000000E+01 0. -1.
<mgrwt>
<rscale>  0 0.13896571E+03</rscale>
<asrwt>0</asrwt>
<pdfrwt beam="2">  1        5 0.14812413E-01 0.13896669E+03</pdfrwt>
<pdfrwt beam="1">  1       -5 0.33986028E-01 0.13896669E+03</pdfrwt>
<totfact> 0.24455272E+02</totfact>
</mgrwt>
</event>
<event>
 8    1  0.3588496E-007  0.1314686E+03  0.7546771E-02  0.1225299E+00
         -5   -1    0    0    0  501 -0.00000000000E+00  0.00000000000E+00  0.47306655576E+02  0.47539558914E+02  0.47000000000E+01 0.  1.
          5   -1    0    0  501    0  0.00000000000E+00 -0.00000000000E+00 -0.39195608049E+03  0.39198425866E+03  0.47000000000E+01 0.  1.
         25    2    1    2    0    0 -0.38040644002E+02  0.14531114425E+02 -0.11384303160E+03  0.17390866388E+03  0.12500297455E+03 0.  0.
         25    2    1    2    0    0  0.38040644002E+02 -0.14531114425E+02 -0.23080639332E+03  0.26561515369E+03  0.12498629842E+03 0.  0.
          5    1    3    3  502    0 -0.49233590530E+02  0.39493010117E+02 -0.12796812657E+03  0.14276405605E+03  0.47000000000E+01 0.  1.
         -5    1    3    3    0  502  0.11192946528E+02 -0.24961895692E+02  0.14125094969E+02  0.31144607822E+02  0.47000000000E+01 0.  1.
          5    1    4    4  503    0  0.83622126984E+02 -0.88807525617E+01 -0.16464411616E+03  0.18493594262E+03  0.47000000000E+01 0.  1.
         -5    1    4    4    0  503 -0.45581482983E+02 -0.56503618635E+01 -0.66162277158E+02  0.80679211070E+02  0.47000000000E+01 0.  1.
<mgrwt>
<rscale>  0 0.13146462E+03</rscale>
<asrwt>0</asrwt>
<pdfrwt beam="2">  1        5 0.60321017E-01 0.13146858E+03</pdfrwt>
<pdfrwt beam="1">  1       -5 0.72980305E-02 0.13146858E+03</pdfrwt>
<totfact> 0.25037944E+02</totfact>
</mgrwt>
</event>
<event>
 8    1  0.3588496E-007  0.1303272E+03  0.7546771E-02  0.1226979E+00
         -5   -1    0    0    0  501 -0.00000000000E+00  0.00000000000E+00  0.14199398037E+03  0.14207174406E+03  0.47000000000E+01 0.  1.
          5   -1    0    0  501    0  0.00000000000E+00 -0.00000000000E+00 -0.12363203833E+03  0.12372134376E+03  0.47000000000E+01 0.  1.
         25    2    1    2    0    0  0.33136715702E+02 -0.16033309706E+02  0.33626072661E+02  0.13459532642E+03  0.12502031908E+03 0.  0.
         25    2    1    2    0    0 -0.33136715702E+02  0.16033309706E+02 -0.15264130624E+02  0.13119776141E+03  0.12499899987E+03 0.  0.
          5    1    4    4  502    0 -0.31662165689E+00  0.39916900244E+02 -0.58970228518E+02  0.71365517065E+02  0.47000000000E+01 0.  1.
         -5    1    4    4    0  502 -0.32820094045E+02 -0.23883590538E+02  0.43706097894E+02  0.59832244344E+02  0.47000000000E+01 0.  1.
          5    1    3    3  503    0  0.68781771332E+02  0.23436143279E+02  0.26390818196E+01  0.72864529314E+02  0.47000000000E+01 0.  1.
         -5    1    3    3    0  503 -0.35645055630E+02 -0.39469452985E+02  0.30986990841E+02  0.61730797105E+02  0.47000000000E+01 0.  1.
<mgrwt>
<rscale>  0 0.13032213E+03</rscale>
<asrwt>0</asrwt>
<pdfrwt beam="2">  1        5 0.19033165E-01 0.13032724E+03</pdfrwt>
<pdfrwt beam="1">  1       -5 0.21858079E-01 0.13032724E+03</pdfrwt>
<totfact> 0.35545940E+02</totfact>
</mgrwt>
</event>
<event>
 8    1  0.3588496E-007  0.1605921E+03  0.7546771E-02  0.1188030E+00
          5   -1    0    0  501    0  0.00000000000E+00  0.00000000000E+00  0.24458701683E+02  0.24906185738E+02  0.47000000000E+01 0.  1.
         -5   -1    0    0    0  501 -0.00000000000E+00 -0.00000000000E+00 -0.10451569523E+04  0.10451675201E+04  0.47000000000E+01 0.  1.
         25    2    1    2    0    0 -0.57047833387E+02  0.83125626886E+02 -0.52464704403E+03  0.54867497338E+03  0.12500152185E+03 0.  0.
         25    2    1    2    0    0  0.57047833387E+02 -0.83125626886E+02 -0.49605120661E+03  0.52139873242E+03  0.12500205378E+03 0.  0.
          5    1    3    3  502    0 -0.56118200844E+02  0.11445024524E+03 -0.38914505278E+03  0.40951687780E+03  0.47000000000E+01 0. -1.
         -5    1    3    3    0  502 -0.92963254331E+00 -0.31324618358E+02 -0.13550199125E+03  0.13915809558E+03  0.47000000000E+01 0. -1.
          5    1    4    4  503    0 -0.34177678995E+02 -0.62517082006E-01 -0.73770599841E+02  0.81438989746E+02  0.47000000000E+01 0.  1.
         -5    1    4    4    0  503  0.91225512382E+02 -0.83063109804E+02 -0.42228060677E+03  0.43995974268E+03  0.47000000000E+01 0.  1.
<mgrwt>
<rscale>  0 0.16059205E+03</rscale>
<asrwt>0</asrwt>
<pdfrwt beam="1">  1        5 0.37981127E-02 0.16059215E+03</pdfrwt>
<pdfrwt beam="2">  1       -5 0.16082858E+00 0.16059215E+03</pdfrwt>
<totfact> 0.71878636E+01</totfact>
</mgrwt>
</event>
<event>
 8    1  0.3588496E-007  0.1323855E+03  0.7546771E-02  0.1223967E+00
          5   -1    0    0  501    0  0.00000000000E+00  0.00000000000E+00  0.26246956668E+03  0.26251164438E+03  0.47000000000E+01 0. -1.
         -5   -1    0    0    0  501 -0.00000000000E+00 -0.00000000000E+00 -0.68642078241E+02  0.68802797220E+02  0.47000000000E+01 0. -1.
         25    2    1    2    0    0 -0.42467606956E+02 -0.98975669180E+01  0.68613340972E+02  0.14910974318E+03  0.12499786191E+03 0.  0.
         25    2    1    2    0    0  0.42467606956E+02  0.98975669180E+01  0.12521414747E+03  0.18220469842E+03  0.12497403701E+03 0.  0.
          5    1    4    4  502    0 -0.25972808597E+02  0.47302861556E+02  0.48628519443E+02  0.72794027234E+02  0.47000000000E+01 0.  1.
         -5    1    4    4    0  502  0.68440415553E+02 -0.37405294638E+02  0.76585628028E+02  0.10941067118E+03  0.47000000000E+01 0.  1.
          5    1    3    3  503    0  0.35585910415E+02  0.13861147083E+02 -0.53951747914E+01  0.38854682209E+02  0.47000000000E+01 0.  1.
         -5    1    3    3    0  503 -0.78053517372E+02 -0.23758714001E+02  0.74008515764E+02  0.11025506098E+03  0.47000000000E+01 0.  1.
<mgrwt>
<rscale>  0 0.13237989E+03</rscale>
<asrwt>0</asrwt>
<pdfrwt beam="1">  1        5 0.40395533E-01 0.13238552E+03</pdfrwt>
<pdfrwt beam="2">  1       -5 0.10575919E-01 0.13238552E+03</pdfrwt>
<totfact> 0.30891237E+02</totfact>
</mgrwt>
</event>
<event>
 8    1  0.3588496E-007  0.1354193E+03  0.7546771E-02  0.1219629E+00
          5   -1    0    0  501    0  0.00000000000E+00  0.00000000000E+00  0.16711972811E+02  0.17360300552E+02  0.47000000000E+01 0. -1.
         -5   -1    0    0    0  501 -0.00000000000E+00 -0.00000000000E+00 -0.10882023418E+04  0.10882124916E+04  0.47000000000E+01 0. -1.
         25    2    1    2    0    0  0.46238085517E+02  0.23987501528E+02 -0.59479327837E+03  0.61001401419E+03  0.12499877091E+03 0.  0.
         25    2    1    2    0    0 -0.46238085517E+02 -0.23987501528E+02 -0.47669709067E+03  0.49555877793E+03  0.12500010141E+03 0.  0.
          5    1    4    4  502    0  0.42398477559E+02 -0.13779845841E+02 -0.12906134603E+03  0.13662516638E+03  0.47000000000E+01 0. -1.
         -5    1    4    4    0  502 -0.88636563077E+02 -0.10207655687E+02 -0.34763574464E+03  0.35893361155E+03  0.47000000000E+01 0. -1.
          5    1    3    3  503    0  0.59987120035E+02 -0.20285942253E+02 -0.50377843754E+03  0.50776449083E+03  0.47000000000E+01 0.  1.
         -5    1    3    3    0  503 -0.13749034517E+02  0.44273443782E+02 -0.91014840833E+02  0.10224952335E+03  0.47000000000E+01 0.  1.
<mgrwt>
<rscale>  0 0.13541899E+03</rscale>
<asrwt>0</asrwt>
<pdfrwt beam="1">  1        5 0.26217257E-02 0.13541930E+03</pdfrwt>
<pdfrwt beam="2">  1       -5 0.16746634E+00 0.13541930E+03</pdfrwt>
<totfact> 0.11111799E+02</totfact>
</mgrwt>
</event>
<event>
 8    1  0.3588496E-007  0.1347291E+03  0.7546771E-02  0.1220612E+00
          5   -1    0    0  501    0  0.00000000000E+00  0.00000000000E+00  0.46166494797E+02  0.46405120858E+02  0.47000000000E+01 0.  1.
         -5   -1    0    0    0  501 -0.00000000000E+00 -0.00000000000E+00 -0.40237062473E+03  0.40239807361E+03  0.47000000000E+01 0.  1.
         25    2    1    2    0    0  0.37962634515E+02 -0.32950665245E+02 -0.21441186606E+03  0.25322791076E+03  0.12500007408E+03 0.  0.
         25    2    1    2    0    0 -0.37962634515E+02  0.32950665245E+02 -0.14179226387E+03  0.19557528371E+03  0.12497094680E+03 0.  0.
          5    1    4    4  502    0 -0.50369354771E+02  0.69714811925E+02 -0.60147220461E+02  0.10505715126E+03  0.47000000000E+01 0. -1.
         -5    1    4    4    0  502  0.12406720257E+02 -0.36764146681E+02 -0.81645043407E+02  0.90518132447E+02  0.47000000000E+01 0. -1.
          5    1    3    3  503    0  0.66872690936E+02  0.20731021399E+02 -0.85970478833E+02  0.11097182197E+03  0.47000000000E+01 0.  1.
         -5    1    3    3    0  503 -0.28910056421E+02 -0.53681686644E+02 -0.12844138723E+03  0.14225608879E+03  0.47000000000E+01 0.  1.
<mgrwt>
<rscale>  0 0.13472233E+03</rscale>
<asrwt>0</asrwt>
<pdfrwt beam="1">  1        5 0.71230052E-02 0.13472909E+03</pdfrwt>
<pdfrwt beam="2">  1       -5 0.61923638E-01 0.13472909E+03</pdfrwt>
<totfact> 0.24843757E+02</totfact>
</mgrwt>
</event>
<event>
 8    1  0.3588496E-007  0.1512573E+03  0.7546771E-02  0.1198940E+00
          5   -1    0    0  501    0  0.00000000000E+00  0.00000000000E+00  0.11282547544E+04  0.11282645438E+04  0.47000000000E+01 0.  1.
         -5   -1    0    0    0  501 -0.00000000000E+00 -0.00000000000E+00 -0.20706367132E+02  0.21233078906E+02  0.47000000000E+01 0.  1.
         25    2    1    2    0    0 -0.55077283648E+01  0.84976824771E+02  0.44852767868E+03  0.47334152671E+03  0.12499490606E+03 0.  0.
         25    2    1    2    0    0  0.55077283648E+01 -0.84976824771E+02  0.65902070858E+03  0.67615609601E+03  0.12500950368E+03 0.  0.
          5    1    4    4  502    0  0.59269632576E+02 -0.48979256098E+02  0.47103103505E+03  0.47728836446E+03  0.47000000000E+01 0.  1.
         -5    1    4    4    0  502 -0.53761904211E+02 -0.35997568673E+02  0.18798967354E+03  0.19886773155E+03  0.47000000000E+01 0.  1.
          5    1    3    3  503    0  0.46437081808E+02  0.85095166569E+02  0.32687435464E+03  0.34097877304E+03  0.47000000000E+01 0. -1.
         -5    1    3    3    0  503 -0.51944810172E+02 -0.11834179865E+00  0.12165332404E+03  0.13236275367E+03  0.47000000000E+01 0. -1.
<mgrwt>
<rscale>  0 0.15125429E+03</rscale>
<asrwt>0</asrwt>
<pdfrwt beam="1">  1        5 0.17361898E+00 0.15125730E+03</pdfrwt>
<pdfrwt beam="2">  1       -5 0.32268631E-02 0.15125730E+03</pdfrwt>
<totfact> 0.74054751E+01</totfact>
</mgrwt>
</event>
<event>
 8    1  0.3588496E-007  0.1430824E+03  0.7546771E-02  0.1209248E+00
          5   -1    0    0  501    0  0.00000000000E+00  0.00000000000E+00  0.76014999999E+03  0.76016452988E+03  0.47000000000E+01 0. -1.
         -5   -1    0    0    0  501 -0.00000000000E+00 -0.00000000000E+00 -0.26709978834E+02  0.27120342352E+02  0.47000000000E+01 0. -1.
         25    2    1    2    0    0 -0.14413978214E+02  0.68071586883E+02  0.36345575236E+03  0.39059743530E+03  0.12499907532E+03 0.  0.
         25    2    1    2    0    0  0.14413978214E+02 -0.68071586883E+02  0.36998426879E+03  0.39668743693E+03  0.12502423666E+03 0.  0.
          5    1    3    3  502    0  0.42596118757E+01 -0.21295192113E+02  0.21574324868E+03  0.21688445968E+03  0.47000000000E+01 0. -1.
         -5    1    3    3    0  502 -0.18673590090E+02  0.89366778996E+02  0.14771250369E+03  0.17371297562E+03  0.47000000000E+01 0. -1.
          5    1    4    4  503    0  0.66522610610E+02 -0.14767665573E+02  0.16980498392E+03  0.18302776902E+03  0.47000000000E+01 0.  1.
         -5    1    4    4    0  503 -0.52108632396E+02 -0.53303921310E+02  0.20017928487E+03  0.21365966790E+03  0.47000000000E+01 0.  1.
<mgrwt>
<rscale>  0 0.14307687E+03</rscale>
<asrwt>0</asrwt>
<pdfrwt beam="1">  1        5 0.11697884E+00 0.14308237E+03</pdfrwt>
<pdfrwt beam="2">  1       -5 0.41419114E-02 0.14308237E+03</pdfrwt>
<totfact> 0.14047612E+02</totfact>
</mgrwt>
</event>
<event>
 8    1  0.3588496E-007  0.1361646E+03  0.7546771E-02  0.1218586E+00
          5   -1    0    0  501    0  0.00000000000E+00  0.00000000000E+00  0.85735526419E+03  0.85736814673E+03  0.47000000000E+01 0. -1.
         -5   -1    0    0    0  501 -0.00000000000E+00 -0.00000000000E+00 -0.21454750455E+02  0.21963522420E+02  0.47000000000E+01 0. -1.
         25    2    1    2    0    0 -0.29950734834E+02 -0.44926670940E+02  0.38853340754E+03  0.41170133903E+03  0.12499732601E+03 0.  0.
         25    2    1    2    0    0  0.29950734834E+02  0.44926670940E+02  0.44736710620E+03  0.46763033012E+03  0.12500138265E+03 0.  0.
          5    1    3    3  502    0 -0.39246685143E+02  0.36630806041E+02  0.14839721919E+03  0.15787952024E+03  0.47000000000E+01 0. -1.
         -5    1    3    3    0  502  0.92959503097E+01 -0.81557476981E+02  0.24013618835E+03  0.25382181880E+03  0.47000000000E+01 0. -1.
          5    1    4    4  503    0  0.36850210166E+02 -0.36747769503E+02  0.13822128198E+03  0.14776856684E+03  0.47000000000E+01 0. -1.
         -5    1    4    4    0  503 -0.68994753325E+01  0.81674440442E+02  0.30914582422E+03  0.31986176329E+03  0.47000000000E+01 0. -1.
<mgrwt>
<rscale>  0 0.13616367E+03</rscale>
<asrwt>0</asrwt>
<pdfrwt beam="1">  1        5 0.13194091E+00 0.13616460E+03</pdfrwt>
<pdfrwt beam="2">  1       -5 0.33408588E-02 0.13616460E+03</pdfrwt>
<totfact> 0.14411749E+02</totfact>
</mgrwt>
</event>
<event>
 8    1  0.3588496E-007  0.1256504E+03  0.7546771E-02  0.1234058E+00
         -5   -1    0    0    0  501 -0.00000000000E+00  0.00000000000E+00  0.57668871699E+03  0.57670786912E+03  0.47000000000E+01 0. -1.
          5   -1    0    0  501    0  0.00000000000E+00 -0.00000000000E+00 -0.29061172741E+02  0.29438779884E+02  0.47000000000E+01 0. -1.
         25    2    1    2    0    0 -0.11714039301E+02  0.49866769465E+01  0.35089929992E+03  0.37271750381E+03  0.12500373312E+03 0.  0.
         25    2    1    2    0    0  0.11714039301E+02 -0.49866769465E+01  0.19672824433E+03  0.23342914520E+03  0.12500031219E+03 0.  0.
          5    1    4    4  502    0  0.59843085887E+02 -0.34241110024E+02  0.11038909018E+03  0.13023628441E+03  0.47000000000E+01 0. -1.
         -5    1    4    4    0  502 -0.48129046587E+02  0.29254433077E+02  0.86339154147E+02  0.10319286079E+03  0.47000000000E+01 0. -1.
          5    1    3    3  503    0 -0.63694992599E+01 -0.21231435307E+02  0.34392364392E+03  0.34466927222E+03  0.47000000000E+01 0. -1.
         -5    1    3    3    0  503 -0.53445400408E+01  0.26218112253E+02  0.69756559999E+01  0.28048231584E+02  0.47000000000E+01 0. -1.
<mgrwt>
<rscale>  0 0.12564953E+03</rscale>
<asrwt>0</asrwt>
<pdfrwt beam="2">  1        5 0.45014697E-02 0.12565038E+03</pdfrwt>
<pdfrwt beam="1">  1       -5 0.88751858E-01 0.12565038E+03</pdfrwt>
<totfact> 0.23015931E+02</totfact>
</mgrwt>
</event>
<event>
 8    1  0.3588496E-007  0.1345162E+03  0.7546771E-02  0.1220905E+00
         -5   -1    0    0    0  501 -0.00000000000E+00  0.00000000000E+00  0.41411833797E+03  0.41414500824E+03  0.47000000000E+01 0.  1.
          5   -1    0    0  501    0  0.00000000000E+00 -0.00000000000E+00 -0.44997157901E+02  0.45241951982E+02  0.47000000000E+01 0.  1.
         25    2    1    2    0    0 -0.49061989155E+02  0.78424238148E+01  0.22578529681E+03  0.26281688564E+03  0.12500053093E+03 0.  0.
         25    2    1    2    0    0  0.49061989155E+02 -0.78424238148E+01  0.14333588327E+03  0.19657007458E+03  0.12500414551E+03 0.  0.
          5    1    3    3  502    0 -0.51707906413E+02 -0.33435877566E+02  0.42753602126E+02  0.75110758144E+02  0.47000000000E+01 0.  1.
         -5    1    3    3    0  502  0.26459172587E+01  0.41278301380E+02  0.18303169468E+03  0.18770612750E+03  0.47000000000E+01 0.  1.
          5    1    4    4  503    0  0.49226464322E+02 -0.51894879423E+02  0.35506983352E+02  0.79994744620E+02  0.47000000000E+01 0. -1.
         -5    1    4    4    0  503 -0.16447516744E+00  0.44052455609E+02  0.10782889992E+03  0.11657532996E+03  0.47000000000E+01 0. -1.
<mgrwt>
<rscale>  0 0.13451540E+03</rscale>
<asrwt>0</asrwt>
<pdfrwt beam="2">  1        5 0.69435218E-02 0.13451624E+03</pdfrwt>
<pdfrwt beam="1">  1       -5 0.63731393E-01 0.13451624E+03</pdfrwt>
<totfact> 0.24335399E+02</totfact>
</mgrwt>
</event>
<event>
 8    1  0.3588496E-007  0.2452522E+03  0.7546771E-02  0.1116343E+00
          5   -1    0    0  501    0  0.00000000000E+00  0.00000000000E+00  0.17048137776E+03  0.17054615259E+03  0.47000000000E+01 0.  1.
         -5   -1    0    0    0  501 -0.00000000000E+00 -0.00000000000E+00 -0.35270808152E+03  0.35273939498E+03  0.47000000000E+01 0.  1.
         25    2    1    2    0    0  0.15782146241E+03  0.14005528885E+03 -0.93881440047E+02  0.26260688277E+03  0.12500220862E+03 0.  0.
         25    2    1    2    0    0 -0.15782146241E+03 -0.14005528885E+03 -0.88345263716E+02  0.26067866480E+03  0.12500153090E+03 0.  0.
          5    1    3    3  502    0  0.12662436427E+03  0.15618288177E+03 -0.51970478521E+02  0.20772540245E+03  0.47000000000E+01 0. -1.
         -5    1    3    3    0  502  0.31197098141E+02 -0.16127592923E+02 -0.41910961526E+02  0.54881480319E+02  0.47000000000E+01 0. -1.
          5    1    4    4  503    0 -0.16662794132E+03 -0.13277286881E+03 -0.10687502847E+03  0.23840693621E+03  0.47000000000E+01 0.  1.
         -5    1    4    4    0  503  0.88064789093E+01 -0.72824200377E+01  0.18529764756E+02  0.22271728588E+02  0.47000000000E+01 0.  1.
<mgrwt>
<rscale>  0 0.24525213E+03</rscale>
<asrwt>0</asrwt>
<pdfrwt beam="1">  1        5 0.26235296E-01 0.24525222E+03</pdfrwt>
<pdfrwt beam="2">  1       -5 0.54270173E-01 0.24525222E+03</pdfrwt>
<totfact> 0.37205597E+01</totfact>
</mgrwt>
</event>
<event>
 8    1  0.3588496E-007  0.1356912E+03  0.7546771E-02  0.1219255E+00
          5   -1    0    0  501    0  0.00000000000E+00  0.00000000000E+00  0.20865386658E+03  0.20870679443E+03  0.47000000000E+01 0. -1.
         -5   -1    0    0    0  501 -0.00000000000E+00 -0.00000000000E+00 -0.16069102151E+03  0.16075974121E+03  0.47000000000E+01 0. -1.
         25    2    1    2    0    0  0.10715206599E+02 -0.51689076443E+02 -0.10012179084E+03  0.16863120541E+03  0.12500213664E+03 0.  0.
         25    2    1    2    0    0 -0.10715206599E+02  0.51689076443E+02  0.14808463591E+03  0.20083533022E+03  0.12497677463E+03 0.  0.
          5    1    4    4  502    0 -0.66493853390E+02  0.30414473487E+02  0.10036336214E+03  0.12426329787E+03  0.47000000000E+01 0.  1.
         -5    1    4    4    0  502  0.55778646791E+02  0.21274602956E+02  0.47721273766E+02  0.76572032352E+02  0.47000000000E+01 0.  1.
          5    1    3    3  503    0  0.51087708871E+02 -0.54789607397E+02 -0.10336068569E+03  0.12773948655E+03  0.47000000000E+01 0. -1.
         -5    1    3    3    0  503 -0.40372502272E+02  0.31005309539E+01  0.32388948591E+01  0.40891718866E+02  0.47000000000E+01 0. -1.
<mgrwt>
<rscale>  0 0.13568539E+03</rscale>
<asrwt>0</asrwt>
<pdfrwt beam="1">  1        5 0.32109952E-01 0.13569123E+03</pdfrwt>
<pdfrwt beam="2">  1       -5 0.24731053E-01 0.13569123E+03</pdfrwt>
<totfact> 0.10478952E+02</totfact>
</mgrwt>
</event>
<event>
 8    1  0.3588496E-007  0.1345306E+03  0.7546771E-02  0.1220887E+00
          5   -1    0    0  501    0  0.00000000000E+00  0.00000000000E+00  0.11816890921E+03  0.11826234017E+03  0.47000000000E+01 0. -1.
         -5   -1    0    0    0  501 -0.00000000000E+00 -0.00000000000E+00 -0.17004941802E+03  0.17011435733E+03  0.47000000000E+01 0. -1.
         25    2    1    2    0    0  0.59433590286E+01 -0.49352568865E+02 -0.71631584608E+02  0.15241250520E+03  0.12500995264E+03 0.  0.
         25    2    1    2    0    0 -0.59433590286E+01  0.49352568865E+02  0.19751075797E+02  0.13596419230E+03  0.12500062809E+03 0.  0.
          5    1    3    3  502    0 -0.44031290447E+02 -0.66214614397E+02 -0.30243687317E+02  0.85205048681E+02  0.47000000000E+01 0.  1.
         -5    1    3    3    0  502  0.49974649476E+02  0.16862045532E+02 -0.41387897291E+02  0.67207456520E+02  0.47000000000E+01 0.  1.
          5    1    4    4  503    0 -0.53869151378E+01 -0.36350586568E+02  0.32384149342E+02  0.49205763150E+02  0.47000000000E+01 0.  1.
         -5    1    4    4    0  503 -0.55644389079E+00  0.85703155433E+02 -0.12633073545E+02  0.86758429148E+02  0.47000000000E+01 0.  1.
<mgrwt>
<rscale>  0 0.13452845E+03</rscale>
<asrwt>0</asrwt>
<pdfrwt beam="1">  1        5 0.18192014E-01 0.13453062E+03</pdfrwt>
<pdfrwt beam="2">  1       -5 0.26173631E-01 0.13453062E+03</pdfrwt>
<totfact> 0.27731656E+02</totfact>
</mgrwt>
</event>
<event>
 8    1  0.3588496E-007  0.1417995E+03  0.7546771E-02  0.1210928E+00
          5   -1    0    0  501    0  0.00000000000E+00  0.00000000000E+00  0.30519531177E+03  0.30523149956E+03  0.47000000000E+01 0. -1.
         -5   -1    0    0    0  501 -0.00000000000E+00 -0.00000000000E+00 -0.66908563041E+02  0.67073435936E+02  0.47000000000E+01 0. -1.
         25    2    1    2    0    0 -0.65418200633E+02 -0.14240505235E+02  0.94773895886E+02  0.17055551809E+03  0.12499904179E+03 0.  0.
         25    2    1    2    0    0  0.65418200633E+02  0.14240505235E+02  0.14351285284E+03  0.20174941740E+03  0.12499822210E+03 0.  0.
          5    1    3    3  502    0 -0.71966468202E+02  0.19373978125E+02  0.10986157770E+03  0.13283892437E+03  0.47000000000E+01 0. -1.
         -5    1    3    3    0  502  0.65482675687E+01 -0.33614483360E+02 -0.15087681811E+02  0.37716593724E+02  0.47000000000E+01 0. -1.
          5    1    4    4  503    0  0.70295687495E+02  0.50238425078E+01  0.16384499393E+03  0.17842083598E+03  0.47000000000E+01 0.  1.
         -5    1    4    4    0  503 -0.48774868619E+01  0.92166627268E+01 -0.20332141093E+02  0.23328581426E+02  0.47000000000E+01 0.  1.
<mgrwt>
<rscale>  0 0.14179930E+03</rscale>
<asrwt>0</asrwt>
<pdfrwt beam="1">  1        5 0.46968591E-01 0.14179948E+03</pdfrwt>
<pdfrwt beam="2">  1       -5 0.10309091E-01 0.14179948E+03</pdfrwt>
<totfact> 0.24195892E+02</totfact>
</mgrwt>
</event>
<event>
 8    1  0.3588496E-007  0.1404283E+03  0.7546771E-02  0.1212754E+00
         -5   -1    0    0    0  501 -0.00000000000E+00  0.00000000000E+00  0.86079403839E+02  0.86207620111E+02  0.47000000000E+01 0.  1.
          5   -1    0    0  501    0  0.00000000000E+00 -0.00000000000E+00 -0.23434481787E+03  0.23439194454E+03  0.47000000000E+01 0.  1.
         25    2    1    2    0    0 -0.62378052140E+02  0.14282168590E+02 -0.49412513574E+02  0.14886720155E+03  0.12499938189E+03 0.  0.
         25    2    1    2    0    0  0.62378052140E+02 -0.14282168590E+02 -0.98852900459E+02  0.17173236309E+03  0.12500042750E+03 0.  0.
          5    1    3    3  502    0 -0.59341621411E+02 -0.48194988593E+02 -0.17837720543E+02  0.78641332843E+02  0.47000000000E+01 0.  1.
         -5    1    3    3    0  502 -0.30364307291E+01  0.62477157183E+02 -0.31574793031E+02  0.70225868711E+02  0.47000000000E+01 0.  1.
          5    1    4    4  503    0  0.37178133079E+02  0.53617145401E+02 -0.31044827664E+02  0.72407756387E+02  0.47000000000E+01 0.  1.
         -5    1    4    4    0  503  0.25199919061E+02 -0.67899313991E+02 -0.67808072795E+02  0.99324606706E+02  0.47000000000E+01 0.  1.
<mgrwt>
<rscale>  0 0.14042807E+03</rscale>
<asrwt>0</asrwt>
<pdfrwt beam="2">  1        5 0.36066537E-01 0.14042830E+03</pdfrwt>
<pdfrwt beam="1">  1       -5 0.13256473E-01 0.14042830E+03</pdfrwt>
<totfact> 0.26599246E+02</totfact>
</mgrwt>
</event>
<event>
 8    1  0.3588496E-007  0.1649375E+03  0.7546771E-02  0.1183236E+00
          5   -1    0    0  501    0  0.00000000000E+00  0.00000000000E+00  0.16605032071E+03  0.16611682337E+03  0.47000000000E+01 0.  1.
         -5   -1    0    0    0  501 -0.00000000000E+00 -0.00000000000E+00 -0.21216717414E+03  0.21221922576E+03  0.47000000000E+01 0.  1.
         25    2    1    2    0    0 -0.10531548770E+03  0.22047279436E+02 -0.11345965078E+03  0.20019356310E+03  0.12500774325E+03 0.  0.
         25    2    1    2    0    0  0.10531548770E+03 -0.22047279436E+02  0.67342797351E+02  0.17814248603E+03  0.12498903350E+03 0.  0.
          5    1    3    3  502    0 -0.23993397827E+01 -0.69756743639E+01  0.24250417238E+02  0.25779635383E+02  0.47000000000E+01 0. -1.
         -5    1    3    3    0  502 -0.10291614792E+03  0.29022953800E+02 -0.13771006802E+03  0.17441392772E+03  0.47000000000E+01 0. -1.
          5    1    4    4  503    0  0.55936675412E+02 -0.41464978133E+02  0.95192854831E+02  0.11803400221E+03  0.47000000000E+01 0. -1.
         -5    1    4    4    0  503  0.49378812286E+02  0.19417698697E+02 -0.27850057479E+02  0.60108483819E+02  0.47000000000E+01 0. -1.
<mgrwt>
<rscale>  0 0.16493393E+03</rscale>
<asrwt>0</asrwt>
<pdfrwt beam="1">  1        5 0.25555323E-01 0.16493747E+03</pdfrwt>
<pdfrwt beam="2">  1       -5 0.32650223E-01 0.16493747E+03</pdfrwt>
<totfact> 0.10122970E+02</totfact>
</mgrwt>
</event>
<event>
 8    1  0.3588496E-007  0.1440186E+03  0.7546771E-02  0.1208022E+00
         -5   -1    0    0    0  501 -0.00000000000E+00  0.00000000000E+00  0.70791794897E+02  0.70947644251E+02  0.47000000000E+01 0.  1.
          5   -1    0    0  501    0  0.00000000000E+00 -0.00000000000E+00 -0.32631088234E+03  0.32634472868E+03  0.47000000000E+01 0.  1.
         25    2    1    2    0    0 -0.52610740988E+01  0.71328766558E+02 -0.63825870282E+02  0.15752809703E+03  0.12500355114E+03 0.  0.
         25    2    1    2    0    0  0.52610740988E+01 -0.71328766558E+02 -0.19169321716E+03  0.23976427589E+03  0.12500058659E+03 0.  0.
          5    1    3    3  502    0  0.36439326669E+02  0.90572142550E+02 -0.46229039264E+02  0.10812192935E+03  0.47000000000E+01 0. -1.
         -5    1    3    3    0  502 -0.41700400767E+02 -0.19243375993E+02 -0.17596831018E+02  0.49406167688E+02  0.47000000000E+01 0. -1.
          5    1    4    4  503    0  0.18912589871E+02 -0.36081446805E+02  0.32483833854E+01  0.41136344682E+02  0.47000000000E+01 0.  1.
         -5    1    4    4    0  503 -0.13651515772E+02 -0.35247319753E+02 -0.19494160055E+03  0.19862793121E+03  0.47000000000E+01 0.  1.
<mgrwt>
<rscale>  0 0.14401797E+03</rscale>
<asrwt>0</asrwt>
<pdfrwt beam="2">  1        5 0.50216265E-01 0.14401861E+03</pdfrwt>
<pdfrwt beam="1">  1       -5 0.10905638E-01 0.14401861E+03</pdfrwt>
<totfact> 0.19134834E+02</totfact>
</mgrwt>
</event>
<event>
 8    1  0.3588496E-007  0.1375405E+03  0.7546771E-02  0.1216677E+00
          5   -1    0    0  501    0  0.00000000000E+00  0.00000000000E+00  0.14335965597E+02  0.15086746156E+02  0.47000000000E+01 0.  1.
         -5   -1    0    0    0  501 -0.00000000000E+00 -0.00000000000E+00 -0.13360060588E+04  0.13360143260E+04  0.47000000000E+01 0.  1.
         25    2    1    2    0    0  0.37290954893E+02 -0.43609245154E+02 -0.79260279888E+03  0.80444800002E+03  0.12500002543E+03 0.  0.
         25    2    1    2    0    0 -0.37290954893E+02  0.43609245154E+02 -0.52906729435E+03  0.54665307212E+03  0.12499999091E+03 0.  0.
          5    1    3    3  502    0  0.25805641592E+02  0.69725952001E+01 -0.31560845992E+02  0.41626016162E+02  0.47000000000E+01 0. -1.
         -5    1    3    3    0  502  0.11485313301E+02 -0.50581840354E+02 -0.76104195289E+03  0.76282198386E+03  0.47000000000E+01 0. -1.
          5    1    4    4  503    0  0.86620957603E+01 -0.17908488392E+02 -0.11609096053E+02  0.23507593892E+02  0.47000000000E+01 0.  1.
         -5    1    4    4    0  503 -0.45953050653E+02  0.61517733546E+02 -0.51745819829E+03  0.52314547822E+03  0.47000000000E+01 0.  1.
<mgrwt>
<rscale>  0 0.13754049E+03</rscale>
<asrwt>0</asrwt>
<pdfrwt beam="1">  1        5 0.22639225E-02 0.13754050E+03</pdfrwt>
<pdfrwt beam="2">  1       -5 0.20559769E+00 0.13754050E+03</pdfrwt>
<totfact> 0.76381300E+01</totfact>
</mgrwt>
</event>
<event>
 8    1  0.3588496E-007  0.1438247E+03  0.7546771E-02  0.1208274E+00
          5   -1    0    0  501    0  0.00000000000E+00  0.00000000000E+00  0.76417048129E+03  0.76418493474E+03  0.47000000000E+01 0.  1.
         -5   -1    0    0    0  501 -0.00000000000E+00 -0.00000000000E+00 -0.42874916634E+02  0.43131757168E+02  0.47000000000E+01 0.  1.
         25    2    1    2    0    0  0.56921319174E+01 -0.70906282751E+02  0.11485750962E+03  0.18405698354E+03  0.12499849749E+03 0.  0.
         25    2    1    2    0    0 -0.56921319174E+01  0.70906282751E+02  0.60643805504E+03  0.62325970837E+03  0.12500179268E+03 0.  0.
          5    1    4    4  502    0 -0.44646732965E+02  0.21777420608E+02  0.47439035143E+03  0.47700721415E+03  0.47000000000E+01 0. -1.
         -5    1    4    4    0  502  0.38954601048E+02  0.49128862142E+02  0.13204770360E+03  0.14625249422E+03  0.47000000000E+01 0. -1.
          5    1    3    3  503    0 -0.33260465045E+02 -0.84436916540E+02  0.10936524034E+03  0.14219246536E+03  0.47000000000E+01 0.  1.
         -5    1    3    3    0  503  0.38952596962E+02  0.13530633790E+02  0.54922692814E+01  0.41864518183E+02  0.47000000000E+01 0.  1.
<mgrwt>
<rscale>  0 0.14382400E+03</rscale>
<asrwt>0</asrwt>
<pdfrwt beam="1">  1        5 0.11758555E+00 0.14382472E+03</pdfrwt>
<pdfrwt beam="2">  1       -5 0.66170103E-02 0.14382472E+03</pdfrwt>
<totfact> 0.63587505E+01</totfact>
</mgrwt>
</event>
<event>
 8    1  0.3588496E-007  0.1441107E+03  0.7546771E-02  0.1207904E+00
         -5   -1    0    0    0  501 -0.00000000000E+00  0.00000000000E+00  0.22711061992E+03  0.22715924741E+03  0.47000000000E+01 0.  1.
          5   -1    0    0  501    0  0.00000000000E+00 -0.00000000000E+00 -0.91456671894E+02  0.91577359833E+02  0.47000000000E+01 0.  1.
         25    2    1    2    0    0  0.59858365066E+02 -0.39498999467E+02  0.73930003522E+02  0.16196369479E+03  0.12499359257E+03 0.  0.
         25    2    1    2    0    0 -0.59858365066E+02  0.39498999467E+02  0.61723944508E+02  0.15677291245E+03  0.12499882369E+03 0.  0.
          5    1    4    4  502    0 -0.67922005809E+02  0.39964512437E+02  0.94241345288E+02  0.12293934394E+03  0.47000000000E+01 0.  1.
         -5    1    4    4    0  502  0.80636407424E+01 -0.46551296992E+00 -0.32517400779E+02  0.33833568505E+02  0.47000000000E+01 0.  1.
          5    1    3    3  503    0  0.57907375643E+02  0.30605656921E+02  0.62681668543E+02  0.90780239925E+02  0.47000000000E+01 0. -1.
         -5    1    3    3    0  503  0.19509894231E+01 -0.70104656388E+02  0.11248334978E+02  0.71183454867E+02  0.47000000000E+01 0. -1.
<mgrwt>
<rscale>  0 0.14410959E+03</rscale>
<asrwt>0</asrwt>
<pdfrwt beam="2">  1        5 0.14083282E-01 0.14411072E+03</pdfrwt>
<pdfrwt beam="1">  1       -5 0.34953119E-01 0.14411072E+03</pdfrwt>
<totfact> 0.25637023E+02</totfact>
</mgrwt>
</event>
<event>
 8    1  0.3588496E-007  0.1250230E+03  0.7546771E-02  0.1235043E+00
         -5   -1    0    0    0  501 -0.00000000000E+00  0.00000000000E+00  0.14240111990E+03  0.14247866138E+03  0.47000000000E+01 0. -1.
          5   -1    0    0  501    0  0.00000000000E+00 -0.00000000000E+00 -0.15490172149E+03  0.15497300836E+03  0.47000000000E+01 0. -1.
         25    2    1    2    0    0 -0.80172207341E-01 -0.38826091061E+01  0.74149647748E+02  0.14533655783E+03  0.12493783934E+03 0.  0.
         25    2    1    2    0    0  0.80172207341E-01  0.38826091061E+01 -0.86650249340E+02  0.15211511192E+03  0.12496263634E+03 0.  0.
          5    1    4    4  502    0  0.31168077748E+01  0.61250285596E+02 -0.67630563953E+02  0.91418243020E+02  0.47000000000E+01 0.  1.
         -5    1    4    4    0  502 -0.30366355674E+01 -0.57367676490E+02 -0.19019685387E+02  0.60696868895E+02  0.47000000000E+01 0.  1.
          5    1    3    3  503    0 -0.17342896379E+02 -0.49943620028E+02 -0.36149613004E+01  0.53200556214E+02  0.47000000000E+01 0. -1.
         -5    1    3    3    0  503  0.17262724172E+02  0.46061010922E+02  0.77764609049E+02  0.92136001614E+02  0.47000000000E+01 0. -1.
<mgrwt>
<rscale>  0 0.12501677E+03</rscale>
<asrwt>0</asrwt>
<pdfrwt beam="2">  1        5 0.23842482E-01 0.12502296E+03</pdfrwt>
<pdfrwt beam="1">  1       -5 0.21919313E-01 0.12502296E+03</pdfrwt>
<totfact> 0.22815548E+02</totfact>
</mgrwt>
</event>
<event>
 8    1  0.3588496E-007  0.1739150E+03  0.7546771E-02  0.1173829E+00
          5   -1    0    0  501    0  0.00000000000E+00  0.00000000000E+00  0.57852380567E+03  0.57854289705E+03  0.47000000000E+01 0. -1.
         -5   -1    0    0    0  501 -0.00000000000E+00 -0.00000000000E+00 -0.63160696966E+02  0.63335326961E+02  0.47000000000E+01 0. -1.
         25    2    1    2    0    0 -0.12038103117E+03 -0.11375309879E+02  0.12391391887E+03  0.21353386209E+03  0.12498424153E+03 0.  0.
         25    2    1    2    0    0  0.12038103117E+03  0.11375309879E+02  0.39144918983E+03  0.42834436192E+03  0.12500173529E+03 0.  0.
          5    1    3    3  502    0 -0.74519727293E+02 -0.67771468828E+02  0.66581136338E+02  0.12083583682E+03  0.47000000000E+01 0. -1.
         -5    1    3    3    0  502 -0.45861303873E+02  0.56396158949E+02  0.57332782531E+02  0.92698025275E+02  0.47000000000E+01 0. -1.
          5    1    4    4  503    0  0.12936945954E+03 -0.28615979004E+02  0.30389679405E+03  0.33155796288E+03  0.47000000000E+01 0.  1.
         -5    1    4    4    0  503 -0.89884283733E+01  0.39991288884E+02  0.87552395781E+02  0.96786399035E+02  0.47000000000E+01 0.  1.
<mgrwt>
<rscale>  0 0.17391185E+03</rscale>
<asrwt>0</asrwt>
<pdfrwt beam="1">  1        5 0.89018562E-01 0.17391499E+03</pdfrwt>
<pdfrwt beam="2">  1       -5 0.97319322E-02 0.17391499E+03</pdfrwt>
<totfact> 0.68561700E+01</totfact>
</mgrwt>
</event>
<event>
 8    1  0.3588496E-007  0.1290643E+03  0.7546771E-02  0.1228853E+00
          5   -1    0    0  501    0  0.00000000000E+00  0.00000000000E+00  0.35709566060E+03  0.35712658935E+03  0.47000000000E+01 0.  1.
         -5   -1    0    0    0  501 -0.00000000000E+00 -0.00000000000E+00 -0.47530071683E+02  0.47761885581E+02  0.47000000000E+01 0.  1.
         25    2    1    2    0    0 -0.32110399569E+02 -0.55124899719E-01  0.12497431027E+03  0.17965184672E+03  0.12500050801E+03 0.  0.
         25    2    1    2    0    0  0.32110399569E+02  0.55124899719E-01  0.18459127865E+03  0.22523662821E+03  0.12500607080E+03 0.  0.
          5    1    4    4  502    0  0.86027437894E+01  0.50908072264E+02  0.15121543461E+03  0.15985567455E+03  0.47000000000E+01 0.  1.
         -5    1    4    4    0  502  0.23507655780E+02 -0.50852947364E+02  0.33375844034E+02  0.65380953655E+02  0.47000000000E+01 0.  1.
          5    1    3    3  503    0  0.21699712826E+02  0.46730865071E+02  0.79820635489E+02  0.95121370559E+02  0.47000000000E+01 0. -1.
         -5    1    3    3    0  503 -0.53810112395E+02 -0.46785989971E+02  0.45153674779E+02  0.84530476159E+02  0.47000000000E+01 0. -1.
<mgrwt>
<rscale>  0 0.12906297E+03</rscale>
<asrwt>0</asrwt>
<pdfrwt beam="1">  1        5 0.54958007E-01 0.12906432E+03</pdfrwt>
<pdfrwt beam="2">  1       -5 0.73325293E-02 0.12906432E+03</pdfrwt>
<totfact> 0.30196749E+02</totfact>
</mgrwt>
</event>
<event>
 8    1  0.3588496E-007  0.1382351E+03  0.7546771E-02  0.1215725E+00
         -5   -1    0    0    0  501 -0.00000000000E+00  0.00000000000E+00  0.38492428771E+03  0.38495298060E+03  0.47000000000E+01 0. -1.
          5   -1    0    0  501    0  0.00000000000E+00 -0.00000000000E+00 -0.52707189146E+02  0.52916328176E+02  0.47000000000E+01 0. -1.
         25    2    1    2    0    0  0.17615388096E+01  0.58992034212E+02  0.21999153350E+03  0.25981766441E+03  0.12500312320E+03 0.  0.
         25    2    1    2    0    0 -0.17615388096E+01 -0.58992034212E+02  0.11222556506E+03  0.17805164436E+03  0.12499858993E+03 0.  0.
          5    1    4    4  502    0 -0.18797743573E+02 -0.85789529062E+02  0.11617233663E+03  0.14570964367E+03  0.47000000000E+01 0.  1.
         -5    1    4    4    0  502  0.17036204763E+02  0.26797494850E+02 -0.39467715637E+01  0.32342000692E+02  0.47000000000E+01 0.  1.
          5    1    3    3  503    0 -0.23328264483E+02 -0.18481633447E+02  0.14795542913E+03  0.15099231009E+03  0.47000000000E+01 0.  1.
         -5    1    3    3    0  503  0.25089803293E+02  0.77473667659E+02  0.72036104373E+02  0.10882535432E+03  0.47000000000E+01 0.  1.
<mgrwt>
<rscale>  0 0.13823408E+03</rscale>
<asrwt>0</asrwt>
<pdfrwt beam="2">  1        5 0.81270930E-02 0.13823510E+03</pdfrwt>
<pdfrwt beam="1">  1       -5 0.59237417E-01 0.13823510E+03</pdfrwt>
<totfact> 0.22047726E+02</totfact>
</mgrwt>
</event>
<event>
 8    1  0.3588496E-007  0.1357763E+03  0.7546771E-02  0.1219131E+00
         -5   -1    0    0    0  501 -0.00000000000E+00  0.00000000000E+00  0.35596827860E+02  0.35905767694E+02  0.47000000000E+01 0.  1.
          5   -1    0    0  501    0  0.00000000000E+00 -0.00000000000E+00 -0.67865690882E+03  0.67867318342E+03  0.47000000000E+01 0.  1.
         25    2    1    2    0    0  0.20651551494E+02 -0.48791249517E+02 -0.14627392854E+03  0.19957246898E+03  0.12500414232E+03 0.  0.
         25    2    1    2    0    0 -0.20651551494E+02  0.48791249517E+02 -0.49678615242E+03  0.51500648213E+03  0.12501249052E+03 0.  0.
          5    1    4    4  502    0 -0.48709076715E+02  0.77322026592E+02 -0.28202558154E+03  0.29649922191E+03  0.47000000000E+01 0. -1.
         -5    1    4    4    0  502  0.28057525221E+02 -0.28530777075E+02 -0.21476057088E+03  0.21850726022E+03  0.47000000000E+01 0. -1.
          5    1    3    3  503    0 -0.13220835947E+02  0.36957162291E+02 -0.67460459095E+02  0.78189678916E+02  0.47000000000E+01 0.  1.
         -5    1    3    3    0  503  0.33872387441E+02 -0.85748411808E+02 -0.78813469440E+02  0.12138279006E+03  0.47000000000E+01 0.  1.
<mgrwt>
<rscale>  0 0.13577435E+03</rscale>
<asrwt>0</asrwt>
<pdfrwt beam="2">  1        5 0.10443376E+00 0.13577627E+03</pdfrwt>
<pdfrwt beam="1">  1       -5 0.55014521E-02 0.13577627E+03</pdfrwt>
<totfact> 0.11448994E+02</totfact>
</mgrwt>
</event>
<event>
 8    1  0.3588496E-007  0.1340659E+03  0.7546771E-02  0.1221554E+00
          5   -1    0    0  501    0  0.00000000000E+00  0.00000000000E+00  0.13451628305E+03  0.13459836702E+03  0.47000000000E+01 0. -1.
         -5   -1    0    0    0  501 -0.00000000000E+00 -0.00000000000E+00 -0.15550669890E+03  0.15557770856E+03  0.47000000000E+01 0. -1.
         25    2    1    2    0    0  0.35258191859E+02  0.33155274357E+02 -0.65140529954E+02  0.14905351051E+03  0.12502498967E+03 0.  0.
         25    2    1    2    0    0 -0.35258191859E+02 -0.33155274357E+02  0.44150114102E+02  0.14112256507E+03  0.12499573387E+03 0.  0.
          5    1    4    4  502    0 -0.42920164577E+02  0.39092993313E+02  0.50019974396E+01  0.58459495652E+02  0.47000000000E+01 0.  1.
         -5    1    4    4    0  502  0.76619727180E+01 -0.72248267670E+02  0.39148116663E+02  0.82663069417E+02  0.47000000000E+01 0.  1.
          5    1    3    3  503    0 -0.35927424142E+02  0.29157787449E+02 -0.62035530673E+02  0.77533563315E+02  0.47000000000E+01 0. -1.
         -5    1    3    3    0  503  0.71185616001E+02  0.39974869082E+01 -0.31049992807E+01  0.71519947200E+02  0.47000000000E+01 0. -1.
<mgrwt>
<rscale>  0 0.13405906E+03</rscale>
<asrwt>0</asrwt>
<pdfrwt beam="1">  1        5 0.20706589E-01 0.13406588E+03</pdfrwt>
<pdfrwt beam="2">  1       -5 0.23935884E-01 0.13406588E+03</pdfrwt>
<totfact> 0.25838509E+02</totfact>
</mgrwt>
</event>
<event>
 8    1  0.3588496E-007  0.1256629E+03  0.7546771E-02  0.1234049E+00
         -5   -1    0    0    0  501 -0.00000000000E+00  0.00000000000E+00  0.56031342093E+02  0.56228118382E+02  0.47000000000E+01 0. -1.
          5   -1    0    0  501    0  0.00000000000E+00 -0.00000000000E+00 -0.28182187072E+03  0.28186105942E+03  0.47000000000E+01 0. -1.
         25    2    1    2    0    0 -0.80214698714E+01  0.97053404936E+01 -0.10406408704E+03  0.16315789334E+03  0.12503050162E+03 0.  0.
         25    2    1    2    0    0  0.80214698714E+01 -0.97053404936E+01 -0.12172644159E+03  0.17493128446E+03  0.12500036034E+03 0.  0.
          5    1    3    3  502    0 -0.57661210096E+02  0.36265982514E+02 -0.66517565810E+02  0.95324252941E+02  0.47000000000E+01 0.  1.
         -5    1    3    3    0  502  0.49639740224E+02 -0.26560642020E+02 -0.37546521226E+02  0.67833640403E+02  0.47000000000E+01 0.  1.
          5    1    4    4  503    0  0.81382959721E+01 -0.49394549485E+02 -0.38088806531E+01  0.50424705770E+02  0.47000000000E+01 0.  1.
         -5    1    4    4    0  503 -0.11682610073E+00  0.39689208991E+02 -0.11791756094E+03  0.12450657869E+03  0.47000000000E+01 0.  1.
<mgrwt>
<rscale>  0 0.12565540E+03</rscale>
<asrwt>0</asrwt>
<pdfrwt beam="2">  1        5 0.43375362E-01 0.12566290E+03</pdfrwt>
<pdfrwt beam="1">  1       -5 0.86383577E-02 0.12566290E+03</pdfrwt>
<totfact> 0.37204723E+02</totfact>
</mgrwt>
</event>
<event>
 8    1  0.3588496E-007  0.1410579E+03  0.7546771E-02  0.1211915E+00
         -5   -1    0    0    0  501 -0.00000000000E+00  0.00000000000E+00  0.53831520591E+02  0.54036308249E+02  0.47000000000E+01 0.  1.
          5   -1    0    0  501    0  0.00000000000E+00 -0.00000000000E+00 -0.43210975049E+03  0.43213531037E+03  0.47000000000E+01 0.  1.
         25    2    1    2    0    0  0.62399773921E+02 -0.19456561966E+02 -0.96027885949E+02  0.17063621947E+03  0.12499229947E+03 0.  0.
         25    2    1    2    0    0 -0.62399773921E+02  0.19456561966E+02 -0.28225034395E+03  0.31553539915E+03  0.12500016747E+03 0.  0.
          5    1    4    4  502    0 -0.53941137722E+02  0.38747540290E+02 -0.52543765222E+02  0.84817188594E+02  0.47000000000E+01 0.  1.
         -5    1    4    4    0  502 -0.84586361990E+01 -0.19290978325E+02 -0.22970657872E+03  0.23071821055E+03  0.47000000000E+01 0.  1.
          5    1    3    3  503    0  0.97751023043E+02  0.46359410814E+01 -0.68567790856E+02  0.11958422303E+03  0.47000000000E+01 0. -1.
         -5    1    3    3    0  503 -0.35351249121E+02 -0.24092503047E+02 -0.27460095093E+02  0.51051996435E+02  0.47000000000E+01 0. -1.
<mgrwt>
<rscale>  0 0.14105616E+03</rscale>
<asrwt>0</asrwt>
<pdfrwt beam="2">  1        5 0.66496140E-01 0.14105790E+03</pdfrwt>
<pdfrwt beam="1">  1       -5 0.82994917E-02 0.14105790E+03</pdfrwt>
<totfact> 0.16588214E+02</totfact>
</mgrwt>
</event>
<event>
 8    1  0.3588496E-007  0.1804223E+03  0.7546771E-02  0.1167399E+00
          5   -1    0    0  501    0  0.00000000000E+00  0.00000000000E+00  0.29409064866E+02  0.29782261437E+02  0.47000000000E+01 0.  1.
         -5   -1    0    0    0  501 -0.00000000000E+00 -0.00000000000E+00 -0.11093515777E+04  0.11093615339E+04  0.47000000000E+01 0.  1.
         25    2    1    2    0    0  0.12948034346E+03 -0.12511309687E+02 -0.59386007560E+03  0.62066254359E+03  0.12502204367E+03 0.  0.
         25    2    1    2    0    0 -0.12948034346E+03  0.12511309687E+02 -0.48608243725E+03  0.51848125179E+03  0.12499992179E+03 0.  0.
          5    1    4    4  502    0 -0.60440856356E+02  0.64432413766E+02 -0.30869651658E+03  0.32112343796E+03  0.47000000000E+01 0.  1.
         -5    1    4    4    0  502 -0.69039487099E+02 -0.51921104079E+02 -0.17738592067E+03  0.19735781383E+03  0.47000000000E+01 0.  1.
          5    1    3    3  503    0  0.20133947605E+02  0.63771968830E+01 -0.60705198300E+01  0.22471886820E+02  0.47000000000E+01 0. -1.
         -5    1    3    3    0  503  0.10934639585E+03 -0.18888506570E+02 -0.58778955577E+03  0.59819065677E+03  0.47000000000E+01 0. -1.
<mgrwt>
<rscale>  0 0.18041846E+03</rscale>
<asrwt>0</asrwt>
<pdfrwt beam="1">  1        5 0.45539457E-02 0.18042229E+03</pdfrwt>
<pdfrwt beam="2">  1       -5 0.17069892E+00 0.18042229E+03</pdfrwt>
<totfact> 0.46362977E+01</totfact>
</mgrwt>
</event>
<event>
 8    1  0.3588496E-007  0.1639878E+03  0.7546771E-02  0.1184269E+00
         -5   -1    0    0    0  501 -0.00000000000E+00  0.00000000000E+00  0.21450513336E+03  0.21455661779E+03  0.47000000000E+01 0. -1.
          5   -1    0    0  501    0  0.00000000000E+00 -0.00000000000E+00 -0.12766621165E+03  0.12775269702E+03  0.47000000000E+01 0. -1.
         25    2    1    2    0    0  0.19776936954E+02 -0.10427695804E+03  0.66943285140E+02  0.17711903151E+03  0.12499974674E+03 0.  0.
         25    2    1    2    0    0 -0.19776936954E+02  0.10427695804E+03  0.19895636568E+02  0.16519028330E+03  0.12500872821E+03 0.  0.
          5    1    3    3  502    0  0.41319778236E+02 -0.24574883749E+02  0.79947048498E+02  0.93407010167E+02  0.47000000000E+01 0. -1.
         -5    1    3    3    0  502 -0.21542841282E+02 -0.79702074287E+02 -0.13003763358E+02  0.83712021344E+02  0.47000000000E+01 0. -1.
          5    1    4    4  503    0 -0.23724382526E+02  0.45657736258E+01 -0.41270456562E+02  0.48052400563E+02  0.47000000000E+01 0. -1.
         -5    1    4    4    0  503  0.39474455716E+01  0.99711184410E+02  0.61166093130E+02  0.11713788274E+03  0.47000000000E+01 0. -1.
<mgrwt>
<rscale>  0 0.16398607E+03</rscale>
<asrwt>0</asrwt>
<pdfrwt beam="2">  1        5 0.19651569E-01 0.16398778E+03</pdfrwt>
<pdfrwt beam="1">  1       -5 0.33011403E-01 0.16398778E+03</pdfrwt>
<totfact> 0.16273994E+02</totfact>
</mgrwt>
</event>
<event>
 8    1  0.3588496E-007  0.1252657E+03  0.7546771E-02  0.1234665E+00
          5   -1    0    0  501    0  0.00000000000E+00  0.00000000000E+00  0.76563809433E+02  0.76707932542E+02  0.47000000000E+01 0. -1.
         -5   -1    0    0    0  501 -0.00000000000E+00 -0.00000000000E+00 -0.24855983616E+03  0.24860426817E+03  0.47000000000E+01 0. -1.
         25    2    1    2    0    0 -0.82229076350E+01 -0.17718840869E+01 -0.15441546659E+03  0.19881886475E+03  0.12495618782E+03 0.  0.
         25    2    1    2    0    0  0.82229076350E+01  0.17718840869E+01 -0.17580560143E+02  0.12649333597E+03  0.12498292750E+03 0.  0.
          5    1    4    4  502    0  0.29425569397E+01 -0.51108499726E+01 -0.71389823432E+02  0.71787020543E+02  0.47000000000E+01 0. -1.
         -5    1    4    4    0  502  0.52803506952E+01  0.68827340595E+01  0.53809263289E+02  0.54706315424E+02  0.47000000000E+01 0. -1.
          5    1    3    3  503    0  0.23557372736E+02  0.33335663174E+02 -0.14447427879E+03  0.15020360675E+03  0.47000000000E+01 0.  1.
         -5    1    3    3    0  503 -0.31780280371E+02 -0.35107547260E+02 -0.99411877963E+01  0.48615257995E+02  0.47000000000E+01 0.  1.
<mgrwt>
<rscale>  0 0.12525900E+03</rscale>
<asrwt>0</asrwt>
<pdfrwt beam="1">  1        5 0.11793552E-01 0.12526567E+03</pdfrwt>
<pdfrwt beam="2">  1       -5 0.38254479E-01 0.12526567E+03</pdfrwt>
<totfact> 0.27926235E+02</totfact>
</mgrwt>
</event>
<event>
 8    1  0.3588496E-007  0.1299219E+03  0.7546771E-02  0.1227574E+00
          5   -1    0    0  501    0  0.00000000000E+00  0.00000000000E+00  0.56983259063E+03  0.56985197318E+03  0.47000000000E+01 0.  1.
         -5   -1    0    0    0  501 -0.00000000000E+00 -0.00000000000E+00 -0.31924093037E+02  0.32268215262E+02  0.47000000000E+01 0.  1.
         25    2    1    2    0    0 -0.16704737621E+02  0.31214563645E+02  0.18503385612E+03  0.22608800038E+03  0.12499943506E+03 0.  0.
         25    2    1    2    0    0  0.16704737621E+02 -0.31214563645E+02  0.35287464147E+03  0.37603218806E+03  0.12500518638E+03 0.  0.
          5    1    4    4  502    0  0.16132180570E+02 -0.42071683868E+02  0.35957911426E+03  0.36242172016E+03  0.47000000000E+01 0.  1.
         -5    1    4    4    0  502  0.57255705134E+00  0.10857120223E+02 -0.67044727870E+01  0.13610467900E+02  0.47000000000E+01 0.  1.
          5    1    3    3  503    0 -0.29566528794E+02  0.62221519045E+02  0.17873853408E+03  0.19161224028E+03  0.47000000000E+01 0.  1.
         -5    1    3    3    0  503  0.12861791173E+02 -0.31006955400E+02  0.62953220323E+01  0.34475760105E+02  0.47000000000E+01 0.  1.
<mgrwt>
<rscale>  0 0.12992049E+03</rscale>
<asrwt>0</asrwt>
<pdfrwt beam="1">  1        5 0.87694512E-01 0.12992188E+03</pdfrwt>
<pdfrwt beam="2">  1       -5 0.49393610E-02 0.12992188E+03</pdfrwt>
<totfact> 0.20549445E+02</totfact>
</mgrwt>
</event>
<event>
 8    1  0.3588496E-007  0.1289952E+03  0.7546771E-02  0.1228957E+00
         -5   -1    0    0    0  501 -0.00000000000E+00  0.00000000000E+00  0.63680681655E+02  0.63853889592E+02  0.47000000000E+01 0. -1.
          5   -1    0    0  501    0  0.00000000000E+00 -0.00000000000E+00 -0.31024312452E+03  0.31027872359E+03  0.47000000000E+01 0. -1.
         25    2    1    2    0    0 -0.29502199724E+02  0.11965415365E+02 -0.48583456083E+02  0.13784091551E+03  0.12500485923E+03 0.  0.
         25    2    1    2    0    0  0.29502199724E+02 -0.11965415365E+02 -0.19797898678E+03  0.23629169767E+03  0.12499814490E+03 0.  0.
          5    1    4    4  502    0  0.25828108841E+02  0.23455921875E+02 -0.12630606611E+00  0.35204792721E+02  0.47000000000E+01 0.  1.
         -5    1    4    4    0  502  0.36740908836E+01 -0.35421337240E+02 -0.19785268072E+03  0.20108690495E+03  0.47000000000E+01 0.  1.
          5    1    3    3  503    0  0.19429198977E+02 -0.45126900645E+02 -0.22759398433E+01  0.49408509762E+02  0.47000000000E+01 0.  1.
         -5    1    3    3    0  503 -0.48931398702E+02  0.57092316010E+02 -0.46307516240E+02  0.88432405749E+02  0.47000000000E+01 0.  1.
<mgrwt>
<rscale>  0 0.12899359E+03</rscale>
<asrwt>0</asrwt>
<pdfrwt beam="2">  1        5 0.47745773E-01 0.12899522E+03</pdfrwt>
<pdfrwt beam="1">  1       -5 0.98130902E-02 0.12899522E+03</pdfrwt>
<totfact> 0.24660653E+02</totfact>
</mgrwt>
</event>
<event>
 8    1  0.3588496E-007  0.1314390E+03  0.7546771E-02  0.1225338E+00
          5   -1    0    0  501    0  0.00000000000E+00  0.00000000000E+00  0.11787807235E+03  0.11797173365E+03  0.47000000000E+01 0.  1.
         -5   -1    0    0    0  501 -0.00000000000E+00 -0.00000000000E+00 -0.16344910245E+03  0.16351666304E+03  0.47000000000E+01 0.  1.
         25    2    1    2    0    0  0.37446935535E+02 -0.15773092141E+02 -0.68265509466E+02  0.14810934560E+03  0.12500054022E+03 0.  0.
         25    2    1    2    0    0 -0.37446935535E+02  0.15773092141E+02  0.22694479370E+02  0.13337905108E+03  0.12499547375E+03 0.  0.
          5    1    3    3  502    0  0.27962543932E+02 -0.35692070558E+02 -0.99579396443E+02  0.10951700306E+03  0.47000000000E+01 0. -1.
         -5    1    3    3    0  502  0.94843916034E+01  0.19918978417E+02  0.31313886977E+02  0.38592342542E+02  0.47000000000E+01 0. -1.
          5    1    4    4  503    0 -0.21294233372E+02 -0.52691607027E+02 -0.58363278415E+01  0.57323664822E+02  0.47000000000E+01 0.  1.
         -5    1    4    4    0  503 -0.16152702163E+02  0.68464699168E+02  0.28530807211E+02  0.76055386262E+02  0.47000000000E+01 0.  1.
<mgrwt>
<rscale>  0 0.13143775E+03</rscale>
<asrwt>0</asrwt>
<pdfrwt beam="1">  1        5 0.18147490E-01 0.13143895E+03</pdfrwt>
<pdfrwt beam="2">  1       -5 0.25158418E-01 0.13143895E+03</pdfrwt>
<totfact> 0.29812777E+02</totfact>
</mgrwt>
</event>
<event>
 8    1  0.3588496E-007  0.1569256E+03  0.7546771E-02  0.1192212E+00
          5   -1    0    0  501    0  0.00000000000E+00  0.00000000000E+00  0.66440626203E+02  0.66606657402E+02  0.47000000000E+01 0. -1.
         -5   -1    0    0    0  501 -0.00000000000E+00 -0.00000000000E+00 -0.42448115267E+03  0.42450717187E+03  0.47000000000E+01 0. -1.
         25    2    1    2    0    0  0.35044404495E+02 -0.88158521905E+02 -0.26697608459E+03  0.30968026319E+03  0.12500240156E+03 0.  0.
         25    2    1    2    0    0 -0.35044404495E+02  0.88158521905E+02 -0.91064441872E+02  0.18143356608E+03  0.12500148421E+03 0.  0.
          5    1    4    4  502    0  0.27692801479E+02  0.89689612464E+02 -0.53640974946E+02  0.10821535026E+03  0.47000000000E+01 0.  1.
         -5    1    4    4    0  502 -0.62737205973E+02 -0.15310905594E+01 -0.37423466926E+02  0.73218215824E+02  0.47000000000E+01 0.  1.
          5    1    3    3  503    0  0.16060053299E+01 -0.10839661908E+03 -0.14239716362E+03  0.17902918334E+03  0.47000000000E+01 0. -1.
         -5    1    3    3    0  503  0.33438399165E+02  0.20238097175E+02 -0.12457892097E+03  0.13065107985E+03  0.47000000000E+01 0. -1.
<mgrwt>
<rscale>  0 0.15692539E+03</rscale>
<asrwt>0</asrwt>
<pdfrwt beam="1">  1        5 0.10236408E-01 0.15692557E+03</pdfrwt>
<pdfrwt beam="2">  1       -5 0.65319564E-01 0.15692557E+03</pdfrwt>
<totfact> 0.12412471E+02</totfact>
</mgrwt>
</event>
<event>
 8    1  0.3588496E-007  0.1435489E+03  0.7546771E-02  0.1208633E+00
          5   -1    0    0  501    0  0.00000000000E+00  0.00000000000E+00  0.31453897262E+02  0.31803107600E+02  0.47000000000E+01 0.  1.
         -5   -1    0    0    0  501 -0.00000000000E+00 -0.00000000000E+00 -0.67987978047E+03  0.67989602579E+03  0.47000000000E+01 0.  1.
         25    2    1    2    0    0 -0.68857829243E+02 -0.15450151623E+02 -0.39735480573E+03  0.42248816194E+03  0.12500119006E+03 0.  0.
         25    2    1    2    0    0  0.68857829243E+02  0.15450151623E+02 -0.25107107748E+03  0.28921097145E+03  0.12500476881E+03 0.  0.
          5    1    3    3  502    0  0.31907984952E+02 -0.26896889267E+02 -0.12004761511E+03  0.12718129599E+03  0.47000000000E+01 0. -1.
         -5    1    3    3    0  502 -0.10076581420E+03  0.11446737644E+02 -0.27730719062E+03  0.29530686596E+03  0.47000000000E+01 0. -1.
          5    1    4    4  503    0  0.43437492002E+02  0.49941538935E+02 -0.23335932729E+03  0.24261005473E+03  0.47000000000E+01 0. -1.
         -5    1    4    4    0  503  0.25420337241E+02 -0.34491387312E+02 -0.17711750188E+02  0.46600916717E+02  0.47000000000E+01 0. -1.
<mgrwt>
<rscale>  0 0.14354817E+03</rscale>
<asrwt>0</asrwt>
<pdfrwt beam="1">  1        5 0.48671736E-02 0.14354895E+03</pdfrwt>
<pdfrwt beam="2">  1       -5 0.10462499E+00 0.14354895E+03</pdfrwt>
<totfact> 0.14226963E+02</totfact>
</mgrwt>
</event>
<event>
 8    1  0.3588496E-007  0.1366655E+03  0.7546771E-02  0.1217892E+00
          5   -1    0    0  501    0  0.00000000000E+00  0.00000000000E+00  0.74466472550E+03  0.74467955753E+03  0.47000000000E+01 0.  1.
         -5   -1    0    0    0  501 -0.00000000000E+00 -0.00000000000E+00 -0.25000109887E+02  0.25438071750E+02  0.47000000000E+01 0.  1.
         25    2    1    2    0    0 -0.44190704955E+02 -0.33118218906E+02  0.38999943782E+03  0.41325177301E+03  0.12501132578E+03 0.  0.
         25    2    1    2    0    0  0.44190704955E+02  0.33118218906E+02  0.32966517779E+03  0.35686585626E+03  0.12499790034E+03 0.  0.
          5    1    3    3  502    0  0.12871591267E+02 -0.48002908774E+01 -0.32249475013E+01  0.14873161757E+02  0.47000000000E+01 0.  1.
         -5    1    3    3    0  502 -0.57062296222E+02 -0.28317928029E+02  0.39322438532E+03  0.39837861126E+03  0.47000000000E+01 0.  1.
          5    1    4    4  503    0  0.35844922646E+02  0.58275338847E+02  0.32150463590E+03  0.32873727276E+03  0.47000000000E+01 0.  1.
         -5    1    4    4    0  503  0.83457823089E+01 -0.25157119941E+02  0.81605418973E+01  0.28128583507E+02  0.47000000000E+01 0.  1.
<mgrwt>
<rscale>  0 0.13666246E+03</rscale>
<asrwt>0</asrwt>
<pdfrwt beam="1">  1        5 0.11459863E+00 0.13666553E+03</pdfrwt>
<pdfrwt beam="2">  1       -5 0.38810013E-02 0.13666553E+03</pdfrwt>
<totfact> 0.16217383E+02</totfact>
</mgrwt>
</event>
<event>
 8    1  0.3588496E-007  0.1969606E+03  0.7546771E-02  0.1152332E+00
          5   -1    0    0  501    0  0.00000000000E+00  0.00000000000E+00  0.15961576058E+03  0.15968494302E+03  0.47000000000E+01 0. -1.
         -5   -1    0    0    0  501 -0.00000000000E+00 -0.00000000000E+00 -0.26014946119E+03  0.26019191409E+03  0.47000000000E+01 0. -1.
         25    2    1    2    0    0 -0.13404780517E+03 -0.72068399941E+02 -0.10434263391E+03  0.22287947333E+03  0.12500082417E+03 0.  0.
         25    2    1    2    0    0  0.13404780517E+03  0.72068399941E+02  0.38089332954E+01  0.19699738378E+03  0.12502316946E+03 0.  0.
          5    1    4    4  502    0 -0.16697995105E+02  0.36349545508E+02  0.11280201488E+02  0.41826372599E+02  0.47000000000E+01 0.  1.
         -5    1    4    4    0  502  0.15074580027E+03  0.35718854433E+02 -0.74712681930E+01  0.15517101118E+03  0.47000000000E+01 0.  1.
          5    1    3    3  503    0 -0.95197486282E+02 -0.78349171702E+02 -0.12713197916E+03  0.17716033480E+03  0.47000000000E+01 0. -1.
         -5    1    3    3    0  503 -0.38850318885E+02  0.62807717612E+01  0.22789345254E+02  0.45719138536E+02  0.47000000000E+01 0. -1.
<mgrwt>
<rscale>  0 0.19695701E+03</rscale>
<asrwt>0</asrwt>
<pdfrwt beam="1">  1        5 0.24564858E-01 0.19696056E+03</pdfrwt>
<pdfrwt beam="2">  1       -5 0.40031581E-01 0.19696056E+03</pdfrwt>
<totfact> 0.76080777E+01</totfact>
</mgrwt>
</event>
<event>
 8    1  0.3588496E-007  0.1498203E+03  0.7546771E-02  0.1200694E+00
         -5   -1    0    0    0  501 -0.00000000000E+00  0.00000000000E+00  0.28189102000E+03  0.28193019908E+03  0.47000000000E+01 0. -1.
          5   -1    0    0  501    0  0.00000000000E+00 -0.00000000000E+00 -0.89763442185E+02  0.89886403604E+02  0.47000000000E+01 0. -1.
         25    2    1    2    0    0 -0.70518635958E+02  0.42990673996E+02  0.15882990953E+03  0.21834160306E+03  0.12500015759E+03 0.  0.
         25    2    1    2    0    0  0.70518635958E+02 -0.42990673996E+02  0.33297668278E+02  0.15347499963E+03  0.12499905891E+03 0.  0.
          5    1    3    3  502    0  0.30356736660E+02 -0.71518743090E+01  0.13258877381E+02  0.34213573274E+02  0.47000000000E+01 0. -1.
         -5    1    3    3    0  502 -0.10087537262E+03  0.50142548305E+02  0.14557103215E+03  0.18412802979E+03  0.47000000000E+01 0. -1.
          5    1    4    4  503    0  0.89713287878E+02 -0.34265073125E+02 -0.17995290786E+02  0.97818657467E+02  0.47000000000E+01 0. -1.
         -5    1    4    4    0  503 -0.19194651920E+02 -0.87256008702E+01  0.51292959065E+02  0.55656342159E+02  0.47000000000E+01 0. -1.
<mgrwt>
<rscale>  0 0.14982005E+03</rscale>
<asrwt>0</asrwt>
<pdfrwt beam="2">  1        5 0.13822233E-01 0.14982028E+03</pdfrwt>
<pdfrwt beam="1">  1       -5 0.43380321E-01 0.14982028E+03</pdfrwt>
<totfact> 0.17288842E+02</totfact>
</mgrwt>
</event>
<event>
 8    1  0.3588496E-007  0.1778322E+03  0.7546771E-02  0.1169918E+00
         -5   -1    0    0    0  501 -0.00000000000E+00  0.00000000000E+00  0.11876887782E+03  0.11886183719E+03  0.47000000000E+01 0. -1.
          5   -1    0    0  501    0  0.00000000000E+00 -0.00000000000E+00 -0.26946834866E+03  0.26950933366E+03  0.47000000000E+01 0. -1.
         25    2    1    2    0    0  0.80894050545E+02 -0.97236797786E+02 -0.53474361185E+02  0.18569649195E+03  0.12499935025E+03 0.  0.
         25    2    1    2    0    0 -0.80894050545E+02  0.97236797786E+02 -0.97225109651E+02  0.20267467889E+03  0.12500184502E+03 0.  0.
          5    1    3    3  502    0  0.16232624655E+02 -0.97313650863E+01 -0.72556944800E+02  0.75131869459E+02  0.47000000000E+01 0.  1.
         -5    1    3    3    0  502  0.64661425889E+02 -0.87505432699E+02  0.19082583615E+02  0.11056462249E+03  0.47000000000E+01 0.  1.
          5    1    4    4  503    0 -0.35171522314E+02  0.10445145911E+03 -0.10857617974E+03  0.15478378500E+03  0.47000000000E+01 0.  1.
         -5    1    4    4    0  503 -0.45722528231E+02 -0.72146613234E+01  0.11351070085E+02  0.47890893893E+02  0.47000000000E+01 0.  1.
<mgrwt>
<rscale>  0 0.17783180E+03</rscale>
<asrwt>0</asrwt>
<pdfrwt beam="2">  1        5 0.41466972E-01 0.17783223E+03</pdfrwt>
<pdfrwt beam="1">  1       -5 0.18282438E-01 0.17783223E+03</pdfrwt>
<totfact> 0.12007021E+02</totfact>
</mgrwt>
</event>
<event>
 8    1  0.3588496E-007  0.1740523E+03  0.7546771E-02  0.1173687E+00
          5   -1    0    0  501    0  0.00000000000E+00  0.00000000000E+00  0.33961810185E+03  0.33965062212E+03  0.47000000000E+01 0. -1.
         -5   -1    0    0    0  501 -0.00000000000E+00 -0.00000000000E+00 -0.21709038183E+03  0.21714125329E+03  0.47000000000E+01 0. -1.
         25    2    1    2    0    0 -0.12017545379E+03 -0.15078961951E+02 -0.15243820038E+03  0.23136901222E+03  0.12499880037E+03 0.  0.
         25    2    1    2    0    0  0.12017545379E+03  0.15078961951E+02  0.27496592041E+03  0.32542286318E+03  0.12499707080E+03 0.  0.
          5    1    4    4  502    0  0.90630341599E+02 -0.24405441447E+02  0.77418081156E+02  0.12175850558E+03  0.47000000000E+01 0.  1.
         -5    1    4    4    0  502  0.29545112191E+02  0.39484403397E+02  0.19754783925E+03  0.20366435761E+03  0.47000000000E+01 0.  1.
          5    1    3    3  503    0 -0.10480287425E+02  0.45515047995E+02 -0.56609433861E+02  0.73540288418E+02  0.47000000000E+01 0.  1.
         -5    1    3    3    0  503 -0.10969516636E+03 -0.60594009946E+02 -0.95828766524E+02  0.15782872381E+03  0.47000000000E+01 0.  1.
<mgrwt>
<rscale>  0 0.17405202E+03</rscale>
<asrwt>0</asrwt>
<pdfrwt beam="1">  1        5 0.52255353E-01 0.17405233E+03</pdfrwt>
<pdfrwt beam="2">  1       -5 0.33404935E-01 0.17405233E+03</pdfrwt>
<totfact> 0.23001063E+01</totfact>
</mgrwt>
</event>
<event>
 8    1  0.3588496E-007  0.1312707E+03  0.7546771E-02  0.1225583E+00
         -5   -1    0    0    0  501 -0.00000000000E+00  0.00000000000E+00  0.19983631748E+03  0.19989158007E+03  0.47000000000E+01 0.  1.
          5   -1    0    0  501    0  0.00000000000E+00 -0.00000000000E+00 -0.90072224050E+02  0.90194764512E+02  0.47000000000E+01 0.  1.
         25    2    1    2    0    0 -0.23103334227E+01  0.40014996091E+02  0.85319417928E+02  0.15656119019E+03  0.12500186257E+03 0.  0.
         25    2    1    2    0    0  0.23103334227E+01 -0.40014996091E+02  0.24444675498E+02  0.13352515439E+03  0.12499954857E+03 0.  0.
          5    1    3    3  502    0 -0.24976582908E+02 -0.24333398070E+02 -0.12385330995E+02  0.37301881712E+02  0.47000000000E+01 0. -1.
         -5    1    3    3    0  502  0.22666249485E+02  0.64348394161E+02  0.97704748923E+02  0.11925930848E+03  0.47000000000E+01 0. -1.
          5    1    4    4  503    0 -0.12992270174E+02 -0.49034912361E+02 -0.41098391269E+02  0.65455247913E+02  0.47000000000E+01 0.  1.
         -5    1    4    4    0  503  0.15302603597E+02  0.90199162693E+01  0.65543066767E+02  0.68069906476E+02  0.47000000000E+01 0.  1.
<mgrwt>
<rscale>  0 0.13127017E+03</rscale>
<asrwt>0</asrwt>
<pdfrwt beam="2">  1        5 0.13870942E-01 0.13127072E+03</pdfrwt>
<pdfrwt beam="1">  1       -5 0.30757726E-01 0.13127072E+03</pdfrwt>
<totfact> 0.32893468E+02</totfact>
</mgrwt>
</event>
<event>
 8    1  0.3588496E-007  0.1545135E+03  0.7546771E-02  0.1195034E+00
          5   -1    0    0  501    0  0.00000000000E+00  0.00000000000E+00  0.37668025155E+02  0.37960112211E+02  0.47000000000E+01 0. -1.
         -5   -1    0    0    0  501 -0.00000000000E+00 -0.00000000000E+00 -0.63134138730E+03  0.63135888155E+03  0.47000000000E+01 0. -1.
         25    2    1    2    0    0  0.96929281135E+01 -0.90303816565E+02 -0.28978447993E+03  0.32840441480E+03  0.12500273080E+03 0.  0.
         25    2    1    2    0    0 -0.96929281135E+01  0.90303816565E+02 -0.30388888221E+03  0.34091457897E+03  0.12500226110E+03 0.  0.
          5    1    4    4  502    0 -0.53291687167E+02  0.91386107856E+02 -0.17263526457E+03  0.20252518165E+03  0.47000000000E+01 0. -1.
         -5    1    4    4    0  502  0.43598759054E+02 -0.10822912904E+01 -0.13125361765E+03  0.13838939732E+03  0.47000000000E+01 0. -1.
          5    1    3    3  503    0  0.51868076358E+02 -0.66579410651E+02 -0.25494373755E+03  0.26859172471E+03  0.47000000000E+01 0. -1.
         -5    1    3    3    0  503 -0.42175148244E+02 -0.23724405914E+02 -0.34840742383E+02  0.59812690085E+02  0.47000000000E+01 0. -1.
<mgrwt>
<rscale>  0 0.15451338E+03</rscale>
<asrwt>0</asrwt>
<pdfrwt beam="1">  1        5 0.58188952E-02 0.15451348E+03</pdfrwt>
<pdfrwt beam="2">  1       -5 0.97153250E-01 0.15451348E+03</pdfrwt>
<totfact> 0.12954570E+02</totfact>
</mgrwt>
</event>
<event>
 8    1  0.3588496E-007  0.1355563E+03  0.7546771E-02  0.1219441E+00
          5   -1    0    0  501    0  0.00000000000E+00  0.00000000000E+00  0.47046056890E+03  0.47048404531E+03  0.47000000000E+01 0.  1.
         -5   -1    0    0    0  501 -0.00000000000E+00 -0.00000000000E+00 -0.56755065720E+02  0.56949341391E+02  0.47000000000E+01 0.  1.
         25    2    1    2    0    0 -0.50233189928E+02 -0.15030092925E+02  0.59237686445E+02  0.14793448202E+03  0.12500492155E+03 0.  0.
         25    2    1    2    0    0  0.50233189928E+02  0.15030092925E+02  0.35446781674E+03  0.37949890468E+03  0.12499083361E+03 0.  0.
          5    1    3    3  502    0  0.23277365366E+02 -0.50613512685E+01 -0.25502732343E+02  0.35212673458E+02  0.47000000000E+01 0.  1.
         -5    1    3    3    0  502 -0.73510555294E+02 -0.99687416563E+01  0.84740418788E+02  0.11272180857E+03  0.47000000000E+01 0.  1.
          5    1    4    4  503    0  0.82998167518E+02  0.40449951326E+02  0.21803231789E+03  0.23682287900E+03  0.47000000000E+01 0.  1.
         -5    1    4    4    0  503 -0.32764977590E+02 -0.25419858402E+02  0.13643549885E+03  0.14267602568E+03  0.47000000000E+01 0.  1.
<mgrwt>
<rscale>  0 0.13555304E+03</rscale>
<asrwt>0</asrwt>
<pdfrwt beam="1">  1        5 0.72395295E-01 0.13555629E+03</pdfrwt>
<pdfrwt beam="2">  1       -5 0.87482993E-02 0.13555629E+03</pdfrwt>
<totfact> 0.12351899E+02</totfact>
</mgrwt>
</event>
<event>
 8    1  0.3588496E-007  0.1287545E+03  0.7546771E-02  0.1229316E+00
          5   -1    0    0  501    0  0.00000000000E+00  0.00000000000E+00  0.67876234329E+02  0.68038762383E+02  0.47000000000E+01 0.  1.
         -5   -1    0    0    0  501 -0.00000000000E+00 -0.00000000000E+00 -0.28811422629E+03  0.28815255923E+03  0.47000000000E+01 0.  1.
         25    2    1    2    0    0  0.29789672538E+02  0.80823254534E+01 -0.17997638940E+03  0.22128873382E+03  0.12499781758E+03 0.  0.
         25    2    1    2    0    0 -0.29789672538E+02 -0.80823254534E+01 -0.40261602563E+02  0.13490258779E+03  0.12499985191E+03 0.  0.
          5    1    3    3  502    0  0.43473707967E+02 -0.35859265061E+02 -0.16212002907E+03  0.17169986605E+03  0.47000000000E+01 0. -1.
         -5    1    3    3    0  502 -0.13684035429E+02  0.43941590514E+02 -0.17856360324E+02  0.49588867768E+02  0.47000000000E+01 0. -1.
          5    1    4    4  503    0  0.38003030553E+02  0.24903652544E+02 -0.37855996003E+02  0.59326121352E+02  0.47000000000E+01 0. -1.
         -5    1    4    4    0  503 -0.67792703091E+02 -0.32985977998E+02 -0.24056065595E+01  0.75576466441E+02  0.47000000000E+01 0. -1.
<mgrwt>
<rscale>  0 0.12875397E+03</rscale>
<asrwt>0</asrwt>
<pdfrwt beam="1">  1        5 0.10457949E-01 0.12875446E+03</pdfrwt>
<pdfrwt beam="2">  1       -5 0.44340716E-01 0.12875446E+03</pdfrwt>
<totfact> 0.25738105E+02</totfact>
</mgrwt>
</event>
<event>
 8    1  0.3588496E-007  0.1333595E+03  0.7546771E-02  0.1222555E+00
          5   -1    0    0  501    0  0.00000000000E+00  0.00000000000E+00  0.26773036035E+03  0.26777161136E+03  0.47000000000E+01 0. -1.
         -5   -1    0    0    0  501 -0.00000000000E+00 -0.00000000000E+00 -0.85541965937E+02  0.85670986550E+02  0.47000000000E+01 0. -1.
         25    2    1    2    0    0  0.28028866497E+02 -0.37068026006E+02  0.73647626500E+01  0.13356272208E+03  0.12500042037E+03 0.  0.
         25    2    1    2    0    0 -0.28028866497E+02  0.37068026006E+02  0.17482363176E+03  0.21987987583E+03  0.12499680661E+03 0.  0.
          5    1    3    3  502    0  0.69224380833E+02  0.10446337558E+02  0.68458303853E+01  0.70498909664E+02  0.47000000000E+01 0. -1.
         -5    1    3    3    0  502 -0.41195514336E+02 -0.47514363564E+02  0.51893226473E+00  0.63063812421E+02  0.47000000000E+01 0. -1.
          5    1    4    4  503    0  0.23858545706E+02 -0.40270761024E+00  0.14856153490E+03  0.15053907143E+03  0.47000000000E+01 0. -1.
         -5    1    4    4    0  503 -0.51887412203E+02  0.37470733617E+02  0.26262096867E+02  0.69340804400E+02  0.47000000000E+01 0. -1.
<mgrwt>
<rscale>  0 0.13335867E+03</rscale>
<asrwt>0</asrwt>
<pdfrwt beam="1">  1        5 0.41202384E-01 0.13335952E+03</pdfrwt>
<pdfrwt beam="2">  1       -5 0.13173400E-01 0.13335952E+03</pdfrwt>
<totfact> 0.20165512E+02</totfact>
</mgrwt>
</event>
<event>
 8    1  0.3588496E-007  0.1287298E+03  0.7546771E-02  0.1229354E+00
          5   -1    0    0  501    0  0.00000000000E+00  0.00000000000E+00  0.66747634494E+02  0.66912903916E+02  0.47000000000E+01 0. -1.
         -5   -1    0    0    0  501 -0.00000000000E+00 -0.00000000000E+00 -0.25804601397E+03  0.25808881287E+03  0.47000000000E+01 0. -1.
         25    2    1    2    0    0  0.30750351838E+02  0.84425267330E+00 -0.12806892678E+03  0.18158162009E+03  0.12499575132E+03 0.  0.
         25    2    1    2    0    0 -0.30750351838E+02 -0.84425267330E+00 -0.63229452702E+02  0.14342009670E+03  0.12500025419E+03 0.  0.
          5    1    4    4  502    0  0.25557462489E+02  0.45362013322E+02 -0.10363609157E+02  0.53295314393E+02  0.47000000000E+01 0.  1.
         -5    1    4    4    0  502 -0.56307814327E+02 -0.46206265995E+02 -0.52865843545E+02  0.90124782304E+02  0.47000000000E+01 0.  1.
          5    1    3    3  503    0 -0.21836136910E+01  0.56583486961E+02 -0.30769166557E+02  0.64616489970E+02  0.47000000000E+01 0. -1.
         -5    1    3    3    0  503  0.32933965529E+02 -0.55739234288E+02 -0.97299760220E+02  0.11696513012E+03  0.47000000000E+01 0. -1.
<mgrwt>
<rscale>  0 0.12872870E+03</rscale>
<asrwt>0</asrwt>
<pdfrwt beam="1">  1        5 0.10284872E-01 0.12872980E+03</pdfrwt>
<pdfrwt beam="2">  1       -5 0.39715392E-01 0.12872980E+03</pdfrwt>
<totfact> 0.33241076E+02</totfact>
</mgrwt>
</event>
<event>
 8    1  0.3588496E-007  0.1485397E+03  0.7546771E-02  0.1202287E+00
         -5   -1    0    0    0  501 -0.00000000000E+00  0.00000000000E+00  0.57335517465E+03  0.57337443813E+03  0.47000000000E+01 0. -1.
          5   -1    0    0  501    0  0.00000000000E+00 -0.00000000000E+00 -0.48488745322E+02  0.48715997607E+02  0.47000000000E+01 0. -1.
         25    2    1    2    0    0 -0.44059232483E+02 -0.67056796801E+02  0.40450636159E+03  0.43090838643E+03  0.12497524143E+03 0.  0.
         25    2    1    2    0    0  0.44059232483E+02  0.67056796801E+02  0.12036006775E+03  0.19118204931E+03  0.12500480033E+03 0.  0.
          5    1    4    4  502    0  0.22391318477E+02  0.79672407587E+02  0.16866517484E+02  0.84590975203E+02  0.47000000000E+01 0. -1.
         -5    1    4    4    0  502  0.21667914005E+02 -0.12615610786E+02  0.10349355026E+03  0.10659107410E+03  0.47000000000E+01 0. -1.
          5    1    3    3  503    0 -0.49187659979E+02  0.12418630290E+02  0.26798936734E+03  0.27278936798E+03  0.47000000000E+01 0. -1.
         -5    1    3    3    0  503  0.51284274961E+01 -0.79475427091E+02  0.13651699424E+03  0.15811901845E+03  0.47000000000E+01 0. -1.
<mgrwt>
<rscale>  0 0.14853344E+03</rscale>
<asrwt>0</asrwt>
<pdfrwt beam="2">  1        5 0.74787692E-02 0.14853966E+03</pdfrwt>
<pdfrwt beam="1">  1       -5 0.88227458E-01 0.14853966E+03</pdfrwt>
<totfact> 0.10531872E+02</totfact>
</mgrwt>
</event>
<event>
 8    1  0.3588496E-007  0.1343653E+03  0.7546771E-02  0.1221128E+00
         -5   -1    0    0    0  501 -0.00000000000E+00  0.00000000000E+00  0.11248826137E+02  0.12191230022E+02  0.47000000000E+01 0.  1.
          5   -1    0    0  501    0  0.00000000000E+00 -0.00000000000E+00 -0.18461858810E+04  0.18461918636E+04  0.47000000000E+01 0.  1.
         25    2    1    2    0    0  0.38407126392E+02 -0.30920299944E+02 -0.53857021059E+03  0.55507153165E+03  0.12496143888E+03 0.  0.
         25    2    1    2    0    0 -0.38407126392E+02  0.30920299944E+02 -0.12963668443E+04  0.13033115620E+04  0.12499144098E+03 0.  0.
          5    1    4    4  502    0  0.14370548036E+02  0.63102299773E+02 -0.44698461579E+03  0.45166995654E+03  0.47000000000E+01 0.  1.
         -5    1    4    4    0  502 -0.52777674428E+02 -0.32181999829E+02 -0.84938222848E+03  0.85164160542E+03  0.47000000000E+01 0.  1.
          5    1    3    3  503    0  0.27034078977E+01 -0.75777266098E+02 -0.27529046070E+03  0.28558086459E+03  0.47000000000E+01 0. -1.
         -5    1    3    3    0  503  0.35703718494E+02  0.44856966154E+02 -0.26327974990E+03  0.26949066706E+03  0.47000000000E+01 0. -1.
<mgrwt>
<rscale>  0 0.13435832E+03</rscale>
<asrwt>0</asrwt>
<pdfrwt beam="2">  1        5 0.28410132E+00 0.13436530E+03</pdfrwt>
<pdfrwt beam="1">  1       -5 0.18035429E-02 0.13436530E+03</pdfrwt>
<totfact> 0.34290135E+01</totfact>
</mgrwt>
</event>
<event>
 8    1  0.3588496E-007  0.1446371E+03  0.7546771E-02  0.1207224E+00
          5   -1    0    0  501    0  0.00000000000E+00  0.00000000000E+00  0.97079455115E+02  0.97193161310E+02  0.47000000000E+01 0. -1.
         -5   -1    0    0    0  501 -0.00000000000E+00 -0.00000000000E+00 -0.21536431135E+03  0.21541559044E+03  0.47000000000E+01 0. -1.
         25    2    1    2    0    0 -0.13696988508E+02  0.71452793686E+02 -0.55049185691E+02  0.15475238868E+03  0.12499911895E+03 0.  0.
         25    2    1    2    0    0  0.13696988508E+02 -0.71452793686E+02 -0.63235670546E+02  0.15785636307E+03  0.12500708824E+03 0.  0.
          5    1    3    3  502    0 -0.25074158741E+02  0.69810945390E+02 -0.90546515997E+02  0.11714539296E+03  0.47000000000E+01 0. -1.
         -5    1    3    3    0  502  0.11377170234E+02  0.16418482967E+01  0.35497330306E+02  0.37606995722E+02  0.47000000000E+01 0. -1.
          5    1    4    4  503    0 -0.35038401497E+02  0.15451899940E+02  0.20612624187E+01  0.38636635386E+02  0.47000000000E+01 0. -1.
         -5    1    4    4    0  503  0.48735390005E+02 -0.86904693626E+02 -0.65296932965E+02  0.11921972768E+03  0.47000000000E+01 0. -1.
<mgrwt>
<rscale>  0 0.14463535E+03</rscale>
<asrwt>0</asrwt>
<pdfrwt beam="1">  1        5 0.14947992E-01 0.14463707E+03</pdfrwt>
<pdfrwt beam="2">  1       -5 0.33145662E-01 0.14463707E+03</pdfrwt>
<totfact> 0.25629952E+02</totfact>
</mgrwt>
</event>
<event>
 8    1  0.3588496E-007  0.1425592E+03  0.7546771E-02  0.1209927E+00
          5   -1    0    0  501    0  0.00000000000E+00  0.00000000000E+00  0.15416155420E+03  0.15423318318E+03  0.47000000000E+01 0.  1.
         -5   -1    0    0    0  501 -0.00000000000E+00 -0.00000000000E+00 -0.13363245275E+03  0.13371507928E+03  0.47000000000E+01 0.  1.
         25    2    1    2    0    0  0.22462434470E+02  0.64765041392E+02  0.27642018227E+02  0.14521170615E+03  0.12499314734E+03 0.  0.
         25    2    1    2    0    0 -0.22462434470E+02 -0.64765041392E+02 -0.71129167733E+01  0.14273655631E+03  0.12499623744E+03 0.  0.
          5    1    3    3  502    0  0.17791745236E+02 -0.15824429086E+02  0.54781721368E+02  0.59917324294E+02  0.47000000000E+01 0. -1.
         -5    1    3    3    0  502  0.46706892340E+01  0.80589470478E+02 -0.27139703141E+02  0.85294381857E+02  0.47000000000E+01 0. -1.
          5    1    4    4  503    0  0.56596504447E+01 -0.48737287894E+02  0.54190387883E+02  0.73253279881E+02  0.47000000000E+01 0.  1.
         -5    1    4    4    0  503 -0.28122084915E+02 -0.16027753498E+02 -0.61303304656E+02  0.69483276433E+02  0.47000000000E+01 0.  1.
<mgrwt>
<rscale>  0 0.14255854E+03</rscale>
<asrwt>0</asrwt>
<pdfrwt beam="1">  1        5 0.23729028E-01 0.14255922E+03</pdfrwt>
<pdfrwt beam="2">  1       -5 0.20570705E-01 0.14255922E+03</pdfrwt>
<totfact> 0.27156516E+02</totfact>
</mgrwt>
</event>
<event>
 8    1  0.3588496E-007  0.1431530E+03  0.7546771E-02  0.1209149E+00
         -5   -1    0    0    0  501 -0.00000000000E+00  0.00000000000E+00  0.20895774024E+03  0.20901059113E+03  0.47000000000E+01 0.  1.
          5   -1    0    0  501    0  0.00000000000E+00 -0.00000000000E+00 -0.11776712010E+03  0.11786086957E+03  0.47000000000E+01 0.  1.
         25    2    1    2    0    0 -0.30632364165E+02  0.62686518890E+02  0.11259739721E+03  0.18212893375E+03  0.12499933305E+03 0.  0.
         25    2    1    2    0    0  0.30632364165E+02 -0.62686518890E+02 -0.21406777074E+02  0.14474252696E+03  0.12499683044E+03 0.  0.
          5    1    3    3  502    0 -0.16748755756E+02  0.10038069381E+03  0.89175594790E+02  0.13539269262E+03  0.47000000000E+01 0. -1.
         -5    1    3    3    0  502 -0.13883608409E+02 -0.37694174923E+02  0.23421802425E+02  0.46736241124E+02  0.47000000000E+01 0. -1.
          5    1    4    4  503    0 -0.48435703398E+01  0.32973847131E+02 -0.25960529330E+02  0.42506162510E+02  0.47000000000E+01 0.  1.
         -5    1    4    4    0  503  0.35475934505E+02 -0.95660366021E+02  0.45537522563E+01  0.10223636445E+03  0.47000000000E+01 0.  1.
<mgrwt>
<rscale>  0 0.14315243E+03</rscale>
<asrwt>0</asrwt>
<pdfrwt beam="2">  1        5 0.18129296E-01 0.14315298E+03</pdfrwt>
<pdfrwt beam="1">  1       -5 0.32158621E-01 0.14315298E+03</pdfrwt>
<totfact> 0.19058297E+02</totfact>
</mgrwt>
</event>
<event>
 8    1  0.3588496E-007  0.1685507E+03  0.7546771E-02  0.1179369E+00
         -5   -1    0    0    0  501 -0.00000000000E+00  0.00000000000E+00  0.28066502473E+03  0.28070437493E+03  0.47000000000E+01 0. -1.
          5   -1    0    0  501    0  0.00000000000E+00 -0.00000000000E+00 -0.11467591262E+03  0.11477218712E+03  0.47000000000E+01 0. -1.
         25    2    1    2    0    0  0.93981875442E+02  0.62868024556E+02  0.15094332857E+03  0.22625923307E+03  0.12499748271E+03 0.  0.
         25    2    1    2    0    0 -0.93981875442E+02 -0.62868024556E+02  0.15045783533E+02  0.16921732898E+03  0.12499258939E+03 0.  0.
          5    1    3    3  502    0  0.27786189193E+02  0.46597633567E+02  0.14818667339E+03  0.15787587509E+03  0.47000000000E+01 0. -1.
         -5    1    3    3    0  502  0.66195686249E+02  0.16270390989E+02  0.27566551807E+01  0.68383357981E+02  0.47000000000E+01 0. -1.
          5    1    4    4  503    0 -0.67599605882E+02 -0.94769515664E+02 -0.15536278493E+02  0.11753481937E+03  0.47000000000E+01 0. -1.
         -5    1    4    4    0  503 -0.26382269560E+02  0.31901491107E+02  0.30582062027E+02  0.51682509612E+02  0.47000000000E+01 0. -1.
<mgrwt>
<rscale>  0 0.16854983E+03</rscale>
<asrwt>0</asrwt>
<pdfrwt beam="2">  1        5 0.17652881E-01 0.16855074E+03</pdfrwt>
<pdfrwt beam="1">  1       -5 0.43189667E-01 0.16855074E+03</pdfrwt>
<totfact> 0.11590525E+02</totfact>
</mgrwt>
</event>
<event>
 8    1  0.3588496E-007  0.1284031E+03  0.7546771E-02  0.1229850E+00
          5   -1    0    0  501    0  0.00000000000E+00  0.00000000000E+00  0.19074812383E+03  0.19080601863E+03  0.47000000000E+01 0.  1.
         -5   -1    0    0    0  501 -0.00000000000E+00 -0.00000000000E+00 -0.87076143897E+02  0.87202894653E+02  0.47000000000E+01 0.  1.
         25    2    1    2    0    0 -0.17094362667E+02  0.23849143500E+02  0.65021683197E+02  0.14392766356E+03  0.12500541657E+03 0.  0.
         25    2    1    2    0    0  0.17094362667E+02 -0.23849143500E+02  0.38650296739E+02  0.13408124972E+03  0.12499174856E+03 0.  0.
          5    1    3    3  502    0 -0.52295470028E+02 -0.28707901808E+02  0.11507220016E+02  0.60938213989E+02  0.47000000000E+01 0.  1.
         -5    1    3    3    0  502  0.35201107361E+02  0.52557045308E+02  0.53514463182E+02  0.82989449574E+02  0.47000000000E+01 0.  1.
          5    1    4    4  503    0 -0.44385598948E+02  0.14394614104E+01 -0.16469028328E+02  0.47596978236E+02  0.47000000000E+01 0.  1.
         -5    1    4    4    0  503  0.61479961615E+02 -0.25288604910E+02  0.55119325067E+02  0.86484271485E+02  0.47000000000E+01 0.  1.
<mgrwt>
<rscale>  0 0.12839976E+03</rscale>
<asrwt>0</asrwt>
<pdfrwt beam="1">  1        5 0.29360069E-01 0.12840309E+03</pdfrwt>
<pdfrwt beam="2">  1       -5 0.13410533E-01 0.12840309E+03</pdfrwt>
<totfact> 0.37971348E+02</totfact>
</mgrwt>
</event>
<event>
 8    1  0.3588496E-007  0.2089473E+03  0.7546771E-02  0.1142404E+00
         -5   -1    0    0    0  501 -0.00000000000E+00  0.00000000000E+00  0.68130559978E+02  0.68292482771E+02  0.47000000000E+01 0.  1.
          5   -1    0    0  501    0  0.00000000000E+00 -0.00000000000E+00 -0.64138154091E+03  0.64139876132E+03  0.47000000000E+01 0.  1.
         25    2    1    2    0    0  0.11358987066E+02 -0.16704574114E+03 -0.26929017337E+03  0.34084015465E+03  0.12498602853E+03 0.  0.
         25    2    1    2    0    0 -0.11358987066E+02  0.16704574114E+03 -0.30396080756E+03  0.36885108944E+03  0.12500258968E+03 0.  0.
          5    1    4    4  502    0 -0.61000415985E+02  0.48738288680E+02 -0.89183240106E+02  0.11862635394E+03  0.47000000000E+01 0.  1.
         -5    1    4    4    0  502  0.49641428919E+02  0.11830745246E+03 -0.21477756746E+03  0.25022473550E+03  0.47000000000E+01 0.  1.
          5    1    3    3  503    0  0.22033457335E+02 -0.16497427380E+03 -0.16003382308E+03  0.23094349696E+03  0.47000000000E+01 0. -1.
         -5    1    3    3    0  503 -0.10674470269E+02 -0.20714673376E+01 -0.10925635029E+03  0.10989665769E+03  0.47000000000E+01 0. -1.
<mgrwt>
<rscale>  0 0.20894477E+03</rscale>
<asrwt>0</asrwt>
<pdfrwt beam="2">  1        5 0.98687859E-01 0.20894725E+03</pdfrwt>
<pdfrwt beam="1">  1       -5 0.10495405E-01 0.20894725E+03</pdfrwt>
<totfact> 0.49185656E+01</totfact>
</mgrwt>
</event>
<event>
 8    1  0.3588496E-007  0.1258879E+03  0.7546771E-02  0.1233690E+00
          5   -1    0    0  501    0  0.00000000000E+00  0.00000000000E+00  0.31567711850E+02  0.31915676891E+02  0.47000000000E+01 0.  1.
         -5   -1    0    0    0  501 -0.00000000000E+00 -0.00000000000E+00 -0.50043396492E+03  0.50045603527E+03  0.47000000000E+01 0.  1.
         25    2    1    2    0    0  0.23455880724E+01 -0.14710559880E+02 -0.24919055333E+03  0.27918397545E+03  0.12500343165E+03 0.  0.
         25    2    1    2    0    0 -0.23455880724E+01  0.14710559880E+02 -0.21967569973E+03  0.25318773671E+03  0.12499885844E+03 0.  0.
          5    1    4    4  502    0 -0.35743309510E+02  0.52034536348E+02 -0.17430849750E+03  0.18544734953E+03  0.47000000000E+01 0.  1.
         -5    1    4    4    0  502  0.33397721437E+02 -0.37323976469E+02 -0.45367202232E+02  0.67740387177E+02  0.47000000000E+01 0.  1.
          5    1    3    3  503    0  0.39733145925E+01 -0.11977914573E+01 -0.26068452831E+03  0.26075991877E+03  0.47000000000E+01 0.  1.
         -5    1    3    3    0  503 -0.16277265201E+01 -0.13512768423E+02  0.11493974979E+02  0.18424056689E+02  0.47000000000E+01 0.  1.
<mgrwt>
<rscale>  0 0.12588675E+03</rscale>
<asrwt>0</asrwt>
<pdfrwt beam="1">  1        5 0.48850357E-02 0.12588789E+03</pdfrwt>
<pdfrwt beam="2">  1       -5 0.77018299E-01 0.12588789E+03</pdfrwt>
<totfact> 0.27978303E+02</totfact>
</mgrwt>
</event>
<event>
 8    1  0.3588496E-007  0.1341459E+03  0.7546771E-02  0.1221431E+00
         -5   -1    0    0    0  501 -0.00000000000E+00  0.00000000000E+00  0.18545547104E+02  0.19131840408E+02  0.47000000000E+01 0.  1.
          5   -1    0    0  501    0  0.00000000000E+00 -0.00000000000E+00 -0.95674827710E+03  0.95675982134E+03  0.47000000000E+01 0.  1.
         25    2    1    2    0    0 -0.46627106690E+02  0.13989004617E+02 -0.49211199267E+03  0.51006758469E+03  0.12499979319E+03 0.  0.
         25    2    1    2    0    0  0.46627106690E+02 -0.13989004617E+02 -0.44609073733E+03  0.46582407706E+03  0.12500138203E+03 0.  0.
          5    1    3    3  502    0 -0.52699680836E+02 -0.45071610989E+02 -0.19426189022E+03  0.20632129911E+03  0.47000000000E+01 0. -1.
         -5    1    3    3    0  502  0.60725741459E+01  0.59060615606E+02 -0.29785010245E+03  0.30374628558E+03  0.47000000000E+01 0. -1.
          5    1    4    4  503    0 -0.15350638263E+02 -0.54590797942E+02 -0.14627531184E+03  0.15695335030E+03  0.47000000000E+01 0. -1.
         -5    1    4    4    0  503  0.61977744953E+02  0.40601793325E+02 -0.29981542548E+03  0.30887072676E+03  0.47000000000E+01 0. -1.
<mgrwt>
<rscale>  0 0.13414554E+03</rscale>
<asrwt>0</asrwt>
<pdfrwt beam="2">  1        5 0.14723799E+00 0.13414591E+03</pdfrwt>
<pdfrwt beam="1">  1       -5 0.28991493E-02 0.13414591E+03</pdfrwt>
<totfact> 0.13474374E+02</totfact>
</mgrwt>
</event>
<event>
 8    1  0.3588496E-007  0.1370276E+03  0.7546771E-02  0.1217387E+00
         -5   -1    0    0    0  501 -0.00000000000E+00  0.00000000000E+00  0.11337542597E+03  0.11347280385E+03  0.47000000000E+01 0.  1.
          5   -1    0    0  501    0  0.00000000000E+00 -0.00000000000E+00 -0.17413839386E+03  0.17420180888E+03  0.47000000000E+01 0.  1.
         25    2    1    2    0    0 -0.27247341467E+02 -0.49078702340E+02  0.18136231859E+01  0.13703955335E+03  0.12500165324E+03 0.  0.
         25    2    1    2    0    0  0.27247341467E+02  0.49078702340E+02 -0.62576591081E+02  0.15063505939E+03  0.12499581883E+03 0.  0.
          5    1    4    4  502    0 -0.14728936089E+02 -0.36558595820E+02 -0.29959276962E+02  0.49730481224E+02  0.47000000000E+01 0. -1.
         -5    1    4    4    0  502  0.41976277555E+02  0.85637298160E+02 -0.32617314119E+02  0.10090457816E+03  0.47000000000E+01 0. -1.
          5    1    3    3  503    0 -0.55749163695E+01 -0.71646373641E+02  0.43933646420E+02  0.84359574656E+02  0.47000000000E+01 0. -1.
         -5    1    3    3    0  503 -0.21672425097E+02  0.22567671301E+02 -0.42120023234E+02  0.52679978690E+02  0.47000000000E+01 0. -1.
<mgrwt>
<rscale>  0 0.13702622E+03</rscale>
<asrwt>0</asrwt>
<pdfrwt beam="2">  1        5 0.26802891E-01 0.13702755E+03</pdfrwt>
<pdfrwt beam="1">  1       -5 0.17454742E-01 0.13702755E+03</pdfrwt>
<totfact> 0.28767101E+02</totfact>
</mgrwt>
</event>
<event>
 8    1  0.3588496E-007  0.1489202E+03  0.7546771E-02  0.1201807E+00
         -5   -1    0    0    0  501 -0.00000000000E+00  0.00000000000E+00  0.33065431707E+03  0.33068771884E+03  0.47000000000E+01 0. -1.
          5   -1    0    0  501    0  0.00000000000E+00 -0.00000000000E+00 -0.80635348142E+02  0.80772206668E+02  0.47000000000E+01 0. -1.
         25    2    1    2    0    0 -0.76890142465E+02 -0.25307939834E+02  0.20966488178E+03  0.25716901321E+03  0.12499581143E+03 0.  0.
         25    2    1    2    0    0  0.76890142465E+02  0.25307939834E+02  0.40354087142E+02  0.15429091231E+03  0.12499858977E+03 0.  0.
          5    1    3    3  502    0 -0.53322214225E+02  0.21710890756E+02  0.21338092292E+02  0.61579424242E+02  0.47000000000E+01 0.  1.
         -5    1    3    3    0  502 -0.23567928240E+02 -0.47018830590E+02  0.18832678949E+03  0.19558958896E+03  0.47000000000E+01 0.  1.
          5    1    4    4  503    0  0.26656285619E+02  0.37044146840E+02  0.77836594091E+02  0.90351822105E+02  0.47000000000E+01 0.  1.
         -5    1    4    4    0  503  0.50233856846E+02 -0.11736207006E+02 -0.37482506949E+02  0.63939090201E+02  0.47000000000E+01 0.  1.
<mgrwt>
<rscale>  0 0.14891964E+03</rscale>
<asrwt>0</asrwt>
<pdfrwt beam="2">  1        5 0.12418535E-01 0.14892022E+03</pdfrwt>
<pdfrwt beam="1">  1       -5 0.50882992E-01 0.14892022E+03</pdfrwt>
<totfact> 0.14947279E+02</totfact>
</mgrwt>
</event>
<event>
 8    1  0.3588496E-007  0.1303807E+03  0.7546771E-02  0.1226896E+00
         -5   -1    0    0    0  501 -0.00000000000E+00  0.00000000000E+00  0.80007971096E+01  0.92791569869E+01  0.47000000000E+01 0.  1.
          5   -1    0    0  501    0  0.00000000000E+00 -0.00000000000E+00 -0.19978934823E+04  0.19978990106E+04  0.47000000000E+01 0.  1.
         25    2    1    2    0    0 -0.35440210631E+02 -0.10845229713E+02 -0.86827474801E+03  0.87800771050E+03  0.12499149624E+03 0.  0.
         25    2    1    2    0    0  0.35440210631E+02  0.10845229713E+02 -0.11216179371E+04  0.11291704571E+04  0.12500198657E+03 0.  0.
          5    1    3    3  502    0 -0.23886275676E+01 -0.12078321879E+02 -0.81512164712E+03  0.81522817726E+03  0.47000000000E+01 0. -1.
         -5    1    3    3    0  502 -0.33051583064E+02  0.12330921661E+01 -0.53153100889E+02  0.62779533236E+02  0.47000000000E+01 0. -1.
          5    1    4    4  503    0 -0.27073877437E+02 -0.78236097214E+01 -0.71209655720E+02  0.76727496872E+02  0.47000000000E+01 0. -1.
         -5    1    4    4    0  503  0.62514088068E+02  0.18668839435E+02 -0.10504082814E+04  0.10524429602E+04  0.47000000000E+01 0. -1.
<mgrwt>
<rscale>  0 0.13037817E+03</rscale>
<asrwt>0</asrwt>
<pdfrwt beam="2">  1        5 0.30746662E+00 0.13038069E+03</pdfrwt>
<pdfrwt beam="1">  1       -5 0.13296541E-02 0.13038069E+03</pdfrwt>
<totfact> 0.39085664E+01</totfact>
</mgrwt>
</event>
<event>
 8    1  0.3588496E-007  0.1376032E+03  0.7546771E-02  0.1216593E+00
          5   -1    0    0  501    0  0.00000000000E+00  0.00000000000E+00  0.25319401535E+02  0.25751933793E+02  0.47000000000E+01 0. -1.
         -5   -1    0    0    0  501 -0.00000000000E+00 -0.00000000000E+00 -0.83826025354E+03  0.83827342954E+03  0.47000000000E+01 0. -1.
         25    2    1    2    0    0  0.21378814786E+02 -0.53391957956E+02 -0.55356773496E+03  0.57041377266E+03  0.12500751958E+03 0.  0.
         25    2    1    2    0    0 -0.21378814786E+02  0.53391957956E+02 -0.25937311705E+03  0.29361159068E+03  0.12500238972E+03 0.  0.
          5    1    3    3  502    0  0.36638282105E+01  0.40996713983E+02 -0.17161393494E+03  0.17654344185E+03  0.47000000000E+01 0. -1.
         -5    1    3    3    0  502  0.17714986576E+02 -0.94388671939E+02 -0.38195380002E+03  0.39387033080E+03  0.47000000000E+01 0. -1.
          5    1    4    4  503    0 -0.23519332561E+02  0.63828470130E+02 -0.51592701836E+02  0.85505143038E+02  0.47000000000E+01 0.  1.
         -5    1    4    4    0  503  0.21405177745E+01 -0.10436512174E+02 -0.20778041521E+03  0.20810644764E+03  0.47000000000E+01 0.  1.
<mgrwt>
<rscale>  0 0.13760201E+03</rscale>
<asrwt>0</asrwt>
<pdfrwt beam="1">  1        5 0.39295784E-02 0.13760318E+03</pdfrwt>
<pdfrwt beam="2">  1       -5 0.12899738E+00 0.13760318E+03</pdfrwt>
<totfact> 0.11768891E+02</totfact>
</mgrwt>
</event>
<event>
 8    1  0.3588496E-007  0.1348646E+03  0.7546771E-02  0.1220414E+00
         -5   -1    0    0    0  501 -0.00000000000E+00  0.00000000000E+00  0.12698652518E+03  0.12707347315E+03  0.47000000000E+01 0.  1.
          5   -1    0    0  501    0  0.00000000000E+00 -0.00000000000E+00 -0.14400726511E+03  0.14408394221E+03  0.47000000000E+01 0.  1.
         25    2    1    2    0    0  0.43390148515E+02  0.26083901823E+02  0.25464865641E+01  0.13488076182E+03  0.12499304138E+03 0.  0.
         25    2    1    2    0    0 -0.43390148515E+02 -0.26083901823E+02 -0.19567226489E+02  0.13627665354E+03  0.12500150009E+03 0.  0.
          5    1    3    3  502    0  0.66066859530E+02  0.38836849993E+02  0.41901712549E+02  0.87469848291E+02  0.47000000000E+01 0.  1.
         -5    1    3    3    0  502 -0.22676711015E+02 -0.12752948170E+02 -0.39355225985E+02  0.47410913531E+02  0.47000000000E+01 0.  1.
          5    1    4    4  503    0 -0.65867972274E+02 -0.61306269807E+02 -0.25901454755E+02  0.93755127046E+02  0.47000000000E+01 0. -1.
         -5    1    4    4    0  503  0.22477823759E+02  0.35222367984E+02  0.63342282652E+01  0.42521526491E+02  0.47000000000E+01 0. -1.
<mgrwt>
<rscale>  0 0.13486260E+03</rscale>
<asrwt>0</asrwt>
<pdfrwt beam="2">  1        5 0.22167550E-01 0.13486456E+03</pdfrwt>
<pdfrwt beam="1">  1       -5 0.19548975E-01 0.13486456E+03</pdfrwt>
<totfact> 0.33342893E+02</totfact>
</mgrwt>
</event>
<event>
 8    1  0.3588496E-007  0.1397305E+03  0.7546771E-02  0.1213694E+00
         -5   -1    0    0    0  501 -0.00000000000E+00  0.00000000000E+00  0.96523647512E+02  0.96638007683E+02  0.47000000000E+01 0.  1.
          5   -1    0    0  501    0  0.00000000000E+00 -0.00000000000E+00 -0.22332291050E+03  0.22337236255E+03  0.47000000000E+01 0.  1.
         25    2    1    2    0    0  0.57022799558E+02  0.25380209510E+02 -0.13987138585E+02  0.14042424583E+03  0.12501029585E+03 0.  0.
         25    2    1    2    0    0 -0.57022799558E+02 -0.25380209510E+02 -0.11281212440E+03  0.17958612440E+03  0.12501538290E+03 0.  0.
          5    1    3    3  502    0  0.32832959179E+02 -0.40532985828E+02 -0.39472225140E+02  0.65582564040E+02  0.47000000000E+01 0. -1.
         -5    1    3    3    0  502  0.24189840379E+02  0.65913195338E+02  0.25485086554E+02  0.74841681795E+02  0.47000000000E+01 0. -1.
          5    1    4    4  503    0 -0.69592436306E+02  0.27740444112E+02 -0.96819661589E+02  0.12251031100E+03  0.47000000000E+01 0.  1.
         -5    1    4    4    0  503  0.12569636748E+02 -0.53120653621E+02 -0.15992462812E+02  0.57075813406E+02  0.47000000000E+01 0.  1.
<mgrwt>
<rscale>  0 0.13972932E+03</rscale>
<asrwt>0</asrwt>
<pdfrwt beam="2">  1        5 0.34369972E-01 0.13973046E+03</pdfrwt>
<pdfrwt beam="1">  1       -5 0.14862393E-01 0.13973046E+03</pdfrwt>
<totfact> 0.23811130E+02</totfact>
</mgrwt>
</event>
<event>
 8    1  0.3588496E-007  0.1529479E+03  0.7546771E-02  0.1196898E+00
         -5   -1    0    0    0  501 -0.00000000000E+00  0.00000000000E+00  0.67191210627E+03  0.67192854423E+03  0.47000000000E+01 0. -1.
          5   -1    0    0  501    0  0.00000000000E+00 -0.00000000000E+00 -0.34642644121E+02  0.34960017043E+02  0.47000000000E+01 0. -1.
         25    2    1    2    0    0 -0.73251869160E+02  0.49010255597E+02  0.32204266332E+03  0.35651724669E+03  0.12500091479E+03 0.  0.
         25    2    1    2    0    0  0.73251869160E+02 -0.49010255597E+02  0.31522679883E+03  0.35037131459E+03  0.12499712755E+03 0.  0.
          5    1    3    3  502    0  0.11978465113E+02  0.10739762763E+01  0.19835270446E+03  0.19877253939E+03  0.47000000000E+01 0.  1.
         -5    1    3    3    0  502 -0.85230334273E+02  0.47936279321E+02  0.12368995886E+03  0.15774470729E+03  0.47000000000E+01 0.  1.
          5    1    4    4  503    0 -0.20155364154E+02 -0.53558965402E+02  0.14742875426E+03  0.15821545140E+03  0.47000000000E+01 0.  1.
         -5    1    4    4    0  503  0.93407233314E+02  0.45487098045E+01  0.16779804457E+03  0.19215586319E+03  0.47000000000E+01 0.  1.
<mgrwt>
<rscale>  0 0.15294716E+03</rscale>
<asrwt>0</asrwt>
<pdfrwt beam="2">  1        5 0.53553151E-02 0.15294793E+03</pdfrwt>
<pdfrwt beam="1">  1       -5 0.10339677E+00 0.15294793E+03</pdfrwt>
<totfact> 0.12745537E+02</totfact>
</mgrwt>
</event>
<event>
 8    1  0.3588496E-007  0.1265426E+03  0.7546771E-02  0.1232698E+00
         -5   -1    0    0    0  501 -0.00000000000E+00  0.00000000000E+00  0.57532234483E+03  0.57534154244E+03  0.47000000000E+01 0. -1.
          5   -1    0    0  501    0  0.00000000000E+00 -0.00000000000E+00 -0.27604067728E+02  0.28001331310E+02  0.47000000000E+01 0. -1.
         25    2    1    2    0    0  0.16063897046E+02 -0.11328969876E+02  0.27225635192E+03  0.30020544897E+03  0.12495357571E+03 0.  0.
         25    2    1    2    0    0 -0.16063897046E+02  0.11328969876E+02  0.27546192518E+03  0.30313742478E+03  0.12500652677E+03 0.  0.
          5    1    4    4  502    0  0.35385820770E+02  0.46635468671E+02  0.90581845003E+02  0.10795454550E+03  0.47000000000E+01 0. -1.
         -5    1    4    4    0  502 -0.51449717816E+02 -0.35306498794E+02  0.18488008017E+03  0.19518287928E+03  0.47000000000E+01 0. -1.
          5    1    3    3  503    0 -0.85212763823E+01 -0.96615065741E+01  0.27466234637E+03  0.27500445701E+03  0.47000000000E+01 0. -1.
         -5    1    3    3    0  503  0.24585173429E+02 -0.16674633022E+01 -0.24059944505E+01  0.25200991958E+02  0.47000000000E+01 0. -1.
<mgrwt>
<rscale>  0 0.12652951E+03</rscale>
<asrwt>0</asrwt>
<pdfrwt beam="2">  1        5 0.42788151E-02 0.12654259E+03</pdfrwt>
<pdfrwt beam="1">  1       -5 0.88543166E-01 0.12654259E+03</pdfrwt>
<totfact> 0.25223146E+02</totfact>
</mgrwt>
</event>
<event>
 8    1  0.3588496E-007  0.1413245E+03  0.7546771E-02  0.1211565E+00
         -5   -1    0    0    0  501 -0.00000000000E+00  0.00000000000E+00  0.83605318737E+02  0.83737323346E+02  0.47000000000E+01 0. -1.
          5   -1    0    0  501    0  0.00000000000E+00 -0.00000000000E+00 -0.27489398497E+03  0.27493416116E+03  0.47000000000E+01 0. -1.
         25    2    1    2    0    0  0.20718758014E+02 -0.62596372220E+02 -0.30429750738E+02  0.14456343522E+03  0.12500017729E+03 0.  0.
         25    2    1    2    0    0 -0.20718758014E+02  0.62596372220E+02 -0.16085891550E+03  0.21410804929E+03  0.12497637107E+03 0.  0.
          5    1    3    3  502    0 -0.16389125177E+01 -0.11289977070E+02  0.47178348442E+02  0.48765112305E+02  0.47000000000E+01 0.  1.
         -5    1    3    3    0  502  0.22357670532E+02 -0.51306395151E+02 -0.77608099179E+02  0.95798322914E+02  0.47000000000E+01 0.  1.
          5    1    4    4  503    0  0.95695251717E+01 -0.35782855516E+02 -0.32460781150E+02  0.49475053044E+02  0.47000000000E+01 0. -1.
         -5    1    4    4    0  503 -0.30288283186E+02  0.98379227736E+02 -0.12839813435E+03  0.16463299624E+03  0.47000000000E+01 0. -1.
<mgrwt>
<rscale>  0 0.14131925E+03</rscale>
<asrwt>0</asrwt>
<pdfrwt beam="2">  1        5 0.42304627E-01 0.14132451E+03</pdfrwt>
<pdfrwt beam="1">  1       -5 0.12875602E-01 0.14132451E+03</pdfrwt>
<totfact> 0.20285163E+02</totfact>
</mgrwt>
</event>
<event>
 8    1  0.3588496E-007  0.1370895E+03  0.7546771E-02  0.1217302E+00
          5   -1    0    0  501    0  0.00000000000E+00  0.00000000000E+00  0.23669018444E+02  0.24131150700E+02  0.47000000000E+01 0.  1.
         -5   -1    0    0    0  501 -0.00000000000E+00 -0.00000000000E+00 -0.83260568294E+03  0.83261894841E+03  0.47000000000E+01 0.  1.
         25    2    1    2    0    0  0.55880142428E+02 -0.68015451176E+01 -0.50598686400E+03  0.52422917947E+03  0.12499869893E+03 0.  0.
         25    2    1    2    0    0 -0.55880142428E+02  0.68015451176E+01 -0.30294980049E+03  0.33252091964E+03  0.12499091586E+03 0.  0.
          5    1    4    4  502    0 -0.42711917376E+02 -0.27266647246E+02 -0.34327278196E+02  0.61385910161E+02  0.47000000000E+01 0. -1.
         -5    1    4    4    0  502 -0.13168225052E+02  0.34068192363E+02 -0.26862252230E+03  0.27113500948E+03  0.47000000000E+01 0. -1.
          5    1    3    3  503    0  0.55574640219E+01 -0.24129253883E+02 -0.43322439232E+03  0.43395687620E+03  0.47000000000E+01 0. -1.
         -5    1    3    3    0  503  0.50322678406E+02  0.17327708765E+02 -0.72762471682E+02  0.90272303274E+02  0.47000000000E+01 0. -1.
<mgrwt>
<rscale>  0 0.13708771E+03</rscale>
<asrwt>0</asrwt>
<pdfrwt beam="1">  1        5 0.36779571E-02 0.13708948E+03</pdfrwt>
<pdfrwt beam="2">  1       -5 0.12812973E+00 0.13708948E+03</pdfrwt>
<totfact> 0.13329420E+02</totfact>
</mgrwt>
</event>
<event>
 8    1  0.3588496E-007  0.1409733E+03  0.7546771E-02  0.1212034E+00
         -5   -1    0    0    0  501 -0.00000000000E+00  0.00000000000E+00  0.27149857758E+02  0.27553670832E+02  0.47000000000E+01 0. -1.
          5   -1    0    0  501    0  0.00000000000E+00 -0.00000000000E+00 -0.78734229265E+03  0.78735632074E+03  0.47000000000E+01 0. -1.
         25    2    1    2    0    0 -0.47258395939E+02 -0.44891406551E+02 -0.26640516515E+03  0.30139336290E+03  0.12497060780E+03 0.  0.
         25    2    1    2    0    0  0.47258395939E+02  0.44891406551E+02 -0.49378726975E+03  0.51351662867E+03  0.12499946313E+03 0.  0.
          5    1    4    4  502    0  0.77396958533E+01  0.72938693960E+02 -0.41062106522E+03  0.41714710255E+03  0.47000000000E+01 0.  1.
         -5    1    4    4    0  502  0.39518700086E+02 -0.28047287409E+02 -0.83166204534E+02  0.96369526117E+02  0.47000000000E+01 0.  1.
          5    1    3    3  503    0  0.19005016538E+01 -0.79206980810E+02 -0.12988332093E+03  0.15221407547E+03  0.47000000000E+01 0.  1.
         -5    1    3    3    0  503 -0.49158897593E+02  0.34315574258E+02 -0.13652184422E+03  0.14917928743E+03  0.47000000000E+01 0.  1.
<mgrwt>
<rscale>  0 0.14096686E+03</rscale>
<asrwt>0</asrwt>
<pdfrwt beam="2">  1        5 0.12116171E+00 0.14097326E+03</pdfrwt>
<pdfrwt beam="1">  1       -5 0.42090434E-02 0.14097326E+03</pdfrwt>
<totfact> 0.12453047E+02</totfact>
</mgrwt>
</event>
<event>
 8    1  0.3588496E-007  0.1272584E+03  0.7546771E-02  0.1231583E+00
         -5   -1    0    0    0  501 -0.00000000000E+00  0.00000000000E+00  0.12018518304E+03  0.12027704778E+03  0.47000000000E+01 0.  1.
          5   -1    0    0  501    0  0.00000000000E+00 -0.00000000000E+00 -0.14349760045E+03  0.14357454975E+03  0.47000000000E+01 0.  1.
         25    2    1    2    0    0 -0.21503404814E+02  0.10308678689E+02  0.21250887908E+02  0.12901615022E+03  0.12499960602E+03 0.  0.
         25    2    1    2    0    0  0.21503404814E+02 -0.10308678689E+02 -0.44563305321E+02  0.13483544731E+03  0.12500417751E+03 0.  0.
          5    1    3    3  502    0 -0.94543150789E+01  0.58526329647E+02 -0.21552968433E+02  0.63256112620E+02  0.47000000000E+01 0.  1.
         -5    1    3    3    0  502 -0.12049089735E+02 -0.48217650958E+02  0.42803856341E+02  0.65760037599E+02  0.47000000000E+01 0.  1.
          5    1    4    4  503    0 -0.18804508074E+02  0.41792926295E+02  0.12304876014E+02  0.47683940545E+02  0.47000000000E+01 0.  1.
         -5    1    4    4    0  503  0.40307912888E+02 -0.52101604984E+02 -0.56868181334E+02  0.87151506766E+02  0.47000000000E+01 0.  1.
<mgrwt>
<rscale>  0 0.12725731E+03</rscale>
<asrwt>0</asrwt>
<pdfrwt beam="2">  1        5 0.22089540E-01 0.12725844E+03</pdfrwt>
<pdfrwt beam="1">  1       -5 0.18503014E-01 0.12725844E+03</pdfrwt>
<totfact> 0.36396816E+02</totfact>
</mgrwt>
</event>
<event>
 8    1  0.3588496E-007  0.1475611E+03  0.7546771E-02  0.1203506E+00
          5   -1    0    0  501    0  0.00000000000E+00  0.00000000000E+00  0.68038128112E+02  0.68200270359E+02  0.47000000000E+01 0.  1.
         -5   -1    0    0    0  501 -0.00000000000E+00 -0.00000000000E+00 -0.37577844707E+03  0.37580783824E+03  0.47000000000E+01 0.  1.
         25    2    1    2    0    0  0.17951844134E+02 -0.76319742923E+02 -0.23979898415E+03  0.28155720161E+03  0.12499573237E+03 0.  0.
         25    2    1    2    0    0 -0.17951844134E+02  0.76319742923E+02 -0.67941334812E+02  0.16245090700E+03  0.12500920102E+03 0.  0.
          5    1    3    3  502    0  0.64257335835E+02 -0.65152658919E+02 -0.19733735615E+03  0.21757296778E+03  0.47000000000E+01 0.  1.
         -5    1    3    3    0  502 -0.46305491701E+02 -0.11167084004E+02 -0.42461627995E+02  0.63984233830E+02  0.47000000000E+01 0.  1.
          5    1    4    4  503    0  0.17576130846E+02  0.50436396047E+02  0.25280333361E+02  0.59278458790E+02  0.47000000000E+01 0. -1.
         -5    1    4    4    0  503 -0.35527974980E+02  0.25883346876E+02 -0.93221668173E+02  0.10317244821E+03  0.47000000000E+01 0. -1.
<mgrwt>
<rscale>  0 0.14755823E+03</rscale>
<asrwt>0</asrwt>
<pdfrwt beam="1">  1        5 0.10482138E-01 0.14756108E+03</pdfrwt>
<pdfrwt beam="2">  1       -5 0.57826801E-01 0.14756108E+03</pdfrwt>
<totfact> 0.15267877E+02</totfact>
</mgrwt>
</event>
<event>
 8    1  0.3588496E-007  0.1423650E+03  0.7546771E-02  0.1210184E+00
         -5   -1    0    0    0  501 -0.00000000000E+00  0.00000000000E+00  0.66895591378E+03  0.66897242438E+03  0.47000000000E+01 0. -1.
          5   -1    0    0  501    0  0.00000000000E+00 -0.00000000000E+00 -0.38500104530E+02  0.38785925912E+02  0.47000000000E+01 0. -1.
         25    2    1    2    0    0  0.62773440756E+02  0.26485100747E+02  0.47983412701E+03  0.50050832348E+03  0.12500330794E+03 0.  0.
         25    2    1    2    0    0 -0.62773440756E+02 -0.26485100747E+02  0.15062168223E+03  0.20725002681E+03  0.12499486801E+03 0.  0.
          5    1    3    3  502    0 -0.19451635028E+02  0.45381892927E+02  0.10304114624E+03  0.11435667943E+03  0.47000000000E+01 0.  1.
         -5    1    3    3    0  502  0.82225075784E+02 -0.18896792180E+02  0.37679298077E+03  0.38615164405E+03  0.47000000000E+01 0.  1.
          5    1    4    4  503    0 -0.85669892015E+02  0.19844907546E+02  0.75792286241E+02  0.11618825847E+03  0.47000000000E+01 0. -1.
         -5    1    4    4    0  503  0.22896451259E+02 -0.46330008293E+02  0.74829395992E+02  0.91061768340E+02  0.47000000000E+01 0. -1.
<mgrwt>
<rscale>  0 0.14236314E+03</rscale>
<asrwt>0</asrwt>
<pdfrwt beam="2">  1        5 0.59463498E-02 0.14236500E+03</pdfrwt>
<pdfrwt beam="1">  1       -5 0.10293954E+00 0.14236500E+03</pdfrwt>
<totfact> 0.10571008E+02</totfact>
</mgrwt>
</event>
<event>
 8    1  0.3588496E-007  0.1576349E+03  0.7546771E-02  0.1191395E+00
          5   -1    0    0  501    0  0.00000000000E+00  0.00000000000E+00  0.25179192350E+03  0.25183578526E+03  0.47000000000E+01 0. -1.
         -5   -1    0    0    0  501 -0.00000000000E+00 -0.00000000000E+00 -0.99911720140E+02  0.10002220664E+03  0.47000000000E+01 0. -1.
         25    2    1    2    0    0  0.85453649841E+02 -0.43813090008E+02  0.55613577049E+02  0.16715279007E+03  0.12500108860E+03 0.  0.
         25    2    1    2    0    0 -0.85453649841E+02  0.43813090008E+02  0.96266626308E+02  0.18470520183E+03  0.12500734024E+03 0.  0.
          5    1    3    3  502    0  0.19178513275E+02 -0.71134220503E+02  0.60069336069E+02  0.95175142941E+02  0.47000000000E+01 0.  1.
         -5    1    3    3    0  502  0.66275136566E+02  0.27321130496E+02 -0.44557590198E+01  0.71977647133E+02  0.47000000000E+01 0.  1.
          5    1    4    4  503    0 -0.85980050378E+02 -0.21773574489E+02  0.37126961564E+02  0.96266083768E+02  0.47000000000E+01 0.  1.
         -5    1    4    4    0  503  0.52640053686E+00  0.65586664497E+02  0.59139664744E+02  0.88439118060E+02  0.47000000000E+01 0.  1.
<mgrwt>
<rscale>  0 0.15763362E+03</rscale>
<asrwt>0</asrwt>
<pdfrwt beam="1">  1        5 0.38749092E-01 0.15763486E+03</pdfrwt>
<pdfrwt beam="2">  1       -5 0.15382907E-01 0.15763486E+03</pdfrwt>
<totfact> 0.18272075E+02</totfact>
</mgrwt>
</event>
<event>
 8    1  0.3588496E-007  0.2468587E+03  0.7546771E-02  0.1115307E+00
         -5   -1    0    0    0  501 -0.00000000000E+00  0.00000000000E+00  0.16319395311E+04  0.16319462991E+04  0.47000000000E+01 0. -1.
          5   -1    0    0  501    0  0.00000000000E+00 -0.00000000000E+00 -0.39470483207E+02  0.39749327599E+02  0.47000000000E+01 0. -1.
         25    2    1    2    0    0  0.11791873438E+03 -0.17723345789E+03  0.99657326906E+03  0.10266909865E+04  0.12497829704E+03 0.  0.
         25    2    1    2    0    0 -0.11791873438E+03  0.17723345789E+03  0.59589577879E+03  0.64500464012E+03  0.12499071999E+03 0.  0.
          5    1    3    3  502    0 -0.99899363210E+01 -0.72512185549E+02  0.19740896356E+03  0.21059488306E+03  0.47000000000E+01 0.  1.
         -5    1    3    3    0  502  0.12790867070E+03 -0.10472127234E+03  0.79916430550E+03  0.81609610347E+03  0.47000000000E+01 0.  1.
          5    1    4    4  503    0 -0.10318557752E+03  0.86992339972E+02  0.22018580762E+03  0.25829984611E+03  0.47000000000E+01 0.  1.
         -5    1    4    4    0  503 -0.14733156853E+02  0.90241117917E+02  0.37570997117E+03  0.38670479401E+03  0.47000000000E+01 0.  1.
<mgrwt>
<rscale>  0 0.24685710E+03</rscale>
<asrwt>0</asrwt>
<pdfrwt beam="2">  1        5 0.60943527E-02 0.24685868E+03</pdfrwt>
<pdfrwt beam="1">  1       -5 0.25108957E+00 0.24685868E+03</pdfrwt>
<totfact> 0.86598643E+00</totfact>
</mgrwt>
</event>
<event>
 8    1  0.3588496E-007  0.1353935E+03  0.7546771E-02  0.1219668E+00
         -5   -1    0    0    0  501 -0.00000000000E+00  0.00000000000E+00  0.62889720579E+03  0.62891476803E+03  0.47000000000E+01 0. -1.
          5   -1    0    0  501    0  0.00000000000E+00 -0.00000000000E+00 -0.29836342445E+02  0.30204260139E+02  0.47000000000E+01 0. -1.
         25    2    1    2    0    0  0.28002920812E+02 -0.43818642523E+02  0.35629791294E+03  0.38115273464E+03  0.12499986943E+03 0.  0.
         25    2    1    2    0    0 -0.28002920812E+02  0.43818642523E+02  0.24276295041E+03  0.27796629353E+03  0.12500869266E+03 0.  0.
          5    1    3    3  502    0  0.32955047104E+01 -0.29963023238E+02  0.78205719605E+01  0.31494355981E+02  0.47000000000E+01 0.  1.
         -5    1    3    3    0  502  0.24707416101E+02 -0.13855619285E+02  0.34847734097E+03  0.34965837866E+03  0.47000000000E+01 0.  1.
          5    1    4    4  503    0  0.38934734858E+02 -0.43737387205E+01  0.29523869028E+02  0.49282776009E+02  0.47000000000E+01 0.  1.
         -5    1    4    4    0  503 -0.66937655669E+02  0.48192381243E+02  0.21323908138E+03  0.22868351752E+03  0.47000000000E+01 0.  1.
<mgrwt>
<rscale>  0 0.13539150E+03</rscale>
<asrwt>0</asrwt>
<pdfrwt beam="2">  1        5 0.46198590E-02 0.13539354E+03</pdfrwt>
<pdfrwt beam="1">  1       -5 0.96783066E-01 0.13539354E+03</pdfrwt>
<totfact> 0.18405711E+02</totfact>
</mgrwt>
</event>
<event>
 8    1  0.3588496E-007  0.1631462E+03  0.7546771E-02  0.1185192E+00
         -5   -1    0    0    0  501 -0.00000000000E+00  0.00000000000E+00  0.10800815344E+04  0.10800917604E+04  0.47000000000E+01 0.  1.
          5   -1    0    0  501    0  0.00000000000E+00 -0.00000000000E+00 -0.33599448513E+02  0.33926581620E+02  0.47000000000E+01 0.  1.
         25    2    1    2    0    0 -0.92880541494E+02  0.48622417430E+02  0.81288254910E+03  0.82909270808E+03  0.12500298200E+03 0.  0.
         25    2    1    2    0    0  0.92880541494E+02 -0.48622417430E+02  0.23359953676E+03  0.28492563394E+03  0.12499175507E+03 0.  0.
          5    1    3    3  502    0  0.12175100732E+02  0.52119310283E+02  0.19279748642E+03  0.20014398905E+03  0.47000000000E+01 0.  1.
         -5    1    3    3    0  502 -0.10505564223E+03 -0.34968928532E+01  0.62008506267E+03  0.62894871903E+03  0.47000000000E+01 0.  1.
          5    1    4    4  503    0  0.12226770472E+03 -0.34378820004E+02  0.16052391666E+03  0.20474694797E+03  0.47000000000E+01 0. -1.
         -5    1    4    4    0  503 -0.29387163229E+02 -0.14243597426E+02  0.73075620106E+02  0.80178685971E+02  0.47000000000E+01 0. -1.
<mgrwt>
<rscale>  0 0.16314404E+03</rscale>
<asrwt>0</asrwt>
<pdfrwt beam="2">  1        5 0.51950967E-02 0.16314619E+03</pdfrwt>
<pdfrwt beam="1">  1       -5 0.16619234E+00 0.16314619E+03</pdfrwt>
<totfact> 0.39173029E+01</totfact>
</mgrwt>
</event>
<event>
 8    1  0.3588496E-007  0.1363170E+03  0.7546771E-02  0.1218373E+00
          5   -1    0    0  501    0  0.00000000000E+00  0.00000000000E+00  0.28788575153E+02  0.29169711334E+02  0.47000000000E+01 0.  1.
         -5   -1    0    0    0  501 -0.00000000000E+00 -0.00000000000E+00 -0.75196989358E+03  0.75198458152E+03  0.47000000000E+01 0.  1.
         25    2    1    2    0    0  0.36959177141E+01 -0.54253066370E+02 -0.51170436990E+03  0.52954979194E+03  0.12499825980E+03 0.  0.
         25    2    1    2    0    0 -0.36959177141E+01  0.54253066370E+02 -0.21147694853E+03  0.25160450091E+03  0.12500108041E+03 0.  0.
          5    1    3    3  502    0 -0.11470274144E+02 -0.27513990772E+02 -0.18564711763E+02  0.35430571545E+02  0.47000000000E+01 0.  1.
         -5    1    3    3    0  502  0.15166191858E+02 -0.26739075598E+02 -0.49313965814E+03  0.49411922040E+03  0.47000000000E+01 0.  1.
          5    1    4    4  503    0  0.35042366577E+02  0.49666777877E+02 -0.33949826823E+02  0.69781351530E+02  0.47000000000E+01 0.  1.
         -5    1    4    4    0  503 -0.38738284292E+02  0.45862884933E+01 -0.17752712170E+03  0.18182314938E+03  0.47000000000E+01 0.  1.
<mgrwt>
<rscale>  0 0.13631636E+03</rscale>
<asrwt>0</asrwt>
<pdfrwt beam="1">  1        5 0.44594601E-02 0.13631700E+03</pdfrwt>
<pdfrwt beam="2">  1       -5 0.11571811E+00 0.13631700E+03</pdfrwt>
<totfact> 0.12586543E+02</totfact>
</mgrwt>
</event>
<event>
 8    1  0.3588496E-007  0.1665810E+03  0.7546771E-02  0.1181462E+00
         -5   -1    0    0    0  501 -0.00000000000E+00  0.00000000000E+00  0.50629392951E+03  0.50631574444E+03  0.47000000000E+01 0. -1.
          5   -1    0    0  501    0  0.00000000000E+00 -0.00000000000E+00 -0.55999210150E+02  0.56196098952E+02  0.47000000000E+01 0. -1.
         25    2    1    2    0    0  0.69740980872E+02 -0.85209861606E+02  0.26816809973E+03  0.31569344779E+03  0.12499479323E+03 0.  0.
         25    2    1    2    0    0 -0.69740980872E+02  0.85209861606E+02  0.18212661964E+03  0.24681839560E+03  0.12499875959E+03 0.  0.
          5    1    4    4  502    0 -0.18756640123E+02  0.24798549194E+02  0.16211839268E+03  0.16514007036E+03  0.47000000000E+01 0. -1.
         -5    1    4    4    0  502 -0.50984340749E+02  0.60411312413E+02  0.20008226951E+02  0.81678325244E+02  0.47000000000E+01 0. -1.
          5    1    3    3  503    0  0.10152426455E+03 -0.81469538511E+02  0.18327779217E+03  0.22484950767E+03  0.47000000000E+01 0. -1.
         -5    1    3    3    0  503 -0.31783283678E+02 -0.37403230957E+01  0.84890307560E+02  0.90843940116E+02  0.47000000000E+01 0. -1.
<mgrwt>
<rscale>  0 0.16658021E+03</rscale>
<asrwt>0</asrwt>
<pdfrwt beam="2">  1        5 0.86320865E-02 0.16658096E+03</pdfrwt>
<pdfrwt beam="1">  1       -5 0.77908197E-01 0.16658096E+03</pdfrwt>
<totfact> 0.11401733E+02</totfact>
</mgrwt>
</event>
<event>
 8    1  0.3588496E-007  0.1627944E+03  0.7546771E-02  0.1185579E+00
         -5   -1    0    0    0  501 -0.00000000000E+00  0.00000000000E+00  0.63033028352E+02  0.63208011069E+02  0.47000000000E+01 0.  1.
          5   -1    0    0  501    0  0.00000000000E+00 -0.00000000000E+00 -0.46635887830E+03  0.46638256118E+03  0.47000000000E+01 0.  1.
         25    2    1    2    0    0 -0.69207760492E+02 -0.78023022875E+02 -0.11789656589E+03  0.20100149489E+03  0.12499877795E+03 0.  0.
         25    2    1    2    0    0  0.69207760492E+02  0.78023022875E+02 -0.28542928406E+03  0.32858907736E+03  0.12499439727E+03 0.  0.
          5    1    3    3  502    0  0.26251033036E+02  0.92813925746E+01 -0.38826744523E+01  0.28503090086E+02  0.47000000000E+01 0. -1.
         -5    1    3    3    0  502 -0.95458793528E+02 -0.87304415450E+02 -0.11401389144E+03  0.17249840480E+03  0.47000000000E+01 0. -1.
          5    1    4    4  503    0  0.81178089466E+02  0.10501624771E+03 -0.23673178055E+03  0.27144487547E+03  0.47000000000E+01 0. -1.
         -5    1    4    4    0  503 -0.11970328974E+02 -0.26993224830E+02 -0.48697503504E+02  0.57144201893E+02  0.47000000000E+01 0. -1.
<mgrwt>
<rscale>  0 0.16279351E+03</rscale>
<asrwt>0</asrwt>
<pdfrwt beam="2">  1        5 0.71762800E-01 0.16279435E+03</pdfrwt>
<pdfrwt beam="1">  1       -5 0.97126712E-02 0.16279435E+03</pdfrwt>
<totfact> 0.11135882E+02</totfact>
</mgrwt>
</event>
<event>
 8    1  0.3588496E-007  0.1305242E+03  0.7546771E-02  0.1226684E+00
          5   -1    0    0  501    0  0.00000000000E+00  0.00000000000E+00  0.16917709275E+02  0.17558442047E+02  0.47000000000E+01 0.  1.
         -5   -1    0    0    0  501 -0.00000000000E+00 -0.00000000000E+00 -0.10327096388E+04  0.10327203339E+04  0.47000000000E+01 0.  1.
         25    2    1    2    0    0 -0.25962160567E+02 -0.27150908551E+02 -0.61766923910E+03  0.63130964319E+03  0.12500148416E+03 0.  0.
         25    2    1    2    0    0  0.25962160567E+02  0.27150908551E+02 -0.39812269044E+03  0.41896913277E+03  0.12498900736E+03 0.  0.
          5    1    4    4  502    0  0.51393656205E+01 -0.12720133363E+02 -0.35864161570E+03  0.35893469237E+03  0.47000000000E+01 0.  1.
         -5    1    4    4    0  502  0.20822794947E+02  0.39871041914E+02 -0.39481074734E+02  0.60034440406E+02  0.47000000000E+01 0.  1.
          5    1    3    3  503    0  0.93598113528E+01  0.17667303065E+01 -0.54665375698E+03  0.54675693633E+03  0.47000000000E+01 0. -1.
         -5    1    3    3    0  503 -0.35321971920E+02 -0.28917638857E+02 -0.71015482120E+02  0.84552706865E+02  0.47000000000E+01 0. -1.
<mgrwt>
<rscale>  0 0.13052125E+03</rscale>
<asrwt>0</asrwt>
<pdfrwt beam="1">  1        5 0.26528352E-02 0.13052424E+03</pdfrwt>
<pdfrwt beam="2">  1       -5 0.15892847E+00 0.13052424E+03</pdfrwt>
<totfact> 0.12489825E+02</totfact>
</mgrwt>
</event>
<event>
 8    1  0.3588496E-007  0.1441426E+03  0.7546771E-02  0.1207864E+00
         -5   -1    0    0    0  501 -0.00000000000E+00  0.00000000000E+00  0.50650688714E+02  0.50868283509E+02  0.47000000000E+01 0. -1.
          5   -1    0    0  501    0  0.00000000000E+00 -0.00000000000E+00 -0.41069772421E+03  0.41072461658E+03  0.47000000000E+01 0. -1.
         25    2    1    2    0    0  0.68481848258E+01 -0.71447373608E+02 -0.19455943758E+03  0.24213727199E+03  0.12500183561E+03 0.  0.
         25    2    1    2    0    0 -0.68481848258E+01  0.71447373608E+02 -0.16548759791E+03  0.21945562810E+03  0.12499201099E+03 0.  0.
          5    1    3    3  502    0  0.38032065749E+02 -0.85396768782E+02 -0.82084699727E+02  0.12449511666E+03  0.47000000000E+01 0.  1.
         -5    1    3    3    0  502 -0.31183880923E+02  0.13949395174E+02 -0.11247473786E+03  0.11764215533E+03  0.47000000000E+01 0.  1.
          5    1    4    4  503    0  0.41877388783E+02  0.52749879215E+02 -0.15050480042E+03  0.16495469196E+03  0.47000000000E+01 0. -1.
         -5    1    4    4    0  503 -0.48725573608E+02  0.18697494393E+02 -0.14982797489E+02  0.54500936145E+02  0.47000000000E+01 0. -1.
<mgrwt>
<rscale>  0 0.14414045E+03</rscale>
<asrwt>0</asrwt>
<pdfrwt beam="2">  1        5 0.63203070E-01 0.14414258E+03</pdfrwt>
<pdfrwt beam="1">  1       -5 0.78112206E-02 0.14414258E+03</pdfrwt>
<totfact> 0.20753821E+02</totfact>
</mgrwt>
</event>
<event>
 8    1  0.3588496E-007  0.1347671E+03  0.7546771E-02  0.1220553E+00
          5   -1    0    0  501    0  0.00000000000E+00  0.00000000000E+00  0.46577182431E+02  0.46813715119E+02  0.47000000000E+01 0.  1.
         -5   -1    0    0    0  501 -0.00000000000E+00 -0.00000000000E+00 -0.38878178666E+03  0.38881019488E+03  0.47000000000E+01 0.  1.
         25    2    1    2    0    0  0.30853277178E+01  0.50267142618E+02 -0.17491682316E+03  0.22081231160E+03  0.12500350816E+03 0.  0.
         25    2    1    2    0    0 -0.30853277178E+01 -0.50267142618E+02 -0.16728778107E+03  0.21481159840E+03  0.12499006456E+03 0.  0.
          5    1    3    3  502    0 -0.11251541565E+02 -0.40634850210E+02 -0.60779496901E+02  0.74121693739E+02  0.47000000000E+01 0.  1.
         -5    1    3    3    0  502  0.14336869283E+02  0.90901992828E+02 -0.11413732626E+03  0.14669061786E+03  0.47000000000E+01 0.  1.
          5    1    4    4  503    0 -0.53715298593E+02  0.54711187409E+01 -0.42022684236E+02  0.68580335619E+02  0.47000000000E+01 0. -1.
         -5    1    4    4    0  503  0.50629970875E+02 -0.55738261359E+02 -0.12526509683E+03  0.14623126278E+03  0.47000000000E+01 0. -1.
<mgrwt>
<rscale>  0 0.13476402E+03</rscale>
<asrwt>0</asrwt>
<pdfrwt beam="1">  1        5 0.71861007E-02 0.13476714E+03</pdfrwt>
<pdfrwt beam="2">  1       -5 0.59832960E-01 0.13476714E+03</pdfrwt>
<totfact> 0.26391339E+02</totfact>
</mgrwt>
</event>
<event>
 8    1  0.3588496E-007  0.2064767E+03  0.7546771E-02  0.1144388E+00
          5   -1    0    0  501    0  0.00000000000E+00  0.00000000000E+00  0.11146095389E+03  0.11156000288E+03  0.47000000000E+01 0.  1.
         -5   -1    0    0    0  501 -0.00000000000E+00 -0.00000000000E+00 -0.38558103327E+03  0.38560967729E+03  0.47000000000E+01 0.  1.
         25    2    1    2    0    0 -0.15165210436E+03  0.63269137105E+02 -0.16036702498E+03  0.26143871588E+03  0.12502509747E+03 0.  0.
         25    2    1    2    0    0  0.15165210436E+03 -0.63269137105E+02 -0.11375305440E+03  0.23573096428E+03  0.12501194211E+03 0.  0.
          5    1    3    3  502    0 -0.11896451673E+02 -0.33843395792E+02 -0.25984882245E+02  0.44544417230E+02  0.47000000000E+01 0.  1.
         -5    1    3    3    0  502 -0.13975565269E+03  0.97112532897E+02 -0.13438214273E+03  0.21689429865E+03  0.47000000000E+01 0.  1.
          5    1    4    4  503    0 -0.95311614578E+01  0.16324049162E+02 -0.33628996391E+02  0.38862797352E+02  0.47000000000E+01 0.  1.
         -5    1    4    4    0  503  0.16118326582E+03 -0.79593186267E+02 -0.80124058011E+02  0.19686816693E+03  0.47000000000E+01 0.  1.
<mgrwt>
<rscale>  0 0.20647469E+03</rscale>
<asrwt>0</asrwt>
<pdfrwt beam="1">  1        5 0.17157662E-01 0.20647668E+03</pdfrwt>
<pdfrwt beam="2">  1       -5 0.59329981E-01 0.20647668E+03</pdfrwt>
<totfact> 0.65617678E+01</totfact>
</mgrwt>
</event>
<event>
 8    1  0.3588496E-007  0.1432149E+03  0.7546771E-02  0.1209078E+00
          5   -1    0    0  501    0  0.00000000000E+00  0.00000000000E+00  0.34399351203E+02  0.34718948187E+02  0.47000000000E+01 0.  1.
         -5   -1    0    0    0  501 -0.00000000000E+00 -0.00000000000E+00 -0.60826724059E+03  0.60828539846E+03  0.47000000000E+01 0.  1.
         25    2    1    2    0    0  0.37769082366E+02 -0.58808382773E+02 -0.33778685934E+03  0.36687979033E+03  0.12496354965E+03 0.  0.
         25    2    1    2    0    0 -0.37769082366E+02  0.58808382773E+02 -0.23608103004E+03  0.27612455631E+03  0.12500235352E+03 0.  0.
          5    1    4    4  502    0  0.32626862685E+02  0.61325735564E+02 -0.89173562599E+02  0.11313431079E+03  0.47000000000E+01 0. -1.
         -5    1    4    4    0  502 -0.70395945050E+02 -0.25173527913E+01 -0.14690746744E+03  0.16299024552E+03  0.47000000000E+01 0. -1.
          5    1    3    3  503    0  0.66647535477E+02 -0.47818561872E+02 -0.11181015994E+03  0.13875197552E+03  0.47000000000E+01 0.  1.
         -5    1    3    3    0  503 -0.28878453111E+02 -0.10989820901E+02 -0.22597669940E+03  0.22812781481E+03  0.47000000000E+01 0.  1.
<mgrwt>
<rscale>  0 0.14320647E+03</rscale>
<asrwt>0</asrwt>
<pdfrwt beam="1">  1        5 0.53181895E-02 0.14321494E+03</pdfrwt>
<pdfrwt beam="2">  1       -5 0.93605548E-01 0.14321494E+03</pdfrwt>
<totfact> 0.16077638E+02</totfact>
</mgrwt>
</event>
<event>
 8    1  0.3588496E-007  0.1313985E+03  0.7546771E-02  0.1225400E+00
          5   -1    0    0  501    0  0.00000000000E+00  0.00000000000E+00  0.82804616853E+02  0.82937895875E+02  0.47000000000E+01 0.  1.
         -5   -1    0    0    0  501 -0.00000000000E+00 -0.00000000000E+00 -0.21001732105E+03  0.21006990536E+03  0.47000000000E+01 0.  1.
         25    2    1    2    0    0  0.33127414036E+02  0.23300231864E+02 -0.77380432498E+02  0.15249032135E+03  0.12500096162E+03 0.  0.
         25    2    1    2    0    0 -0.33127414036E+02 -0.23300231864E+02 -0.49832271695E+02  0.14051747989E+03  0.12498632120E+03 0.  0.
          5    1    3    3  502    0 -0.39879319926E+02  0.74888958136E+01 -0.64790201248E+02  0.76591800449E+02  0.47000000000E+01 0.  1.
         -5    1    3    3    0  502  0.73006733962E+02  0.15811336050E+02 -0.12590231250E+02  0.75898520898E+02  0.47000000000E+01 0.  1.
          5    1    4    4  503    0 -0.69218240226E+02  0.73731576050E+01 -0.59798100299E+02  0.91888144134E+02  0.47000000000E+01 0.  1.
         -5    1    4    4    0  503  0.36090826189E+02 -0.30673389469E+02  0.99658286036E+01  0.48629335758E+02  0.47000000000E+01 0.  1.
<mgrwt>
<rscale>  0 0.13139502E+03</rscale>
<asrwt>0</asrwt>
<pdfrwt beam="1">  1        5 0.12753469E-01 0.13139850E+03</pdfrwt>
<pdfrwt beam="2">  1       -5 0.32324654E-01 0.13139850E+03</pdfrwt>
<totfact> 0.34664938E+02</totfact>
</mgrwt>
</event>
<event>
 8    1  0.3588496E-007  0.1252430E+03  0.7546771E-02  0.1234690E+00
         -5   -1    0    0    0  501 -0.00000000000E+00  0.00000000000E+00  0.24602881157E+03  0.24607370059E+03  0.47000000000E+01 0.  1.
          5   -1    0    0  501    0  0.00000000000E+00 -0.00000000000E+00 -0.64268776267E+02  0.64440403497E+02  0.47000000000E+01 0.  1.
         25    2    1    2    0    0  0.79344868617E+01 -0.65061499550E+00  0.75287065428E+02  0.14612987533E+03  0.12498967502E+03 0.  0.
         25    2    1    2    0    0 -0.79344868617E+01  0.65061499550E+00  0.10647296987E+03  0.16438422876E+03  0.12498920741E+03 0.  0.
          5    1    4    4  502    0 -0.43441178439E+02  0.44447294248E+02  0.81344331633E+02  0.10247774509E+03  0.47000000000E+01 0. -1.
         -5    1    4    4    0  502  0.35506691578E+02 -0.43796679252E+02  0.25128638241E+02  0.61906483668E+02  0.47000000000E+01 0. -1.
          5    1    3    3  503    0 -0.38717339874E+02  0.17998686974E+02  0.84541167586E+02  0.94827655020E+02  0.47000000000E+01 0.  1.
         -5    1    3    3    0  503  0.46651826736E+02 -0.18649301969E+02 -0.92541021582E+01  0.51302220308E+02  0.47000000000E+01 0.  1.
<mgrwt>
<rscale>  0 0.12524284E+03</rscale>
<asrwt>0</asrwt>
<pdfrwt beam="2">  1        5 0.99041592E-02 0.12524296E+03</pdfrwt>
<pdfrwt beam="1">  1       -5 0.37867241E-01 0.12524296E+03</pdfrwt>
<totfact> 0.38716770E+02</totfact>
</mgrwt>
</event>
<event>
 8    1  0.3588496E-007  0.1431507E+03  0.7546771E-02  0.1209154E+00
         -5   -1    0    0    0  501 -0.00000000000E+00  0.00000000000E+00  0.96823127716E+03  0.96824268449E+03  0.47000000000E+01 0.  1.
          5   -1    0    0  501    0  0.00000000000E+00 -0.00000000000E+00 -0.23593193092E+02  0.24056782002E+02  0.47000000000E+01 0.  1.
         25    2    1    2    0    0 -0.20427467547E+02  0.66707116657E+02  0.63845940131E+03  0.65430906504E+03  0.12499129823E+03 0.  0.
         25    2    1    2    0    0  0.20427467547E+02 -0.66707116657E+02  0.30617868276E+03  0.33799040145E+03  0.12500001942E+03 0.  0.
          5    1    3    3  502    0 -0.14687805977E+02  0.68116962585E+02  0.64212722281E+03  0.64591416807E+03  0.47000000000E+01 0.  1.
         -5    1    3    3    0  502 -0.57396615701E+01 -0.14098459279E+01 -0.36678215090E+01  0.83948969679E+01  0.47000000000E+01 0.  1.
          5    1    4    4  503    0  0.43745601745E+02 -0.30539770238E+02  0.28464841727E+03  0.28964317132E+03  0.47000000000E+01 0. -1.
         -5    1    4    4    0  503 -0.23318134198E+02 -0.36167346419E+02  0.21530265494E+02  0.48347230135E+02  0.47000000000E+01 0. -1.
<mgrwt>
<rscale>  0 0.14314881E+03</rscale>
<asrwt>0</asrwt>
<pdfrwt beam="2">  1        5 0.36662595E-02 0.14315071E+03</pdfrwt>
<pdfrwt beam="1">  1       -5 0.14899522E+00 0.14315071E+03</pdfrwt>
<totfact> 0.90962175E+01</totfact>
</mgrwt>
</event>
<event>
 8    1  0.3588496E-007  0.1445581E+03  0.7546771E-02  0.1207331E+00
          5   -1    0    0  501    0  0.00000000000E+00  0.00000000000E+00  0.19646850782E+03  0.19652471744E+03  0.47000000000E+01 0.  1.
         -5   -1    0    0    0  501 -0.00000000000E+00 -0.00000000000E+00 -0.18018668016E+03  0.18024796728E+03  0.47000000000E+01 0.  1.
         25    2    1    2    0    0 -0.69948940514E+02  0.19343426877E+02 -0.11250837034E+03  0.18318069388E+03  0.12502004147E+03 0.  0.
         25    2    1    2    0    0  0.69948940514E+02 -0.19343426877E+02  0.12879019800E+03  0.19359199085E+03  0.12499568543E+03 0.  0.
          5    1    4    4  502    0  0.29416883834E+02  0.13449865769E+02  0.13678571284E+03  0.14063667082E+03  0.47000000000E+01 0. -1.
         -5    1    4    4    0  502  0.40532056680E+02 -0.32793292646E+02 -0.79955148362E+01  0.52955320023E+02  0.47000000000E+01 0. -1.
          5    1    3    3  503    0 -0.96116991899E+02  0.44515585648E+02 -0.69872193287E+02  0.12698160060E+03  0.47000000000E+01 0.  1.
         -5    1    3    3    0  503  0.26168051385E+02 -0.25172158771E+02 -0.42636177058E+02  0.56199093272E+02  0.47000000000E+01 0.  1.
<mgrwt>
<rscale>  0 0.14455280E+03</rscale>
<asrwt>0</asrwt>
<pdfrwt beam="1">  1        5 0.30234962E-01 0.14455806E+03</pdfrwt>
<pdfrwt beam="2">  1       -5 0.27730066E-01 0.14455806E+03</pdfrwt>
<totfact> 0.96576135E+01</totfact>
</mgrwt>
</event>
<event>
 8    1  0.3588496E-007  0.1583583E+03  0.7546771E-02  0.1190564E+00
          5   -1    0    0  501    0  0.00000000000E+00  0.00000000000E+00  0.38593982349E+02  0.38879113591E+02  0.47000000000E+01 0. -1.
         -5   -1    0    0    0  501 -0.00000000000E+00 -0.00000000000E+00 -0.64868122368E+03  0.64869825031E+03  0.47000000000E+01 0. -1.
         25    2    1    2    0    0 -0.66939031780E+02 -0.70499003405E+02 -0.32215535608E+03  0.35897103182E+03  0.12500073912E+03 0.  0.
         25    2    1    2    0    0  0.66939031780E+02  0.70499003405E+02 -0.28793188525E+03  0.32860633208E+03  0.12500562980E+03 0.  0.
          5    1    4    4  502    0  0.32980704959E+02  0.90082742244E+02 -0.10859298215E+03  0.14497293927E+03  0.47000000000E+01 0. -1.
         -5    1    4    4    0  502  0.33958326821E+02 -0.19583738839E+02 -0.17933890310E+03  0.18363339281E+03  0.47000000000E+01 0. -1.
          5    1    3    3  503    0 -0.98442933194E+01  0.24217140028E+02 -0.16273828946E+03  0.16489154265E+03  0.47000000000E+01 0. -1.
         -5    1    3    3    0  503 -0.57094738461E+02 -0.94716143433E+02 -0.15941706663E+03  0.19407948918E+03  0.47000000000E+01 0. -1.
<mgrwt>
<rscale>  0 0.15835733E+03</rscale>
<asrwt>0</asrwt>
<pdfrwt beam="1">  1        5 0.59607791E-02 0.15835830E+03</pdfrwt>
<pdfrwt beam="2">  1       -5 0.99820346E-01 0.15835830E+03</pdfrwt>
<totfact> 0.11738279E+02</totfact>
</mgrwt>
</event>
<event>
 8    1  0.3588496E-007  0.1879193E+03  0.7546771E-02  0.1160352E+00
         -5   -1    0    0    0  501 -0.00000000000E+00  0.00000000000E+00  0.12617449468E+03  0.12626200184E+03  0.47000000000E+01 0. -1.
          5   -1    0    0  501    0  0.00000000000E+00 -0.00000000000E+00 -0.28509422619E+03  0.28513296513E+03  0.47000000000E+01 0. -1.
         25    2    1    2    0    0  0.24130277456E+02  0.13822918628E+03 -0.51104700676E+02  0.19474375834E+03  0.12499545093E+03 0.  0.
         25    2    1    2    0    0 -0.24130277456E+02 -0.13822918628E+03 -0.10781503083E+03  0.21665120863E+03  0.12499634834E+03 0.  0.
          5    1    3    3  502    0 -0.43931087142E+01  0.17112802470E+02 -0.66784755001E+02  0.69241901426E+02  0.47000000000E+01 0. -1.
         -5    1    3    3    0  502  0.28523386170E+02  0.12111638381E+03  0.15680054326E+02  0.12550185692E+03  0.47000000000E+01 0. -1.
          5    1    4    4  503    0 -0.36677061533E+02  0.10539300122E+02 -0.24944138584E+02  0.45832125626E+02  0.47000000000E+01 0. -1.
         -5    1    4    4    0  503  0.12546784077E+02 -0.14876848640E+03 -0.82870892247E+02  0.17081908300E+03  0.47000000000E+01 0. -1.
<mgrwt>
<rscale>  0 0.18791916E+03</rscale>
<asrwt>0</asrwt>
<pdfrwt beam="2">  1        5 0.43870361E-01 0.18791931E+03</pdfrwt>
<pdfrwt beam="1">  1       -5 0.19421172E-01 0.18791931E+03</pdfrwt>
<totfact> 0.96985374E+01</totfact>
</mgrwt>
</event>
<event>
 8    1  0.3588496E-007  0.1469880E+03  0.7546771E-02  0.1204226E+00
         -5   -1    0    0    0  501 -0.00000000000E+00  0.00000000000E+00  0.27533333995E+03  0.27537345204E+03  0.47000000000E+01 0.  1.
          5   -1    0    0  501    0  0.00000000000E+00 -0.00000000000E+00 -0.79583438917E+02  0.79722103270E+02  0.47000000000E+01 0.  1.
         25    2    1    2    0    0  0.77212861442E+02  0.40592728543E+01  0.11995611687E+03  0.18972335798E+03  0.12500871538E+03 0.  0.
         25    2    1    2    0    0 -0.77212861442E+02 -0.40592728543E+01  0.75793784169E+02  0.16537219733E+03  0.12499984906E+03 0.  0.
          5    1    3    3  502    0 -0.84832828960E+01  0.44803397942E+02  0.66326814685E+02  0.80626589300E+02  0.47000000000E+01 0.  1.
         -5    1    3    3    0  502  0.85696144338E+02 -0.40744125087E+02  0.53629302183E+02  0.10909676868E+03  0.47000000000E+01 0.  1.
          5    1    4    4  503    0  0.14009087609E+00  0.28352925357E+02 -0.22190529202E+02  0.36310020490E+02  0.47000000000E+01 0. -1.
         -5    1    4    4    0  503 -0.77352952318E+02 -0.32412198211E+02  0.97984313370E+02  0.12906217684E+03  0.47000000000E+01 0. -1.
<mgrwt>
<rscale>  0 0.14698615E+03</rscale>
<asrwt>0</asrwt>
<pdfrwt beam="2">  1        5 0.12257358E-01 0.14698804E+03</pdfrwt>
<pdfrwt beam="1">  1       -5 0.42372728E-01 0.14698804E+03</pdfrwt>
<totfact> 0.22360347E+02</totfact>
</mgrwt>
</event>
<event>
 8    1  0.3588496E-007  0.1459488E+03  0.7546771E-02  0.1205542E+00
         -5   -1    0    0    0  501 -0.00000000000E+00  0.00000000000E+00  0.14994582626E+03  0.15001946811E+03  0.47000000000E+01 0. -1.
          5   -1    0    0  501    0  0.00000000000E+00 -0.00000000000E+00 -0.14498499786E+03  0.14506115815E+03  0.47000000000E+01 0. -1.
         25    2    1    2    0    0 -0.69937540201E+02  0.28018912164E+02  0.23962060900E+02  0.14790015401E+03  0.12499582484E+03 0.  0.
         25    2    1    2    0    0  0.69937540201E+02 -0.28018912164E+02 -0.19001232499E+02  0.14718047225E+03  0.12499890242E+03 0.  0.
          5    1    3    3  502    0 -0.21570379282E+02  0.68415826419E+02  0.40588638375E+02  0.82556248292E+02  0.47000000000E+01 0. -1.
         -5    1    3    3    0  502 -0.48367160918E+02 -0.40396914255E+02 -0.16626577475E+02  0.65343905723E+02  0.47000000000E+01 0. -1.
          5    1    4    4  503    0 -0.24985849631E+02  0.23125125374E+02  0.93008626412E+01  0.35604215358E+02  0.47000000000E+01 0.  1.
         -5    1    4    4    0  503  0.94923389832E+02 -0.51144037538E+02 -0.28302095140E+02  0.11157625689E+03  0.47000000000E+01 0.  1.
<mgrwt>
<rscale>  0 0.14594811E+03</rscale>
<asrwt>0</asrwt>
<pdfrwt beam="2">  1        5 0.22316908E-01 0.14594877E+03</pdfrwt>
<pdfrwt beam="1">  1       -5 0.23080112E-01 0.14594877E+03</pdfrwt>
<totfact> 0.24751386E+02</totfact>
</mgrwt>
</event>
<event>
 8    1  0.3588496E-007  0.1530381E+03  0.7546771E-02  0.1196790E+00
         -5   -1    0    0    0  501 -0.00000000000E+00  0.00000000000E+00  0.74384180476E+03  0.74385665320E+03  0.47000000000E+01 0.  1.
          5   -1    0    0  501    0  0.00000000000E+00 -0.00000000000E+00 -0.33920429143E+02  0.34244496102E+02  0.47000000000E+01 0.  1.
         25    2    1    2    0    0 -0.75177788036E+02  0.46286423361E+02  0.46264379046E+03  0.48729730203E+03  0.12500100366E+03 0.  0.
         25    2    1    2    0    0  0.75177788036E+02 -0.46286423361E+02  0.24727758516E+03  0.29080384727E+03  0.12500616250E+03 0.  0.
          5    1    4    4  502    0  0.50444245397E+02 -0.50541763677E+02  0.40046137718E+02  0.82005334676E+02  0.47000000000E+01 0. -1.
         -5    1    4    4    0  502  0.24733542640E+02  0.42553403152E+01  0.20723144744E+03  0.20879851259E+03  0.47000000000E+01 0. -1.
          5    1    3    3  503    0 -0.81452656564E+02  0.15625196592E+02  0.44147469731E+03  0.44922230621E+03  0.47000000000E+01 0. -1.
         -5    1    3    3    0  503  0.62748685279E+01  0.30661226770E+02  0.21169093143E+02  0.38074995818E+02  0.47000000000E+01 0. -1.
<mgrwt>
<rscale>  0 0.15303709E+03</rscale>
<asrwt>0</asrwt>
<pdfrwt beam="2">  1        5 0.52445980E-02 0.15303814E+03</pdfrwt>
<pdfrwt beam="1">  1       -5 0.11446327E+00 0.15303814E+03</pdfrwt>
<totfact> 0.10249293E+02</totfact>
</mgrwt>
</event>
<event>
 8    1  0.3588496E-007  0.1531204E+03  0.7546771E-02  0.1196691E+00
          5   -1    0    0  501    0  0.00000000000E+00  0.00000000000E+00  0.34737846699E+03  0.34741026083E+03  0.47000000000E+01 0. -1.
         -5   -1    0    0    0  501 -0.00000000000E+00 -0.00000000000E+00 -0.67665173791E+02  0.67828207585E+02  0.47000000000E+01 0. -1.
         25    2    1    2    0    0 -0.41769764411E+02 -0.77944157199E+02  0.15342844489E+03  0.21675994169E+03  0.12499831903E+03 0.  0.
         25    2    1    2    0    0  0.41769764411E+02  0.77944157199E+02  0.12628484830E+03  0.19847852672E+03  0.12500343114E+03 0.  0.
          5    1    3    3  502    0 -0.40314466054E+02  0.11616637046E+01  0.12680808580E+03  0.13315023943E+03  0.47000000000E+01 0. -1.
         -5    1    3    3    0  502 -0.14552983571E+01 -0.79105820903E+02  0.26620359088E+02  0.83609702261E+02  0.47000000000E+01 0. -1.
          5    1    4    4  503    0 -0.77824362685E+01  0.86168194088E+02  0.33561547741E+02  0.92919273961E+02  0.47000000000E+01 0. -1.
         -5    1    4    4    0  503  0.49552200680E+02 -0.82240368889E+01  0.92723300563E+02  0.10555925276E+03  0.47000000000E+01 0. -1.
<mgrwt>
<rscale>  0 0.15311938E+03</rscale>
<asrwt>0</asrwt>
<pdfrwt beam="1">  1        5 0.53457827E-01 0.15312042E+03</pdfrwt>
<pdfrwt beam="2">  1       -5 0.10425014E-01 0.15312042E+03</pdfrwt>
<totfact> 0.18489921E+02</totfact>
</mgrwt>
</event>
<event>
 8    1  0.3588496E-007  0.1269681E+03  0.7546771E-02  0.1232028E+00
         -5   -1    0    0    0  501 -0.00000000000E+00  0.00000000000E+00  0.37463991404E+02  0.37757656864E+02  0.47000000000E+01 0.  1.
          5   -1    0    0  501    0  0.00000000000E+00 -0.00000000000E+00 -0.48557021121E+03  0.48559295713E+03  0.47000000000E+01 0.  1.
         25    2    1    2    0    0  0.39473259978E+00 -0.22267337660E+02 -0.13421690955E+03  0.18475679826E+03  0.12499962221E+03 0.  0.
         25    2    1    2    0    0 -0.39473259978E+00  0.22267337660E+02 -0.31388931026E+03  0.33859381574E+03  0.12499313110E+03 0.  0.
          5    1    3    3  502    0 -0.23238226957E+02 -0.37344053472E+02  0.32769921451E+01  0.44355633232E+02  0.47000000000E+01 0.  1.
         -5    1    3    3    0  502  0.23632959557E+02  0.15076715813E+02 -0.13749390169E+03  0.14040116502E+03  0.47000000000E+01 0.  1.
          5    1    4    4  503    0 -0.47728254165E+02 -0.15636099429E+02 -0.64434051439E+02  0.81830989459E+02  0.47000000000E+01 0. -1.
         -5    1    4    4    0  503  0.47333521565E+02  0.37903437089E+02 -0.24945525882E+03  0.25676282628E+03  0.47000000000E+01 0. -1.
<mgrwt>
<rscale>  0 0.12696649E+03</rscale>
<asrwt>0</asrwt>
<pdfrwt beam="2">  1        5 0.74727444E-01 0.12696809E+03</pdfrwt>
<pdfrwt beam="1">  1       -5 0.57880307E-02 0.12696809E+03</pdfrwt>
<totfact> 0.22671105E+02</totfact>
</mgrwt>
</event>
<event>
 8    1  0.3588496E-007  0.1351602E+03  0.7546771E-02  0.1219997E+00
         -5   -1    0    0    0  501 -0.00000000000E+00  0.00000000000E+00  0.70523283461E+03  0.70524849593E+03  0.47000000000E+01 0. -1.
          5   -1    0    0  501    0  0.00000000000E+00 -0.00000000000E+00 -0.32494369367E+02  0.32832514990E+02  0.47000000000E+01 0. -1.
         25    2    1    2    0    0 -0.48528151143E+02  0.16919195888E+02  0.50443759494E+03  0.52223133527E+03  0.12500815854E+03 0.  0.
         25    2    1    2    0    0  0.48528151143E+02 -0.16919195888E+02  0.16830087030E+03  0.21584967565E+03  0.12499863556E+03 0.  0.
          5    1    3    3  502    0 -0.63684439021E+02  0.60999529377E+02  0.33000583925E+03  0.34161761414E+03  0.47000000000E+01 0.  1.
         -5    1    3    3    0  502  0.15156287878E+02 -0.44080333489E+02  0.17443175570E+03  0.18061372113E+03  0.47000000000E+01 0.  1.
          5    1    4    4  503    0 -0.28433860708E+01 -0.62552246147E+02  0.10478948898E+03  0.12216298680E+03  0.47000000000E+01 0. -1.
         -5    1    4    4    0  503  0.51371537214E+02  0.45633050258E+02  0.63511381321E+02  0.93686688857E+02  0.47000000000E+01 0. -1.
<mgrwt>
<rscale>  0 0.13515800E+03</rscale>
<asrwt>0</asrwt>
<pdfrwt beam="2">  1        5 0.50263495E-02 0.13516020E+03</pdfrwt>
<pdfrwt beam="1">  1       -5 0.10852458E+00 0.13516020E+03</pdfrwt>
<totfact> 0.12084524E+02</totfact>
</mgrwt>
</event>
<event>
 8    1  0.3588496E-007  0.1255664E+03  0.7546771E-02  0.1234187E+00
          5   -1    0    0  501    0  0.00000000000E+00  0.00000000000E+00  0.37985697829E+02  0.38275360737E+02  0.47000000000E+01 0. -1.
         -5   -1    0    0    0  501 -0.00000000000E+00 -0.00000000000E+00 -0.54163048555E+03  0.54165087730E+03  0.47000000000E+01 0. -1.
         25    2    1    2    0    0 -0.85222090631E+00 -0.11880648398E+02 -0.39298362956E+03  0.41255674207E+03  0.12500022496E+03 0.  0.
         25    2    1    2    0    0  0.85222090631E+00  0.11880648398E+02 -0.11066115817E+03  0.16736949597E+03  0.12499912066E+03 0.  0.
          5    1    4    4  502    0  0.24662224854E+02  0.44880053049E+02 -0.11519888986E+03  0.12615593019E+03  0.47000000000E+01 0. -1.
         -5    1    4    4    0  502 -0.23810003948E+02 -0.32999404650E+02  0.45377316938E+01  0.41213565779E+02  0.47000000000E+01 0. -1.
          5    1    3    3  503    0 -0.58073711405E+02 -0.22249733410E+01 -0.11976438713E+03  0.13320324654E+03  0.47000000000E+01 0. -1.
         -5    1    3    3    0  503  0.57221490499E+02 -0.96556750573E+01 -0.27321924242E+03  0.27935349553E+03  0.47000000000E+01 0. -1.
<mgrwt>
<rscale>  0 0.12556617E+03</rscale>
<asrwt>0</asrwt>
<pdfrwt beam="1">  1        5 0.58678042E-02 0.12556645E+03</pdfrwt>
<pdfrwt beam="2">  1       -5 0.83351612E-01 0.12556645E+03</pdfrwt>
<totfact> 0.17162051E+02</totfact>
</mgrwt>
</event>
<event>
 8    1  0.3588496E-007  0.1397003E+03  0.7546771E-02  0.1213734E+00
         -5   -1    0    0    0  501 -0.00000000000E+00  0.00000000000E+00  0.88096250930E+03  0.88097504664E+03  0.47000000000E+01 0. -1.
          5   -1    0    0  501    0  0.00000000000E+00 -0.00000000000E+00 -0.21971776569E+02  0.22468844332E+02  0.47000000000E+01 0. -1.
         25    2    1    2    0    0 -0.41320831420E+02 -0.46719893939E+02  0.40233037661E+03  0.42589422774E+03  0.12500400667E+03 0.  0.
         25    2    1    2    0    0  0.41320831420E+02  0.46719893939E+02  0.45666035613E+03  0.47754966323E+03  0.12499936156E+03 0.  0.
          5    1    3    3  502    0 -0.85789072920E+02 -0.38748352779E+02  0.27546909534E+03  0.29114689139E+03  0.47000000000E+01 0.  1.
         -5    1    3    3    0  502  0.44468241500E+02 -0.79715411597E+01  0.12686128126E+03  0.13474733635E+03  0.47000000000E+01 0.  1.
          5    1    4    4  503    0 -0.14854554300E+01  0.47237357889E+02  0.41473593678E+03  0.41744647778E+03  0.47000000000E+01 0.  1.
         -5    1    4    4    0  503  0.42806286850E+02 -0.51746395047E+00  0.41924419348E+02  0.60103185444E+02  0.47000000000E+01 0.  1.
<mgrwt>
<rscale>  0 0.13969922E+03</rscale>
<asrwt>0</asrwt>
<pdfrwt beam="2">  1        5 0.34194734E-02 0.13970026E+03</pdfrwt>
<pdfrwt beam="1">  1       -5 0.13557191E+00 0.13970026E+03</pdfrwt>
<totfact> 0.13029875E+02</totfact>
</mgrwt>
</event>
<event>
 8    1  0.3588496E-007  0.1253046E+03  0.7546771E-02  0.1234596E+00
         -5   -1    0    0    0  501 -0.00000000000E+00  0.00000000000E+00  0.35755621080E+02  0.36063200618E+02  0.47000000000E+01 0. -1.
          5   -1    0    0  501    0  0.00000000000E+00 -0.00000000000E+00 -0.43730829747E+03  0.43733355353E+03  0.47000000000E+01 0. -1.
         25    2    1    2    0    0 -0.83649340868E+01 -0.24408367742E+01 -0.19359010485E+03  0.23060434564E+03  0.12500122289E+03 0.  0.
         25    2    1    2    0    0  0.83649340868E+01  0.24408367742E+01 -0.20796257154E+03  0.24279240851E+03  0.12499517055E+03 0.  0.
          5    1    3    3  502    0  0.16999644338E+02  0.28105879211E+02 -0.18719635701E+03  0.19011442457E+03  0.47000000000E+01 0. -1.
         -5    1    3    3    0  502 -0.25364578425E+02 -0.30546715985E+02 -0.63937478414E+01  0.40489921062E+02  0.47000000000E+01 0. -1.
          5    1    4    4  503    0  0.22843883676E+02  0.60568472500E+02 -0.99480019583E+02  0.11878024743E+03  0.47000000000E+01 0. -1.
         -5    1    4    4    0  503 -0.14478949589E+02 -0.58127635726E+02 -0.10848255196E+03  0.12401216108E+03  0.47000000000E+01 0. -1.
<mgrwt>
<rscale>  0 0.12530306E+03</rscale>
<asrwt>0</asrwt>
<pdfrwt beam="2">  1        5 0.67303799E-01 0.12530457E+03</pdfrwt>
<pdfrwt beam="1">  1       -5 0.55264678E-02 0.12530457E+03</pdfrwt>
<totfact> 0.30860765E+02</totfact>
</mgrwt>
</event>
<event>
 8    1  0.3588496E-007  0.1289165E+03  0.7546771E-02  0.1229079E+00
         -5   -1    0    0    0  501 -0.00000000000E+00  0.00000000000E+00  0.21836491809E+03  0.21841549271E+03  0.47000000000E+01 0. -1.
          5   -1    0    0  501    0  0.00000000000E+00 -0.00000000000E+00 -0.12263006594E+03  0.12272010052E+03  0.47000000000E+01 0. -1.
         25    2    1    2    0    0 -0.12183817757E+02  0.28986466236E+02  0.15301037246E+03  0.20006836866E+03  0.12500606951E+03 0.  0.
         25    2    1    2    0    0  0.12183817757E+02 -0.28986466236E+02 -0.57275520306E+02  0.14106722457E+03  0.12502326176E+03 0.  0.
          5    1    4    4  502    0  0.68048580514E+02 -0.22973455062E+02 -0.38589876414E+02  0.81667971133E+02  0.47000000000E+01 0.  1.
         -5    1    4    4    0  502 -0.55864762757E+02 -0.60130111733E+01 -0.18685643892E+02  0.59399253437E+02  0.47000000000E+01 0.  1.
          5    1    3    3  503    0  0.43422978925E+02  0.33036776686E+01  0.10735829553E+02  0.45097864928E+02  0.47000000000E+01 0. -1.
         -5    1    3    3    0  503 -0.55606796682E+02  0.25682788567E+02  0.14227454291E+03  0.15497050373E+03  0.47000000000E+01 0. -1.
<mgrwt>
<rscale>  0 0.12891238E+03</rscale>
<asrwt>0</asrwt>
<pdfrwt beam="2">  1        5 0.18876980E-01 0.12891655E+03</pdfrwt>
<pdfrwt beam="1">  1       -5 0.33605419E-01 0.12891655E+03</pdfrwt>
<totfact> 0.15641786E+02</totfact>
</mgrwt>
</event>
<event>
 8    1  0.3588496E-007  0.1290604E+03  0.7546771E-02  0.1228859E+00
          5   -1    0    0  501    0  0.00000000000E+00  0.00000000000E+00  0.20602232603E+04  0.20602286214E+04  0.47000000000E+01 0. -1.
         -5   -1    0    0    0  501 -0.00000000000E+00 -0.00000000000E+00 -0.78389899990E+01  0.91400089827E+01  0.47000000000E+01 0. -1.
         25    2    1    2    0    0 -0.64772033389E+01 -0.31451991089E+02  0.79872745369E+03  0.80908612228E+03  0.12499450423E+03 0.  0.
         25    2    1    2    0    0  0.64772033389E+01  0.31451991089E+02  0.12536568166E+04  0.12602825081E+04  0.12500161753E+03 0.  0.
          5    1    4    4  502    0 -0.49818601491E+02  0.45914016099E+02  0.80340453333E+03  0.80626975889E+03  0.47000000000E+01 0. -1.
         -5    1    4    4    0  502  0.56295804830E+02 -0.14462025009E+02  0.45025228332E+03  0.45401274921E+03  0.47000000000E+01 0. -1.
          5    1    3    3  503    0  0.77014797348E+01  0.23578777915E+02  0.34585695621E+02  0.42819760621E+02  0.47000000000E+01 0.  1.
         -5    1    3    3    0  503 -0.14178683074E+02 -0.55030769004E+02  0.76414175807E+03  0.76626636166E+03  0.47000000000E+01 0.  1.
<mgrwt>
<rscale>  0 0.12905868E+03</rscale>
<asrwt>0</asrwt>
<pdfrwt beam="1">  1        5 0.31705811E+00 0.12906040E+03</pdfrwt>
<pdfrwt beam="2">  1       -5 0.13064884E-02 0.12906040E+03</pdfrwt>
<totfact> 0.34820040E+01</totfact>
</mgrwt>
</event>
<event>
 8    1  0.3588496E-007  0.1377140E+03  0.7546771E-02  0.1216439E+00
          5   -1    0    0  501    0  0.00000000000E+00  0.00000000000E+00  0.31546642717E+03  0.31550143688E+03  0.47000000000E+01 0.  1.
         -5   -1    0    0    0  501 -0.00000000000E+00 -0.00000000000E+00 -0.60018886221E+02  0.60202630368E+02  0.47000000000E+01 0.  1.
         25    2    1    2    0    0 -0.43458530099E+02 -0.38098791279E+02  0.12340730650E+03  0.18491758670E+03  0.12499995535E+03 0.  0.
         25    2    1    2    0    0  0.43458530099E+02  0.38098791279E+02  0.13204023446E+03  0.19078648055E+03  0.12499878364E+03 0.  0.
          5    1    3    3  502    0  0.12472474498E+02 -0.56201565201E+02  0.12192187815E+02  0.59033194009E+02  0.47000000000E+01 0.  1.
         -5    1    3    3    0  502 -0.55931004596E+02  0.18102773923E+02  0.11121511868E+03  0.12588439269E+03  0.47000000000E+01 0.  1.
          5    1    4    4  503    0 -0.11084726847E+02 -0.29313536875E+02 -0.12361722613E+01  0.31713920213E+02  0.47000000000E+01 0.  1.
         -5    1    4    4    0  503  0.54543256946E+02  0.67412328154E+02  0.13327640672E+03  0.15907256034E+03  0.47000000000E+01 0.  1.
<mgrwt>
<rscale>  0 0.13771375E+03</rscale>
<asrwt>0</asrwt>
<pdfrwt beam="1">  1        5 0.48550124E-01 0.13771402E+03</pdfrwt>
<pdfrwt beam="2">  1       -5 0.92505021E-02 0.13771402E+03</pdfrwt>
<totfact> 0.26988327E+02</totfact>
</mgrwt>
</event>
<event>
 8    1  0.3588496E-007  0.1408795E+03  0.7546771E-02  0.1212152E+00
         -5   -1    0    0    0  501 -0.00000000000E+00  0.00000000000E+00  0.71262713859E+02  0.71417535568E+02  0.47000000000E+01 0. -1.
          5   -1    0    0  501    0  0.00000000000E+00 -0.00000000000E+00 -0.36671435417E+03  0.36674447174E+03  0.47000000000E+01 0. -1.
         25    2    1    2    0    0 -0.58795120899E+02  0.27624210491E+02 -0.40007428522E+02  0.14644507055E+03  0.12500240439E+03 0.  0.
         25    2    1    2    0    0  0.58795120899E+02 -0.27624210491E+02 -0.25544421179E+03  0.29171693676E+03  0.12500825017E+03 0.  0.
          5    1    3    3  502    0  0.36765725202E+02 -0.89997267469E+01 -0.15039959008E+02  0.41000048758E+02  0.47000000000E+01 0. -1.
         -5    1    3    3    0  502 -0.95560846101E+02  0.36623937238E+02 -0.24967469514E+02  0.10544502179E+03  0.47000000000E+01 0. -1.
          5    1    4    4  503    0  0.83663813014E+02  0.36984738511E+01 -0.97001660557E+02  0.12823698557E+03  0.47000000000E+01 0.  1.
         -5    1    4    4    0  503 -0.24868692115E+02 -0.31322684342E+02 -0.15844255123E+03  0.16347995120E+03  0.47000000000E+01 0.  1.
<mgrwt>
<rscale>  0 0.14087818E+03</rscale>
<asrwt>0</asrwt>
<pdfrwt beam="2">  1        5 0.56431818E-01 0.14087947E+03</pdfrwt>
<pdfrwt beam="1">  1       -5 0.10977721E-01 0.14087947E+03</pdfrwt>
<totfact> 0.14621931E+02</totfact>
</mgrwt>
</event>
<event>
 8    1  0.3588496E-007  0.1556259E+03  0.7546771E-02  0.1193726E+00
         -5   -1    0    0    0  501 -0.00000000000E+00  0.00000000000E+00  0.15541887306E+03  0.15548992284E+03  0.47000000000E+01 0.  1.
          5   -1    0    0  501    0  0.00000000000E+00 -0.00000000000E+00 -0.18319465619E+03  0.18325493733E+03  0.47000000000E+01 0.  1.
         25    2    1    2    0    0 -0.92322284606E+02  0.83935812587E+01  0.51717399834E+02  0.16399191314E+03  0.12499920675E+03 0.  0.
         25    2    1    2    0    0  0.92322284606E+02 -0.83935812587E+01 -0.79493182963E+02  0.17475294704E+03  0.12500227966E+03 0.  0.
          5    1    4    4  502    0  0.65047803502E+02 -0.58507198574E+02 -0.78281162946E+02  0.11749186992E+03  0.47000000000E+01 0. -1.
         -5    1    4    4    0  502  0.27274481104E+02  0.50113617315E+02 -0.12120200173E+01  0.57261077115E+02  0.47000000000E+01 0. -1.
          5    1    3    3  503    0 -0.40618379317E+02 -0.44574442386E+02  0.64837175067E+02  0.88671770723E+02  0.47000000000E+01 0.  1.
         -5    1    3    3    0  503 -0.51703905288E+02  0.52968023645E+02 -0.13119775234E+02  0.75320142413E+02  0.47000000000E+01 0.  1.
<mgrwt>
<rscale>  0 0.15562530E+03</rscale>
<asrwt>0</asrwt>
<pdfrwt beam="2">  1        5 0.28193895E-01 0.15562592E+03</pdfrwt>
<pdfrwt beam="1">  1       -5 0.23920698E-01 0.15562592E+03</pdfrwt>
<totfact> 0.15073504E+02</totfact>
</mgrwt>
</event>
<event>
 8    1  0.3588496E-007  0.1336514E+03  0.7546771E-02  0.1222137E+00
          5   -1    0    0  501    0  0.00000000000E+00  0.00000000000E+00  0.42384116294E+02  0.42643912977E+02  0.47000000000E+01 0.  1.
         -5   -1    0    0    0  501 -0.00000000000E+00 -0.00000000000E+00 -0.46984022991E+03  0.46986373731E+03  0.47000000000E+01 0.  1.
         25    2    1    2    0    0 -0.32259553916E+02  0.34602629719E+02 -0.29726285921E+03  0.32592623201E+03  0.12499872177E+03 0.  0.
         25    2    1    2    0    0  0.32259553916E+02 -0.34602629719E+02 -0.13019325441E+03  0.18658141828E+03  0.12499728538E+03 0.  0.
          5    1    4    4  502    0 -0.24975697529E+02 -0.45264305658E+02 -0.98845139983E+01  0.52843509069E+02  0.47000000000E+01 0. -1.
         -5    1    4    4    0  502  0.57235251445E+02  0.10661675939E+02 -0.12030874041E+03  0.13373790921E+03  0.47000000000E+01 0. -1.
          5    1    3    3  503    0  0.28080263562E+02  0.60942274105E+02 -0.13773410284E+03  0.15328155486E+03  0.47000000000E+01 0. -1.
         -5    1    3    3    0  503 -0.60339817478E+02 -0.26339644386E+02 -0.15952875637E+03  0.17264467715E+03  0.47000000000E+01 0. -1.
<mgrwt>
<rscale>  0 0.13365108E+03</rscale>
<asrwt>0</asrwt>
<pdfrwt beam="1">  1        5 0.65424262E-02 0.13365142E+03</pdfrwt>
<pdfrwt beam="2">  1       -5 0.72304901E-01 0.13365142E+03</pdfrwt>
<totfact> 0.20246700E+02</totfact>
</mgrwt>
</event>
<event>
 8    1  0.3588496E-007  0.1625682E+03  0.7546771E-02  0.1185832E+00
         -5   -1    0    0    0  501 -0.00000000000E+00  0.00000000000E+00  0.11421358336E+03  0.11431024724E+03  0.47000000000E+01 0. -1.
          5   -1    0    0  501    0  0.00000000000E+00 -0.00000000000E+00 -0.27364565408E+03  0.27368601352E+03  0.47000000000E+01 0. -1.
         25    2    1    2    0    0  0.88741463318E+02  0.54111336216E+02 -0.32852090144E+01  0.16258492607E+03  0.12497992466E+03 0.  0.
         25    2    1    2    0    0 -0.88741463318E+02 -0.54111336216E+02 -0.15614686170E+03  0.22541133469E+03  0.12500137347E+03 0.  0.
          5    1    4    4  502    0 -0.79799637537E+02 -0.28866687239E+02 -0.20986531562E+02  0.87543088192E+02  0.47000000000E+01 0.  1.
         -5    1    4    4    0  502 -0.89418257810E+01 -0.25244648977E+02 -0.13516033014E+03  0.13786824650E+03  0.47000000000E+01 0.  1.
          5    1    3    3  503    0  0.80151538344E+02  0.28128908788E+02  0.52712706349E+02  0.10008108722E+03  0.47000000000E+01 0. -1.
         -5    1    3    3    0  503  0.85899249740E+01  0.25982427428E+02 -0.55997915363E+02  0.62503838851E+02  0.47000000000E+01 0. -1.
<mgrwt>
<rscale>  0 0.16256410E+03</rscale>
<asrwt>0</asrwt>
<pdfrwt beam="2">  1        5 0.42109871E-01 0.16256822E+03</pdfrwt>
<pdfrwt beam="1">  1       -5 0.17581861E-01 0.16256822E+03</pdfrwt>
<totfact> 0.12174572E+02</totfact>
</mgrwt>
</event>
<event>
 8    1  0.3588496E-007  0.2053438E+03  0.7546771E-02  0.1145307E+00
          5   -1    0    0  501    0  0.00000000000E+00  0.00000000000E+00  0.12364296848E+04  0.12364386177E+04  0.47000000000E+01 0. -1.
         -5   -1    0    0    0  501 -0.00000000000E+00 -0.00000000000E+00 -0.36269795077E+02  0.36573050665E+02  0.47000000000E+01 0. -1.
         25    2    1    2    0    0 -0.96465571463E+01 -0.16262834896E+03  0.43919259185E+03  0.48482596049E+03  0.12500017312E+03 0.  0.
         25    2    1    2    0    0  0.96465571463E+01  0.16262834896E+03  0.76096729785E+03  0.78818570790E+03  0.12499778314E+03 0.  0.
          5    1    4    4  502    0  0.15111913037E+02  0.10679347965E+03  0.22816671683E+03  0.25241901251E+03  0.47000000000E+01 0. -1.
         -5    1    4    4    0  502 -0.54653558909E+01  0.55834869312E+02  0.53280058102E+03  0.53576669539E+03  0.47000000000E+01 0. -1.
          5    1    3    3  503    0  0.27111321262E+02  0.63984445389E+01  0.10179313291E+03  0.10564040771E+03  0.47000000000E+01 0.  1.
         -5    1    3    3    0  503 -0.36757878408E+02 -0.16902679350E+03  0.33739945894E+03  0.37918555278E+03  0.47000000000E+01 0.  1.
<mgrwt>
<rscale>  0 0.20534344E+03</rscale>
<asrwt>0</asrwt>
<pdfrwt beam="1">  1        5 0.19024395E+00 0.20534381E+03</pdfrwt>
<pdfrwt beam="2">  1       -5 0.56039833E-02 0.20534381E+03</pdfrwt>
<totfact> 0.24475705E+01</totfact>
</mgrwt>
</event>
<event>
 8    1  0.3588496E-007  0.1291806E+03  0.7546771E-02  0.1228679E+00
         -5   -1    0    0    0  501 -0.00000000000E+00  0.00000000000E+00  0.27510876957E+02  0.27909467049E+02  0.47000000000E+01 0.  1.
          5   -1    0    0  501    0  0.00000000000E+00 -0.00000000000E+00 -0.60921780348E+03  0.60923593302E+03  0.47000000000E+01 0.  1.
         25    2    1    2    0    0  0.20086392146E+02 -0.25674483419E+02 -0.32603648773E+03  0.35069561434E+03  0.12499992136E+03 0.  0.
         25    2    1    2    0    0 -0.20086392146E+02  0.25674483419E+02 -0.25567043879E+03  0.28644978572E+03  0.12499385673E+03 0.  0.
          5    1    4    4  502    0 -0.30442952090E+02  0.71790925621E+02 -0.12488180469E+03  0.14730331115E+03  0.47000000000E+01 0. -1.
         -5    1    4    4    0  502  0.10356559944E+02 -0.46116442202E+02 -0.13078863410E+03  0.13914647457E+03  0.47000000000E+01 0. -1.
          5    1    3    3  503    0  0.29224568664E+02 -0.22361067094E+02 -0.33476350071E+03  0.33681268406E+03  0.47000000000E+01 0. -1.
         -5    1    3    3    0  503 -0.91381765176E+01 -0.33134163244E+01  0.87270129773E+01  0.13882930285E+02  0.47000000000E+01 0. -1.
<mgrwt>
<rscale>  0 0.12917911E+03</rscale>
<asrwt>0</asrwt>
<pdfrwt beam="2">  1        5 0.93757862E-01 0.12918058E+03</pdfrwt>
<pdfrwt beam="1">  1       -5 0.42644984E-02 0.12918058E+03</pdfrwt>
<totfact> 0.22303399E+02</totfact>
</mgrwt>
</event>
<event>
 8    1  0.3588496E-007  0.1328387E+03  0.7546771E-02  0.1223319E+00
         -5   -1    0    0    0  501 -0.00000000000E+00  0.00000000000E+00  0.53371766354E+02  0.53578311318E+02  0.47000000000E+01 0.  1.
          5   -1    0    0  501    0  0.00000000000E+00 -0.00000000000E+00 -0.58628624941E+03  0.58630508803E+03  0.47000000000E+01 0.  1.
         25    2    1    2    0    0  0.28273793396E+02 -0.34958510739E+02 -0.54799283235E+02  0.14365738920E+03  0.12495190740E+03 0.  0.
         25    2    1    2    0    0 -0.28273793396E+02  0.34958510739E+02 -0.47811519982E+03  0.49622601015E+03  0.12499841591E+03 0.  0.
          5    1    4    4  502    0 -0.24518844227E+01  0.37285854708E+02 -0.46548525503E+03  0.46700627335E+03  0.47000000000E+01 0. -1.
         -5    1    4    4    0  502 -0.25821908974E+02 -0.23273439694E+01 -0.12629944789E+02  0.29219736795E+02  0.47000000000E+01 0. -1.
          5    1    3    3  503    0 -0.37952309067E+02 -0.49822871622E+02 -0.14078588486E+02  0.64366085433E+02  0.47000000000E+01 0.  1.
         -5    1    3    3    0  503  0.66226102463E+02  0.14864360883E+02 -0.40720694749E+02  0.79291303765E+02  0.47000000000E+01 0.  1.
<mgrwt>
<rscale>  0 0.13282772E+03</rscale>
<asrwt>0</asrwt>
<pdfrwt beam="2">  1        5 0.90215217E-01 0.13283866E+03</pdfrwt>
<pdfrwt beam="1">  1       -5 0.82283786E-02 0.13283866E+03</pdfrwt>
<totfact> 0.81889096E+01</totfact>
</mgrwt>
</event>
<event>
 8    1  0.3588496E-007  0.1529787E+03  0.7546771E-02  0.1196866E+00
         -5   -1    0    0    0  501 -0.00000000000E+00  0.00000000000E+00  0.32490070910E+03  0.32493470232E+03  0.47000000000E+01 0. -1.
          5   -1    0    0  501    0  0.00000000000E+00 -0.00000000000E+00 -0.72438509987E+02  0.72590824001E+02  0.47000000000E+01 0. -1.
         25    2    1    2    0    0  0.74104198336E+02  0.47746304915E+02  0.14324496024E+03  0.20956038301E+03  0.12500117458E+03 0.  0.
         25    2    1    2    0    0 -0.74104198336E+02 -0.47746304915E+02  0.10921723887E+03  0.18796514332E+03  0.12502538939E+03 0.  0.
          5    1    4    4  502    0  0.54069347189E+01 -0.10523665715E+02  0.98588032253E+02  0.99406602330E+02  0.47000000000E+01 0. -1.
         -5    1    4    4    0  502 -0.79511133055E+02 -0.37222639200E+02  0.10629206617E+02  0.88558540988E+02  0.47000000000E+01 0. -1.
          5    1    3    3  503    0  0.96626427770E+02  0.68876259949E+02  0.12864847911E+03  0.17508034415E+03  0.47000000000E+01 0.  1.
         -5    1    3    3    0  503 -0.22522229434E+02 -0.21129955033E+02  0.14596481129E+02  0.34480038859E+02  0.47000000000E+01 0.  1.
<mgrwt>
<rscale>  0 0.15297378E+03</rscale>
<asrwt>0</asrwt>
<pdfrwt beam="2">  1        5 0.11158717E-01 0.15297872E+03</pdfrwt>
<pdfrwt beam="1">  1       -5 0.49999056E-01 0.15297872E+03</pdfrwt>
<totfact> 0.18918199E+02</totfact>
</mgrwt>
</event>
<event>
 8    1  0.3588496E-007  0.1654730E+03  0.7546771E-02  0.1182655E+00
         -5   -1    0    0    0  501 -0.00000000000E+00  0.00000000000E+00  0.10193181570E+03  0.10204011491E+03  0.47000000000E+01 0. -1.
          5   -1    0    0  501    0  0.00000000000E+00 -0.00000000000E+00 -0.27947625030E+03  0.27951576786E+03  0.47000000000E+01 0. -1.
         25    2    1    2    0    0 -0.10776969342E+03 -0.11829642615E+02 -0.50701091725E+02  0.17306624349E+03  0.12500830639E+03 0.  0.
         25    2    1    2    0    0  0.10776969342E+03  0.11829642615E+02 -0.12684334288E+03  0.20848963929E+03  0.12499779516E+03 0.  0.
          5    1    3    3  502    0 -0.36263674897E+02  0.40131728132E+02  0.21940770433E+02  0.58558493211E+02  0.47000000000E+01 0.  1.
         -5    1    3    3    0  502 -0.71506018524E+02 -0.51961370748E+02 -0.72641862158E+02  0.11450775027E+03  0.47000000000E+01 0.  1.
          5    1    4    4  503    0  0.44645295287E+02 -0.54546571379E+02 -0.75417426154E+02  0.10333638763E+03  0.47000000000E+01 0. -1.
         -5    1    4    4    0  503  0.63124398133E+02  0.66376213994E+02 -0.51425916724E+02  0.10515325166E+03  0.47000000000E+01 0. -1.
<mgrwt>
<rscale>  0 0.16547105E+03</rscale>
<asrwt>0</asrwt>
<pdfrwt beam="2">  1        5 0.43007716E-01 0.16547303E+03</pdfrwt>
<pdfrwt beam="1">  1       -5 0.15693188E-01 0.16547303E+03</pdfrwt>
<totfact> 0.14432061E+02</totfact>
</mgrwt>
</event>
<event>
 8    1  0.3588496E-007  0.1438828E+03  0.7546771E-02  0.1208201E+00
          5   -1    0    0  501    0  0.00000000000E+00  0.00000000000E+00  0.67228436590E+03  0.67230079476E+03  0.47000000000E+01 0. -1.
         -5   -1    0    0    0  501 -0.00000000000E+00 -0.00000000000E+00 -0.31437125443E+02  0.31786520038E+02  0.47000000000E+01 0. -1.
         25    2    1    2    0    0 -0.31681116364E+02  0.63826030706E+02  0.26315724778E+03  0.29991906053E+03  0.12498900145E+03 0.  0.
         25    2    1    2    0    0  0.31681116364E+02 -0.63826030706E+02  0.37768999268E+03  0.40416825426E+03  0.12499916742E+03 0.  0.
          5    1    4    4  502    0 -0.14766719374E+02 -0.48665528955E+02  0.45592171603E+02  0.68462587017E+02  0.47000000000E+01 0. -1.
         -5    1    4    4    0  502  0.46447835738E+02 -0.15160501751E+02  0.33209782108E+03  0.33570566725E+03  0.47000000000E+01 0. -1.
          5    1    3    3  503    0 -0.54645601582E+02  0.90927678382E+02  0.17416955219E+03  0.20398800793E+03  0.47000000000E+01 0.  1.
         -5    1    3    3    0  503  0.22964485217E+02 -0.27101647676E+02  0.88987695585E+02  0.95931052603E+02  0.47000000000E+01 0.  1.
<mgrwt>
<rscale>  0 0.14388055E+03</rscale>
<asrwt>0</asrwt>
<pdfrwt beam="1">  1        5 0.10345650E+00 0.14388275E+03</pdfrwt>
<pdfrwt beam="2">  1       -5 0.48646214E-02 0.14388275E+03</pdfrwt>
<totfact> 0.14649865E+02</totfact>
</mgrwt>
</event>
<event>
 8    1  0.3588496E-007  0.1354743E+03  0.7546771E-02  0.1219553E+00
          5   -1    0    0  501    0  0.00000000000E+00  0.00000000000E+00  0.57501328624E+02  0.57693091385E+02  0.47000000000E+01 0. -1.
         -5   -1    0    0    0  501 -0.00000000000E+00 -0.00000000000E+00 -0.37349596796E+03  0.37352553873E+03  0.47000000000E+01 0. -1.
         25    2    1    2    0    0  0.10777505477E+01 -0.52209646469E+02 -0.24075869673E+03  0.27625499123E+03  0.12500024559E+03 0.  0.
         25    2    1    2    0    0 -0.10777505477E+01  0.52209646469E+02 -0.75235942599E+02  0.15496363888E+03  0.12500509423E+03 0.  0.
          5    1    4    4  502    0  0.35821421037E+01 -0.13539260166E+02  0.28423215272E+02  0.32032990405E+02  0.47000000000E+01 0.  1.
         -5    1    4    4    0  502 -0.46598926514E+01  0.65748906635E+02 -0.10365915787E+03  0.12293064847E+03  0.47000000000E+01 0.  1.
          5    1    3    3  503    0  0.53465738669E+02  0.87764399210E+01 -0.10943674751E+03  0.12220516689E+03  0.47000000000E+01 0. -1.
         -5    1    3    3    0  503 -0.52387988121E+02 -0.60986086390E+02 -0.13132194923E+03  0.15404982435E+03  0.47000000000E+01 0. -1.
<mgrwt>
<rscale>  0 0.13547317E+03</rscale>
<asrwt>0</asrwt>
<pdfrwt beam="1">  1        5 0.88633841E-02 0.13547429E+03</pdfrwt>
<pdfrwt beam="2">  1       -5 0.57477942E-01 0.13547429E+03</pdfrwt>
<totfact> 0.20141022E+02</totfact>
</mgrwt>
</event>
<event>
 8    1  0.3588496E-007  0.1522809E+03  0.7546771E-02  0.1197698E+00
          5   -1    0    0  501    0  0.00000000000E+00  0.00000000000E+00  0.64281254801E+02  0.64452848803E+02  0.47000000000E+01 0. -1.
         -5   -1    0    0    0  501 -0.00000000000E+00 -0.00000000000E+00 -0.37594363205E+03  0.37597301031E+03  0.47000000000E+01 0. -1.
         25    2    1    2    0    0  0.15374236462E+02 -0.85605651285E+02 -0.11061051161E+03  0.18821301433E+03  0.12499903522E+03 0.  0.
         25    2    1    2    0    0 -0.15374236462E+02  0.85605651285E+02 -0.20105186564E+03  0.25221284478E+03  0.12499908686E+03 0.  0.
          5    1    4    4  502    0  0.92978461059E+01  0.57110719985E+02 -0.11868465949E+02  0.59253985211E+02  0.47000000000E+01 0. -1.
         -5    1    4    4    0  502 -0.24672082568E+02  0.28494931299E+02 -0.18918339969E+03  0.19295885957E+03  0.47000000000E+01 0. -1.
          5    1    3    3  503    0  0.12822056518E+01  0.17993842102E+02  0.15561683106E+02  0.24283294382E+02  0.47000000000E+01 0.  1.
         -5    1    3    3    0  503  0.14092030810E+02 -0.10359949339E+03 -0.12617219472E+03  0.16392971995E+03  0.47000000000E+01 0.  1.
<mgrwt>
<rscale>  0 0.15228087E+03</rscale>
<asrwt>0</asrwt>
<pdfrwt beam="1">  1        5 0.99048834E-02 0.15228088E+03</pdfrwt>
<pdfrwt beam="2">  1       -5 0.57852940E-01 0.15228088E+03</pdfrwt>
<totfact> 0.17015775E+02</totfact>
</mgrwt>
</event>
<event>
 8    1  0.3588496E-007  0.2193665E+03  0.7546771E-02  0.1134358E+00
          5   -1    0    0  501    0  0.00000000000E+00  0.00000000000E+00  0.49270986084E+03  0.49273227717E+03  0.47000000000E+01 0.  1.
         -5   -1    0    0    0  501 -0.00000000000E+00 -0.00000000000E+00 -0.19963785569E+03  0.19969317320E+03  0.47000000000E+01 0.  1.
         25    2    1    2    0    0  0.16926884135E+03  0.61984972854E+02 -0.10093633087E+03  0.24146621007E+03  0.12499484070E+03 0.  0.
         25    2    1    2    0    0 -0.16926884135E+03 -0.61984972854E+02  0.39400833602E+03  0.45095924031E+03  0.12501035979E+03 0.  0.
          5    1    3    3  502    0 -0.22602948142E+01  0.41317266709E+02 -0.41250869722E+02  0.58616974622E+02  0.47000000000E+01 0.  1.
         -5    1    3    3    0  502  0.17152913616E+03  0.20667706145E+02 -0.59685461148E+02  0.18284923544E+03  0.47000000000E+01 0.  1.
          5    1    4    4  503    0 -0.14134857306E+03  0.10206304037E+02  0.25808698970E+03  0.29447338080E+03  0.47000000000E+01 0.  1.
         -5    1    4    4    0  503 -0.27920268292E+02 -0.72191276891E+02  0.13592134632E+03  0.15648585951E+03  0.47000000000E+01 0.  1.
<mgrwt>
<rscale>  0 0.21936430E+03</rscale>
<asrwt>0</asrwt>
<pdfrwt beam="1">  1        5 0.75807496E-01 0.21936651E+03</pdfrwt>
<pdfrwt beam="2">  1       -5 0.30719496E-01 0.21936651E+03</pdfrwt>
<totfact> 0.12579581E+01</totfact>
</mgrwt>
</event>
<event>
 8    1  0.3588496E-007  0.1536574E+03  0.7546771E-02  0.1196050E+00
         -5   -1    0    0    0  501 -0.00000000000E+00  0.00000000000E+00  0.50341543651E+03  0.50343737616E+03  0.47000000000E+01 0.  1.
          5   -1    0    0  501    0  0.00000000000E+00 -0.00000000000E+00 -0.47847722845E+02  0.48078005173E+02  0.47000000000E+01 0.  1.
         25    2    1    2    0    0 -0.61133961804E+02 -0.65181875187E+02  0.26925173433E+03  0.31001123669E+03  0.12499772915E+03 0.  0.
         25    2    1    2    0    0  0.61133961804E+02  0.65181875187E+02  0.18631597933E+03  0.24150414465E+03  0.12499827834E+03 0.  0.
          5    1    3    3  502    0  0.39916542249E+01  0.33125382168E+02  0.82245044212E+02  0.88879477635E+02  0.47000000000E+01 0. -1.
         -5    1    3    3    0  502 -0.65125616029E+02 -0.98307257355E+02  0.18700669012E+03  0.22113175905E+03  0.47000000000E+01 0. -1.
          5    1    4    4  503    0  0.56405062827E+02  0.71078649203E+02  0.20310442191E+03  0.22250213861E+03  0.47000000000E+01 0.  1.
         -5    1    4    4    0  503  0.47288989777E+01 -0.58967740158E+01 -0.16788442579E+02  0.19002006040E+02  0.47000000000E+01 0.  1.
<mgrwt>
<rscale>  0 0.15365732E+03</rscale>
<asrwt>0</asrwt>
<pdfrwt beam="2">  1        5 0.73805900E-02 0.15365744E+03</pdfrwt>
<pdfrwt beam="1">  1       -5 0.77467929E-01 0.15365744E+03</pdfrwt>
<totfact> 0.14750585E+02</totfact>
</mgrwt>
</event>
<event>
 8    1  0.3588496E-007  0.1949861E+03  0.7546771E-02  0.1154051E+00
          5   -1    0    0  501    0  0.00000000000E+00  0.00000000000E+00  0.96190282711E+02  0.96305038747E+02  0.47000000000E+01 0.  1.
         -5   -1    0    0    0  501 -0.00000000000E+00 -0.00000000000E+00 -0.71122579353E+03  0.71124132289E+03  0.47000000000E+01 0.  1.
         25    2    1    2    0    0  0.85600007240E+02 -0.12266809986E+03 -0.57679714356E+03  0.60884623113E+03  0.12499585745E+03 0.  0.
         25    2    1    2    0    0 -0.85600007240E+02  0.12266809986E+03 -0.38238367256E+02  0.19870013050E+03  0.12507895573E+03 0.  0.
          5    1    4    4  502    0 -0.21471309439E+02  0.10092093763E+03 -0.68960977427E+02  0.12419242806E+03  0.47000000000E+01 0. -1.
         -5    1    4    4    0  502 -0.64128697801E+02  0.21747162239E+02  0.30722610172E+02  0.74507702440E+02  0.47000000000E+01 0. -1.
          5    1    3    3  503    0 -0.30536030007E+02 -0.45649097733E+02 -0.18099193982E+03  0.18919952836E+03  0.47000000000E+01 0.  1.
         -5    1    3    3    0  503  0.11613603725E+03 -0.77019002131E+02 -0.39580520375E+03  0.41964670277E+03  0.47000000000E+01 0.  1.
<mgrwt>
<rscale>  0 0.19497275E+03</rscale>
<asrwt>0</asrwt>
<pdfrwt beam="1">  1        5 0.14808527E-01 0.19498607E+03</pdfrwt>
<pdfrwt beam="2">  1       -5 0.10942937E+00 0.19498607E+03</pdfrwt>
<totfact> 0.20200342E+01</totfact>
</mgrwt>
</event>
<event>
 8    1  0.3588496E-007  0.1341960E+03  0.7546771E-02  0.1221360E+00
          5   -1    0    0  501    0  0.00000000000E+00  0.00000000000E+00  0.51546457687E+02  0.51760286901E+02  0.47000000000E+01 0.  1.
         -5   -1    0    0    0  501 -0.00000000000E+00 -0.00000000000E+00 -0.35705122967E+03  0.35708216227E+03  0.47000000000E+01 0.  1.
         25    2    1    2    0    0  0.20329349310E+02  0.44380845192E+02 -0.18455659650E+03  0.22818787144E+03  0.12500250196E+03 0.  0.
         25    2    1    2    0    0 -0.20329349310E+02 -0.44380845192E+02 -0.12094817548E+03  0.18065457773E+03  0.12499869375E+03 0.  0.
          5    1    3    3  502    0 -0.20163738997E+02  0.16883190056E+01 -0.16455673890E+03  0.16586270560E+03  0.47000000000E+01 0.  1.
         -5    1    3    3    0  502  0.40493088307E+02  0.42692526186E+02 -0.19999857605E+02  0.62325165840E+02  0.47000000000E+01 0.  1.
          5    1    4    4  503    0  0.44412338205E+02 -0.27997327893E+02 -0.95408375122E+02  0.10900070733E+03  0.47000000000E+01 0.  1.
         -5    1    4    4    0  503 -0.64741687516E+02 -0.16383517299E+02 -0.25539800357E+02  0.71653870403E+02  0.47000000000E+01 0.  1.
<mgrwt>
<rscale>  0 0.13419512E+03</rscale>
<asrwt>0</asrwt>
<pdfrwt beam="1">  1        5 0.79490523E-02 0.13419600E+03</pdfrwt>
<pdfrwt beam="2">  1       -5 0.54949785E-01 0.13419600E+03</pdfrwt>
<totfact> 0.26684127E+02</totfact>
</mgrwt>
</event>
<event>
 8    1  0.3588496E-007  0.1798945E+03  0.7546771E-02  0.1167906E+00
         -5   -1    0    0    0  501 -0.00000000000E+00  0.00000000000E+00  0.48965948029E+03  0.48968203626E+03  0.47000000000E+01 0. -1.
          5   -1    0    0  501    0  0.00000000000E+00 -0.00000000000E+00 -0.66003105339E+02  0.66170234354E+02  0.47000000000E+01 0. -1.
         25    2    1    2    0    0 -0.85850661574E+02  0.96771819855E+02  0.21686514244E+03  0.28176353710E+03  0.12500031849E+03 0.  0.
         25    2    1    2    0    0  0.85850661574E+02 -0.96771819855E+02  0.20679123251E+03  0.27408873351E+03  0.12500759492E+03 0.  0.
          5    1    3    3  502    0  0.26206366075E+02  0.19419530837E+02  0.10700519918E+02  0.34647985906E+02  0.47000000000E+01 0. -1.
         -5    1    3    3    0  502 -0.11205702765E+03  0.77352289017E+02  0.20616462252E+03  0.24711555119E+03  0.47000000000E+01 0. -1.
          5    1    4    4  503    0  0.49861803361E+02 -0.11894116027E+03  0.18692476927E+03  0.22714787784E+03  0.47000000000E+01 0. -1.
         -5    1    4    4    0  503  0.35988858212E+02  0.22169340416E+02  0.19866463242E+02  0.46940855677E+02  0.47000000000E+01 0. -1.
<mgrwt>
<rscale>  0 0.17989320E+03</rscale>
<asrwt>0</asrwt>
<pdfrwt beam="2">  1        5 0.10168915E-01 0.17989447E+03</pdfrwt>
<pdfrwt beam="1">  1       -5 0.75346817E-01 0.17989447E+03</pdfrwt>
<totfact> 0.94647771E+01</totfact>
</mgrwt>
</event>
<event>
 8    1  0.3588496E-007  0.1327486E+03  0.7546771E-02  0.1223434E+00
         -5   -1    0    0    0  501 -0.00000000000E+00  0.00000000000E+00  0.71937529153E+02  0.72090901650E+02  0.47000000000E+01 0.  1.
          5   -1    0    0  501    0  0.00000000000E+00 -0.00000000000E+00 -0.24852179032E+03  0.24856622913E+03  0.47000000000E+01 0.  1.
         25    2    1    2    0    0  0.43968925138E+02  0.76405696496E+01 -0.67964813946E+02  0.14913346258E+03  0.12501971462E+03 0.  0.
         25    2    1    2    0    0 -0.43968925138E+02 -0.76405696496E+01 -0.10861944722E+03  0.17152366820E+03  0.12502215706E+03 0.  0.
          5    1    4    4  502    0  0.20228031643E+02 -0.46822565348E+02 -0.19480975689E+02  0.54800769189E+02  0.47000000000E+01 0. -1.
         -5    1    4    4    0  502 -0.64196956781E+02  0.39181995699E+02 -0.89138471533E+02  0.11672289901E+03  0.47000000000E+01 0. -1.
          5    1    3    3  503    0  0.12275673892E+02  0.55201701980E+02 -0.71967082552E+02  0.91647537021E+02  0.47000000000E+01 0.  1.
         -5    1    3    3    0  503  0.31693251245E+02 -0.47561132331E+02  0.40022686061E+01  0.57485925556E+02  0.47000000000E+01 0.  1.
<mgrwt>
<rscale>  0 0.13274800E+03</rscale>
<asrwt>0</asrwt>
<pdfrwt beam="2">  1        5 0.38249337E-01 0.13274858E+03</pdfrwt>
<pdfrwt beam="1">  1       -5 0.11082529E-01 0.13274858E+03</pdfrwt>
<totfact> 0.31835060E+02</totfact>
</mgrwt>
</event>
<event>
 8    1  0.3588496E-007  0.1730198E+03  0.7546771E-02  0.1174735E+00
          5   -1    0    0  501    0  0.00000000000E+00  0.00000000000E+00  0.13549186355E+03  0.13557335686E+03  0.47000000000E+01 0.  1.
         -5   -1    0    0    0  501 -0.00000000000E+00 -0.00000000000E+00 -0.29543210092E+03  0.29546948447E+03  0.47000000000E+01 0.  1.
         25    2    1    2    0    0 -0.63652652847E+02  0.10129023578E+03 -0.18829484076E+03  0.25571627702E+03  0.12499798077E+03 0.  0.
         25    2    1    2    0    0  0.63652652847E+02 -0.10129023578E+03  0.28354603393E+02  0.17532656431E+03  0.12499619411E+03 0.  0.
          5    1    4    4  502    0  0.84662660053E+02 -0.22512364528E+02  0.32494064640E+02  0.93554940012E+02  0.47000000000E+01 0. -1.
         -5    1    4    4    0  502 -0.21010007205E+02 -0.78777871249E+02 -0.41394612473E+01  0.81771624301E+02  0.47000000000E+01 0. -1.
          5    1    3    3  503    0 -0.66505154489E+02  0.12765974498E+03 -0.14260747006E+03  0.20267936890E+03  0.47000000000E+01 0. -1.
         -5    1    3    3    0  503  0.28525016416E+01 -0.26369509201E+02 -0.45687370698E+02  0.53036908115E+02  0.47000000000E+01 0. -1.
<mgrwt>
<rscale>  0 0.17301952E+03</rscale>
<asrwt>0</asrwt>
<pdfrwt beam="1">  1        5 0.20854047E-01 0.17301985E+03</pdfrwt>
<pdfrwt beam="2">  1       -5 0.45460237E-01 0.17301985E+03</pdfrwt>
<totfact> 0.76916550E+01</totfact>
</mgrwt>
</event>
<event>
 8    1  0.3588496E-007  0.1406205E+03  0.7546771E-02  0.1212497E+00
          5   -1    0    0  501    0  0.00000000000E+00  0.00000000000E+00  0.63861917426E+02  0.64034635138E+02  0.47000000000E+01 0. -1.
         -5   -1    0    0    0  501 -0.00000000000E+00 -0.00000000000E+00 -0.32196135290E+03  0.32199565643E+03  0.47000000000E+01 0. -1.
         25    2    1    2    0    0 -0.63991940500E+02 -0.73184165953E+01 -0.16772363395E+03  0.21887194632E+03  0.12500073531E+03 0.  0.
         25    2    1    2    0    0  0.63991940500E+02  0.73184165953E+01 -0.90375801519E+02  0.16715834525E+03  0.12500239684E+03 0.  0.
          5    1    3    3  502    0 -0.72915898393E+02 -0.52371742454E+02 -0.13534839764E+03  0.16248324956E+03  0.47000000000E+01 0.  1.
         -5    1    3    3    0  502  0.89239578924E+01  0.45053325859E+02 -0.32375236319E+02  0.56388696758E+02  0.47000000000E+01 0.  1.
          5    1    4    4  503    0  0.46016264653E+02  0.38792481040E+02  0.92188917378E+01  0.61069068789E+02  0.47000000000E+01 0.  1.
         -5    1    4    4    0  503  0.17975675848E+02 -0.31474064445E+02 -0.99594693257E+02  0.10608927646E+03  0.47000000000E+01 0.  1.
<mgrwt>
<rscale>  0 0.14062014E+03</rscale>
<asrwt>0</asrwt>
<pdfrwt beam="1">  1        5 0.98408352E-02 0.14062051E+03</pdfrwt>
<pdfrwt beam="2">  1       -5 0.49548440E-01 0.14062051E+03</pdfrwt>
<totfact> 0.23379762E+02</totfact>
</mgrwt>
</event>
<event>
 8    1  0.3588496E-007  0.1270826E+03  0.7546771E-02  0.1231850E+00
         -5   -1    0    0    0  501 -0.00000000000E+00  0.00000000000E+00  0.10141130194E+04  0.10141239106E+04  0.47000000000E+01 0.  1.
          5   -1    0    0  501    0  0.00000000000E+00 -0.00000000000E+00 -0.15970458823E+02  0.16647689179E+02  0.47000000000E+01 0.  1.
         25    2    1    2    0    0  0.41170258937E+01  0.22531265349E+02  0.57924155878E+03  0.59301836399E+03  0.12500155516E+03 0.  0.
         25    2    1    2    0    0 -0.41170258937E+01 -0.22531265349E+02  0.41890100175E+03  0.43775323578E+03  0.12500095337E+03 0.  0.
          5    1    3    3  502    0  0.58243879336E+02  0.23951011841E+02  0.42085040514E+03  0.42556216227E+03  0.47000000000E+01 0. -1.
         -5    1    3    3    0  502 -0.54126853442E+02 -0.14197464921E+01  0.15839115363E+03  0.16745620171E+03  0.47000000000E+01 0. -1.
          5    1    4    4  503    0 -0.51859507582E+02 -0.49623629627E+02  0.24366928551E+03  0.25406440886E+03  0.47000000000E+01 0.  1.
         -5    1    4    4    0  503  0.47742481688E+02  0.27092364278E+02  0.17523171624E+03  0.18368882692E+03  0.47000000000E+01 0.  1.
<mgrwt>
<rscale>  0 0.12708249E+03</rscale>
<asrwt>0</asrwt>
<pdfrwt beam="2">  1        5 0.25099248E-02 0.12708264E+03</pdfrwt>
<pdfrwt beam="1">  1       -5 0.15607040E+00 0.12708264E+03</pdfrwt>
<totfact> 0.14227212E+02</totfact>
</mgrwt>
</event>
<event>
 8    1  0.3588496E-007  0.1266287E+03  0.7546771E-02  0.1232548E+00
          5   -1    0    0  501    0  0.00000000000E+00  0.00000000000E+00  0.54438894601E+02  0.54641405961E+02  0.47000000000E+01 0.  1.
         -5   -1    0    0    0  501 -0.00000000000E+00 -0.00000000000E+00 -0.31545125442E+03  0.31548626582E+03  0.47000000000E+01 0.  1.
         25    2    1    2    0    0  0.12264249823E+02 -0.16125408174E+02 -0.17901127408E+03  0.21927119706E+03  0.12499752398E+03 0.  0.
         25    2    1    2    0    0 -0.12264249823E+02  0.16125408174E+02 -0.82001085748E+02  0.15085647472E+03  0.12499222891E+03 0.  0.
          5    1    3    3  502    0  0.13746027095E+01  0.49558775796E+02 -0.35996543197E+02  0.61447562304E+02  0.47000000000E+01 0.  1.
         -5    1    3    3    0  502  0.10889647114E+02 -0.65684183970E+02 -0.14301473088E+03  0.15782363475E+03  0.47000000000E+01 0.  1.
          5    1    4    4  503    0  0.12190439233E+02  0.24031258215E+02  0.27198954630E+02  0.38574360825E+02  0.47000000000E+01 0. -1.
         -5    1    4    4    0  503 -0.24454689056E+02 -0.79058500412E+01 -0.10920004038E+03  0.11228211389E+03  0.47000000000E+01 0. -1.
<mgrwt>
<rscale>  0 0.12662737E+03</rscale>
<asrwt>0</asrwt>
<pdfrwt beam="1">  1        5 0.83934857E-02 0.12662868E+03</pdfrwt>
<pdfrwt beam="2">  1       -5 0.48549232E-01 0.12662868E+03</pdfrwt>
<totfact> 0.30987948E+02</totfact>
</mgrwt>
</event>
<event>
 8    1  0.3588496E-007  0.1648797E+03  0.7546771E-02  0.1183297E+00
          5   -1    0    0  501    0  0.00000000000E+00  0.00000000000E+00  0.30831714965E+02  0.31187892646E+02  0.47000000000E+01 0. -1.
         -5   -1    0    0    0  501 -0.00000000000E+00 -0.00000000000E+00 -0.90523440039E+03  0.90524660157E+03  0.47000000000E+01 0. -1.
         25    2    1    2    0    0  0.66961257582E+02  0.84120244783E+02 -0.35346693534E+03  0.39002862662E+03  0.12499371826E+03 0.  0.
         25    2    1    2    0    0 -0.66961257582E+02 -0.84120244783E+02 -0.52093575008E+03  0.54640586759E+03  0.12500116330E+03 0.  0.
          5    1    3    3  502    0  0.70408041103E+02  0.89769176536E+02 -0.36119972071E+03  0.37881806392E+03  0.47000000000E+01 0.  1.
         -5    1    3    3    0  502 -0.34467835212E+01 -0.56489317531E+01  0.77327853689E+01  0.11210562705E+02  0.47000000000E+01 0.  1.
          5    1    4    4  503    0 -0.71331978963E+02 -0.11289138622E+03 -0.45424679366E+03  0.47349229756E+03  0.47000000000E+01 0. -1.
         -5    1    4    4    0  503  0.43707213813E+01  0.28771141437E+02 -0.66688956424E+02  0.72913570026E+02  0.47000000000E+01 0. -1.
<mgrwt>
<rscale>  0 0.16487829E+03</rscale>
<asrwt>0</asrwt>
<pdfrwt beam="1">  1        5 0.47716783E-02 0.16487970E+03</pdfrwt>
<pdfrwt beam="2">  1       -5 0.13929515E+00 0.16487970E+03</pdfrwt>
<totfact> 0.73705159E+01</totfact>
</mgrwt>
</event>
<event>
 8    1  0.3588496E-007  0.2658434E+03  0.7546771E-02  0.1103683E+00
         -5   -1    0    0    0  501 -0.00000000000E+00  0.00000000000E+00  0.76835824282E+03  0.76837261749E+03  0.47000000000E+01 0. -1.
          5   -1    0    0  501    0  0.00000000000E+00 -0.00000000000E+00 -0.10082004591E+03  0.10092953808E+03  0.47000000000E+01 0. -1.
         25    2    1    2    0    0 -0.21698557494E+03  0.89243327874E+02  0.46294910788E+03  0.53384883179E+03  0.12500234963E+03 0.  0.
         25    2    1    2    0    0  0.21698557494E+03 -0.89243327874E+02  0.20458908904E+03  0.33545332378E+03  0.12500050314E+03 0.  0.
          5    1    4    4  502    0  0.63466240569E+02  0.30579198156E+02  0.46100333448E+02  0.84323079853E+02  0.47000000000E+01 0. -1.
         -5    1    4    4    0  502  0.15351933437E+03 -0.11982252603E+03  0.15848875559E+03  0.25113024393E+03  0.47000000000E+01 0. -1.
          5    1    3    3  503    0 -0.23129007810E+03  0.79701243854E+02  0.44849832260E+03  0.51090138371E+03  0.47000000000E+01 0. -1.
         -5    1    3    3    0  503  0.14304503161E+02  0.95420840194E+01  0.14450785278E+02  0.22947448077E+02  0.47000000000E+01 0. -1.
<mgrwt>
<rscale>  0 0.26584316E+03</rscale>
<asrwt>0</asrwt>
<pdfrwt beam="2">  1        5 0.15520305E-01 0.26584337E+03</pdfrwt>
<pdfrwt beam="1">  1       -5 0.11821849E+00 0.26584337E+03</pdfrwt>
<totfact> 0.16341771E+01</totfact>
</mgrwt>
</event>
<event>
 8    1  0.3588496E-007  0.1329031E+03  0.7546771E-02  0.1223212E+00
         -5   -1    0    0    0  501 -0.00000000000E+00  0.00000000000E+00  0.17655878111E+03  0.17662132710E+03  0.47000000000E+01 0. -1.
          5   -1    0    0  501    0  0.00000000000E+00 -0.00000000000E+00 -0.12041442039E+03  0.12050611038E+03  0.47000000000E+01 0. -1.
         25    2    1    2    0    0  0.42317097399E+02 -0.15651480849E+02  0.89346394884E+02  0.16013979060E+03  0.12500507457E+03 0.  0.
         25    2    1    2    0    0 -0.42317097399E+02  0.15651480849E+02 -0.33202034172E+02  0.13698764688E+03  0.12501013854E+03 0.  0.
          5    1    3    3  502    0  0.68183968993E+02 -0.45970130663E+02  0.28317625156E+02  0.87099279189E+02  0.47000000000E+01 0.  1.
         -5    1    3    3    0  502 -0.25866871594E+02  0.30318649814E+02  0.61028769728E+02  0.73040511410E+02  0.47000000000E+01 0.  1.
          5    1    4    4  503    0 -0.52203219356E+02  0.63332549764E+02 -0.31498452102E+02  0.88036529097E+02  0.47000000000E+01 0. -1.
         -5    1    4    4    0  503  0.98861219571E+01 -0.47681068914E+02 -0.17035820703E+01  0.48951117781E+02  0.47000000000E+01 0. -1.
<mgrwt>
<rscale>  0 0.13290193E+03</rscale>
<asrwt>0</asrwt>
<pdfrwt beam="2">  1        5 0.18537160E-01 0.13290312E+03</pdfrwt>
<pdfrwt beam="1">  1       -5 0.27174753E-01 0.13290312E+03</pdfrwt>
<totfact> 0.24809608E+02</totfact>
</mgrwt>
</event>
<event>
 8    1  0.3588496E-007  0.2000319E+03  0.7546771E-02  0.1149713E+00
         -5   -1    0    0    0  501 -0.00000000000E+00  0.00000000000E+00  0.36050021511E+03  0.36053085179E+03  0.47000000000E+01 0.  1.
          5   -1    0    0  501    0  0.00000000000E+00 -0.00000000000E+00 -0.12026855034E+03  0.12036035145E+03  0.47000000000E+01 0.  1.
         25    2    1    2    0    0  0.48040694205E+01  0.15608963088E+03  0.18717097100E+03  0.27394149905E+03  0.12499568220E+03 0.  0.
         25    2    1    2    0    0 -0.48040694205E+01 -0.15608963088E+03  0.53060693767E+02  0.20694970419E+03  0.12500276353E+03 0.  0.
          5    1    3    3  502    0 -0.38805030239E+02  0.14003517814E+02  0.81659460771E+02  0.91609423186E+02  0.47000000000E+01 0.  1.
         -5    1    3    3    0  502  0.43609099659E+02  0.14208611307E+03  0.10551151022E+03  0.18233207586E+03  0.47000000000E+01 0.  1.
          5    1    4    4  503    0 -0.27739876468E+02 -0.16679968262E+03  0.61295442225E+02  0.17991902652E+03  0.47000000000E+01 0.  1.
         -5    1    4    4    0  503  0.22935807047E+02  0.10710051736E+02 -0.82347484579E+01  0.27030677669E+02  0.47000000000E+01 0.  1.
<mgrwt>
<rscale>  0 0.20003075E+03</rscale>
<asrwt>0</asrwt>
<pdfrwt beam="2">  1        5 0.18512272E-01 0.20003185E+03</pdfrwt>
<pdfrwt beam="1">  1       -5 0.55470990E-01 0.20003185E+03</pdfrwt>
<totfact> 0.65474682E+01</totfact>
</mgrwt>
</event>
<event>
 8    1  0.3588496E-007  0.1882462E+03  0.7546771E-02  0.1160053E+00
          5   -1    0    0  501    0  0.00000000000E+00  0.00000000000E+00  0.27971040960E+02  0.28363165063E+02  0.47000000000E+01 0. -1.
         -5   -1    0    0    0  501 -0.00000000000E+00 -0.00000000000E+00 -0.12986471241E+04  0.12986556290E+04  0.47000000000E+01 0. -1.
         25    2    1    2    0    0 -0.73611484379E+02  0.11997129323E+03 -0.75315653607E+03  0.77632550850E+03  0.12499906197E+03 0.  0.
         25    2    1    2    0    0  0.73611484379E+02 -0.11997129323E+03 -0.51751954703E+03  0.55069328560E+03  0.12499940565E+03 0.  0.
          5    1    4    4  502    0  0.18424682166E+02 -0.26095432280E+02 -0.34578682101E+03  0.34729102505E+03  0.47000000000E+01 0. -1.
         -5    1    4    4    0  502  0.55186802212E+02 -0.93875860954E+02 -0.17173272602E+03  0.20340226054E+03  0.47000000000E+01 0. -1.
          5    1    3    3  503    0 -0.48508025101E+02 -0.13519994719E+02 -0.25462975388E+03  0.25960396822E+03  0.47000000000E+01 0.  1.
         -5    1    3    3    0  503 -0.25103459278E+02  0.13349128795E+03 -0.49852678219E+03  0.51672154028E+03  0.47000000000E+01 0.  1.
<mgrwt>
<rscale>  0 0.18824609E+03</rscale>
<asrwt>0</asrwt>
<pdfrwt beam="1">  1        5 0.43340557E-02 0.18824615E+03</pdfrwt>
<pdfrwt beam="2">  1       -5 0.19982264E+00 0.18824615E+03</pdfrwt>
<totfact> 0.31634039E+01</totfact>
</mgrwt>
</event>
<event>
 8    1  0.3588496E-007  0.1471832E+03  0.7546771E-02  0.1203978E+00
         -5   -1    0    0    0  501 -0.00000000000E+00  0.00000000000E+00  0.12071146498E+04  0.12071237997E+04  0.47000000000E+01 0.  1.
          5   -1    0    0  501    0  0.00000000000E+00 -0.00000000000E+00 -0.27618827613E+02  0.28015881902E+02  0.47000000000E+01 0.  1.
         25    2    1    2    0    0  0.63845735217E+02 -0.44287077678E+02  0.95775623962E+03  0.96899943474E+03  0.12500106732E+03 0.  0.
         25    2    1    2    0    0 -0.63845735217E+02  0.44287077678E+02  0.22173958254E+03  0.26614024683E+03  0.12499826143E+03 0.  0.
          5    1    3    3  502    0 -0.22040899866E+02  0.25016036965E+02  0.15047314074E+03  0.15419422641E+03  0.47000000000E+01 0. -1.
         -5    1    3    3    0  502  0.85886635083E+02 -0.69303114643E+02  0.80728309888E+03  0.81480520833E+03  0.47000000000E+01 0. -1.
          5    1    4    4  503    0  0.37275271657E+02  0.12953391793E+02  0.44717796930E+02  0.59824807549E+02  0.47000000000E+01 0. -1.
         -5    1    4    4    0  503 -0.10112100687E+03  0.31333685885E+02  0.17702178561E+03  0.20631543928E+03  0.47000000000E+01 0. -1.
<mgrwt>
<rscale>  0 0.14718259E+03</rscale>
<asrwt>0</asrwt>
<pdfrwt beam="2">  1        5 0.42802957E-02 0.14718319E+03</pdfrwt>
<pdfrwt beam="1">  1       -5 0.18574124E+00 0.14718319E+03</pdfrwt>
<totfact> 0.37932898E+01</totfact>
</mgrwt>
</event>
<event>
 8    1  0.3588496E-007  0.1255640E+03  0.7546771E-02  0.1234191E+00
         -5   -1    0    0    0  501 -0.00000000000E+00  0.00000000000E+00  0.48959906792E+03  0.48962162667E+03  0.47000000000E+01 0.  1.
          5   -1    0    0  501    0  0.00000000000E+00 -0.00000000000E+00 -0.36925032790E+02  0.37222950535E+02  0.47000000000E+01 0.  1.
         25    2    1    2    0    0 -0.10479429251E+02  0.55321646105E+01  0.32202462463E+03  0.34563879016E+03  0.12500356440E+03 0.  0.
         25    2    1    2    0    0  0.10479429251E+02 -0.55321646105E+01  0.13064941050E+03  0.18120578705E+03  0.12500338201E+03 0.  0.
          5    1    3    3  502    0 -0.19785452066E+02  0.61053144228E+02  0.21756626755E+03  0.22688349722E+03  0.47000000000E+01 0.  1.
         -5    1    3    3    0  502  0.93060228149E+01 -0.55520979617E+02  0.10445835708E+03  0.11875529294E+03  0.47000000000E+01 0.  1.
          5    1    4    4  503    0  0.41161594622E+02 -0.44615008207E+02  0.27891692237E+02  0.66968741403E+02  0.47000000000E+01 0. -1.
         -5    1    4    4    0  503 -0.30682165371E+02  0.39082843597E+02  0.10275771826E+03  0.11423704564E+03  0.47000000000E+01 0. -1.
<mgrwt>
<rscale>  0 0.12556394E+03</rscale>
<asrwt>0</asrwt>
<pdfrwt beam="2">  1        5 0.57054264E-02 0.12556399E+03</pdfrwt>
<pdfrwt beam="1">  1       -5 0.75347584E-01 0.12556399E+03</pdfrwt>
<totfact> 0.22698959E+02</totfact>
</mgrwt>
</event>
<event>
 8    1  0.3588496E-007  0.1406501E+03  0.7546771E-02  0.1212459E+00
          5   -1    0    0  501    0  0.00000000000E+00  0.00000000000E+00  0.26440390958E+02  0.26854874306E+02  0.47000000000E+01 0.  1.
         -5   -1    0    0    0  501 -0.00000000000E+00 -0.00000000000E+00 -0.84220765143E+03  0.84222076567E+03  0.47000000000E+01 0.  1.
         25    2    1    2    0    0  0.88280871425E+01  0.63857597553E+02 -0.55778468174E+03  0.57524327063E+03  0.12500136530E+03 0.  0.
         25    2    1    2    0    0 -0.88280871425E+01 -0.63857597553E+02 -0.25798257873E+03  0.29383236935E+03  0.12500688965E+03 0.  0.
          5    1    4    4  502    0  0.13019223600E+02 -0.84575423978E+02 -0.24699205682E+03  0.26143769555E+03  0.47000000000E+01 0. -1.
         -5    1    4    4    0  502 -0.21847310742E+02  0.20717826425E+02 -0.10990521909E+02  0.32394673795E+02  0.47000000000E+01 0. -1.
          5    1    3    3  503    0  0.38259022691E+02 -0.18074935687E+02 -0.92053656250E+02  0.10142199834E+03  0.47000000000E+01 0.  1.
         -5    1    3    3    0  503 -0.29430935548E+02  0.81932533240E+02 -0.46573102549E+03  0.47382127229E+03  0.47000000000E+01 0.  1.
<mgrwt>
<rscale>  0 0.14064887E+03</rscale>
<asrwt>0</asrwt>
<pdfrwt beam="1">  1        5 0.41006452E-02 0.14065010E+03</pdfrwt>
<pdfrwt beam="2">  1       -5 0.12960328E+00 0.14065010E+03</pdfrwt>
<totfact> 0.10916292E+02</totfact>
</mgrwt>
</event>
<event>
 8    1  0.3588496E-007  0.1272138E+03  0.7546771E-02  0.1231652E+00
          5   -1    0    0  501    0  0.00000000000E+00  0.00000000000E+00  0.17722247440E+03  0.17728478624E+03  0.47000000000E+01 0.  1.
         -5   -1    0    0    0  501 -0.00000000000E+00 -0.00000000000E+00 -0.94916373354E+02  0.95032667703E+02  0.47000000000E+01 0.  1.
         25    2    1    2    0    0  0.23461715425E+02 -0.24498641826E+01  0.14140733932E+02  0.12799186789E+03  0.12500201584E+03 0.  0.
         25    2    1    2    0    0 -0.23461715425E+02  0.24498641826E+01  0.68165367112E+02  0.14432558606E+03  0.12500761413E+03 0.  0.
          5    1    4    4  502    0  0.42560583272E+02 -0.30812595337E+02  0.33905894604E+02  0.62709799623E+02  0.47000000000E+01 0. -1.
         -5    1    4    4    0  502 -0.66022298697E+02  0.33262459519E+02  0.34259472509E+02  0.81615786433E+02  0.47000000000E+01 0. -1.
          5    1    3    3  503    0  0.11075190331E+01 -0.54679659201E+02 -0.23466411460E+02  0.59698025056E+02  0.47000000000E+01 0.  1.
         -5    1    3    3    0  503  0.22354196391E+02  0.52229795019E+02  0.37607145392E+02  0.68293842831E+02  0.47000000000E+01 0.  1.
<mgrwt>
<rscale>  0 0.12721245E+03</rscale>
<asrwt>0</asrwt>
<pdfrwt beam="1">  1        5 0.27278735E-01 0.12721383E+03</pdfrwt>
<pdfrwt beam="2">  1       -5 0.14616258E-01 0.12721383E+03</pdfrwt>
<totfact> 0.37403183E+02</totfact>
</mgrwt>
</event>
<event>
 8    1  0.3588496E-007  0.1263915E+03  0.7546771E-02  0.1232911E+00
          5   -1    0    0  501    0  0.00000000000E+00  0.00000000000E+00  0.56276144004E+02  0.56472067290E+02  0.47000000000E+01 0.  1.
         -5   -1    0    0    0  501 -0.00000000000E+00 -0.00000000000E+00 -0.45034287920E+03  0.45036740429E+03  0.47000000000E+01 0.  1.
         25    2    1    2    0    0  0.15807124513E+02  0.99636677308E+01 -0.35140254355E+03  0.37344149589E+03  0.12500265351E+03 0.  0.
         25    2    1    2    0    0 -0.15807124513E+02 -0.99636677308E+01 -0.42664191643E+02  0.13339797568E+03  0.12500258720E+03 0.  0.
          5    1    4    4  502    0  0.62371638261E+01 -0.47037911480E+02  0.24369019390E+02  0.53548169297E+02  0.47000000000E+01 0. -1.
         -5    1    4    4    0  502 -0.22044288339E+02  0.37074243750E+02 -0.67033211033E+02  0.79849806383E+02  0.47000000000E+01 0. -1.
          5    1    3    3  503    0  0.70134416775E+02  0.13084166902E+02 -0.21127007193E+03  0.22304072528E+03  0.47000000000E+01 0.  1.
         -5    1    3    3    0  503 -0.54327292263E+02 -0.31204991716E+01 -0.14013247162E+03  0.15040077062E+03  0.47000000000E+01 0.  1.
<mgrwt>
<rscale>  0 0.12639145E+03</rscale>
<asrwt>0</asrwt>
<pdfrwt beam="1">  1        5 0.86748262E-02 0.12639147E+03</pdfrwt>
<pdfrwt beam="2">  1       -5 0.69300475E-01 0.12639147E+03</pdfrwt>
<totfact> 0.13505229E+02</totfact>
</mgrwt>
</event>
<event>
 8    1  0.3588496E-007  0.1303545E+03  0.7546771E-02  0.1226931E+00
          5   -1    0    0  501    0  0.00000000000E+00  0.00000000000E+00  0.51983292014E+02  0.52195331675E+02  0.47000000000E+01 0. -1.
         -5   -1    0    0    0  501 -0.00000000000E+00 -0.00000000000E+00 -0.33443000454E+03  0.33446302925E+03  0.47000000000E+01 0. -1.
         25    2    1    2    0    0 -0.37073688872E+01 -0.36797714694E+02 -0.17193520811E+03  0.21576340083E+03  0.12499725180E+03 0.  0.
         25    2    1    2    0    0  0.37073688872E+01  0.36797714694E+02 -0.11051150441E+03  0.17089496010E+03  0.12499791354E+03 0.  0.
          5    1    3    3  502    0 -0.51016987946E+02 -0.32142838703E+02 -0.33114033472E+02  0.68953059046E+02  0.47000000000E+01 0. -1.
         -5    1    3    3    0  502  0.47309619059E+02 -0.46548759909E+01 -0.13882117464E+03  0.14681034178E+03  0.47000000000E+01 0. -1.
          5    1    4    4  503    0  0.43879753877E+02 -0.14523596556E+02 -0.49182805428E+01  0.46718809282E+02  0.47000000000E+01 0. -1.
         -5    1    4    4    0  503 -0.40172384990E+02  0.51321311250E+02 -0.10559322387E+03  0.12417615081E+03  0.47000000000E+01 0. -1.
<mgrwt>
<rscale>  0 0.13035434E+03</rscale>
<asrwt>0</asrwt>
<pdfrwt beam="1">  1        5 0.80162808E-02 0.13035450E+03</pdfrwt>
<pdfrwt beam="2">  1       -5 0.51469620E-01 0.13035450E+03</pdfrwt>
<totfact> 0.29946427E+02</totfact>
</mgrwt>
</event>
<event>
 8    1  0.3588496E-007  0.1289159E+03  0.7546771E-02  0.1229074E+00
          5   -1    0    0  501    0  0.00000000000E+00  0.00000000000E+00  0.13513976502E+03  0.13522147052E+03  0.47000000000E+01 0.  1.
         -5   -1    0    0    0  501 -0.00000000000E+00 -0.00000000000E+00 -0.12318103443E+03  0.12327066660E+03  0.47000000000E+01 0.  1.
         25    2    1    2    0    0  0.99012766205E+01  0.29918039950E+02 -0.10914337884E+01  0.12891736305E+03  0.12500148349E+03 0.  0.
         25    2    1    2    0    0 -0.99012766205E+01 -0.29918039950E+02  0.13050164376E+02  0.12957477408E+03  0.12500476348E+03 0.  0.
          5    1    4    4  502    0 -0.50589914175E+02 -0.59240206633E+02  0.13482821250E+02  0.79199860903E+02  0.47000000000E+01 0.  1.
         -5    1    4    4    0  502  0.40688637555E+02  0.29322166684E+02 -0.43265687492E+00  0.50374913172E+02  0.47000000000E+01 0.  1.
          5    1    3    3  503    0  0.17682116252E+02 -0.89363065989E+01  0.55815841402E+02  0.59413912194E+02  0.47000000000E+01 0.  1.
         -5    1    3    3    0  503 -0.77808396313E+01  0.38854346549E+02 -0.56907275190E+02  0.69503450855E+02  0.47000000000E+01 0.  1.
<mgrwt>
<rscale>  0 0.12891513E+03</rscale>
<asrwt>0</asrwt>
<pdfrwt beam="1">  1        5 0.20803913E-01 0.12891592E+03</pdfrwt>
<pdfrwt beam="2">  1       -5 0.18964108E-01 0.12891592E+03</pdfrwt>
<totfact> 0.39109995E+02</totfact>
</mgrwt>
</event>
<event>
 8    1  0.3588496E-007  0.1606874E+03  0.7546771E-02  0.1187925E+00
         -5   -1    0    0    0  501 -0.00000000000E+00  0.00000000000E+00  0.62480050411E+03  0.62481818150E+03  0.47000000000E+01 0. -1.
          5   -1    0    0  501    0  0.00000000000E+00 -0.00000000000E+00 -0.50822621151E+02  0.51039482958E+02  0.47000000000E+01 0. -1.
         25    2    1    2    0    0 -0.14390196366E+02  0.99951908350E+02  0.43386581799E+03  0.46266332774E+03  0.12498137894E+03 0.  0.
         25    2    1    2    0    0  0.14390196366E+02 -0.99951908350E+02  0.14011206497E+03  0.21319433673E+03  0.12499189064E+03 0.  0.
          5    1    4    4  502    0  0.21642718148E+02 -0.17170930501E+02  0.12562411481E+03  0.12871191213E+03  0.47000000000E+01 0.  1.
         -5    1    4    4    0  502 -0.72525217813E+01 -0.82780977849E+02  0.14487950168E+02  0.84482424598E+02  0.47000000000E+01 0.  1.
          5    1    3    3  503    0  0.27044419881E+02  0.44684928236E+02  0.49508411553E+02  0.72120151640E+02  0.47000000000E+01 0. -1.
         -5    1    3    3    0  503 -0.41434616247E+02  0.55266980114E+02  0.38435740643E+03  0.39054317610E+03  0.47000000000E+01 0. -1.
<mgrwt>
<rscale>  0 0.16068534E+03</rscale>
<asrwt>0</asrwt>
<pdfrwt beam="2">  1        5 0.78369057E-02 0.16068738E+03</pdfrwt>
<pdfrwt beam="1">  1       -5 0.96141203E-01 0.16068738E+03</pdfrwt>
<totfact> 0.81110125E+01</totfact>
</mgrwt>
</event>
<event>
 8    1  0.3588496E-007  0.1270337E+03  0.7546771E-02  0.1231927E+00
          5   -1    0    0  501    0  0.00000000000E+00  0.00000000000E+00  0.19462965312E+03  0.19468639365E+03  0.47000000000E+01 0. -1.
         -5   -1    0    0    0  501 -0.00000000000E+00 -0.00000000000E+00 -0.82780796935E+02  0.82914114246E+02  0.47000000000E+01 0. -1.
         25    2    1    2    0    0 -0.20465828443E+02 -0.96633091422E+01  0.57023842559E+02  0.13924107880E+03  0.12499651886E+03 0.  0.
         25    2    1    2    0    0  0.20465828443E+02  0.96633091422E+01  0.54825013626E+02  0.13835942910E+03  0.12500127929E+03 0.  0.
          5    1    4    4  502    0  0.41731837727E+02  0.34309581356E+02 -0.19062733241E+02  0.57481922824E+02  0.47000000000E+01 0.  1.
         -5    1    4    4    0  502 -0.21266009284E+02 -0.24646272214E+02  0.73887746867E+02  0.80877506279E+02  0.47000000000E+01 0.  1.
          5    1    3    3  503    0 -0.66596965085E+02  0.16364140548E+02  0.12454807507E+02  0.69858092476E+02  0.47000000000E+01 0.  1.
         -5    1    3    3    0  503  0.46131136642E+02 -0.26027449690E+02  0.44569035052E+02  0.69382986320E+02  0.47000000000E+01 0.  1.
<mgrwt>
<rscale>  0 0.12703248E+03</rscale>
<asrwt>0</asrwt>
<pdfrwt beam="1">  1        5 0.29957643E-01 0.12703366E+03</pdfrwt>
<pdfrwt beam="2">  1       -5 0.12750127E-01 0.12703366E+03</pdfrwt>
<totfact> 0.39787010E+02</totfact>
</mgrwt>
</event>
<event>
 8    1  0.3588496E-007  0.1375218E+03  0.7546771E-02  0.1216713E+00
         -5   -1    0    0    0  501 -0.00000000000E+00  0.00000000000E+00  0.78907206137E+03  0.78908605870E+03  0.47000000000E+01 0. -1.
          5   -1    0    0  501    0  0.00000000000E+00 -0.00000000000E+00 -0.25090530564E+02  0.25526941140E+02  0.47000000000E+01 0. -1.
         25    2    1    2    0    0 -0.14771712851E+02  0.55320961432E+02  0.47635634377E+03  0.49580193987E+03  0.12500234018E+03 0.  0.
         25    2    1    2    0    0  0.14771712851E+02 -0.55320961432E+02  0.28762518703E+03  0.31881105997E+03  0.12503452111E+03 0.  0.
          5    1    3    3  502    0  0.21681602419E+02  0.54933399880E+02  0.90300501212E+02  0.10800018900E+03  0.47000000000E+01 0.  1.
         -5    1    3    3    0  502 -0.36453315270E+02  0.38756155186E+00  0.38605584256E+03  0.38780175086E+03  0.47000000000E+01 0.  1.
          5    1    4    4  503    0 -0.14944978370E+02 -0.86009651714E+02  0.13997648321E+03  0.16503490061E+03  0.47000000000E+01 0.  1.
         -5    1    4    4    0  503  0.29716691221E+02  0.30688690281E+02  0.14764870382E+03  0.15377615936E+03  0.47000000000E+01 0.  1.
<mgrwt>
<rscale>  0 0.13751448E+03</rscale>
<asrwt>0</asrwt>
<pdfrwt beam="2">  1        5 0.38947287E-02 0.13752179E+03</pdfrwt>
<pdfrwt beam="1">  1       -5 0.12143034E+00 0.13752179E+03</pdfrwt>
<totfact> 0.13954084E+02</totfact>
</mgrwt>
</event>
<event>
 8    1  0.3588496E-007  0.1316671E+03  0.7546771E-02  0.1225003E+00
          5   -1    0    0  501    0  0.00000000000E+00  0.00000000000E+00  0.10332662774E+03  0.10343346654E+03  0.47000000000E+01 0. -1.
         -5   -1    0    0    0  501 -0.00000000000E+00 -0.00000000000E+00 -0.17026417223E+03  0.17032902966E+03  0.47000000000E+01 0. -1.
         25    2    1    2    0    0  0.33792050071E+02 -0.23853754348E+02 -0.50735358468E+02  0.14110388793E+03  0.12500130538E+03 0.  0.
         25    2    1    2    0    0 -0.33792050071E+02  0.23853754348E+02 -0.16202186019E+02  0.13265860826E+03  0.12499956508E+03 0.  0.
          5    1    4    4  502    0  0.11315238515E+02 -0.46264521113E+02 -0.10217227969E+02  0.48937943191E+02  0.47000000000E+01 0.  1.
         -5    1    4    4    0  502 -0.45107288585E+02  0.70118275461E+02 -0.59849580499E+01  0.83720665071E+02  0.47000000000E+01 0.  1.
          5    1    3    3  503    0  0.62910713287E+02 -0.46804967227E+02 -0.57941904278E+00  0.78555003213E+02  0.47000000000E+01 0. -1.
         -5    1    3    3    0  503 -0.29118663216E+02  0.22951212879E+02 -0.50155939425E+02  0.62548884720E+02  0.47000000000E+01 0. -1.
<mgrwt>
<rscale>  0 0.13166671E+03</rscale>
<asrwt>0</asrwt>
<pdfrwt beam="1">  1        5 0.15909612E-01 0.13166712E+03</pdfrwt>
<pdfrwt beam="2">  1       -5 0.26207695E-01 0.13166712E+03</pdfrwt>
<totfact> 0.35098387E+02</totfact>
</mgrwt>
</event>
<event>
 8    1  0.3588496E-007  0.1250558E+03  0.7546771E-02  0.1234986E+00
         -5   -1    0    0    0  501 -0.00000000000E+00  0.00000000000E+00  0.36588763230E+03  0.36591781792E+03  0.47000000000E+01 0. -1.
          5   -1    0    0  501    0  0.00000000000E+00 -0.00000000000E+00 -0.54799658219E+02  0.55000841275E+02  0.47000000000E+01 0. -1.
         25    2    1    2    0    0  0.27060522661E+01 -0.24084303171E+01  0.25470474421E+03  0.28374893816E+03  0.12500331967E+03 0.  0.
         25    2    1    2    0    0 -0.27060522661E+01  0.24084303171E+01  0.56383229872E+02  0.13716972103E+03  0.12499336183E+03 0.  0.
          5    1    4    4  502    0  0.12827063088E+02  0.57555530623E+02  0.38232478540E+01  0.59277988131E+02  0.47000000000E+01 0. -1.
         -5    1    4    4    0  502 -0.15533115354E+02 -0.55147100306E+02  0.52559982018E+02  0.77891732902E+02  0.47000000000E+01 0. -1.
          5    1    3    3  503    0 -0.51099083504E+02  0.20084142189E+02  0.18347493900E+03  0.19157148103E+03  0.47000000000E+01 0. -1.
         -5    1    3    3    0  503  0.53805135770E+02 -0.22492572506E+02  0.71229805212E+02  0.92177457134E+02  0.47000000000E+01 0. -1.
<mgrwt>
<rscale>  0 0.12505331E+03</rscale>
<asrwt>0</asrwt>
<pdfrwt beam="2">  1        5 0.84485143E-02 0.12505580E+03</pdfrwt>
<pdfrwt beam="1">  1       -5 0.56308202E-01 0.12505580E+03</pdfrwt>
<totfact> 0.22236626E+02</totfact>
</mgrwt>
</event>
<event>
 8    1  0.3588496E-007  0.1260475E+03  0.7546771E-02  0.1233447E+00
          5   -1    0    0  501    0  0.00000000000E+00  0.00000000000E+00  0.66455944855E+02  0.66621937878E+02  0.47000000000E+01 0. -1.
         -5   -1    0    0    0  501 -0.00000000000E+00 -0.00000000000E+00 -0.28517493050E+03  0.28521365849E+03  0.47000000000E+01 0. -1.
         25    2    1    2    0    0  0.90875411513E+01  0.13399684053E+02 -0.18045187728E+03  0.22010730533E+03  0.12498884314E+03 0.  0.
         25    2    1    2    0    0 -0.90875411513E+01 -0.13399684053E+02 -0.38267108369E+02  0.13172829103E+03  0.12500334451E+03 0.  0.
          5    1    4    4  502    0  0.54310167936E+02  0.12959259772E+02 -0.82081211385E+01  0.56630380607E+02  0.47000000000E+01 0.  1.
         -5    1    4    4    0  502 -0.63397709088E+02 -0.26358943825E+02 -0.30058987230E+02  0.75097910427E+02  0.47000000000E+01 0.  1.
          5    1    3    3  503    0  0.14648133216E+02 -0.54841166078E+02 -0.72680257690E+02  0.92339759375E+02  0.47000000000E+01 0.  1.
         -5    1    3    3    0  503 -0.55605920651E+01  0.68240850131E+02 -0.10777161959E+03  0.12776754596E+03  0.47000000000E+01 0.  1.
<mgrwt>
<rscale>  0 0.12604390E+03</rscale>
<asrwt>0</asrwt>
<pdfrwt beam="1">  1        5 0.10239739E-01 0.12604750E+03</pdfrwt>
<pdfrwt beam="2">  1       -5 0.43888813E-01 0.12604750E+03</pdfrwt>
<totfact> 0.27068183E+02</totfact>
</mgrwt>
</event>
<event>
 8    1  0.3588496E-007  0.1541638E+03  0.7546771E-02  0.1195454E+00
         -5   -1    0    0    0  501 -0.00000000000E+00  0.00000000000E+00  0.60357432447E+03  0.60359262352E+03  0.47000000000E+01 0. -1.
          5   -1    0    0  501    0  0.00000000000E+00 -0.00000000000E+00 -0.65494827047E+02  0.65663249767E+02  0.47000000000E+01 0. -1.
         25    2    1    2    0    0  0.62830511180E+02 -0.64725738096E+02  0.48061768990E+03  0.50473133292E+03  0.12499304094E+03 0.  0.
         25    2    1    2    0    0 -0.62830511180E+02  0.64725738096E+02  0.57461807528E+02  0.16452454036E+03  0.12501748177E+03 0.  0.
          5    1    3    3  502    0 -0.34443306984E+02 -0.36591735886E+02  0.20316496616E+03  0.20934036879E+03  0.47000000000E+01 0.  1.
         -5    1    3    3    0  502  0.97273818164E+02 -0.28134002210E+02  0.27745272374E+03  0.29539096414E+03  0.47000000000E+01 0.  1.
          5    1    4    4  503    0 -0.91800337677E+02  0.66374987444E+02  0.69248294421E+02  0.13285464702E+03  0.47000000000E+01 0.  1.
         -5    1    4    4    0  503  0.28969826497E+02 -0.16492493478E+01 -0.11786486892E+02  0.31669893337E+02  0.47000000000E+01 0.  1.
<mgrwt>
<rscale>  0 0.15415881E+03</rscale>
<asrwt>0</asrwt>
<pdfrwt beam="2">  1        5 0.10090490E-01 0.15416376E+03</pdfrwt>
<pdfrwt beam="1">  1       -5 0.92871954E-01 0.15416376E+03</pdfrwt>
<totfact> 0.56179614E+01</totfact>
</mgrwt>
</event>
<event>
 8    1  0.3588496E-007  0.1405981E+03  0.7546771E-02  0.1212527E+00
         -5   -1    0    0    0  501 -0.00000000000E+00  0.00000000000E+00  0.31476915786E+02  0.31825873553E+02  0.47000000000E+01 0.  1.
          5   -1    0    0  501    0  0.00000000000E+00 -0.00000000000E+00 -0.63322383853E+03  0.63324128077E+03  0.47000000000E+01 0.  1.
         25    2    1    2    0    0  0.50198794119E+02  0.40278295917E+02 -0.26115823907E+03  0.29659982121E+03  0.12500227220E+03 0.  0.
         25    2    1    2    0    0 -0.50198794119E+02 -0.40278295917E+02 -0.34058868367E+03  0.36846733312E+03  0.12500105631E+03 0.  0.
          5    1    4    4  502    0 -0.73755404944E+02  0.44443454554E+01 -0.11165151075E+03  0.13396925699E+03  0.47000000000E+01 0.  1.
         -5    1    4    4    0  502  0.23556610825E+02 -0.44722641372E+02 -0.22893717292E+03  0.23449807613E+03  0.47000000000E+01 0.  1.
          5    1    3    3  503    0  0.25327553636E+02  0.85051319971E+02 -0.17458863773E+03  0.19590429915E+03  0.47000000000E+01 0.  1.
         -5    1    3    3    0  503  0.24871240483E+02 -0.44773024054E+02 -0.86569601339E+02  0.10069552206E+03  0.47000000000E+01 0.  1.
<mgrwt>
<rscale>  0 0.14059784E+03</rscale>
<asrwt>0</asrwt>
<pdfrwt beam="2">  1        5 0.97447227E-01 0.14059811E+03</pdfrwt>
<pdfrwt beam="1">  1       -5 0.48707875E-02 0.14059811E+03</pdfrwt>
<totfact> 0.16792038E+02</totfact>
</mgrwt>
</event>
<event>
 8    1  0.3588496E-007  0.1250025E+03  0.7546771E-02  0.1235087E+00
          5   -1    0    0  501    0  0.00000000000E+00  0.00000000000E+00  0.87740732625E+02  0.87866524692E+02  0.47000000000E+01 0. -1.
         -5   -1    0    0    0  501 -0.00000000000E+00 -0.00000000000E+00 -0.19055377353E+03  0.19061172736E+03  0.47000000000E+01 0. -1.
         25    2    1    2    0    0 -0.89973440078E+00  0.23587435970E+00 -0.87506600086E+02  0.15254212528E+03  0.12494330622E+03 0.  0.
         25    2    1    2    0    0  0.89973440078E+00 -0.23587435970E+00 -0.15306440819E+02  0.12593612677E+03  0.12499902294E+03 0.  0.
          5    1    3    3  502    0  0.21238274698E+02 -0.58265690895E+02 -0.45142007033E+02  0.76849501277E+02  0.47000000000E+01 0.  1.
         -5    1    3    3    0  502 -0.22138009099E+02  0.58501565254E+02 -0.42364593053E+02  0.75692624004E+02  0.47000000000E+01 0.  1.
          5    1    4    4  503    0  0.10228734408E+02  0.59561516350E+02 -0.22821660025E+02  0.64769741421E+02  0.47000000000E+01 0. -1.
         -5    1    4    4    0  503 -0.93290000069E+01 -0.59797390710E+02  0.75152192056E+01  0.61166385348E+02  0.47000000000E+01 0. -1.
<mgrwt>
<rscale>  0 0.12498855E+03</rscale>
<asrwt>0</asrwt>
<pdfrwt beam="1">  1        5 0.13512709E-01 0.12500248E+03</pdfrwt>
<pdfrwt beam="2">  1       -5 0.29330099E-01 0.12500248E+03</pdfrwt>
<totfact> 0.37162930E+02</totfact>
</mgrwt>
</event>
<event>
 8    1  0.3588496E-007  0.1305657E+03  0.7546771E-02  0.1226624E+00
          5   -1    0    0  501    0  0.00000000000E+00  0.00000000000E+00  0.65440857538E+01  0.80569881688E+01  0.47000000000E+01 0. -1.
         -5   -1    0    0    0  501 -0.00000000000E+00 -0.00000000000E+00 -0.27451386728E+04  0.27451426963E+04  0.47000000000E+01 0. -1.
         25    2    1    2    0    0 -0.34884110747E+02  0.14266951667E+02 -0.19022733017E+04  0.19067478537E+04  0.12499286444E+03 0.  0.
         25    2    1    2    0    0  0.34884110747E+02 -0.14266951667E+02 -0.83632128532E+03  0.84645183071E+03  0.12500784911E+03 0.  0.
          5    1    3    3  502    0 -0.82459827538E+00  0.58998664901E+02 -0.52624369350E+03  0.52956211852E+03  0.47000000000E+01 0.  1.
         -5    1    3    3    0  502 -0.34059512472E+02 -0.44731713234E+02 -0.13760296082E+04  0.13771857352E+04  0.47000000000E+01 0.  1.
          5    1    4    4  503    0  0.24638295245E+02  0.54912140678E+02 -0.40395149822E+03  0.40843762278E+03  0.47000000000E+01 0. -1.
         -5    1    4    4    0  503  0.10245815502E+02 -0.69179092345E+02 -0.43236978710E+03  0.43801420793E+03  0.47000000000E+01 0. -1.
<mgrwt>
<rscale>  0 0.13056214E+03</rscale>
<asrwt>0</asrwt>
<pdfrwt beam="1">  1        5 0.11234712E-02 0.13056573E+03</pdfrwt>
<pdfrwt beam="2">  1       -5 0.42244489E+00 0.13056573E+03</pdfrwt>
<totfact> 0.85868487E+00</totfact>
</mgrwt>
</event>
<event>
 8    1  0.3588496E-007  0.1325380E+03  0.7546771E-02  0.1223740E+00
          5   -1    0    0  501    0  0.00000000000E+00  0.00000000000E+00  0.62070523190E+02  0.62248211614E+02  0.47000000000E+01 0. -1.
         -5   -1    0    0    0  501 -0.00000000000E+00 -0.00000000000E+00 -0.35455592782E+03  0.35458707810E+03  0.47000000000E+01 0. -1.
         25    2    1    2    0    0  0.45441971812E+01  0.43810678606E+02 -0.24023976792E+03  0.27437150161E+03  0.12499819804E+03 0.  0.
         25    2    1    2    0    0 -0.45441971812E+01 -0.43810678606E+02 -0.52245636708E+02  0.14246378811E+03  0.12500519621E+03 0.  0.
          5    1    4    4  502    0 -0.60553702197E+02 -0.34268903193E+02 -0.49250707896E+02  0.85374649657E+02  0.47000000000E+01 0. -1.
         -5    1    4    4    0  502  0.56009505016E+02 -0.95417754139E+01 -0.29949288122E+01  0.57089138448E+02  0.47000000000E+01 0. -1.
          5    1    3    3  503    0  0.22041861310E+02 -0.25139116649E+02 -0.12945368427E+02  0.36159250540E+02  0.47000000000E+01 0.  1.
         -5    1    3    3    0  503 -0.17497664128E+02  0.68949795255E+02 -0.22729439950E+03  0.23821225107E+03  0.47000000000E+01 0.  1.
<mgrwt>
<rscale>  0 0.13253636E+03</rscale>
<asrwt>0</asrwt>
<pdfrwt beam="1">  1        5 0.95653760E-02 0.13253801E+03</pdfrwt>
<pdfrwt beam="2">  1       -5 0.54563129E-01 0.13253801E+03</pdfrwt>
<totfact> 0.19604219E+02</totfact>
</mgrwt>
</event>
<event>
 8    1  0.3588496E-007  0.1345582E+03  0.7546771E-02  0.1220846E+00
          5   -1    0    0  501    0  0.00000000000E+00  0.00000000000E+00  0.58089768580E+03  0.58091669917E+03  0.47000000000E+01 0.  1.
         -5   -1    0    0    0  501 -0.00000000000E+00 -0.00000000000E+00 -0.36595218230E+02  0.36895799182E+02  0.47000000000E+01 0.  1.
         25    2    1    2    0    0  0.16162666875E+02 -0.47110276327E+02  0.15162482975E+03  0.20272148789E+03  0.12500121088E+03 0.  0.
         25    2    1    2    0    0 -0.16162666875E+02  0.47110276327E+02  0.39267763783E+03  0.41509101046E+03  0.12499683906E+03 0.  0.
          5    1    3    3  502    0  0.26268646721E+02 -0.16776953349E+02  0.16482599182E+03  0.16781300767E+03  0.47000000000E+01 0. -1.
         -5    1    3    3    0  502 -0.10105979846E+02 -0.30333322979E+02 -0.13201162071E+02  0.34908480225E+02  0.47000000000E+01 0. -1.
          5    1    4    4  503    0  0.25668138411E+02  0.95379960077E+01  0.12016025410E+02  0.30270473468E+02  0.47000000000E+01 0.  1.
         -5    1    4    4    0  503 -0.41830805286E+02  0.37572280320E+02  0.38066161242E+03  0.38482053699E+03  0.47000000000E+01 0.  1.
<mgrwt>
<rscale>  0 0.13455720E+03</rscale>
<asrwt>0</asrwt>
<pdfrwt beam="1">  1        5 0.89393465E-01 0.13455821E+03</pdfrwt>
<pdfrwt beam="2">  1       -5 0.56546174E-02 0.13455821E+03</pdfrwt>
<totfact> 0.15867263E+02</totfact>
</mgrwt>
</event>
<event>
 8    1  0.3588496E-007  0.1257916E+03  0.7546771E-02  0.1233838E+00
          5   -1    0    0  501    0  0.00000000000E+00  0.00000000000E+00  0.10183296039E+04  0.10183404500E+04  0.47000000000E+01 0. -1.
         -5   -1    0    0    0  501 -0.00000000000E+00 -0.00000000000E+00 -0.15681894709E+02  0.16371066601E+02  0.47000000000E+01 0. -1.
         25    2    1    2    0    0 -0.14069191690E+02  0.51644894441E+00  0.41007414330E+03  0.42893395802E+03  0.12500131386E+03 0.  0.
         25    2    1    2    0    0  0.14069191690E+02 -0.51644894441E+00  0.59257356585E+03  0.60577755857E+03  0.12499924261E+03 0.  0.
          5    1    3    3  502    0 -0.17702746560E+02 -0.39843145785E+02  0.49789724393E+02  0.66347344762E+02  0.47000000000E+01 0. -1.
         -5    1    3    3    0  502  0.36335548705E+01  0.40359594730E+02  0.36028441891E+03  0.36258661326E+03  0.47000000000E+01 0. -1.
          5    1    4    4  503    0  0.10682833985E+02  0.46092495411E+02  0.97444560609E+02  0.10842588929E+03  0.47000000000E+01 0.  1.
         -5    1    4    4    0  503  0.33863577049E+01 -0.46608944356E+02  0.49512900524E+03  0.49735166929E+03  0.47000000000E+01 0.  1.
<mgrwt>
<rscale>  0 0.12579113E+03</rscale>
<asrwt>0</asrwt>
<pdfrwt beam="1">  1        5 0.15671991E+00 0.12579164E+03</pdfrwt>
<pdfrwt beam="2">  1       -5 0.24664472E-02 0.12579164E+03</pdfrwt>
<totfact> 0.14413363E+02</totfact>
</mgrwt>
</event>
<event>
 8    1  0.3588496E-007  0.1366632E+03  0.7546771E-02  0.1217905E+00
         -5   -1    0    0    0  501 -0.00000000000E+00  0.00000000000E+00  0.10241449413E+03  0.10252228347E+03  0.47000000000E+01 0.  1.
          5   -1    0    0  501    0  0.00000000000E+00 -0.00000000000E+00 -0.18565121977E+03  0.18571070352E+03  0.47000000000E+01 0.  1.
         25    2    1    2    0    0 -0.39543072010E+01 -0.54981401383E+02 -0.21623738612E+02  0.13832306127E+03  0.12500836837E+03 0.  0.
         25    2    1    2    0    0  0.39543072010E+01  0.54981401383E+02 -0.61612987027E+02  0.14990992572E+03  0.12505292725E+03 0.  0.
          5    1    3    3  502    0 -0.47282928979E+02 -0.74725087055E+02 -0.10255428801E+02  0.89144701627E+02  0.47000000000E+01 0.  1.
         -5    1    3    3    0  502  0.43328621778E+02  0.19743685672E+02 -0.11368309811E+02  0.49178359642E+02  0.47000000000E+01 0.  1.
          5    1    4    4  503    0  0.14835930931E+02 -0.25551503869E+02  0.18924581380E+02  0.35400762378E+02  0.47000000000E+01 0. -1.
         -5    1    4    4    0  503 -0.10881623730E+02  0.80532905252E+02 -0.80537568407E+02  0.11450916334E+03  0.47000000000E+01 0. -1.
<mgrwt>
<rscale>  0 0.13665299E+03</rscale>
<asrwt>0</asrwt>
<pdfrwt beam="2">  1        5 0.28574593E-01 0.13666318E+03</pdfrwt>
<pdfrwt beam="1">  1       -5 0.15768943E-01 0.13666318E+03</pdfrwt>
<totfact> 0.30562895E+02</totfact>
</mgrwt>
</event>
<event>
 8    1  0.3588496E-007  0.1325167E+03  0.7546771E-02  0.1223770E+00
          5   -1    0    0  501    0  0.00000000000E+00  0.00000000000E+00  0.52369272224E+02  0.52579755356E+02  0.47000000000E+01 0.  1.
         -5   -1    0    0    0  501 -0.00000000000E+00 -0.00000000000E+00 -0.33474793286E+03  0.33478092621E+03  0.47000000000E+01 0.  1.
         25    2    1    2    0    0 -0.43982904887E+02 -0.34940166054E+00 -0.13504667046E+03  0.18920069640E+03  0.12499872924E+03 0.  0.
         25    2    1    2    0    0  0.43982904887E+02  0.34940166054E+00 -0.14733199017E+03  0.19815998517E+03  0.12500418549E+03 0.  0.
          5    1    3    3  502    0 -0.18747517345E+02  0.58689019192E+02 -0.37352124280E+02  0.72202088394E+02  0.47000000000E+01 0.  1.
         -5    1    3    3    0  502 -0.25235387541E+02 -0.59038420852E+02 -0.97694546183E+02  0.11699860800E+03  0.47000000000E+01 0.  1.
          5    1    4    4  503    0  0.60840865805E+02  0.49263849108E+02 -0.70770128092E+02  0.10563635175E+03  0.47000000000E+01 0.  1.
         -5    1    4    4    0  503 -0.16857960918E+02 -0.48914447447E+02 -0.76561862081E+02  0.92523633417E+02  0.47000000000E+01 0.  1.
<mgrwt>
<rscale>  0 0.13251537E+03</rscale>
<asrwt>0</asrwt>
<pdfrwt beam="1">  1        5 0.80755403E-02 0.13251666E+03</pdfrwt>
<pdfrwt beam="2">  1       -5 0.51518410E-01 0.13251666E+03</pdfrwt>
<totfact> 0.29687500E+02</totfact>
</mgrwt>
</event>
<event>
 8    1  0.3588496E-007  0.1352477E+03  0.7546771E-02  0.1219880E+00
         -5   -1    0    0    0  501 -0.00000000000E+00  0.00000000000E+00  0.26844773116E+02  0.27253107045E+02  0.47000000000E+01 0. -1.
          5   -1    0    0  501    0  0.00000000000E+00 -0.00000000000E+00 -0.67648775959E+03  0.67650408637E+03  0.47000000000E+01 0. -1.
         25    2    1    2    0    0  0.13646876604E+02 -0.49735182653E+02 -0.33686417455E+03  0.36300056873E+03  0.12502845743E+03 0.  0.
         25    2    1    2    0    0 -0.13646876604E+02  0.49735182653E+02 -0.31277881192E+03  0.34075662468E+03  0.12499866577E+03 0.  0.
          5    1    4    4  502    0 -0.48512429086E+02  0.76700304194E+02 -0.20762880258E+03  0.22664554286E+03  0.47000000000E+01 0.  1.
         -5    1    4    4    0  502  0.34865552481E+02 -0.26965121541E+02 -0.10515000934E+03  0.11411108182E+03  0.47000000000E+01 0.  1.
          5    1    3    3  503    0  0.40268503861E+02 -0.19202285815E+02 -0.31234703397E+02  0.54662389996E+02  0.47000000000E+01 0. -1.
         -5    1    3    3    0  503 -0.26621627256E+02 -0.30532896838E+02 -0.30562947115E+03  0.30833817873E+03  0.47000000000E+01 0. -1.
<mgrwt>
<rscale>  0 0.13524082E+03</rscale>
<asrwt>0</asrwt>
<pdfrwt beam="2">  1        5 0.10410769E+00 0.13524770E+03</pdfrwt>
<pdfrwt beam="1">  1       -5 0.41626318E-02 0.13524770E+03</pdfrwt>
<totfact> 0.18288159E+02</totfact>
</mgrwt>
</event>
<event>
 8    1  0.3588496E-007  0.1288347E+03  0.7546771E-02  0.1229205E+00
          5   -1    0    0  501    0  0.00000000000E+00  0.00000000000E+00  0.13601920555E+02  0.14391047314E+02  0.47000000000E+01 0.  1.
         -5   -1    0    0    0  501 -0.00000000000E+00 -0.00000000000E+00 -0.13312156424E+04  0.13312239393E+04  0.47000000000E+01 0.  1.
         25    2    1    2    0    0 -0.24045159603E+02 -0.19752121435E+02 -0.88176399736E+03  0.89112257569E+03  0.12499352722E+03 0.  0.
         25    2    1    2    0    0  0.24045159603E+02  0.19752121435E+02 -0.43584972447E+03  0.45449241092E+03  0.12502021141E+03 0.  0.
          5    1    4    4  502    0  0.63117963635E+02 -0.19217485954E+02 -0.15992908495E+03  0.17306816955E+03  0.47000000000E+01 0.  1.
         -5    1    4    4    0  502 -0.39072804033E+02  0.38969607389E+02 -0.27592063952E+03  0.28142424137E+03  0.47000000000E+01 0.  1.
          5    1    3    3  503    0  0.46142399759E+02 -0.25887120351E+02 -0.26060692066E+03  0.26596488706E+03  0.47000000000E+01 0.  1.
         -5    1    3    3    0  503 -0.70187559362E+02  0.61349989159E+01 -0.62115707671E+03  0.62515768862E+03  0.47000000000E+01 0.  1.
<mgrwt>
<rscale>  0 0.12882818E+03</rscale>
<asrwt>0</asrwt>
<pdfrwt beam="1">  1        5 0.21539445E-02 0.12883466E+03</pdfrwt>
<pdfrwt beam="2">  1       -5 0.20486365E+00 0.12883466E+03</pdfrwt>
<totfact> 0.82004451E+01</totfact>
</mgrwt>
</event>
<event>
 8    1  0.3588496E-007  0.1577390E+03  0.7546771E-02  0.1191275E+00
          5   -1    0    0  501    0  0.00000000000E+00  0.00000000000E+00  0.39899578978E+03  0.39902347081E+03  0.47000000000E+01 0.  1.
         -5   -1    0    0    0  501 -0.00000000000E+00 -0.00000000000E+00 -0.62687973346E+02  0.62863916536E+02  0.47000000000E+01 0.  1.
         25    2    1    2    0    0  0.78468746817E+02  0.55650908151E+02  0.18763899643E+03  0.24512944807E+03  0.12500274207E+03 0.  0.
         25    2    1    2    0    0 -0.78468746817E+02 -0.55650908151E+02  0.14866882000E+03  0.21675793928E+03  0.12500887327E+03 0.  0.
          5    1    4    4  502    0 -0.23661335449E+02  0.39116904700E+02  0.28246625372E+02  0.53943979028E+02  0.47000000000E+01 0. -1.
         -5    1    4    4    0  502 -0.54807411368E+02 -0.94767812851E+02  0.12042219463E+03  0.16281396025E+03  0.47000000000E+01 0. -1.
          5    1    3    3  503    0  0.42454695845E+02 -0.31865413190E+02  0.29863520090E+02  0.61087851405E+02  0.47000000000E+01 0.  1.
         -5    1    3    3    0  503  0.36014050972E+02  0.87516321341E+02  0.15777547634E+03  0.18404159667E+03  0.47000000000E+01 0.  1.
<mgrwt>
<rscale>  0 0.15773777E+03</rscale>
<asrwt>0</asrwt>
<pdfrwt beam="1">  1        5 0.61399631E-01 0.15773898E+03</pdfrwt>
<pdfrwt beam="2">  1       -5 0.96599670E-02 0.15773898E+03</pdfrwt>
<totfact> 0.15781673E+02</totfact>
</mgrwt>
</event>
<event>
 8    1  0.3588496E-007  0.1296995E+03  0.7546771E-02  0.1227907E+00
         -5   -1    0    0    0  501 -0.00000000000E+00  0.00000000000E+00  0.81232309224E+02  0.81368163687E+02  0.47000000000E+01 0.  1.
          5   -1    0    0  501    0  0.00000000000E+00 -0.00000000000E+00 -0.22518418927E+03  0.22523323267E+03  0.47000000000E+01 0.  1.
         25    2    1    2    0    0  0.19289653178E+02 -0.28697103409E+02 -0.28110660986E+02  0.13271082057E+03  0.12500535257E+03 0.  0.
         25    2    1    2    0    0 -0.19289653178E+02  0.28697103409E+02 -0.11584121906E+03  0.17389057578E+03  0.12499251917E+03 0.  0.
          5    1    3    3  502    0  0.70986557187E+02 -0.24536834016E+02 -0.41014706918E+01  0.75366170041E+02  0.47000000000E+01 0.  1.
         -5    1    3    3    0  502 -0.51696904009E+02 -0.41602693929E+01 -0.24009190294E+02  0.57344650528E+02  0.47000000000E+01 0.  1.
          5    1    4    4  503    0 -0.62194383778E+01  0.12046393966E+02 -0.14039885430E+03  0.14113017151E+03  0.47000000000E+01 0. -1.
         -5    1    4    4    0  503 -0.13070214800E+02  0.16650709443E+02  0.24557635238E+02  0.32760404277E+02  0.47000000000E+01 0. -1.
<mgrwt>
<rscale>  0 0.12969638E+03</rscale>
<asrwt>0</asrwt>
<pdfrwt beam="2">  1        5 0.34657944E-01 0.12969947E+03</pdfrwt>
<pdfrwt beam="1">  1       -5 0.12511501E-01 0.12969947E+03</pdfrwt>
<totfact> 0.31073105E+02</totfact>
</mgrwt>
</event>
<event>
 8    1  0.3588496E-007  0.1740494E+03  0.7546771E-02  0.1173691E+00
         -5   -1    0    0    0  501 -0.00000000000E+00  0.00000000000E+00  0.47409339089E+03  0.47411668742E+03  0.47000000000E+01 0.  1.
          5   -1    0    0  501    0  0.00000000000E+00 -0.00000000000E+00 -0.78354112239E+02  0.78494948276E+02  0.47000000000E+01 0.  1.
         25    2    1    2    0    0  0.74282453483E+02  0.95628695685E+02  0.31688798826E+03  0.36154004641E+03  0.12502190896E+03 0.  0.
         25    2    1    2    0    0 -0.74282453483E+02 -0.95628695685E+02  0.78851290392E+02  0.19107158928E+03  0.12501238299E+03 0.  0.
          5    1    3    3  502    0  0.27166707360E+02  0.97641743793E+02  0.28958750296E+03  0.30684678912E+03  0.47000000000E+01 0. -1.
         -5    1    3    3    0  502  0.47115746124E+02 -0.20130481090E+01  0.27300485296E+02  0.54693257289E+02  0.47000000000E+01 0. -1.
          5    1    4    4  503    0 -0.83990318893E+02 -0.12031334285E+03  0.62472195555E+02  0.15954478792E+03  0.47000000000E+01 0. -1.
         -5    1    4    4    0  503  0.97078654095E+01  0.24684647165E+02  0.16379094837E+02  0.31526801363E+02  0.47000000000E+01 0. -1.
<mgrwt>
<rscale>  0 0.17404773E+03</rscale>
<asrwt>0</asrwt>
<pdfrwt beam="2">  1        5 0.12067104E-01 0.17404944E+03</pdfrwt>
<pdfrwt beam="1">  1       -5 0.72950072E-01 0.17404944E+03</pdfrwt>
<totfact> 0.74599980E+01</totfact>
</mgrwt>
</event>
<event>
 8    1  0.3588496E-007  0.1257014E+03  0.7546771E-02  0.1233981E+00
          5   -1    0    0  501    0  0.00000000000E+00  0.00000000000E+00  0.92696475465E+03  0.92697666980E+03  0.47000000000E+01 0.  1.
         -5   -1    0    0    0  501 -0.00000000000E+00 -0.00000000000E+00 -0.17319690083E+02  0.17946076579E+02  0.47000000000E+01 0.  1.
         25    2    1    2    0    0  0.12251516566E+02  0.44837058139E+01  0.36768071596E+03  0.38857424237E+03  0.12502251664E+03 0.  0.
         25    2    1    2    0    0 -0.12251516566E+02 -0.44837058139E+01  0.54196434860E+03  0.55634850401E+03  0.12501239733E+03 0.  0.
          5    1    3    3  502    0  0.27204401409E+02 -0.19681661641E+02  0.19316597820E+02  0.39021381476E+02  0.47000000000E+01 0.  1.
         -5    1    3    3    0  502 -0.14952884843E+02  0.24165367455E+02  0.34836411814E+03  0.34955286089E+03  0.47000000000E+01 0.  1.
          5    1    4    4  503    0 -0.10539365135E+02 -0.15055968676E+01  0.54790637487E+03  0.54802995417E+03  0.47000000000E+01 0. -1.
         -5    1    4    4    0  503 -0.17121514311E+01 -0.29781089463E+01 -0.59420262668E+01  0.83185498481E+01  0.47000000000E+01 0. -1.
<mgrwt>
<rscale>  0 0.12569885E+03</rscale>
<asrwt>0</asrwt>
<pdfrwt beam="1">  1        5 0.14265909E+00 0.12570136E+03</pdfrwt>
<pdfrwt beam="2">  1       -5 0.27136674E-02 0.12570136E+03</pdfrwt>
<totfact> 0.15967267E+02</totfact>
</mgrwt>
</event>
<event>
 8    1  0.3588496E-007  0.1285277E+03  0.7546771E-02  0.1229659E+00
         -5   -1    0    0    0  501 -0.00000000000E+00  0.00000000000E+00  0.79210659191E+03  0.79212053562E+03  0.47000000000E+01 0. -1.
          5   -1    0    0  501    0  0.00000000000E+00 -0.00000000000E+00 -0.20596673361E+02  0.21126120172E+02  0.47000000000E+01 0. -1.
         25    2    1    2    0    0  0.29503210778E+02 -0.46541036665E+01  0.39887158549E+03  0.41906791195E+03  0.12500909161E+03 0.  0.
         25    2    1    2    0    0 -0.29503210778E+02  0.46541036665E+01  0.37263833306E+03  0.39417874384E+03  0.12500181881E+03 0.  0.
          5    1    4    4  502    0  0.16325269176E+02  0.17058614552E+02  0.32787371363E+03  0.32875640348E+03  0.47000000000E+01 0.  1.
         -5    1    4    4    0  502 -0.45828479954E+02 -0.12404510886E+02  0.44764619433E+02  0.65422340360E+02  0.47000000000E+01 0.  1.
          5    1    3    3  503    0  0.25285775690E+02 -0.60824721612E+02  0.15059662841E+03  0.16443981179E+03  0.47000000000E+01 0.  1.
         -5    1    3    3    0  503  0.42174350879E+01  0.56170617945E+02  0.24827495708E+03  0.25462810016E+03  0.47000000000E+01 0.  1.
<mgrwt>
<rscale>  0 0.12852594E+03</rscale>
<asrwt>0</asrwt>
<pdfrwt beam="2">  1        5 0.32105184E-02 0.12852771E+03</pdfrwt>
<pdfrwt beam="1">  1       -5 0.12190434E+00 0.12852771E+03</pdfrwt>
<totfact> 0.18500716E+02</totfact>
</mgrwt>
</event>
<event>
 8    1  0.3588496E-007  0.1967133E+03  0.7546771E-02  0.1152542E+00
          5   -1    0    0  501    0  0.00000000000E+00  0.00000000000E+00  0.89801027934E+02  0.89923937958E+02  0.47000000000E+01 0.  1.
         -5   -1    0    0    0  501 -0.00000000000E+00 -0.00000000000E+00 -0.59141655933E+03  0.59143523453E+03  0.47000000000E+01 0.  1.
         25    2    1    2    0    0  0.15160810624E+03 -0.92822238206E+01 -0.42850323072E+03  0.47149882448E+03  0.12499978076E+03 0.  0.
         25    2    1    2    0    0 -0.15160810624E+03  0.92822238206E+01 -0.73112300671E+02  0.20986034801E+03  0.12499911840E+03 0.  0.
          5    1    4    4  502    0  0.15907830508E+02 -0.19111077659E+02 -0.12903140101E+01  0.25338651720E+02  0.47000000000E+01 0.  1.
         -5    1    4    4    0  502 -0.16751593675E+03  0.28393301479E+02 -0.71821986660E+02  0.18452169629E+03  0.47000000000E+01 0.  1.
          5    1    3    3  503    0  0.14015732000E+03  0.37783357129E+02 -0.35252354438E+03  0.38126971525E+03  0.47000000000E+01 0.  1.
         -5    1    3    3    0  503  0.11450786245E+02 -0.47065580949E+02 -0.75979686341E+02  0.90229109228E+02  0.47000000000E+01 0.  1.
<mgrwt>
<rscale>  0 0.19671320E+03</rscale>
<asrwt>0</asrwt>
<pdfrwt beam="1">  1        5 0.13826434E-01 0.19671330E+03</pdfrwt>
<pdfrwt beam="2">  1       -5 0.90998052E-01 0.19671330E+03</pdfrwt>
<totfact> 0.36042354E+01</totfact>
</mgrwt>
</event>
<event>
 8    1  0.3588496E-007  0.1480891E+03  0.7546771E-02  0.1202843E+00
          5   -1    0    0  501    0  0.00000000000E+00  0.00000000000E+00  0.53866164925E+03  0.53868215338E+03  0.47000000000E+01 0. -1.
         -5   -1    0    0    0  501 -0.00000000000E+00 -0.00000000000E+00 -0.46323795180E+02  0.46561615091E+02  0.47000000000E+01 0. -1.
         25    2    1    2    0    0 -0.12884478466E+02  0.78348322904E+02  0.14319984488E+03  0.20599748750E+03  0.12499719914E+03 0.  0.
         25    2    1    2    0    0  0.12884478466E+02 -0.78348322904E+02  0.34913800918E+03  0.37924628097E+03  0.12500369071E+03 0.  0.
          5    1    4    4  502    0 -0.10565437441E+02 -0.10156187265E+03  0.18129404693E+03  0.20812511597E+03  0.47000000000E+01 0. -1.
         -5    1    4    4    0  502  0.23449915907E+02  0.23213549749E+02  0.16784396225E+03  0.17112116501E+03  0.47000000000E+01 0. -1.
          5    1    3    3  503    0  0.78323740995E+01  0.25894878206E+02  0.14674763150E+03  0.14929450141E+03  0.47000000000E+01 0.  1.
         -5    1    3    3    0  503 -0.20716852566E+02  0.52453444698E+02 -0.35477866150E+01  0.56702986084E+02  0.47000000000E+01 0.  1.
<mgrwt>
<rscale>  0 0.14808777E+03</rscale>
<asrwt>0</asrwt>
<pdfrwt beam="1">  1        5 0.82890896E-01 0.14808914E+03</pdfrwt>
<pdfrwt beam="2">  1       -5 0.71466087E-02 0.14808914E+03</pdfrwt>
<totfact> 0.13164581E+02</totfact>
</mgrwt>
</event>
<event>
 8    1  0.3588496E-007  0.3927641E+03  0.7546771E-02  0.1046315E+00
         -5   -1    0    0    0  501 -0.00000000000E+00  0.00000000000E+00  0.55891549081E+03  0.55893525194E+03  0.47000000000E+01 0.  1.
          5   -1    0    0  501    0  0.00000000000E+00 -0.00000000000E+00 -0.28361918443E+03  0.28365812482E+03  0.47000000000E+01 0.  1.
         25    2    1    2    0    0 -0.15621364125E+03 -0.33798072827E+03  0.20689069065E+03  0.44391683589E+03  0.12499889964E+03 0.  0.
         25    2    1    2    0    0  0.15621364125E+03  0.33798072827E+03  0.68405615725E+02  0.39867654088E+03  0.12501992479E+03 0.  0.
          5    1    4    4  502    0  0.41420632527E+02  0.12912582737E+03  0.84359341310E+02  0.15977401716E+03  0.47000000000E+01 0. -1.
         -5    1    4    4    0  502  0.11479300873E+03  0.20885490090E+03 -0.15953725585E+02  0.23890252373E+03  0.47000000000E+01 0. -1.
          5    1    3    3  503    0 -0.17152311546E+03 -0.31171031217E+03  0.20971498430E+03  0.41302053519E+03  0.47000000000E+01 0. -1.
         -5    1    3    3    0  503  0.15309474203E+02 -0.26270416093E+02 -0.28242936453E+01  0.30896300695E+02  0.47000000000E+01 0. -1.
<mgrwt>
<rscale>  0 0.39276245E+03</rscale>
<asrwt>0</asrwt>
<pdfrwt beam="2">  1        5 0.43638237E-01 0.39276412E+03</pdfrwt>
<pdfrwt beam="1">  1       -5 0.85991513E-01 0.39276412E+03</pdfrwt>
<totfact> 0.50937740E+00</totfact>
</mgrwt>
</event>
<event>
 8    1  0.3588496E-007  0.1373314E+03  0.7546771E-02  0.1216970E+00
          5   -1    0    0  501    0  0.00000000000E+00  0.00000000000E+00  0.17276852395E+02  0.17904737605E+02  0.47000000000E+01 0.  1.
         -5   -1    0    0    0  501 -0.00000000000E+00 -0.00000000000E+00 -0.10717723944E+04  0.10717826998E+04  0.47000000000E+01 0.  1.
         25    2    1    2    0    0 -0.45025358910E+02 -0.34676866358E+02 -0.53717378017E+03  0.55444755491E+03  0.12500661198E+03 0.  0.
         25    2    1    2    0    0  0.45025358910E+02  0.34676866358E+02 -0.51732176188E+03  0.53523988245E+03  0.12502063207E+03 0.  0.
          5    1    4    4  502    0  0.48283931664E+02  0.59138254633E+02 -0.49721198382E+03  0.50306114744E+03  0.47000000000E+01 0. -1.
         -5    1    4    4    0  502 -0.32585727538E+01 -0.24461388275E+02 -0.20109778066E+02  0.32178735006E+02  0.47000000000E+01 0. -1.
          5    1    3    3  503    0 -0.51845794817E+02 -0.70629853539E+02 -0.46694560596E+03  0.47511772391E+03  0.47000000000E+01 0.  1.
         -5    1    3    3    0  503  0.68204359072E+01  0.35952987181E+02 -0.70228174207E+02  0.79329830995E+02  0.47000000000E+01 0.  1.
<mgrwt>
<rscale>  0 0.13732826E+03</rscale>
<asrwt>0</asrwt>
<pdfrwt beam="1">  1        5 0.27070697E-02 0.13733145E+03</pdfrwt>
<pdfrwt beam="2">  1       -5 0.16493710E+00 0.13733145E+03</pdfrwt>
<totfact> 0.11068352E+02</totfact>
</mgrwt>
</event>
<event>
 8    1  0.3588496E-007  0.1437881E+03  0.7546771E-02  0.1208324E+00
          5   -1    0    0  501    0  0.00000000000E+00  0.00000000000E+00  0.10715597323E+03  0.10725899775E+03  0.47000000000E+01 0. -1.
         -5   -1    0    0    0  501 -0.00000000000E+00 -0.00000000000E+00 -0.25261015080E+03  0.25265387051E+03  0.47000000000E+01 0. -1.
         25    2    1    2    0    0  0.47096925630E+02  0.53209507738E+02 -0.16033203528E+03  0.21535706597E+03  0.12499172855E+03 0.  0.
         25    2    1    2    0    0 -0.47096925630E+02 -0.53209507738E+02  0.14877857710E+02  0.14455580230E+03  0.12500262881E+03 0.  0.
          5    1    4    4  502    0 -0.76786972352E+02 -0.18581814826E+02 -0.25816850383E+02  0.83247358690E+02  0.47000000000E+01 0. -1.
         -5    1    4    4    0  502  0.29690046722E+02 -0.34627692912E+02  0.40694708093E+02  0.61308443607E+02  0.47000000000E+01 0. -1.
          5    1    3    3  503    0 -0.10637000541E+02  0.78148032702E+02 -0.10538102631E+03  0.13170995218E+03  0.47000000000E+01 0.  1.
         -5    1    3    3    0  503  0.57733926171E+02 -0.24938524965E+02 -0.54951008969E+02  0.83647113789E+02  0.47000000000E+01 0.  1.
<mgrwt>
<rscale>  0 0.14378577E+03</rscale>
<asrwt>0</asrwt>
<pdfrwt beam="1">  1        5 0.16496822E-01 0.14378814E+03</pdfrwt>
<pdfrwt beam="2">  1       -5 0.38874388E-01 0.14378814E+03</pdfrwt>
<totfact> 0.15506906E+02</totfact>
</mgrwt>
</event>
<event>
 8    1  0.3588496E-007  0.1633688E+03  0.7546771E-02  0.1184945E+00
         -5   -1    0    0    0  501 -0.00000000000E+00  0.00000000000E+00  0.11208455006E+03  0.11218304846E+03  0.47000000000E+01 0. -1.
          5   -1    0    0  501    0  0.00000000000E+00 -0.00000000000E+00 -0.26903084041E+03  0.26907189205E+03  0.47000000000E+01 0. -1.
         25    2    1    2    0    0  0.32312063094E+02 -0.10010167242E+03 -0.14331105017E+03  0.21731869270E+03  0.12499977142E+03 0.  0.
         25    2    1    2    0    0 -0.32312063094E+02  0.10010167242E+03 -0.13635240180E+02  0.16393624780E+03  0.12499903730E+03 0.  0.
          5    1    4    4  502    0  0.43363308251E+02  0.84821409709E+01 -0.29208531610E+01  0.44530266125E+02  0.47000000000E+01 0. -1.
         -5    1    4    4    0  502 -0.75675371345E+02  0.91619531446E+02 -0.10714387019E+02  0.11940598167E+03  0.47000000000E+01 0. -1.
          5    1    3    3  503    0  0.32113278470E+01 -0.17471501703E+02  0.22908484120E+02  0.29367578092E+02  0.47000000000E+01 0.  1.
         -5    1    3    3    0  503  0.29100735247E+02 -0.82630170713E+02 -0.16621953429E+03  0.18795111461E+03  0.47000000000E+01 0.  1.
<mgrwt>
<rscale>  0 0.16336864E+03</rscale>
<asrwt>0</asrwt>
<pdfrwt beam="2">  1        5 0.41400094E-01 0.16336878E+03</pdfrwt>
<pdfrwt beam="1">  1       -5 0.17254512E-01 0.16336878E+03</pdfrwt>
<totfact> 0.13073378E+02</totfact>
</mgrwt>
</event>
<event>
 8    1  0.3588496E-007  0.1587159E+03  0.7546771E-02  0.1190155E+00
         -5   -1    0    0    0  501 -0.00000000000E+00  0.00000000000E+00  0.20064362159E+03  0.20069866189E+03  0.47000000000E+01 0. -1.
          5   -1    0    0  501    0  0.00000000000E+00 -0.00000000000E+00 -0.14128629777E+03  0.14136445076E+03  0.47000000000E+01 0. -1.
         25    2    1    2    0    0  0.93148329641E+02  0.29815859658E+02  0.86947069461E+02  0.18096708976E+03  0.12499479143E+03 0.  0.
         25    2    1    2    0    0 -0.93148329641E+02 -0.29815859658E+02 -0.27589745644E+02  0.16109602289E+03  0.12500055089E+03 0.  0.
          5    1    3    3  502    0  0.88993102668E+02  0.22748923323E+02  0.11736769444E+03  0.14911254653E+03  0.47000000000E+01 0.  1.
         -5    1    3    3    0  502  0.41552269729E+01  0.70669363343E+01 -0.30420624975E+02  0.31854543227E+02  0.47000000000E+01 0.  1.
          5    1    4    4  503    0 -0.45212655933E+02  0.28066085497E+02  0.34418283315E+02  0.63549961747E+02  0.47000000000E+01 0. -1.
         -5    1    4    4    0  503 -0.47935673708E+02 -0.57881945155E+02 -0.62008028959E+02  0.97546061141E+02  0.47000000000E+01 0. -1.
<mgrwt>
<rscale>  0 0.15871476E+03</rscale>
<asrwt>0</asrwt>
<pdfrwt beam="2">  1        5 0.21746599E-01 0.15871589E+03</pdfrwt>
<pdfrwt beam="1">  1       -5 0.30878495E-01 0.15871589E+03</pdfrwt>
<totfact> 0.15206686E+02</totfact>
</mgrwt>
</event>
<event>
 8    1  0.3588496E-007  0.1668097E+03  0.7546771E-02  0.1181217E+00
         -5   -1    0    0    0  501 -0.00000000000E+00  0.00000000000E+00  0.64400118835E+02  0.64571396965E+02  0.47000000000E+01 0.  1.
          5   -1    0    0  501    0  0.00000000000E+00 -0.00000000000E+00 -0.45496353238E+03  0.45498780841E+03  0.47000000000E+01 0.  1.
         25    2    1    2    0    0 -0.10330935270E+03 -0.39083056725E+02 -0.13605508748E+03  0.21525908720E+03  0.12500072046E+03 0.  0.
         25    2    1    2    0    0  0.10330935270E+03  0.39083056725E+02 -0.25450832607E+03  0.30430011817E+03  0.12499506472E+03 0.  0.
          5    1    3    3  502    0  0.12312581127E+01  0.36248309210E+00  0.21501807783E+02  0.22046884779E+02  0.47000000000E+01 0.  1.
         -5    1    3    3    0  502 -0.10454061081E+03 -0.39445539817E+02 -0.15755689526E+03  0.19321220242E+03  0.47000000000E+01 0.  1.
          5    1    4    4  503    0  0.12903874699E+03  0.13872977774E+02 -0.20912832010E+03  0.24617108280E+03  0.47000000000E+01 0. -1.
         -5    1    4    4    0  503 -0.25729394298E+02  0.25210078951E+02 -0.45380005967E+02  0.58129035371E+02  0.47000000000E+01 0. -1.
<mgrwt>
<rscale>  0 0.16680868E+03</rscale>
<asrwt>0</asrwt>
<pdfrwt beam="2">  1        5 0.70009430E-01 0.16680974E+03</pdfrwt>
<pdfrwt beam="1">  1       -5 0.99227535E-02 0.16680974E+03</pdfrwt>
<totfact> 0.11427533E+02</totfact>
</mgrwt>
</event>
<event>
 8    1  0.3588496E-007  0.1335095E+03  0.7546771E-02  0.1222341E+00
         -5   -1    0    0    0  501 -0.00000000000E+00  0.00000000000E+00  0.20611440974E+03  0.20616798952E+03  0.47000000000E+01 0. -1.
          5   -1    0    0  501    0  0.00000000000E+00 -0.00000000000E+00 -0.99284428414E+02  0.99395612205E+02  0.47000000000E+01 0. -1.
         25    2    1    2    0    0  0.38464344133E+01  0.46738814731E+02  0.10851419291E+03  0.17204347215E+03  0.12499725751E+03 0.  0.
         25    2    1    2    0    0 -0.38464344133E+01 -0.46738814731E+02 -0.16842115851E+01  0.13352012958E+03  0.12500190628E+03 0.  0.
          5    1    4    4  502    0 -0.22983165793E+01 -0.80610258109E+02 -0.32871917810E+02  0.87212091776E+02  0.47000000000E+01 0. -1.
         -5    1    4    4    0  502 -0.15481178341E+01  0.33871443378E+02  0.31187706224E+02  0.46308037800E+02  0.47000000000E+01 0. -1.
          5    1    3    3  503    0 -0.20128398544E+02 -0.17819225164E+02  0.98602249848E+02  0.10230919259E+03  0.47000000000E+01 0.  1.
         -5    1    3    3    0  503  0.23974832958E+02  0.64558039895E+02  0.99119430649E+01  0.69734279560E+02  0.47000000000E+01 0.  1.
<mgrwt>
<rscale>  0 0.13350842E+03</rscale>
<asrwt>0</asrwt>
<pdfrwt beam="2">  1        5 0.15287202E-01 0.13350951E+03</pdfrwt>
<pdfrwt beam="1">  1       -5 0.31722583E-01 0.13350951E+03</pdfrwt>
<totfact> 0.26128035E+02</totfact>
</mgrwt>
</event>
<event>
 8    1  0.3588496E-007  0.1444245E+03  0.7546771E-02  0.1207498E+00
          5   -1    0    0  501    0  0.00000000000E+00  0.00000000000E+00  0.26164537996E+03  0.26168759018E+03  0.47000000000E+01 0.  1.
         -5   -1    0    0    0  501 -0.00000000000E+00 -0.00000000000E+00 -0.21355124611E+03  0.21360296045E+03  0.47000000000E+01 0.  1.
         25    2    1    2    0    0  0.57473216705E+02  0.43932771973E+02 -0.16410679879E+03  0.21860801620E+03  0.12500065698E+03 0.  0.
         25    2    1    2    0    0 -0.57473216705E+02 -0.43932771973E+02  0.21220093265E+03  0.25668253443E+03  0.12499371414E+03 0.  0.
          5    1    4    4  502    0  0.72073359720E+01  0.25769835308E+02  0.36298974246E+01  0.27409784000E+02  0.47000000000E+01 0.  1.
         -5    1    4    4    0  502 -0.64680552677E+02 -0.69702607281E+02  0.20857103522E+03  0.22927275043E+03  0.47000000000E+01 0.  1.
          5    1    3    3  503    0  0.40731639549E+02  0.87961502327E+02 -0.10793542185E+03  0.14514970769E+03  0.47000000000E+01 0. -1.
         -5    1    3    3    0  503  0.16741577156E+02 -0.44028730354E+02 -0.56171376940E+02  0.73458308513E+02  0.47000000000E+01 0. -1.
<mgrwt>
<rscale>  0 0.14442295E+03</rscale>
<asrwt>0</asrwt>
<pdfrwt beam="1">  1        5 0.40260360E-01 0.14442446E+03</pdfrwt>
<pdfrwt beam="2">  1       -5 0.32861263E-01 0.14442446E+03</pdfrwt>
<totfact> 0.38929025E+01</totfact>
</mgrwt>
</event>
<event>
 8    1  0.3588496E-007  0.1255571E+03  0.7546771E-02  0.1234201E+00
          5   -1    0    0  501    0  0.00000000000E+00  0.00000000000E+00  0.37136273326E+02  0.37432509889E+02  0.47000000000E+01 0.  1.
         -5   -1    0    0    0  501 -0.00000000000E+00 -0.00000000000E+00 -0.42930326246E+03  0.42932898942E+03  0.47000000000E+01 0.  1.
         25    2    1    2    0    0 -0.11724689065E+02 -0.14400242845E+01 -0.22543266936E+03  0.25803940759E+03  0.12499962181E+03 0.  0.
         25    2    1    2    0    0  0.11724689065E+02  0.14400242845E+01 -0.16673431977E+03  0.20872209172E+03  0.12500014471E+03 0.  0.
          5    1    3    3  502    0 -0.65816136904E+02  0.13742398649E+02 -0.14402851141E+03  0.15901861368E+03  0.47000000000E+01 0.  1.
         -5    1    3    3    0  502  0.54091447839E+02 -0.15182422933E+02 -0.81404157949E+02  0.99020793911E+02  0.47000000000E+01 0.  1.
          5    1    4    4  503    0  0.16377515560E+02  0.61476036590E+02 -0.70259007229E+02  0.94899653253E+02  0.47000000000E+01 0.  1.
         -5    1    4    4    0  503 -0.46528264949E+01 -0.60036012305E+02 -0.96475312544E+02  0.11382243847E+03  0.47000000000E+01 0.  1.
<mgrwt>
<rscale>  0 0.12555694E+03</rscale>
<asrwt>0</asrwt>
<pdfrwt beam="1">  1        5 0.57380395E-02 0.12555707E+03</pdfrwt>
<pdfrwt beam="2">  1       -5 0.66071419E-01 0.12555707E+03</pdfrwt>
<totfact> 0.30223590E+02</totfact>
</mgrwt>
</event>
<event>
 8    1  0.3588496E-007  0.1376795E+03  0.7546771E-02  0.1216491E+00
         -5   -1    0    0    0  501 -0.00000000000E+00  0.00000000000E+00  0.11973505467E+03  0.11982726450E+03  0.47000000000E+01 0.  1.
          5   -1    0    0  501    0  0.00000000000E+00 -0.00000000000E+00 -0.16197971899E+03  0.16204789220E+03  0.47000000000E+01 0.  1.
         25    2    1    2    0    0 -0.38441055361E+01 -0.57521540498E+02  0.65368688574E+00  0.13766730478E+03  0.12501341820E+03 0.  0.
         25    2    1    2    0    0  0.38441055361E+01  0.57521540498E+02 -0.42898351204E+02  0.14420785191E+03  0.12502852174E+03 0.  0.
          5    1    3    3  502    0  0.48836833179E+02 -0.28154288252E+02 -0.35888650007E+02  0.66990935366E+02  0.47000000000E+01 0.  1.
         -5    1    3    3    0  502 -0.52680938715E+02 -0.29367252246E+02  0.36542336893E+02  0.70676369417E+02  0.47000000000E+01 0.  1.
          5    1    4    4  503    0 -0.26298703391E+01  0.89606986626E+02  0.34596869372E+00  0.89769359831E+02  0.47000000000E+01 0.  1.
         -5    1    4    4    0  503  0.64739758752E+01 -0.32085446128E+02 -0.43244319898E+02  0.54438492083E+02  0.47000000000E+01 0.  1.
<mgrwt>
<rscale>  0 0.13767604E+03</rscale>
<asrwt>0</asrwt>
<pdfrwt beam="2">  1        5 0.24932294E-01 0.13767947E+03</pdfrwt>
<pdfrwt beam="1">  1       -5 0.18433115E-01 0.13767947E+03</pdfrwt>
<totfact> 0.29949225E+02</totfact>
</mgrwt>
</event>
<event>
 8    1  0.3588496E-007  0.1301492E+03  0.7546771E-02  0.1227237E+00
         -5   -1    0    0    0  501 -0.00000000000E+00  0.00000000000E+00  0.57979755445E+03  0.57981660389E+03  0.47000000000E+01 0. -1.
          5   -1    0    0  501    0  0.00000000000E+00 -0.00000000000E+00 -0.39660858244E+02  0.39938373485E+02  0.47000000000E+01 0. -1.
         25    2    1    2    0    0 -0.36141115444E+02 -0.26627761318E+01  0.42999611664E+03  0.44926102126E+03  0.12500213716E+03 0.  0.
         25    2    1    2    0    0  0.36141115444E+02  0.26627761318E+01  0.11014057957E+03  0.17049395611E+03  0.12499588474E+03 0.  0.
          5    1    3    3  502    0 -0.23686494186E+01 -0.27390259774E+02  0.39057932815E+03  0.39157392458E+03  0.47000000000E+01 0.  1.
         -5    1    3    3    0  502 -0.33772466025E+02  0.24727483642E+02  0.39416788487E+02  0.57687096680E+02  0.47000000000E+01 0.  1.
          5    1    4    4  503    0  0.17693629150E+02  0.56875074697E+02  0.92990881252E+02  0.11053159110E+03  0.47000000000E+01 0. -1.
         -5    1    4    4    0  503  0.18447486294E+02 -0.54212298565E+02  0.17149698313E+02  0.59962365018E+02  0.47000000000E+01 0. -1.
<mgrwt>
<rscale>  0 0.13014766E+03</rscale>
<asrwt>0</asrwt>
<pdfrwt beam="2">  1        5 0.61244834E-02 0.13014916E+03</pdfrwt>
<pdfrwt beam="1">  1       -5 0.89222434E-01 0.13014916E+03</pdfrwt>
<totfact> 0.13786519E+02</totfact>
</mgrwt>
</event>
<event>
 8    1  0.3588496E-007  0.1431312E+03  0.7546771E-02  0.1209182E+00
         -5   -1    0    0    0  501 -0.00000000000E+00  0.00000000000E+00  0.92119742660E+02  0.92239563029E+02  0.47000000000E+01 0. -1.
          5   -1    0    0  501    0  0.00000000000E+00 -0.00000000000E+00 -0.27587513501E+03  0.27591516834E+03  0.47000000000E+01 0. -1.
         25    2    1    2    0    0 -0.57025093953E+02 -0.40064194549E+02 -0.10615900086E+02  0.14352433933E+03  0.12501814916E+03 0.  0.
         25    2    1    2    0    0  0.57025093953E+02  0.40064194549E+02 -0.17313949227E+03  0.22463039204E+03  0.12499811286E+03 0.  0.
          5    1    3    3  502    0 -0.39232130115E+02  0.29608024291E+02 -0.42098293665E+02  0.64885679971E+02  0.47000000000E+01 0. -1.
         -5    1    3    3    0  502 -0.17792963838E+02 -0.69672218840E+02  0.31482393579E+02  0.78638659358E+02  0.47000000000E+01 0. -1.
          5    1    4    4  503    0  0.72271115400E+02  0.68090477236E+02 -0.16282714102E+03  0.19077262661E+03  0.47000000000E+01 0.  1.
         -5    1    4    4    0  503 -0.15246021447E+02 -0.28026282687E+02 -0.10312351242E+02  0.33857765422E+02  0.47000000000E+01 0.  1.
<mgrwt>
<rscale>  0 0.14312682E+03</rscale>
<asrwt>0</asrwt>
<pdfrwt beam="2">  1        5 0.42454624E-01 0.14313119E+03</pdfrwt>
<pdfrwt beam="1">  1       -5 0.14184565E-01 0.14313119E+03</pdfrwt>
<totfact> 0.16998958E+02</totfact>
</mgrwt>
</event>
<event>
 8    1  0.3588496E-007  0.1346982E+03  0.7546771E-02  0.1220655E+00
          5   -1    0    0  501    0  0.00000000000E+00  0.00000000000E+00  0.27046549528E+03  0.27050632920E+03  0.47000000000E+01 0.  1.
         -5   -1    0    0    0  501 -0.00000000000E+00 -0.00000000000E+00 -0.68199652526E+02  0.68361411663E+02  0.47000000000E+01 0.  1.
         25    2    1    2    0    0  0.37185203633E+02  0.33613373002E+02  0.78157752347E+02  0.15571094450E+03  0.12499866308E+03 0.  0.
         25    2    1    2    0    0 -0.37185203633E+02 -0.33613373002E+02  0.12410809041E+03  0.18315679636E+03  0.12502398063E+03 0.  0.
          5    1    4    4  502    0 -0.26468943013E+01  0.46749185223E+02  0.45576818235E+02  0.65512050258E+02  0.47000000000E+01 0.  1.
         -5    1    4    4    0  502 -0.34538309331E+02 -0.80362558226E+02  0.78531272171E+02  0.11764474610E+03  0.47000000000E+01 0.  1.
          5    1    3    3  503    0 -0.43917523479E+00  0.76852804757E+02  0.40884585156E+02  0.87179044370E+02  0.47000000000E+01 0. -1.
         -5    1    3    3    0  503  0.37624378867E+02 -0.43239431755E+02  0.37273167191E+02  0.68531900135E+02  0.47000000000E+01 0. -1.
<mgrwt>
<rscale>  0 0.13469228E+03</rscale>
<asrwt>0</asrwt>
<pdfrwt beam="1">  1        5 0.41625660E-01 0.13469816E+03</pdfrwt>
<pdfrwt beam="2">  1       -5 0.10507838E-01 0.13469816E+03</pdfrwt>
<totfact> 0.29553974E+02</totfact>
</mgrwt>
</event>
<event>
 8    1  0.3588496E-007  0.1511571E+03  0.7546771E-02  0.1199059E+00
         -5   -1    0    0    0  501 -0.00000000000E+00  0.00000000000E+00  0.29690006451E+02  0.30059715286E+02  0.47000000000E+01 0. -1.
          5   -1    0    0  501    0  0.00000000000E+00 -0.00000000000E+00 -0.90838611393E+03  0.90839827278E+03  0.47000000000E+01 0. -1.
         25    2    1    2    0    0  0.77432568171E+02  0.35027807430E+02 -0.25257920367E+03  0.29435329948E+03  0.12499944354E+03 0.  0.
         25    2    1    2    0    0 -0.77432568171E+02 -0.35027807430E+02 -0.62611690381E+03  0.64410468858E+03  0.12500289077E+03 0.  0.
          5    1    3    3  502    0  0.95506238031E+02  0.29062355753E+02 -0.25566770785E+03  0.27450706523E+03  0.47000000000E+01 0. -1.
         -5    1    3    3    0  502 -0.18073669861E+02  0.59654516769E+01  0.30885041816E+01  0.19846234253E+02  0.47000000000E+01 0. -1.
          5    1    4    4  503    0  0.12777956485E+02  0.25354038913E+02 -0.48814407182E+02  0.56666037532E+02  0.47000000000E+01 0. -1.
         -5    1    4    4    0  503 -0.90210524655E+02 -0.60381846343E+02 -0.57730249663E+03  0.58743865105E+03  0.47000000000E+01 0. -1.
<mgrwt>
<rscale>  0 0.15115640E+03</rscale>
<asrwt>0</asrwt>
<pdfrwt beam="2">  1        5 0.13978106E+00 0.15115711E+03</pdfrwt>
<pdfrwt beam="1">  1       -5 0.45970684E-02 0.15115711E+03</pdfrwt>
<totfact> 0.75739116E+01</totfact>
</mgrwt>
</event>
<event>
 8    1  0.3588496E-007  0.1316669E+03  0.7546771E-02  0.1225006E+00
          5   -1    0    0  501    0  0.00000000000E+00  0.00000000000E+00  0.14001984253E+02  0.14769751624E+02  0.47000000000E+01 0.  1.
         -5   -1    0    0    0  501 -0.00000000000E+00 -0.00000000000E+00 -0.13561913007E+04  0.13561994448E+04  0.47000000000E+01 0.  1.
         25    2    1    2    0    0 -0.27443392372E+02 -0.30928497464E+02 -0.90045872675E+03  0.91003309913E+03  0.12499844481E+03 0.  0.
         25    2    1    2    0    0  0.27443392372E+02  0.30928497464E+02 -0.44173058970E+03  0.46093609730E+03  0.12500584056E+03 0.  0.
          5    1    4    4  502    0 -0.36352080005E+02  0.13246299889E+02 -0.31933841789E+03  0.32170802496E+03  0.47000000000E+01 0.  1.
         -5    1    4    4    0  502  0.63795472377E+02  0.17682197576E+02 -0.12239217181E+03  0.13922807234E+03  0.47000000000E+01 0.  1.
          5    1    3    3  503    0  0.42729017856E+02  0.51985784381E+01 -0.17494660431E+03  0.18022541037E+03  0.47000000000E+01 0.  1.
         -5    1    3    3    0  503 -0.70172410228E+02 -0.36127075902E+02 -0.72551212244E+03  0.72980768876E+03  0.47000000000E+01 0.  1.
<mgrwt>
<rscale>  0 0.13166514E+03</rscale>
<asrwt>0</asrwt>
<pdfrwt beam="1">  1        5 0.22138380E-02 0.13166690E+03</pdfrwt>
<pdfrwt beam="2">  1       -5 0.20870440E+00 0.13166690E+03</pdfrwt>
<totfact> 0.74523743E+01</totfact>
</mgrwt>
</event>
<event>
 8    1  0.3588496E-007  0.1811183E+03  0.7546771E-02  0.1166725E+00
         -5   -1    0    0    0  501 -0.00000000000E+00  0.00000000000E+00  0.97497861588E+02  0.97611080387E+02  0.47000000000E+01 0. -1.
          5   -1    0    0  501    0  0.00000000000E+00 -0.00000000000E+00 -0.44850301232E+03  0.44852763801E+03  0.47000000000E+01 0. -1.
         25    2    1    2    0    0  0.86547193775E+02 -0.98431294389E+02 -0.38839644561E+02  0.18523590088E+03  0.12499873808E+03 0.  0.
         25    2    1    2    0    0 -0.86547193775E+02  0.98431294389E+02 -0.31216550617E+03  0.36090281751E+03  0.12499761590E+03 0.  0.
          5    1    3    3  502    0  0.95449909495E+01  0.20584505885E+02 -0.36682347802E+02  0.43387940433E+02  0.47000000000E+01 0. -1.
         -5    1    3    3    0  502  0.77002202826E+02 -0.11901580027E+03 -0.21572967586E+01  0.14184796045E+03  0.47000000000E+01 0. -1.
          5    1    4    4  503    0 -0.11736323208E+03  0.67645168232E+02 -0.21271712855E+03  0.25223136959E+03  0.47000000000E+01 0. -1.
         -5    1    4    4    0  503  0.30816038308E+02  0.30786126157E+02 -0.99448377625E+02  0.10867144792E+03  0.47000000000E+01 0. -1.
<mgrwt>
<rscale>  0 0.18111806E+03</rscale>
<asrwt>0</asrwt>
<pdfrwt beam="2">  1        5 0.69011066E-01 0.18111825E+03</pdfrwt>
<pdfrwt beam="1">  1       -5 0.15010275E-01 0.18111825E+03</pdfrwt>
<totfact> 0.57778609E+01</totfact>
</mgrwt>
</event>
<event>
 8    1  0.3588496E-007  0.1255531E+03  0.7546771E-02  0.1234209E+00
         -5   -1    0    0    0  501 -0.00000000000E+00  0.00000000000E+00  0.90883602570E+02  0.91005050497E+02  0.47000000000E+01 0. -1.
          5   -1    0    0  501    0  0.00000000000E+00 -0.00000000000E+00 -0.17322058890E+03  0.17328433980E+03  0.47000000000E+01 0. -1.
         25    2    1    2    0    0 -0.84062399926E+01 -0.82200865450E+01 -0.39010024131E+02  0.13147073482E+03  0.12499814974E+03 0.  0.
         25    2    1    2    0    0  0.84062399926E+01  0.82200865450E+01 -0.43326962204E+02  0.13281865548E+03  0.12500133957E+03 0.  0.
          5    1    4    4  502    0  0.37784296567E+02 -0.28821090414E+02 -0.64952963893E+02  0.80618148318E+02  0.47000000000E+01 0. -1.
         -5    1    4    4    0  502 -0.29378056575E+02  0.37041176960E+02  0.21626001689E+02  0.52200507160E+02  0.47000000000E+01 0. -1.
          5    1    3    3  503    0 -0.64853763575E+02 -0.27974966556E+01 -0.36258590664E+02  0.74502429721E+02  0.47000000000E+01 0.  1.
         -5    1    3    3    0  503  0.56447523583E+02 -0.54225898895E+01 -0.27514334669E+01  0.56968305099E+02  0.47000000000E+01 0.  1.
<mgrwt>
<rscale>  0 0.12555226E+03</rscale>
<asrwt>0</asrwt>
<pdfrwt beam="2">  1        5 0.26663567E-01 0.12555305E+03</pdfrwt>
<pdfrwt beam="1">  1       -5 0.13996339E-01 0.12555305E+03</pdfrwt>
<totfact> 0.42051747E+02</totfact>
</mgrwt>
</event>
<event>
 8    1  0.3588496E-007  0.1359679E+03  0.7546771E-02  0.1218860E+00
         -5   -1    0    0    0  501 -0.00000000000E+00  0.00000000000E+00  0.56328889967E+02  0.56524630427E+02  0.47000000000E+01 0.  1.
          5   -1    0    0  501    0  0.00000000000E+00 -0.00000000000E+00 -0.39963792315E+03  0.39966555971E+03  0.47000000000E+01 0.  1.
         25    2    1    2    0    0  0.53105402172E+02  0.64337969687E+01 -0.74716710276E+02  0.15514352604E+03  0.12500139757E+03 0.  0.
         25    2    1    2    0    0 -0.53105402172E+02 -0.64337969687E+01 -0.26859232290E+03  0.30104666409E+03  0.12500272220E+03 0.  0.
          5    1    4    4  502    0  0.43419824917E+01  0.51259152779E+02 -0.75938649285E+02  0.91842920308E+02  0.47000000000E+01 0. -1.
         -5    1    4    4    0  502 -0.57447384663E+02 -0.57692949747E+02 -0.19265367362E+03  0.20920374379E+03  0.47000000000E+01 0. -1.
          5    1    3    3  503    0 -0.20858478379E+02 -0.26068713921E+02  0.12690770607E+02  0.36024986112E+02  0.47000000000E+01 0.  1.
         -5    1    3    3    0  503  0.73963880550E+02  0.32502510890E+02 -0.87407480884E+02  0.11911853993E+03  0.47000000000E+01 0.  1.
<mgrwt>
<rscale>  0 0.13596755E+03</rscale>
<asrwt>0</asrwt>
<pdfrwt beam="2">  1        5 0.61499938E-01 0.13596786E+03</pdfrwt>
<pdfrwt beam="1">  1       -5 0.86831662E-02 0.13596786E+03</pdfrwt>
<totfact> 0.18023888E+02</totfact>
</mgrwt>
</event>
<event>
 8    1  0.3588496E-007  0.1563170E+03  0.7546771E-02  0.1192923E+00
          5   -1    0    0  501    0  0.00000000000E+00  0.00000000000E+00  0.16317716038E+03  0.16324483352E+03  0.47000000000E+01 0. -1.
         -5   -1    0    0    0  501 -0.00000000000E+00 -0.00000000000E+00 -0.14981336319E+03  0.14988707013E+03  0.47000000000E+01 0. -1.
         25    2    1    2    0    0  0.41315310549E+02 -0.84260096546E+02  0.71462848652E+00  0.15630393376E+03  0.12499476093E+03 0.  0.
         25    2    1    2    0    0 -0.41315310549E+02  0.84260096546E+02  0.12649168702E+02  0.15682796988E+03  0.12501316696E+03 0.  0.
          5    1    3    3  502    0 -0.16324822926E+02  0.14378881429E+02  0.30865957254E+02  0.38053244170E+02  0.47000000000E+01 0.  1.
         -5    1    3    3    0  502  0.57640133475E+02 -0.98638977975E+02 -0.30151328767E+02  0.11825068959E+03  0.47000000000E+01 0.  1.
          5    1    4    4  503    0 -0.54344977236E+02  0.18440711563E+02  0.53111002789E+02  0.78334570982E+02  0.47000000000E+01 0.  1.
         -5    1    4    4    0  503  0.13029666687E+02  0.65819384984E+02 -0.40461834086E+02  0.78493398902E+02  0.47000000000E+01 0.  1.
<mgrwt>
<rscale>  0 0.15631334E+03</rscale>
<asrwt>0</asrwt>
<pdfrwt beam="1">  1        5 0.25115054E-01 0.15631702E+03</pdfrwt>
<pdfrwt beam="2">  1       -5 0.23059085E-01 0.15631702E+03</pdfrwt>
<totfact> 0.20249712E+02</totfact>
</mgrwt>
</event>
<event>
 8    1  0.3588496E-007  0.1260282E+03  0.7546771E-02  0.1233495E+00
         -5   -1    0    0    0  501 -0.00000000000E+00  0.00000000000E+00  0.71101425305E+03  0.71102978703E+03  0.47000000000E+01 0. -1.
          5   -1    0    0  501    0  0.00000000000E+00 -0.00000000000E+00 -0.24341580036E+02  0.24791178243E+02  0.47000000000E+01 0. -1.
         25    2    1    2    0    0 -0.12575543819E+02  0.92091663519E+01  0.45482603941E+03  0.47196380328E+03  0.12506059508E+03 0.  0.
         25    2    1    2    0    0  0.12575543819E+02 -0.92091663519E+01  0.23184663361E+03  0.26385716198E+03  0.12499914947E+03 0.  0.
          5    1    4    4  502    0  0.92341928295E+01  0.30643729736E+02  0.21930999356E+03  0.22168281793E+03  0.47000000000E+01 0.  1.
         -5    1    4    4    0  502  0.33413509891E+01 -0.39852896088E+02  0.12536640047E+02  0.42174344058E+02  0.47000000000E+01 0.  1.
          5    1    3    3  503    0  0.25436400546E+02 -0.61666807668E+01  0.41064117348E+03  0.41150127798E+03  0.47000000000E+01 0.  1.
         -5    1    3    3    0  503 -0.38011944364E+02  0.15375847119E+02  0.44184865929E+02  0.60462525304E+02  0.47000000000E+01 0.  1.
<mgrwt>
<rscale>  0 0.12601295E+03</rscale>
<asrwt>0</asrwt>
<pdfrwt beam="2">  1        5 0.37806375E-02 0.12602819E+03</pdfrwt>
<pdfrwt beam="1">  1       -5 0.10942260E+00 0.12602819E+03</pdfrwt>
<totfact> 0.18479174E+02</totfact>
</mgrwt>
</event>
<event>
 8    1  0.3588496E-007  0.1251056E+03  0.7546771E-02  0.1234908E+00
         -5   -1    0    0    0  501 -0.00000000000E+00  0.00000000000E+00  0.20681195594E+03  0.20686535505E+03  0.47000000000E+01 0.  1.
          5   -1    0    0  501    0  0.00000000000E+00 -0.00000000000E+00 -0.86334689611E+02  0.86462527318E+02  0.47000000000E+01 0.  1.
         25    2    1    2    0    0 -0.45813454803E+01  0.16111966687E+01  0.11204937145E+03  0.16794784135E+03  0.12501132385E+03 0.  0.
         25    2    1    2    0    0  0.45813454803E+01 -0.16111966687E+01  0.84278948878E+01  0.12538004102E+03  0.12500216235E+03 0.  0.
          5    1    4    4  502    0  0.27992912998E+02 -0.56484547036E+02 -0.69379027604E+01  0.63595060553E+02  0.47000000000E+01 0. -1.
         -5    1    4    4    0  502 -0.23411567518E+02  0.54873350367E+02  0.15365797648E+02  0.61784980469E+02  0.47000000000E+01 0. -1.
          5    1    3    3  503    0 -0.12748604097E+02 -0.39642276770E+02  0.11799554722E+03  0.12521611788E+03  0.47000000000E+01 0. -1.
         -5    1    3    3    0  503  0.81672586164E+01  0.41253473438E+02 -0.59461757755E+01  0.42731723466E+02  0.47000000000E+01 0. -1.
<mgrwt>
<rscale>  0 0.12510333E+03</rscale>
<asrwt>0</asrwt>
<pdfrwt beam="2">  1        5 0.13296201E-01 0.12510562E+03</pdfrwt>
<pdfrwt beam="1">  1       -5 0.31831165E-01 0.12510562E+03</pdfrwt>
<totfact> 0.32583347E+02</totfact>
</mgrwt>
</event>
<event>
 8    1  0.3588496E-007  0.1271721E+03  0.7546771E-02  0.1231722E+00
          5   -1    0    0  501    0  0.00000000000E+00  0.00000000000E+00  0.10658120366E+03  0.10668478323E+03  0.47000000000E+01 0.  1.
         -5   -1    0    0    0  501 -0.00000000000E+00 -0.00000000000E+00 -0.15255829254E+03  0.15263067392E+03  0.47000000000E+01 0.  1.
         25    2    1    2    0    0  0.20162329627E+02  0.11651755208E+02 -0.33783553939E+02  0.13158297607E+03  0.12502187064E+03 0.  0.
         25    2    1    2    0    0 -0.20162329627E+02 -0.11651755208E+02 -0.12193534942E+02  0.12773248109E+03  0.12499848597E+03 0.  0.
          5    1    4    4  502    0  0.26586557459E+02 -0.19055208425E+02 -0.54723221385E+02  0.63927044076E+02  0.47000000000E+01 0.  1.
         -5    1    4    4    0  502 -0.46748887086E+02  0.74034532163E+01  0.42529686442E+02  0.63805437011E+02  0.47000000000E+01 0.  1.
          5    1    3    3  503    0  0.56882944432E+02 -0.17779403784E+02 -0.53612692937E+02  0.80300606537E+02  0.47000000000E+01 0. -1.
         -5    1    3    3    0  503 -0.36720614805E+02  0.29431158993E+02  0.19829138998E+02  0.51282369531E+02  0.47000000000E+01 0. -1.
<mgrwt>
<rscale>  0 0.12716638E+03</rscale>
<asrwt>0</asrwt>
<pdfrwt beam="1">  1        5 0.16410644E-01 0.12717213E+03</pdfrwt>
<pdfrwt beam="2">  1       -5 0.23484042E-01 0.12717213E+03</pdfrwt>
<totfact> 0.40393624E+02</totfact>
</mgrwt>
</event>
<event>
 8    1  0.3588496E-007  0.1407908E+03  0.7546771E-02  0.1212285E+00
         -5   -1    0    0    0  501 -0.00000000000E+00  0.00000000000E+00  0.11332283486E+03  0.11342025789E+03  0.47000000000E+01 0. -1.
          5   -1    0    0  501    0  0.00000000000E+00 -0.00000000000E+00 -0.17768379451E+03  0.17774594463E+03  0.47000000000E+01 0. -1.
         25    2    1    2    0    0 -0.71016465418E+01 -0.64355735720E+02 -0.13173406934E+02  0.14135896573E+03  0.12496689336E+03 0.  0.
         25    2    1    2    0    0  0.71016465418E+01  0.64355735720E+02 -0.51187552717E+02  0.14980723680E+03  0.12501979259E+03 0.  0.
          5    1    3    3  502    0 -0.37384000646E+02 -0.49806458819E+02  0.42938572046E+02  0.75789562697E+02  0.47000000000E+01 0.  1.
         -5    1    3    3    0  502  0.30282354105E+02 -0.14549276901E+02 -0.56111978980E+02  0.65569403029E+02  0.47000000000E+01 0.  1.
          5    1    4    4  503    0  0.45098463579E+02  0.43326096527E+02  0.20396567471E+02  0.65947949339E+02  0.47000000000E+01 0. -1.
         -5    1    4    4    0  503 -0.37996817037E+02  0.21029639193E+02 -0.71584120188E+02  0.83859287456E+02  0.47000000000E+01 0. -1.
<mgrwt>
<rscale>  0 0.14077903E+03</rscale>
<asrwt>0</asrwt>
<pdfrwt beam="2">  1        5 0.27348243E-01 0.14079078E+03</pdfrwt>
<pdfrwt beam="1">  1       -5 0.17446557E-01 0.14079078E+03</pdfrwt>
<totfact> 0.27947781E+02</totfact>
</mgrwt>
</event>
<event>
 8    1  0.3588496E-007  0.1419581E+03  0.7546771E-02  0.1210724E+00
          5   -1    0    0  501    0  0.00000000000E+00  0.00000000000E+00  0.42455434921E+03  0.42458036393E+03  0.47000000000E+01 0.  1.
         -5   -1    0    0    0  501 -0.00000000000E+00 -0.00000000000E+00 -0.96442475807E+02  0.96556932117E+02  0.47000000000E+01 0.  1.
         25    2    1    2    0    0  0.67245932519E+02  0.67737324271E+00 -0.21728036000E+02  0.14359250813E+03  0.12499690623E+03 0.  0.
         25    2    1    2    0    0 -0.67245932519E+02 -0.67737324271E+00  0.34983990941E+03  0.37754478792E+03  0.12501852022E+03 0.  0.
          5    1    4    4  502    0  0.24963747377E+02 -0.24026696105E+02  0.38700726644E+02  0.52156562882E+02  0.47000000000E+01 0.  1.
         -5    1    4    4    0  502 -0.92209679896E+02  0.23349322862E+02  0.31113918276E+03  0.32538822504E+03  0.47000000000E+01 0.  1.
          5    1    3    3  503    0  0.75804051107E+02 -0.19841823019E+02  0.32373701776E+02  0.84912299884E+02  0.47000000000E+01 0.  1.
         -5    1    3    3    0  503 -0.85581185887E+01  0.20519196262E+02 -0.54101737776E+02  0.58680208243E+02  0.47000000000E+01 0.  1.
<mgrwt>
<rscale>  0 0.14195335E+03</rscale>
<asrwt>0</asrwt>
<pdfrwt beam="1">  1        5 0.65326859E-01 0.14195811E+03</pdfrwt>
<pdfrwt beam="2">  1       -5 0.14848110E-01 0.14195811E+03</pdfrwt>
<totfact> 0.62029606E+01</totfact>
</mgrwt>
</event>
<event>
 8    1  0.3588496E-007  0.2388156E+03  0.7546771E-02  0.1120585E+00
         -5   -1    0    0    0  501 -0.00000000000E+00  0.00000000000E+00  0.69581237378E+03  0.69582824713E+03  0.47000000000E+01 0.  1.
          5   -1    0    0  501    0  0.00000000000E+00 -0.00000000000E+00 -0.81907595162E+02  0.82042331423E+02  0.47000000000E+01 0.  1.
         25    2    1    2    0    0 -0.18997443308E+03  0.72923384734E+02  0.29979504549E+03  0.38328837511E+03  0.12499921574E+03 0.  0.
         25    2    1    2    0    0  0.18997443308E+03 -0.72923384734E+02  0.31410973313E+03  0.39458220344E+03  0.12498834169E+03 0.  0.
          5    1    3    3  502    0 -0.13336835645E+03  0.10403085078E+03  0.17958472962E+03  0.24674339206E+03  0.47000000000E+01 0.  1.
         -5    1    3    3    0  502 -0.56606076632E+02 -0.31107466045E+02  0.12021031587E+03  0.13654498305E+03  0.47000000000E+01 0.  1.
          5    1    4    4  503    0  0.17314928903E+02  0.31779754037E+02  0.55904852929E+02  0.66762280598E+02  0.47000000000E+01 0. -1.
         -5    1    4    4    0  503  0.17265950418E+03 -0.10470313877E+03  0.25820488020E+03  0.32781992284E+03  0.47000000000E+01 0. -1.
<mgrwt>
<rscale>  0 0.23881422E+03</rscale>
<asrwt>0</asrwt>
<pdfrwt beam="2">  1        5 0.12612754E-01 0.23881564E+03</pdfrwt>
<pdfrwt beam="1">  1       -5 0.10705964E+00 0.23881564E+03</pdfrwt>
<totfact> 0.29924282E+01</totfact>
</mgrwt>
</event>
<event>
 8    1  0.3588496E-007  0.1356955E+03  0.7546771E-02  0.1219242E+00
         -5   -1    0    0    0  501 -0.00000000000E+00  0.00000000000E+00  0.86367546708E+03  0.86368825536E+03  0.47000000000E+01 0.  1.
          5   -1    0    0  501    0  0.00000000000E+00 -0.00000000000E+00 -0.25323352090E+02  0.25755818004E+02  0.47000000000E+01 0.  1.
         25    2    1    2    0    0 -0.52783620283E+02  0.14477100695E+01  0.60018829092E+03  0.61533593241E+03  0.12499647486E+03 0.  0.
         25    2    1    2    0    0  0.52783620283E+02 -0.14477100695E+01  0.23816382408E+03  0.27410814095E+03  0.12500023761E+03 0.  0.
          5    1    4    4  502    0  0.62788646822E+02  0.25793498926E+02  0.23486776466E+03  0.24452540897E+03  0.47000000000E+01 0. -1.
         -5    1    4    4    0  502 -0.10005026538E+02 -0.27241208995E+02  0.32960594152E+01  0.29582731977E+02  0.47000000000E+01 0. -1.
          5    1    3    3  503    0 -0.87655090327E+02 -0.24013029985E+02  0.36525994260E+03  0.37642656141E+03  0.47000000000E+01 0.  1.
         -5    1    3    3    0  503  0.34871470044E+02  0.25460740054E+02  0.23492834832E+03  0.23890937100E+03  0.47000000000E+01 0.  1.
<mgrwt>
<rscale>  0 0.13569462E+03</rscale>
<asrwt>0</asrwt>
<pdfrwt beam="2">  1        5 0.39301505E-02 0.13569549E+03</pdfrwt>
<pdfrwt beam="1">  1       -5 0.13290740E+00 0.13569549E+03</pdfrwt>
<totfact> 0.10837742E+02</totfact>
</mgrwt>
</event>
<event>
 8    1  0.3588496E-007  0.1290569E+03  0.7546771E-02  0.1228864E+00
          5   -1    0    0  501    0  0.00000000000E+00  0.00000000000E+00  0.53905923568E+03  0.53907972469E+03  0.47000000000E+01 0. -1.
         -5   -1    0    0    0  501 -0.00000000000E+00 -0.00000000000E+00 -0.36414959235E+02  0.36717015893E+02  0.47000000000E+01 0. -1.
         25    2    1    2    0    0 -0.25967240288E+02 -0.18838398405E+02  0.13778430996E+03  0.18878612598E+03  0.12500600974E+03 0.  0.
         25    2    1    2    0    0  0.25967240288E+02  0.18838398405E+02  0.36485996649E+03  0.38701061460E+03  0.12500095137E+03 0.  0.
          5    1    4    4  502    0  0.34746746579E+02  0.29804685140E+02  0.37629786245E+02  0.59445323340E+02  0.47000000000E+01 0. -1.
         -5    1    4    4    0  502 -0.87795062909E+01 -0.10966286736E+02  0.32723018025E+03  0.32756529126E+03  0.47000000000E+01 0. -1.
          5    1    3    3  503    0 -0.58533161262E+02 -0.93127670851E+01  0.14231321525E+03  0.15423358854E+03  0.47000000000E+01 0.  1.
         -5    1    3    3    0  503  0.32565920973E+02 -0.95256313197E+01 -0.45289052939E+01  0.34552537447E+02  0.47000000000E+01 0.  1.
<mgrwt>
<rscale>  0 0.12905568E+03</rscale>
<asrwt>0</asrwt>
<pdfrwt beam="1">  1        5 0.82956999E-01 0.12905691E+03</pdfrwt>
<pdfrwt beam="2">  1       -5 0.56271128E-02 0.12905691E+03</pdfrwt>
<totfact> 0.18793047E+02</totfact>
</mgrwt>
</event>
<event>
 8    1  0.3588496E-007  0.1320907E+03  0.7546771E-02  0.1224386E+00
          5   -1    0    0  501    0  0.00000000000E+00  0.00000000000E+00  0.85942118058E+02  0.86070538840E+02  0.47000000000E+01 0. -1.
         -5   -1    0    0    0  501 -0.00000000000E+00 -0.00000000000E+00 -0.22340113223E+03  0.22345056698E+03  0.47000000000E+01 0. -1.
         25    2    1    2    0    0 -0.40744892835E+02 -0.12746395489E+02 -0.11580669311E+03  0.17566757333E+03  0.12500115703E+03 0.  0.
         25    2    1    2    0    0  0.40744892835E+02  0.12746395489E+02 -0.21652321066E+02  0.13385353249E+03  0.12500131304E+03 0.  0.
          5    1    4    4  502    0  0.40909523097E+01  0.64247146382E+02  0.57349994710E+01  0.64802869751E+02  0.47000000000E+01 0. -1.
         -5    1    4    4    0  502  0.36653940526E+02 -0.51500750893E+02 -0.27387320537E+02  0.69050662739E+02  0.47000000000E+01 0. -1.
          5    1    3    3  503    0 -0.15969010379E+02 -0.24322716157E+02 -0.13738873565E+03  0.14051462022E+03  0.47000000000E+01 0. -1.
         -5    1    3    3    0  503 -0.24775882457E+02  0.11576320668E+02  0.21582042540E+02  0.35152953103E+02  0.47000000000E+01 0. -1.
<mgrwt>
<rscale>  0 0.13209063E+03</rscale>
<asrwt>0</asrwt>
<pdfrwt beam="1">  1        5 0.13235546E-01 0.13209067E+03</pdfrwt>
<pdfrwt beam="2">  1       -5 0.34383086E-01 0.13209067E+03</pdfrwt>
<totfact> 0.28749956E+02</totfact>
</mgrwt>
</event>
<event>
 8    1  0.3588496E-007  0.1256839E+03  0.7546771E-02  0.1234005E+00
         -5   -1    0    0    0  501 -0.00000000000E+00  0.00000000000E+00  0.59443582991E+02  0.59629099933E+02  0.47000000000E+01 0. -1.
          5   -1    0    0  501    0  0.00000000000E+00 -0.00000000000E+00 -0.27841721711E+03  0.27845688496E+03  0.47000000000E+01 0. -1.
         25    2    1    2    0    0  0.77199165373E+01  0.10480471205E+02 -0.72553899191E+02  0.14512243196E+03  0.12500805807E+03 0.  0.
         25    2    1    2    0    0 -0.77199165373E+01 -0.10480471205E+02 -0.14641973493E+03  0.19296355293E+03  0.12500702619E+03 0.  0.
          5    1    3    3  502    0  0.48584379258E+02  0.48202203282E+02 -0.50175718854E+02  0.84991688251E+02  0.47000000000E+01 0.  1.
         -5    1    3    3    0  502 -0.40864462720E+02 -0.37721732078E+02 -0.22378180336E+02  0.60130743713E+02  0.47000000000E+01 0.  1.
          5    1    4    4  503    0 -0.52005650903E+02 -0.44640227724E+02 -0.69283833451E+02  0.97568833317E+02  0.47000000000E+01 0.  1.
         -5    1    4    4    0  503  0.44285734366E+02  0.34159756519E+02 -0.77135901477E+02  0.95394719615E+02  0.47000000000E+01 0.  1.
<mgrwt>
<rscale>  0 0.12568368E+03</rscale>
<asrwt>0</asrwt>
<pdfrwt beam="2">  1        5 0.42850739E-01 0.12568394E+03</pdfrwt>
<pdfrwt beam="1">  1       -5 0.91624886E-02 0.12568394E+03</pdfrwt>
<totfact> 0.34465887E+02</totfact>
</mgrwt>
</event>
<event>
 8    1  0.3588496E-007  0.1428578E+03  0.7546771E-02  0.1209537E+00
          5   -1    0    0  501    0  0.00000000000E+00  0.00000000000E+00  0.38768992155E+02  0.39052845642E+02  0.47000000000E+01 0. -1.
         -5   -1    0    0    0  501 -0.00000000000E+00 -0.00000000000E+00 -0.57961954358E+03  0.57963859887E+03  0.47000000000E+01 0. -1.
         25    2    1    2    0    0  0.12077301548E+02 -0.68082729888E+02 -0.36608769456E+03  0.39297399661E+03  0.12500897000E+03 0.  0.
         25    2    1    2    0    0 -0.12077301548E+02  0.68082729888E+02 -0.17476285686E+03  0.22571744790E+03  0.12500076330E+03 0.  0.
          5    1    4    4  502    0 -0.49969630378E+02  0.53771620355E+02 -0.37574106871E+02  0.82596940760E+02  0.47000000000E+01 0. -1.
         -5    1    4    4    0  502  0.37892328830E+02  0.14311109533E+02 -0.13718874999E+03  0.14312050714E+03  0.47000000000E+01 0. -1.
          5    1    3    3  503    0 -0.44757359877E+02 -0.56404511390E+01 -0.21592129242E+03  0.22063347541E+03  0.47000000000E+01 0.  1.
         -5    1    3    3    0  503  0.56834661424E+02 -0.62442278749E+02 -0.15016640214E+03  0.17234052120E+03  0.47000000000E+01 0.  1.
<mgrwt>
<rscale>  0 0.14285604E+03</rscale>
<asrwt>0</asrwt>
<pdfrwt beam="1">  1        5 0.59877614E-02 0.14285784E+03</pdfrwt>
<pdfrwt beam="2">  1       -5 0.89195532E-01 0.14285784E+03</pdfrwt>
<totfact> 0.14775558E+02</totfact>
</mgrwt>
</event>
<event>
 8    1  0.3588496E-007  0.1870893E+03  0.7546771E-02  0.1161114E+00
         -5   -1    0    0    0  501 -0.00000000000E+00  0.00000000000E+00  0.16891086518E+04  0.16891151907E+04  0.47000000000E+01 0.  1.
          5   -1    0    0  501    0  0.00000000000E+00 -0.00000000000E+00 -0.22955253584E+02  0.23431467455E+02  0.47000000000E+01 0.  1.
         25    2    1    2    0    0  0.32046798976E+02 -0.13546032144E+03  0.11129278074E+04  0.11285436207E+04  0.12500361364E+03 0.  0.
         25    2    1    2    0    0 -0.32046798976E+02  0.13546032144E+03  0.55322559085E+03  0.58400303749E+03  0.12499798963E+03 0.  0.
          5    1    4    4  502    0  0.42757272272E+02  0.54417156412E+02  0.13936106270E+03  0.15566954436E+03  0.47000000000E+01 0.  1.
         -5    1    4    4    0  502 -0.74804071247E+02  0.81043165029E+02  0.41386452815E+03  0.42833349313E+03  0.47000000000E+01 0.  1.
          5    1    3    3  503    0  0.69068822422E+00 -0.13564029335E+03  0.10426222824E+04  0.10514190791E+04  0.47000000000E+01 0. -1.
         -5    1    3    3    0  503  0.31356110751E+02  0.17997191319E+00  0.70305525016E+02  0.77124541614E+02  0.47000000000E+01 0. -1.
<mgrwt>
<rscale>  0 0.18708834E+03</rscale>
<asrwt>0</asrwt>
<pdfrwt beam="2">  1        5 0.35687114E-02 0.18708928E+03</pdfrwt>
<pdfrwt beam="1">  1       -5 0.25990007E+00 0.18708928E+03</pdfrwt>
<totfact> 0.17599552E+01</totfact>
</mgrwt>
</event>
<event>
 8    1  0.3588496E-007  0.1606942E+03  0.7546771E-02  0.1187917E+00
          5   -1    0    0  501    0  0.00000000000E+00  0.00000000000E+00  0.22066095483E+02  0.22561085299E+02  0.47000000000E+01 0.  1.
         -5   -1    0    0    0  501 -0.00000000000E+00 -0.00000000000E+00 -0.13501985547E+04  0.13502067349E+04  0.47000000000E+01 0.  1.
         25    2    1    2    0    0  0.78785241294E+02  0.63183721659E+02 -0.92383881923E+03  0.93770922647E+03  0.12498452926E+03 0.  0.
         25    2    1    2    0    0 -0.78785241294E+02 -0.63183721659E+02 -0.40429363995E+03  0.43505859374E+03  0.12499334287E+03 0.  0.
          5    1    3    3  502    0  0.29215676319E+00  0.49322062036E+02 -0.11876429496E+03  0.12868488224E+03  0.47000000000E+01 0.  1.
         -5    1    3    3    0  502  0.78493084531E+02  0.13861659623E+02 -0.80507452427E+03  0.80902434422E+03  0.47000000000E+01 0.  1.
          5    1    4    4  503    0 -0.10315370024E+03 -0.40738874582E+02 -0.20641436770E+03  0.23437005561E+03  0.47000000000E+01 0. -1.
         -5    1    4    4    0  503  0.24368458949E+02 -0.22444847077E+02 -0.19787927225E+03  0.20068853813E+03  0.47000000000E+01 0. -1.
<mgrwt>
<rscale>  0 0.16069251E+03</rscale>
<asrwt>0</asrwt>
<pdfrwt beam="1">  1        5 0.34334904E-02 0.16069422E+03</pdfrwt>
<pdfrwt beam="2">  1       -5 0.20776150E+00 0.16069422E+03</pdfrwt>
<totfact> 0.39422872E+01</totfact>
</mgrwt>
</event>
<event>
 8    1  0.3588496E-007  0.1311365E+03  0.7546771E-02  0.1225783E+00
          5   -1    0    0  501    0  0.00000000000E+00  0.00000000000E+00  0.36514559129E+02  0.36815798625E+02  0.47000000000E+01 0. -1.
         -5   -1    0    0    0  501 -0.00000000000E+00 -0.00000000000E+00 -0.59224051978E+03  0.59225916900E+03  0.47000000000E+01 0. -1.
         25    2    1    2    0    0 -0.16008466032E+02 -0.36271087499E+02 -0.42150923445E+03  0.44143721029E+03  0.12499965253E+03 0.  0.
         25    2    1    2    0    0  0.16008466032E+02  0.36271087499E+02 -0.13421672620E+03  0.18763775733E+03  0.12498774185E+03 0.  0.
          5    1    3    3  502    0  0.27924826382E+02 -0.18721954790E+02 -0.25178569348E+02  0.42265327090E+02  0.47000000000E+01 0.  1.
         -5    1    3    3    0  502 -0.43933292414E+02 -0.17549132709E+02 -0.39633066510E+03  0.39917188320E+03  0.47000000000E+01 0.  1.
          5    1    4    4  503    0  0.32758997016E+02  0.72891702302E+02 -0.50581880115E+02  0.94694079783E+02  0.47000000000E+01 0.  1.
         -5    1    4    4    0  503 -0.16750530984E+02 -0.36620614803E+02 -0.83634846083E+02  0.92943677548E+02  0.47000000000E+01 0.  1.
<mgrwt>
<rscale>  0 0.13113364E+03</rscale>
<asrwt>0</asrwt>
<pdfrwt beam="1">  1        5 0.56422317E-02 0.13113648E+03</pdfrwt>
<pdfrwt beam="2">  1       -5 0.91138526E-01 0.13113648E+03</pdfrwt>
<totfact> 0.15080990E+02</totfact>
</mgrwt>
</event>
<event>
 8    1  0.3588496E-007  0.1941482E+03  0.7546771E-02  0.1154773E+00
         -5   -1    0    0    0  501 -0.00000000000E+00  0.00000000000E+00  0.49440740761E+03  0.49442974698E+03  0.47000000000E+01 0. -1.
          5   -1    0    0  501    0  0.00000000000E+00 -0.00000000000E+00 -0.11009505352E+03  0.11019533025E+03  0.47000000000E+01 0. -1.
         25    2    1    2    0    0 -0.14244798777E+03  0.42196270405E+02  0.35992965754E+03  0.40895340513E+03  0.12498629819E+03 0.  0.
         25    2    1    2    0    0  0.14244798777E+03 -0.42196270405E+02  0.24382696551E+02  0.19567167211E+03  0.12498373062E+03 0.  0.
          5    1    4    4  502    0  0.15891227503E+03 -0.28241267697E+02 -0.17167479808E+01  0.16147977452E+03  0.47000000000E+01 0. -1.
         -5    1    4    4    0  502 -0.16464287262E+02 -0.13955002708E+02  0.26099444531E+02  0.34191897585E+02  0.47000000000E+01 0. -1.
          5    1    3    3  503    0 -0.40191198562E+02 -0.13139262224E+02  0.15305814707E+02  0.45214274488E+02  0.47000000000E+01 0.  1.
         -5    1    3    3    0  503 -0.10225678920E+03  0.55335532629E+02  0.34462384284E+03  0.36373913064E+03  0.47000000000E+01 0.  1.
<mgrwt>
<rscale>  0 0.19414780E+03</rscale>
<asrwt>0</asrwt>
<pdfrwt beam="2">  1        5 0.16947133E-01 0.19414821E+03</pdfrwt>
<pdfrwt beam="1">  1       -5 0.76072110E-01 0.19414821E+03</pdfrwt>
<totfact> 0.37749483E+01</totfact>
</mgrwt>
</event>
<event>
 8    1  0.3588496E-007  0.1618445E+03  0.7546771E-02  0.1186639E+00
          5   -1    0    0  501    0  0.00000000000E+00  0.00000000000E+00  0.44542708759E+03  0.44545188333E+03  0.47000000000E+01 0.  1.
         -5   -1    0    0    0  501 -0.00000000000E+00 -0.00000000000E+00 -0.70954629840E+02  0.71110122316E+02  0.47000000000E+01 0.  1.
         25    2    1    2    0    0 -0.10266306376E+03  0.43634117292E+01  0.79913963215E+02  0.18046922658E+03  0.12499662477E+03 0.  0.
         25    2    1    2    0    0  0.10266306376E+03 -0.43634117292E+01  0.29455849454E+03  0.33609277906E+03  0.12503961537E+03 0.  0.
          5    1    3    3  502    0 -0.11297017507E+03  0.41631534044E+02  0.73089572036E+02  0.14092416621E+03  0.47000000000E+01 0. -1.
         -5    1    3    3    0  502  0.10307111312E+02 -0.37268122315E+02  0.68243911796E+01  0.39545060367E+02  0.47000000000E+01 0. -1.
          5    1    4    4  503    0  0.15236386622E+02  0.49814473484E+01  0.22023517444E+03  0.22086779836E+03  0.47000000000E+01 0.  1.
         -5    1    4    4    0  503  0.87426677138E+02 -0.93448590776E+01  0.74323320101E+02  0.11522498070E+03  0.47000000000E+01 0.  1.
<mgrwt>
<rscale>  0 0.16183622E+03</rscale>
<asrwt>0</asrwt>
<pdfrwt beam="1">  1        5 0.68541111E-01 0.16184452E+03</pdfrwt>
<pdfrwt beam="2">  1       -5 0.10929965E-01 0.16184452E+03</pdfrwt>
<totfact> 0.10025447E+02</totfact>
</mgrwt>
</event>
<event>
 8    1  0.3588496E-007  0.1255511E+03  0.7546771E-02  0.1234212E+00
          5   -1    0    0  501    0  0.00000000000E+00  0.00000000000E+00  0.19586206144E+02  0.20142231036E+02  0.47000000000E+01 0.  1.
         -5   -1    0    0    0  501 -0.00000000000E+00 -0.00000000000E+00 -0.80102415694E+03  0.80103794542E+03  0.47000000000E+01 0.  1.
         25    2    1    2    0    0 -0.86302823499E+01  0.79641289512E+01 -0.34950002057E+03  0.37136526991E+03  0.12499596070E+03 0.  0.
         25    2    1    2    0    0  0.86302823499E+01 -0.79641289512E+01 -0.43193793023E+03  0.44981490655E+03  0.12500066185E+03 0.  0.
          5    1    3    3  502    0  0.22937885547E+02 -0.29497991040E+02 -0.30143645208E+02  0.48239065239E+02  0.47000000000E+01 0. -1.
         -5    1    3    3    0  502 -0.31568167897E+02  0.37462119991E+02 -0.31935637536E+03  0.32312620467E+03  0.47000000000E+01 0. -1.
          5    1    4    4  503    0 -0.81236925388E+01  0.56743363877E+02 -0.22844933281E+03  0.23557799428E+03  0.47000000000E+01 0. -1.
         -5    1    4    4    0  503  0.16753974889E+02 -0.64707492829E+02 -0.20348859742E+03  0.21423691228E+03  0.47000000000E+01 0. -1.
<mgrwt>
<rscale>  0 0.12554991E+03</rscale>
<asrwt>0</asrwt>
<pdfrwt beam="1">  1        5 0.30570949E-02 0.12555108E+03</pdfrwt>
<pdfrwt beam="2">  1       -5 0.12327829E+00 0.12555108E+03</pdfrwt>
<totfact> 0.19300239E+02</totfact>
</mgrwt>
</event>
<event>
 8    1  0.3588496E-007  0.1435376E+03  0.7546771E-02  0.1208649E+00
          5   -1    0    0  501    0  0.00000000000E+00  0.00000000000E+00  0.12741969859E+03  0.12750635117E+03  0.47000000000E+01 0. -1.
         -5   -1    0    0    0  501 -0.00000000000E+00 -0.00000000000E+00 -0.18048337252E+03  0.18054455892E+03  0.47000000000E+01 0. -1.
         25    2    1    2    0    0 -0.31271446158E+02  0.63234047634E+02 -0.76453033524E+02  0.16262875633E+03  0.12500639154E+03 0.  0.
         25    2    1    2    0    0  0.31271446158E+02 -0.63234047634E+02  0.23389359603E+02  0.14542215376E+03  0.12499637009E+03 0.  0.
          5    1    3    3  502    0  0.92190695149E+01  0.65964027285E+02  0.95168194127E+01  0.67445563161E+02  0.47000000000E+01 0.  1.
         -5    1    3    3    0  502 -0.40490515673E+02 -0.27299796510E+01 -0.85969852937E+02  0.95183193172E+02  0.47000000000E+01 0.  1.
          5    1    4    4  503    0  0.77845020459E+02 -0.38711110042E+02 -0.13426254468E+01  0.87076345204E+02  0.47000000000E+01 0. -1.
         -5    1    4    4    0  503 -0.46573574302E+02 -0.24522937592E+02  0.24731985050E+02  0.58345808554E+02  0.47000000000E+01 0. -1.
<mgrwt>
<rscale>  0 0.14353543E+03</rscale>
<asrwt>0</asrwt>
<pdfrwt beam="1">  1        5 0.19614403E-01 0.14353761E+03</pdfrwt>
<pdfrwt beam="2">  1       -5 0.27778045E-01 0.14353761E+03</pdfrwt>
<totfact> 0.21971815E+02</totfact>
</mgrwt>
</event>
<event>
 8    1  0.3588496E-007  0.1374475E+03  0.7546771E-02  0.1216805E+00
          5   -1    0    0  501    0  0.00000000000E+00  0.00000000000E+00  0.99542388016E+02  0.99653284000E+02  0.47000000000E+01 0.  1.
         -5   -1    0    0    0  501 -0.00000000000E+00 -0.00000000000E+00 -0.19421552479E+03  0.19427238628E+03  0.47000000000E+01 0.  1.
         25    2    1    2    0    0 -0.48556997432E+02  0.30150125643E+02 -0.24545778627E+02  0.13962203292E+03  0.12500001901E+03 0.  0.
         25    2    1    2    0    0  0.48556997432E+02 -0.30150125643E+02 -0.70127358147E+02  0.15430363736E+03  0.12499981626E+03 0.  0.
          5    1    4    4  502    0  0.54319391985E+02 -0.32711263021E+02 -0.10270322261E+03  0.12079182509E+03  0.47000000000E+01 0.  1.
         -5    1    4    4    0  502 -0.57623945538E+01  0.25611373782E+01  0.32575864464E+02  0.33511812264E+02  0.47000000000E+01 0.  1.
          5    1    3    3  503    0 -0.90923127204E+02  0.15389708218E+02 -0.16123464086E+02  0.93733207956E+02  0.47000000000E+01 0. -1.
         -5    1    3    3    0  503  0.42366129773E+02  0.14760417425E+02 -0.84223145414E+01  0.45888824965E+02  0.47000000000E+01 0. -1.
<mgrwt>
<rscale>  0 0.13744746E+03</rscale>
<asrwt>0</asrwt>
<pdfrwt beam="1">  1        5 0.15327118E-01 0.13744751E+03</pdfrwt>
<pdfrwt beam="2">  1       -5 0.29892216E-01 0.13744751E+03</pdfrwt>
<totfact> 0.29524616E+02</totfact>
</mgrwt>
</event>
<event>
 8    1  0.3588496E-007  0.1316981E+03  0.7546771E-02  0.1224974E+00
          5   -1    0    0  501    0  0.00000000000E+00  0.00000000000E+00  0.66692163728E+02  0.66857570272E+02  0.47000000000E+01 0. -1.
         -5   -1    0    0    0  501 -0.00000000000E+00 -0.00000000000E+00 -0.43662089412E+03  0.43664618993E+03  0.47000000000E+01 0. -1.
         25    2    1    2    0    0 -0.28703696735E+02 -0.29920931232E+02 -0.34526785407E+03  0.36951665406E+03  0.12495400050E+03 0.  0.
         25    2    1    2    0    0  0.28703696735E+02  0.29920931232E+02 -0.24660876321E+02  0.13398710614E+03  0.12500088584E+03 0.  0.
          5    1    4    4  502    0 -0.42330099836E+02 -0.13312378411E+02  0.64329586500E+01  0.45083586016E+02  0.47000000000E+01 0. -1.
         -5    1    4    4    0  502  0.71033796571E+02  0.43233309642E+02 -0.31093834971E+02  0.88903520128E+02  0.47000000000E+01 0. -1.
          5    1    3    3  503    0  0.33502175019E+02  0.20183346883E+02 -0.50304928026E+02  0.63893966900E+02  0.47000000000E+01 0.  1.
         -5    1    3    3    0  503 -0.62205871754E+02 -0.50104278114E+02 -0.29496292604E+03  0.30562268716E+03  0.47000000000E+01 0.  1.
<mgrwt>
<rscale>  0 0.13168696E+03</rscale>
<asrwt>0</asrwt>
<pdfrwt beam="1">  1        5 0.10275003E-01 0.13169809E+03</pdfrwt>
<pdfrwt beam="2">  1       -5 0.67187113E-01 0.13169809E+03</pdfrwt>
<totfact> 0.10945357E+02</totfact>
</mgrwt>
</event>
<event>
 8    1  0.3588496E-007  0.1310654E+03  0.7546771E-02  0.1225885E+00
         -5   -1    0    0    0  501 -0.00000000000E+00  0.00000000000E+00  0.20786488423E+03  0.20791801292E+03  0.47000000000E+01 0.  1.
          5   -1    0    0  501    0  0.00000000000E+00 -0.00000000000E+00 -0.84823180888E+02  0.84953293144E+02  0.47000000000E+01 0.  1.
         25    2    1    2    0    0  0.31636989811E+02  0.23482996624E+02  0.85692384505E+02  0.15659289692E+03  0.12500320135E+03 0.  0.
         25    2    1    2    0    0 -0.31636989811E+02 -0.23482996624E+02  0.37349318834E+02  0.13627840914E+03  0.12499793169E+03 0.  0.
          5    1    4    4  502    0 -0.15292944968E+02 -0.19385214362E+02  0.83353465496E+02  0.87060616308E+02  0.47000000000E+01 0. -1.
         -5    1    4    4    0  502 -0.16344044843E+02 -0.40977822625E+01 -0.46004146662E+02  0.49217792834E+02  0.47000000000E+01 0. -1.
          5    1    3    3  503    0  0.16335078872E+02  0.10819908818E+02  0.11727260302E+03  0.11899100238E+03  0.47000000000E+01 0.  1.
         -5    1    3    3    0  503  0.15301910939E+02  0.12663087806E+02 -0.31580218516E+02  0.37601894536E+02  0.47000000000E+01 0.  1.
<mgrwt>
<rscale>  0 0.13106419E+03</rscale>
<asrwt>0</asrwt>
<pdfrwt beam="2">  1        5 0.13063816E-01 0.13106544E+03</pdfrwt>
<pdfrwt beam="1">  1       -5 0.31993308E-01 0.13106544E+03</pdfrwt>
<totfact> 0.33863240E+02</totfact>
</mgrwt>
</event>
<event>
 8    1  0.3588496E-007  0.1859481E+03  0.7546771E-02  0.1162171E+00
          5   -1    0    0  501    0  0.00000000000E+00  0.00000000000E+00  0.12523406996E+03  0.12532223378E+03  0.47000000000E+01 0.  1.
         -5   -1    0    0    0  501 -0.00000000000E+00 -0.00000000000E+00 -0.37880347773E+03  0.37883263421E+03  0.47000000000E+01 0.  1.
         25    2    1    2    0    0 -0.13657473886E+03  0.17159889909E+02 -0.25816260977E+03  0.31815008229E+03  0.12499768262E+03 0.  0.
         25    2    1    2    0    0  0.13657473886E+03 -0.17159889909E+02  0.45932019963E+01  0.18600478570E+03  0.12501824540E+03 0.  0.
          5    1    3    3  502    0 -0.12849713654E+01 -0.22031734031E+02  0.15992456995E+01  0.22620699428E+02  0.47000000000E+01 0. -1.
         -5    1    3    3    0  502 -0.13528976750E+03  0.39191623940E+02 -0.25976185547E+03  0.29552938286E+03  0.47000000000E+01 0. -1.
          5    1    4    4  503    0  0.83039248697E+02 -0.36065117051E+02  0.58240982235E+02  0.10775115546E+03  0.47000000000E+01 0.  1.
         -5    1    4    4    0  503  0.53535490166E+02  0.18905227143E+02 -0.53647780239E+02  0.78253630237E+02  0.47000000000E+01 0.  1.
<mgrwt>
<rscale>  0 0.18594461E+03</rscale>
<asrwt>0</asrwt>
<pdfrwt beam="1">  1        5 0.19275805E-01 0.18594806E+03</pdfrwt>
<pdfrwt beam="2">  1       -5 0.58286482E-01 0.18594806E+03</pdfrwt>
<totfact> 0.53438994E+01</totfact>
</mgrwt>
</event>
<event>
 8    1  0.3588496E-007  0.1571689E+03  0.7546771E-02  0.1191931E+00
         -5   -1    0    0    0  501 -0.00000000000E+00  0.00000000000E+00  0.28568523838E+02  0.28952556956E+02  0.47000000000E+01 0.  1.
          5   -1    0    0  501    0  0.00000000000E+00 -0.00000000000E+00 -0.85912177872E+03  0.85913463477E+03  0.47000000000E+01 0.  1.
         25    2    1    2    0    0  0.81335902729E+02  0.49608750028E+02 -0.40320428746E+03  0.43275370685E+03  0.12500206484E+03 0.  0.
         25    2    1    2    0    0 -0.81335902729E+02 -0.49608750028E+02 -0.42734896742E+03  0.45533348488E+03  0.12499954138E+03 0.  0.
          5    1    4    4  502    0 -0.28050914742E+02 -0.68219968260E+02 -0.35918247291E+03  0.36670827197E+03  0.47000000000E+01 0. -1.
         -5    1    4    4    0  502 -0.53284987987E+02  0.18611218232E+02 -0.68166494509E+02  0.88625212905E+02  0.47000000000E+01 0. -1.
          5    1    3    3  503    0  0.16874777178E+02  0.51585208919E+02 -0.33252509549E+03  0.33695818882E+03  0.47000000000E+01 0. -1.
         -5    1    3    3    0  503  0.64461125551E+02 -0.19764588908E+01 -0.70679191976E+02  0.95795518034E+02  0.47000000000E+01 0. -1.
<mgrwt>
<rscale>  0 0.15716843E+03</rscale>
<asrwt>0</asrwt>
<pdfrwt beam="2">  1        5 0.13220309E+00 0.15716893E+03</pdfrwt>
<pdfrwt beam="1">  1       -5 0.44256881E-02 0.15716893E+03</pdfrwt>
<totfact> 0.94573732E+01</totfact>
</mgrwt>
</event>
<event>
 8    1  0.3588496E-007  0.1354100E+03  0.7546771E-02  0.1219645E+00
          5   -1    0    0  501    0  0.00000000000E+00  0.00000000000E+00  0.40780695368E+03  0.40783403667E+03  0.47000000000E+01 0. -1.
         -5   -1    0    0    0  501 -0.00000000000E+00 -0.00000000000E+00 -0.52356891097E+02  0.52567423803E+02  0.47000000000E+01 0. -1.
         25    2    1    2    0    0 -0.40676208141E+02 -0.32466472592E+02  0.90532951729E+02  0.16288668580E+03  0.12500892492E+03 0.  0.
         25    2    1    2    0    0  0.40676208141E+02  0.32466472592E+02  0.26491711085E+03  0.29751477468E+03  0.12500135911E+03 0.  0.
          5    1    3    3  502    0  0.44875391485E+02 -0.15689294844E+02  0.26634944793E+02  0.54694286884E+02  0.47000000000E+01 0. -1.
         -5    1    3    3    0  502 -0.85551599627E+02 -0.16777177748E+02  0.63898006936E+02  0.10819239891E+03  0.47000000000E+01 0. -1.
          5    1    4    4  503    0 -0.54030778724E+01  0.51399239460E+01 -0.12298323336E+02  0.15131121093E+02  0.47000000000E+01 0. -1.
         -5    1    4    4    0  503  0.46079286014E+02  0.27326548646E+02  0.27721543419E+03  0.28238365358E+03  0.47000000000E+01 0. -1.
<mgrwt>
<rscale>  0 0.13540821E+03</rscale>
<asrwt>0</asrwt>
<pdfrwt beam="1">  1        5 0.62757810E-01 0.13540996E+03</pdfrwt>
<pdfrwt beam="2">  1       -5 0.80731844E-02 0.13540996E+03</pdfrwt>
<totfact> 0.19511989E+02</totfact>
</mgrwt>
</event>
<event>
 8    1  0.3588496E-007  0.1490049E+03  0.7546771E-02  0.1201701E+00
         -5   -1    0    0    0  501 -0.00000000000E+00  0.00000000000E+00  0.66504989664E+03  0.66506650421E+03  0.47000000000E+01 0. -1.
          5   -1    0    0  501    0  0.00000000000E+00 -0.00000000000E+00 -0.48323589505E+02  0.48551614830E+02  0.47000000000E+01 0. -1.
         25    2    1    2    0    0 -0.74964598807E+02 -0.30943405255E+02  0.50735096578E+03  0.52877917243E+03  0.12500090129E+03 0.  0.
         25    2    1    2    0    0  0.74964598807E+02  0.30943405255E+02  0.10937534135E+03  0.18483894660E+03  0.12500114192E+03 0.  0.
          5    1    4    4  502    0 -0.22019875566E+02  0.22278183342E+01  0.74318764020E+02  0.77686593309E+02  0.47000000000E+01 0. -1.
         -5    1    4    4    0  502  0.96984474373E+02  0.28715586920E+02  0.35056577334E+02  0.10715235329E+03  0.47000000000E+01 0. -1.
          5    1    3    3  503    0 -0.30049799922E+02 -0.35505110551E+02  0.46287891012E+03  0.46523389685E+03  0.47000000000E+01 0.  1.
         -5    1    3    3    0  503 -0.44914798885E+02  0.45617052967E+01  0.44472055663E+02  0.63545275583E+02  0.47000000000E+01 0.  1.
<mgrwt>
<rscale>  0 0.14900489E+03</rscale>
<asrwt>0</asrwt>
<pdfrwt beam="2">  1        5 0.74532165E-02 0.14900494E+03</pdfrwt>
<pdfrwt beam="1">  1       -5 0.10233418E+00 0.14900494E+03</pdfrwt>
<totfact> 0.74196180E+01</totfact>
</mgrwt>
</event>
<event>
 8    1  0.3588496E-007  0.1362510E+03  0.7546771E-02  0.1218470E+00
          5   -1    0    0  501    0  0.00000000000E+00  0.00000000000E+00  0.20496501661E+03  0.20501889678E+03  0.47000000000E+01 0. -1.
         -5   -1    0    0    0  501 -0.00000000000E+00 -0.00000000000E+00 -0.92784283115E+02  0.92903246408E+02  0.47000000000E+01 0. -1.
         25    2    1    2    0    0 -0.51391774458E+02 -0.17131812414E+02  0.32419347496E+02  0.14005480393E+03  0.12501888071E+03 0.  0.
         25    2    1    2    0    0  0.51391774458E+02  0.17131812414E+02  0.79761386002E+02  0.15786733925E+03  0.12500241849E+03 0.  0.
          5    1    4    4  502    0  0.82258043190E+02  0.45147795780E+02  0.49945639552E+02  0.10640190808E+03  0.47000000000E+01 0.  1.
         -5    1    4    4    0  502 -0.30866268731E+02 -0.28015983366E+02  0.29815746450E+02  0.51465431172E+02  0.47000000000E+01 0.  1.
          5    1    3    3  503    0  0.27690672793E+02 -0.16913841451E+02  0.49153181463E+02  0.59084487307E+02  0.47000000000E+01 0.  1.
         -5    1    3    3    0  503 -0.79082447252E+02 -0.21797096288E+00 -0.16733833967E+02  0.80970316622E+02  0.47000000000E+01 0.  1.
<mgrwt>
<rscale>  0 0.13624722E+03</rscale>
<asrwt>0</asrwt>
<pdfrwt beam="1">  1        5 0.31546375E-01 0.13625100E+03</pdfrwt>
<pdfrwt beam="2">  1       -5 0.14287801E-01 0.13625100E+03</pdfrwt>
<totfact> 0.30058563E+02</totfact>
</mgrwt>
</event>
