<event>
 8    1  0.3542708E-007  0.1307592E+03  0.7546771E-02  0.1226334E+00
          5   -1    0    0  501    0  0.00000000000E+00  0.00000000000E+00  0.16393945936E+03  0.16400681795E+03  0.47000000000E+01 0. -1.
         -5   -1    0    0    0  501 -0.00000000000E+00 -0.00000000000E+00 -0.15285584363E+03  0.15292808418E+03  0.47000000000E+01 0. -1.
         25    2    1    2    0    0 -0.34018945374E+02 -0.17767433417E+02 -0.83862120119E+02  0.15534102622E+03  0.12500003561E+03 0.  0.
         25    2    1    2    0    0  0.34018945374E+02  0.17767433417E+02  0.94945735849E+02  0.16159387592E+03  0.12499967057E+03 0.  0.
          5    1    3    3  502    0 -0.51546667280E+02  0.24643789576E+02  0.25523464263E+01  0.57384490454E+02  0.47000000000E+01 0.  1.
         -5    1    3    3    0  502  0.17527721906E+02 -0.42411222993E+02 -0.86414466546E+02  0.97956535766E+02  0.47000000000E+01 0.  1.
          5    1    4    4  503    0  0.59135926221E+02  0.57830075172E+02  0.66300558506E+02  0.10610951617E+03  0.47000000000E+01 0. -1.
         -5    1    4    4    0  503 -0.25116980847E+02 -0.40062641754E+02  0.28645177343E+02  0.55484359744E+02  0.47000000000E+01 0. -1.
<mgrwt>
<rscale>  0 0.13075915E+03</rscale>
<asrwt>0</asrwt>
<pdfrwt beam="1">  1        5 0.25232194E-01 0.13075924E+03</pdfrwt>
<pdfrwt beam="2">  1       -5 0.23527022E-01 0.13075924E+03</pdfrwt>
<totfact> 0.18201583E+02</totfact>
</mgrwt>
</event>
<event>
 8    1  0.3542708E-007  0.1466148E+03  0.7546771E-02  0.1204695E+00
         -5   -1    0    0    0  501 -0.00000000000E+00  0.00000000000E+00  0.43209229979E+03  0.43211786070E+03  0.47000000000E+01 0.  1.
          5   -1    0    0  501    0  0.00000000000E+00 -0.00000000000E+00 -0.50923443523E+02  0.51139877788E+02  0.47000000000E+01 0.  1.
         25    2    1    2    0    0 -0.36050808301E+02 -0.67607917513E+02  0.15187556872E+03  0.21109726843E+03  0.12500150829E+03 0.  0.
         25    2    1    2    0    0  0.36050808301E+02  0.67607917513E+02  0.22929328755E+03  0.27216047006E+03  0.12500167382E+03 0.  0.
          5    1    4    4  502    0 -0.44048102309E+02  0.40619190122E+02  0.74396245593E+02  0.95640186541E+02  0.47000000000E+01 0.  1.
         -5    1    4    4    0  502  0.80098910610E+02  0.26988727391E+02  0.15489704195E+03  0.17652028352E+03  0.47000000000E+01 0.  1.
          5    1    3    3  503    0 -0.25853073708E+01  0.29447775185E+02  0.80737479519E+02  0.86107408953E+02  0.47000000000E+01 0. -1.
         -5    1    3    3    0  503 -0.33465500930E+02 -0.97055692697E+02  0.71138089202E+02  0.12498985948E+03  0.47000000000E+01 0. -1.
<mgrwt>
<rscale>  0 0.14661480E+03</rscale>
<asrwt>0</asrwt>
<pdfrwt beam="2">  1        5 0.78529911E-02 0.14661483E+03</pdfrwt>
<pdfrwt beam="1">  1       -5 0.66494352E-01 0.14661483E+03</pdfrwt>
<totfact> 0.18474141E+02</totfact>
</mgrwt>
</event>
<event>
 8    1  0.3542708E-007  0.1284289E+03  0.7546771E-02  0.1229807E+00
          5   -1    0    0  501    0  0.00000000000E+00  0.00000000000E+00  0.95807988885E+03  0.95809141705E+03  0.47000000000E+01 0. -1.
         -5   -1    0    0    0  501 -0.00000000000E+00 -0.00000000000E+00 -0.17156202381E+02  0.17788346751E+02  0.47000000000E+01 0. -1.
         25    2    1    2    0    0 -0.95918550302E+01  0.27869492030E+02  0.40998902454E+03  0.42963293761E+03  0.12499899424E+03 0.  0.
         25    2    1    2    0    0  0.95918550302E+01 -0.27869492030E+02  0.53093466193E+03  0.54624682619E+03  0.12500107048E+03 0.  0.
          5    1    4    4  502    0 -0.13294605680E+02 -0.40179917444E+02  0.54892247746E+02  0.69472448990E+02  0.47000000000E+01 0. -1.
         -5    1    4    4    0  502  0.22886460710E+02  0.12310425414E+02  0.47604241418E+03  0.47677437721E+03  0.47000000000E+01 0. -1.
          5    1    3    3  503    0  0.14558442861E+02 -0.26211064242E+02  0.22922216795E+02  0.38032698695E+02  0.47000000000E+01 0. -1.
         -5    1    3    3    0  503 -0.24150297891E+02  0.54080556272E+02  0.38706680775E+03  0.39160023891E+03  0.47000000000E+01 0. -1.
<mgrwt>
<rscale>  0 0.12842839E+03</rscale>
<asrwt>0</asrwt>
<pdfrwt beam="1">  1        5 0.14744643E+00 0.12842889E+03</pdfrwt>
<pdfrwt beam="2">  1       -5 0.26889289E-02 0.12842889E+03</pdfrwt>
<totfact> 0.14933776E+02</totfact>
</mgrwt>
</event>
<event>
 8    1  0.3542708E-007  0.1928787E+03  0.7546771E-02  0.1155891E+00
         -5   -1    0    0    0  501 -0.00000000000E+00  0.00000000000E+00  0.32823897889E+03  0.32827262643E+03  0.47000000000E+01 0. -1.
          5   -1    0    0  501    0  0.00000000000E+00 -0.00000000000E+00 -0.11329821542E+03  0.11339565961E+03  0.47000000000E+01 0. -1.
         25    2    1    2    0    0 -0.58227061243E+02  0.13485941540E+03  0.10290120247E+03  0.21861114240E+03  0.12499888611E+03 0.  0.
         25    2    1    2    0    0  0.58227061243E+02 -0.13485941540E+03  0.11203956100E+03  0.22305714364E+03  0.12499669402E+03 0.  0.
          5    1    3    3  502    0 -0.36939745196E+02 -0.15379759159E+02  0.13821966507E+02  0.42593644186E+02  0.47000000000E+01 0. -1.
         -5    1    3    3    0  502 -0.21287316047E+02  0.15023917456E+03  0.89079235966E+02  0.17601749821E+03  0.47000000000E+01 0. -1.
          5    1    4    4  503    0  0.50600166578E+02 -0.12610984426E+03  0.13831418242E+03  0.19395095446E+03  0.47000000000E+01 0.  1.
         -5    1    4    4    0  503  0.76268946654E+01 -0.87495711463E+01 -0.26274621424E+02  0.29106189178E+02  0.47000000000E+01 0.  1.
<mgrwt>
<rscale>  0 0.19287830E+03</rscale>
<asrwt>0</asrwt>
<pdfrwt beam="2">  1        5 0.17440579E-01 0.19287865E+03</pdfrwt>
<pdfrwt beam="1">  1       -5 0.50508388E-01 0.19287865E+03</pdfrwt>
<totfact> 0.88636674E+01</totfact>
</mgrwt>
</event>
<event>
 8    1  0.3542708E-007  0.1356540E+03  0.7546771E-02  0.1219303E+00
         -5   -1    0    0    0  501 -0.00000000000E+00  0.00000000000E+00  0.20939414689E+03  0.20944688766E+03  0.47000000000E+01 0. -1.
          5   -1    0    0  501    0  0.00000000000E+00 -0.00000000000E+00 -0.88225851669E+02  0.88350953038E+02  0.47000000000E+01 0. -1.
         25    2    1    2    0    0  0.52675246004E+02 -0.71908344684E+00  0.71522302876E+02  0.15335401819E+03  0.12500726564E+03 0.  0.
         25    2    1    2    0    0 -0.52675246004E+02  0.71908344684E+00  0.49645992340E+02  0.14444382251E+03  0.12499637868E+03 0.  0.
          5    1    4    4  502    0  0.28032605013E+02  0.12575262478E+02 -0.20100647729E+02  0.37014729627E+02  0.47000000000E+01 0.  1.
         -5    1    4    4    0  502 -0.80707851018E+02 -0.11856179031E+02  0.69746640069E+02  0.10742909288E+03  0.47000000000E+01 0.  1.
          5    1    3    3  503    0  0.54606526239E+02 -0.39035001521E+02  0.88469076500E+02  0.11115067048E+03  0.47000000000E+01 0.  1.
         -5    1    3    3    0  503 -0.19312802344E+01  0.38315918074E+02 -0.16946773624E+02  0.42203347704E+02  0.47000000000E+01 0.  1.
<mgrwt>
<rscale>  0 0.13565152E+03</rscale>
<asrwt>0</asrwt>
<pdfrwt beam="2">  1        5 0.13586888E-01 0.13565403E+03</pdfrwt>
<pdfrwt beam="1">  1       -5 0.32228164E-01 0.13565403E+03</pdfrwt>
<totfact> 0.31492029E+02</totfact>
</mgrwt>
</event>
<event>
 8    1  0.3542708E-007  0.1400024E+03  0.7546771E-02  0.1213326E+00
         -5   -1    0    0    0  501 -0.00000000000E+00  0.00000000000E+00  0.23790380058E+03  0.23795022238E+03  0.47000000000E+01 0. -1.
          5   -1    0    0  501    0  0.00000000000E+00 -0.00000000000E+00 -0.99853056709E+02  0.99963608049E+02  0.47000000000E+01 0. -1.
         25    2    1    2    0    0 -0.69166843288E+01 -0.62679079572E+02  0.13987128204E+03  0.19789963015E+03  0.12499512204E+03 0.  0.
         25    2    1    2    0    0  0.69166843288E+01  0.62679079572E+02 -0.18205381704E+01  0.14001420028E+03  0.12499661749E+03 0.  0.
          5    1    3    3  502    0  0.18286719618E+02 -0.69096278628E+02  0.18908328915E+02  0.74083160954E+02  0.47000000000E+01 0. -1.
         -5    1    3    3    0  502 -0.25203403947E+02  0.64171990553E+01  0.12096295313E+03  0.12381646919E+03  0.47000000000E+01 0. -1.
          5    1    4    4  503    0  0.34713713362E+02  0.37772232272E+01 -0.48354496651E+02  0.59829396262E+02  0.47000000000E+01 0.  1.
         -5    1    4    4    0  503 -0.27797029033E+02  0.58901856345E+02  0.46533958480E+02  0.80184804020E+02  0.47000000000E+01 0.  1.
<mgrwt>
<rscale>  0 0.14000203E+03</rscale>
<asrwt>0</asrwt>
<pdfrwt beam="2">  1        5 0.15374084E-01 0.14000236E+03</pdfrwt>
<pdfrwt beam="1">  1       -5 0.36612660E-01 0.14000236E+03</pdfrwt>
<totfact> 0.19736264E+02</totfact>
</mgrwt>
</event>
<event>
 8    1  0.3542708E-007  0.1321191E+03  0.7546771E-02  0.1224347E+00
         -5   -1    0    0    0  501 -0.00000000000E+00  0.00000000000E+00  0.37650106057E+03  0.37653039533E+03  0.47000000000E+01 0. -1.
          5   -1    0    0  501    0  0.00000000000E+00 -0.00000000000E+00 -0.46229593065E+02  0.46467895099E+02  0.47000000000E+01 0. -1.
         25    2    1    2    0    0 -0.29929504050E+02  0.30541690059E+02  0.16950856672E+03  0.21491533847E+03  0.12500751367E+03 0.  0.
         25    2    1    2    0    0  0.29929504050E+02 -0.30541690059E+02  0.16076290079E+03  0.20808295197E+03  0.12500093834E+03 0.  0.
          5    1    4    4  502    0  0.39173144886E+01 -0.45794948272E+02  0.17002440460E+03  0.17618998496E+03  0.47000000000E+01 0. -1.
         -5    1    4    4    0  502  0.26012189562E+02  0.15253258213E+02 -0.92615038095E+01  0.31892967010E+02  0.47000000000E+01 0. -1.
          5    1    3    3  503    0 -0.38728039220E+02 -0.16333245468E+02  0.38550351136E+01  0.42468661682E+02  0.47000000000E+01 0.  1.
         -5    1    3    3    0  503  0.87985351695E+01  0.46874935527E+02  0.16565353160E+03  0.17244667678E+03  0.47000000000E+01 0.  1.
<mgrwt>
<rscale>  0 0.13211751E+03</rscale>
<asrwt>0</asrwt>
<pdfrwt beam="2">  1        5 0.71328326E-02 0.13211907E+03</pdfrwt>
<pdfrwt beam="1">  1       -5 0.57943827E-01 0.13211907E+03</pdfrwt>
<totfact> 0.28467979E+02</totfact>
</mgrwt>
</event>
<event>
 8    1  0.3542708E-007  0.1278846E+03  0.7546771E-02  0.1230630E+00
         -5   -1    0    0    0  501 -0.00000000000E+00  0.00000000000E+00  0.15184897984E+03  0.15192169916E+03  0.47000000000E+01 0.  1.
          5   -1    0    0  501    0  0.00000000000E+00 -0.00000000000E+00 -0.10792695463E+03  0.10802924389E+03  0.47000000000E+01 0.  1.
         25    2    1    2    0    0 -0.17612338079E+02 -0.20495991764E+02  0.29636503152E+02  0.13127091249E+03  0.12499379991E+03 0.  0.
         25    2    1    2    0    0  0.17612338079E+02  0.20495991764E+02  0.14285522057E+02  0.12868003056E+03  0.12499677594E+03 0.  0.
          5    1    4    4  502    0  0.12221209097E+02  0.21685057926E+02  0.68991847959E+02  0.73495338450E+02  0.47000000000E+01 0.  1.
         -5    1    4    4    0  502  0.53911289828E+01 -0.11890661619E+01 -0.54706325902E+02  0.55184692115E+02  0.47000000000E+01 0.  1.
          5    1    3    3  503    0 -0.46193329562E+02  0.38951930568E+02  0.22944181009E+02  0.64804336531E+02  0.47000000000E+01 0.  1.
         -5    1    3    3    0  503  0.28580991482E+02 -0.59447922333E+02  0.66923221436E+01  0.66466575957E+02  0.47000000000E+01 0.  1.
<mgrwt>
<rscale>  0 0.12788389E+03</rscale>
<asrwt>0</asrwt>
<pdfrwt beam="2">  1        5 0.16617609E-01 0.12788461E+03</pdfrwt>
<pdfrwt beam="1">  1       -5 0.23374844E-01 0.12788461E+03</pdfrwt>
<totfact> 0.39913606E+02</totfact>
</mgrwt>
</event>
<event>
 8    1  0.3542708E-007  0.1368045E+03  0.7546771E-02  0.1217697E+00
         -5   -1    0    0    0  501 -0.00000000000E+00  0.00000000000E+00  0.58040675664E+03  0.58042578609E+03  0.47000000000E+01 0. -1.
          5   -1    0    0  501    0  0.00000000000E+00 -0.00000000000E+00 -0.32564068364E+02  0.32901497662E+02  0.47000000000E+01 0. -1.
         25    2    1    2    0    0 -0.32938308302E+01 -0.55488804047E+02  0.31212584128E+03  0.34078757147E+03  0.12499508542E+03 0.  0.
         25    2    1    2    0    0  0.32938308302E+01  0.55488804047E+02  0.23571684700E+03  0.27253971228E+03  0.12500242443E+03 0.  0.
          5    1    3    3  502    0 -0.14311616363E+01 -0.25032779227E+02 -0.15866292798E+01  0.25559648901E+02  0.47000000000E+01 0.  1.
         -5    1    3    3    0  502 -0.18626691939E+01 -0.30456024820E+02  0.31371247056E+03  0.31522792257E+03  0.47000000000E+01 0.  1.
          5    1    4    4  503    0  0.18941848757E+02 -0.20997711109E+02  0.16379875219E+03  0.16628836016E+03  0.47000000000E+01 0.  1.
         -5    1    4    4    0  503 -0.15648017927E+02  0.76486515156E+02  0.71918094811E+02  0.10625135212E+03  0.47000000000E+01 0.  1.
<mgrwt>
<rscale>  0 0.13680279E+03</rscale>
<asrwt>0</asrwt>
<pdfrwt beam="2">  1        5 0.50372766E-02 0.13680447E+03</pdfrwt>
<pdfrwt beam="1">  1       -5 0.89320766E-01 0.13680447E+03</pdfrwt>
<totfact> 0.19382843E+02</totfact>
</mgrwt>
</event>
<event>
 8    1  0.3542708E-007  0.1484169E+03  0.7546771E-02  0.1202439E+00
         -5   -1    0    0    0  501 -0.00000000000E+00  0.00000000000E+00  0.40559533223E+03  0.40562256289E+03  0.47000000000E+01 0. -1.
          5   -1    0    0  501    0  0.00000000000E+00 -0.00000000000E+00 -0.54530273831E+02  0.54732447087E+02  0.47000000000E+01 0. -1.
         25    2    1    2    0    0  0.70693706950E+02 -0.37469951764E+02  0.19418965776E+03  0.24439788626E+03  0.12497642232E+03 0.  0.
         25    2    1    2    0    0 -0.70693706950E+02  0.37469951764E+02  0.15687540063E+03  0.21595712372E+03  0.12500396183E+03 0.  0.
          5    1    3    3  502    0  0.52929966097E+02  0.25488015453E+02  0.27040008627E+02  0.64841902419E+02  0.47000000000E+01 0. -1.
         -5    1    3    3    0  502  0.17763740852E+02 -0.62957967216E+02  0.16714964914E+03  0.17955598384E+03  0.47000000000E+01 0. -1.
          5    1    4    4  503    0 -0.75166515875E+02 -0.28719559103E+02  0.71589394897E+02  0.10780514666E+03  0.47000000000E+01 0. -1.
         -5    1    4    4    0  503  0.44728089255E+01  0.66189510867E+02  0.85286005736E+02  0.10815197706E+03  0.47000000000E+01 0. -1.
<mgrwt>
<rscale>  0 0.14841114E+03</rscale>
<asrwt>0</asrwt>
<pdfrwt beam="2">  1        5 0.84069192E-02 0.14841694E+03</pdfrwt>
<pdfrwt beam="1">  1       -5 0.62416929E-01 0.14841694E+03</pdfrwt>
<totfact> 0.18986714E+02</totfact>
</mgrwt>
</event>
<event>
 8    1  0.3542708E-007  0.1391865E+03  0.7546771E-02  0.1214436E+00
         -5   -1    0    0    0  501 -0.00000000000E+00  0.00000000000E+00  0.18048723158E+03  0.18054841668E+03  0.47000000000E+01 0. -1.
          5   -1    0    0  501    0  0.00000000000E+00 -0.00000000000E+00 -0.10779602293E+03  0.10789843632E+03  0.47000000000E+01 0. -1.
         25    2    1    2    0    0  0.60261158404E+02  0.10805414074E+02  0.47178951130E+02  0.14694148062E+03  0.12497112111E+03 0.  0.
         25    2    1    2    0    0 -0.60261158404E+02 -0.10805414074E+02  0.25512257523E+02  0.14150537237E+03  0.12499892376E+03 0.  0.
          5    1    3    3  502    0  0.50019804256E+02  0.63092691856E+02  0.47210671938E+02  0.93453764656E+02  0.47000000000E+01 0.  1.
         -5    1    3    3    0  502  0.10241354148E+02 -0.52287277782E+02 -0.31720808611E-01  0.53487715962E+02  0.47000000000E+01 0.  1.
          5    1    4    4  503    0 -0.49224129204E+02 -0.55657097843E+02  0.49344226396E+02  0.89317804019E+02  0.47000000000E+01 0.  1.
         -5    1    4    4    0  503 -0.11037029200E+02  0.44851683769E+02 -0.23831968874E+02  0.52187568355E+02  0.47000000000E+01 0.  1.
<mgrwt>
<rscale>  0 0.13918031E+03</rscale>
<asrwt>0</asrwt>
<pdfrwt beam="2">  1        5 0.16596588E-01 0.13918655E+03</pdfrwt>
<pdfrwt beam="1">  1       -5 0.27779851E-01 0.13918655E+03</pdfrwt>
<totfact> 0.29595970E+02</totfact>
</mgrwt>
</event>
<event>
 8    1  0.3542708E-007  0.1276859E+03  0.7546771E-02  0.1230943E+00
         -5   -1    0    0    0  501 -0.00000000000E+00  0.00000000000E+00  0.13416742471E+03  0.13424972199E+03  0.47000000000E+01 0.  1.
          5   -1    0    0  501    0  0.00000000000E+00 -0.00000000000E+00 -0.16205369959E+03  0.16212184169E+03  0.47000000000E+01 0.  1.
         25    2    1    2    0    0 -0.24293586294E+02 -0.94031317728E+01  0.60314739777E+02  0.14118426449E+03  0.12496612134E+03 0.  0.
         25    2    1    2    0    0  0.24293586294E+02  0.94031317728E+01 -0.88201014660E+02  0.15518729919E+03  0.12500032648E+03 0.  0.
          5    1    4    4  502    0  0.52808149746E+02 -0.31302378612E+02 -0.99476868140E+01  0.62366545995E+02  0.47000000000E+01 0.  1.
         -5    1    4    4    0  502 -0.28514563452E+02  0.40705510384E+02 -0.78253327846E+02  0.92820753194E+02  0.47000000000E+01 0.  1.
          5    1    3    3  503    0  0.27054526888E+02 -0.28957163806E+02  0.74258885061E+02  0.84302649848E+02  0.47000000000E+01 0.  1.
         -5    1    3    3    0  503 -0.51348113182E+02  0.19554032033E+02 -0.13944145284E+02  0.56881614638E+02  0.47000000000E+01 0.  1.
<mgrwt>
<rscale>  0 0.12767749E+03</rscale>
<asrwt>0</asrwt>
<pdfrwt beam="2">  1        5 0.24942911E-01 0.12768586E+03</pdfrwt>
<pdfrwt beam="1">  1       -5 0.20652715E-01 0.12768586E+03</pdfrwt>
<totfact> 0.23587374E+02</totfact>
</mgrwt>
</event>
<event>
 8    1  0.3542708E-007  0.1270660E+03  0.7546771E-02  0.1231884E+00
          5   -1    0    0  501    0  0.00000000000E+00  0.00000000000E+00  0.73146967465E+01  0.86945263525E+01  0.47000000000E+01 0.  1.
         -5   -1    0    0    0  501 -0.00000000000E+00 -0.00000000000E+00 -0.20691868884E+04  0.20691922263E+04  0.47000000000E+01 0.  1.
         25    2    1    2    0    0 -0.30907449222E+01  0.22589885754E+02 -0.11984474616E+04  0.12051622636E+04  0.12497962921E+03 0.  0.
         25    2    1    2    0    0  0.30907449222E+01 -0.22589885754E+02 -0.86342473007E+03  0.87272448902E+03  0.12500365433E+03 0.  0.
          5    1    4    4  502    0  0.51092100301E+02 -0.72045609232E+01 -0.17678182038E+03  0.18421783418E+03  0.47000000000E+01 0.  1.
         -5    1    4    4    0  502 -0.48001355379E+02 -0.15385324831E+02 -0.68664290969E+03  0.68850665485E+03  0.47000000000E+01 0.  1.
          5    1    3    3  503    0  0.51788150152E+02  0.23159834519E+02 -0.32256460062E+03  0.32754908335E+03  0.47000000000E+01 0.  1.
         -5    1    3    3    0  503 -0.54878895074E+02 -0.56994876563E+00 -0.87588286097E+03  0.87761318023E+03  0.47000000000E+01 0.  1.
<mgrwt>
<rscale>  0 0.12706009E+03</rscale>
<asrwt>0</asrwt>
<pdfrwt beam="1">  1        5 0.12318910E-02 0.12706600E+03</pdfrwt>
<pdfrwt beam="2">  1       -5 0.31844257E+00 0.12706600E+03</pdfrwt>
<totfact> 0.37235906E+01</totfact>
</mgrwt>
</event>
<event>
 8    1  0.3542708E-007  0.1461764E+03  0.7546771E-02  0.1205253E+00
          5   -1    0    0  501    0  0.00000000000E+00  0.00000000000E+00  0.73509186975E+03  0.73510689493E+03  0.47000000000E+01 0.  1.
         -5   -1    0    0    0  501 -0.00000000000E+00 -0.00000000000E+00 -0.29495268949E+02  0.29867388409E+02  0.47000000000E+01 0.  1.
         25    2    1    2    0    0 -0.53345150899E+02 -0.53817841487E+02  0.29711447106E+03  0.33112500696E+03  0.12499878455E+03 0.  0.
         25    2    1    2    0    0  0.53345150899E+02  0.53817841487E+02  0.40848212975E+03  0.43384927638E+03  0.12500191640E+03 0.  0.
          5    1    3    3  502    0 -0.85962342913E+02 -0.86456175766E+01  0.21523237969E+03  0.23197271039E+03  0.47000000000E+01 0.  1.
         -5    1    3    3    0  502  0.32617192014E+02 -0.45172223910E+02  0.81882091369E+02  0.99152296569E+02  0.47000000000E+01 0.  1.
          5    1    4    4  503    0  0.10716791543E+02 -0.12342399679E+02 -0.81469346332E+00  0.17027571061E+02  0.47000000000E+01 0. -1.
         -5    1    4    4    0  503  0.42628359356E+02  0.66160241166E+02  0.40929682321E+03  0.41682170532E+03  0.47000000000E+01 0. -1.
<mgrwt>
<rscale>  0 0.14617575E+03</rscale>
<asrwt>0</asrwt>
<pdfrwt beam="1">  1        5 0.11312084E+00 0.14617641E+03</pdfrwt>
<pdfrwt beam="2">  1       -5 0.45675141E-02 0.14617641E+03</pdfrwt>
<totfact> 0.13093744E+02</totfact>
</mgrwt>
</event>
<event>
 8    1  0.3542708E-007  0.1526048E+03  0.7546771E-02  0.1197310E+00
          5   -1    0    0  501    0  0.00000000000E+00  0.00000000000E+00  0.16964473118E+03  0.16970982534E+03  0.47000000000E+01 0. -1.
         -5   -1    0    0    0  501 -0.00000000000E+00 -0.00000000000E+00 -0.14880136815E+03  0.14887557611E+03  0.47000000000E+01 0. -1.
         25    2    1    2    0    0 -0.30018986826E+02  0.82227895038E+02 -0.34150972555E+02  0.15637384278E+03  0.12499569388E+03 0.  0.
         25    2    1    2    0    0  0.30018986826E+02 -0.82227895038E+02  0.54994335584E+02  0.16221155867E+03  0.12500258609E+03 0.  0.
          5    1    3    3  502    0 -0.52879314492E+02 -0.43100336623E+01 -0.39914924413E+02  0.66558917376E+02  0.47000000000E+01 0.  1.
         -5    1    3    3    0  502  0.22860327665E+02  0.86537928700E+02  0.57639518580E+01  0.89814925406E+02  0.47000000000E+01 0.  1.
          5    1    4    4  503    0  0.47134913988E+00 -0.67536864282E+02 -0.27625832149E+02  0.73121315695E+02  0.47000000000E+01 0. -1.
         -5    1    4    4    0  503  0.29547637686E+02 -0.14691030756E+02  0.82620167733E+02  0.89090242978E+02  0.47000000000E+01 0. -1.
<mgrwt>
<rscale>  0 0.15260335E+03</rscale>
<asrwt>0</asrwt>
<pdfrwt beam="1">  1        5 0.26109905E-01 0.15260476E+03</pdfrwt>
<pdfrwt beam="2">  1       -5 0.22903234E-01 0.15260476E+03</pdfrwt>
<totfact> 0.18884573E+02</totfact>
</mgrwt>
</event>
<event>
 8    1  0.3542708E-007  0.1304683E+03  0.7546771E-02  0.1226766E+00
         -5   -1    0    0    0  501 -0.00000000000E+00  0.00000000000E+00  0.28793972006E+02  0.29175037684E+02  0.47000000000E+01 0.  1.
          5   -1    0    0  501    0  0.00000000000E+00 -0.00000000000E+00 -0.60223519915E+03  0.60225353889E+03  0.47000000000E+01 0.  1.
         25    2    1    2    0    0 -0.36000784931E+02 -0.10179221446E+02 -0.23628655180E+03  0.26991352827E+03  0.12498922000E+03 0.  0.
         25    2    1    2    0    0  0.36000784931E+02  0.10179221446E+02 -0.33715467535E+03  0.36151504830E+03  0.12498072641E+03 0.  0.
          5    1    4    4  502    0  0.53365042967E+02  0.47252265686E+01 -0.33842786109E+03  0.34267428082E+03  0.47000000000E+01 0.  1.
         -5    1    4    4    0  502 -0.17364258036E+02  0.54539948773E+01  0.12731857380E+01  0.18840767479E+02  0.47000000000E+01 0.  1.
          5    1    3    3  503    0 -0.43645475037E+02 -0.45691390718E+02 -0.51843448103E+02  0.81868576317E+02  0.47000000000E+01 0.  1.
         -5    1    3    3    0  503  0.76446901068E+01  0.35512169272E+02 -0.18444310370E+03  0.18804495195E+03  0.47000000000E+01 0.  1.
<mgrwt>
<rscale>  0 0.13046627E+03</rscale>
<asrwt>0</asrwt>
<pdfrwt beam="2">  1        5 0.92682283E-01 0.13046830E+03</pdfrwt>
<pdfrwt beam="1">  1       -5 0.44605658E-02 0.13046830E+03</pdfrwt>
<totfact> 0.21365764E+02</totfact>
</mgrwt>
</event>
<event>
 8    1  0.3542708E-007  0.1383754E+03  0.7546771E-02  0.1215532E+00
          5   -1    0    0  501    0  0.00000000000E+00  0.00000000000E+00  0.33321324121E+02  0.33651161067E+02  0.47000000000E+01 0.  1.
         -5   -1    0    0    0  501 -0.00000000000E+00 -0.00000000000E+00 -0.63003531449E+03  0.63005284501E+03  0.47000000000E+01 0.  1.
         25    2    1    2    0    0  0.58804224719E+02 -0.80319652943E+01 -0.39951044939E+03  0.42279587367E+03  0.12500120926E+03 0.  0.
         25    2    1    2    0    0 -0.58804224719E+02  0.80319652943E+01 -0.19720354098E+03  0.24090813240E+03  0.12500016948E+03 0.  0.
          5    1    4    4  502    0 -0.92423899227E+02 -0.26416053697E+01 -0.17759575818E+03  0.20027855240E+03  0.47000000000E+01 0.  1.
         -5    1    4    4    0  502  0.33619674508E+02  0.10673570664E+02 -0.19607782802E+02  0.40629580002E+02  0.47000000000E+01 0.  1.
          5    1    3    3  503    0 -0.26263418259E+02  0.25668867178E+02 -0.19803967591E+03  0.20147074506E+03  0.47000000000E+01 0. -1.
         -5    1    3    3    0  503  0.85067642978E+02 -0.33700832472E+02 -0.20147077348E+03  0.22132512862E+03  0.47000000000E+01 0. -1.
<mgrwt>
<rscale>  0 0.13837517E+03</rscale>
<asrwt>0</asrwt>
<pdfrwt beam="1">  1        5 0.51530786E-02 0.13837540E+03</pdfrwt>
<pdfrwt beam="2">  1       -5 0.96955222E-01 0.13837540E+03</pdfrwt>
<totfact> 0.15399469E+02</totfact>
</mgrwt>
</event>
<event>
 8    1  0.3542708E-007  0.1328467E+03  0.7546771E-02  0.1223317E+00
          5   -1    0    0  501    0  0.00000000000E+00  0.00000000000E+00  0.71638147308E+03  0.71639689068E+03  0.47000000000E+01 0. -1.
         -5   -1    0    0    0  501 -0.00000000000E+00 -0.00000000000E+00 -0.24541393106E+02  0.24987396334E+02  0.47000000000E+01 0. -1.
         25    2    1    2    0    0 -0.40910772002E+02 -0.18710118627E+02  0.31642848215E+03  0.34318394411E+03  0.12499790148E+03 0.  0.
         25    2    1    2    0    0  0.40910772002E+02  0.18710118627E+02  0.37541159783E+03  0.39820034291E+03  0.12492351861E+03 0.  0.
          5    1    3    3  502    0  0.42604511233E+02 -0.37128027591E+01  0.15362031138E+03  0.15953124882E+03  0.47000000000E+01 0.  1.
         -5    1    3    3    0  502 -0.83515283234E+02 -0.14997315868E+02  0.16280817076E+03  0.18365269528E+03  0.47000000000E+01 0.  1.
          5    1    4    4  503    0  0.25333563390E+02 -0.52246701492E+02  0.19919678991E+03  0.20754025721E+03  0.47000000000E+01 0. -1.
         -5    1    4    4    0  503  0.15577208612E+02  0.70956820119E+02  0.17621480792E+03  0.19066008570E+03  0.47000000000E+01 0. -1.
<mgrwt>
<rscale>  0 0.13282916E+03</rscale>
<asrwt>0</asrwt>
<pdfrwt beam="1">  1        5 0.11024804E+00 0.13284666E+03</pdfrwt>
<pdfrwt beam="2">  1       -5 0.38110924E-02 0.13284666E+03</pdfrwt>
<totfact> 0.18231589E+02</totfact>
</mgrwt>
</event>
<event>
 8    1  0.3542708E-007  0.1311608E+03  0.7546771E-02  0.1225747E+00
         -5   -1    0    0    0  501 -0.00000000000E+00  0.00000000000E+00  0.28065821104E+03  0.28069756220E+03  0.47000000000E+01 0.  1.
          5   -1    0    0  501    0  0.00000000000E+00 -0.00000000000E+00 -0.19395964510E+03  0.19401658158E+03  0.47000000000E+01 0.  1.
         25    2    1    2    0    0  0.55392242015E+01  0.39311363810E+02  0.23967295399E+03  0.27321472653E+03  0.12500838208E+03 0.  0.
         25    2    1    2    0    0 -0.55392242015E+01 -0.39311363810E+02 -0.15297438805E+03  0.20149941725E+03  0.12499914169E+03 0.  0.
          5    1    4    4  502    0  0.29258080940E+02 -0.28477786655E+02 -0.15903213338E+03  0.16425689964E+03  0.47000000000E+01 0.  1.
         -5    1    4    4    0  502 -0.34797305142E+02 -0.10833577155E+02  0.60577453312E+01  0.37242517606E+02  0.47000000000E+01 0.  1.
          5    1    3    3  503    0  0.47411714874E+02  0.65161877349E+02  0.13180790534E+03  0.15456181572E+03  0.47000000000E+01 0. -1.
         -5    1    3    3    0  503 -0.41872490672E+02 -0.25850513539E+02  0.10786504864E+03  0.11865291081E+03  0.47000000000E+01 0. -1.
<mgrwt>
<rscale>  0 0.13115862E+03</rscale>
<asrwt>0</asrwt>
<pdfrwt beam="2">  1        5 0.29847352E-01 0.13116082E+03</pdfrwt>
<pdfrwt beam="1">  1       -5 0.43185593E-01 0.13116082E+03</pdfrwt>
<totfact> 0.39556091E+01</totfact>
</mgrwt>
</event>
<event>
 8    1  0.3542708E-007  0.1286899E+03  0.7546771E-02  0.1229420E+00
          5   -1    0    0  501    0  0.00000000000E+00  0.00000000000E+00  0.23030471276E+03  0.23035266597E+03  0.47000000000E+01 0. -1.
         -5   -1    0    0    0  501 -0.00000000000E+00 -0.00000000000E+00 -0.72925261798E+02  0.73076561279E+02  0.47000000000E+01 0. -1.
         25    2    1    2    0    0  0.17097781125E+02  0.25389501971E+02  0.59590618530E+02  0.14180080474E+03  0.12497785995E+03 0.  0.
         25    2    1    2    0    0 -0.17097781125E+02 -0.25389501971E+02  0.97788832436E+02  0.16162842251E+03  0.12499652109E+03 0.  0.
          5    1    4    4  502    0  0.95694041045E+01  0.40558380270E+02  0.16859417558E+01  0.41970085831E+02  0.47000000000E+01 0.  1.
         -5    1    4    4    0  502 -0.26667185230E+02 -0.65947882241E+02  0.96102890680E+02  0.11965833668E+03  0.47000000000E+01 0.  1.
          5    1    3    3  503    0  0.36456531825E+02  0.69777023154E+02  0.27527956692E+02  0.83533167500E+02  0.47000000000E+01 0. -1.
         -5    1    3    3    0  503 -0.19358750700E+02 -0.44387521184E+02  0.32062661838E+02  0.58267637241E+02  0.47000000000E+01 0. -1.
<mgrwt>
<rscale>  0 0.12868537E+03</rscale>
<asrwt>0</asrwt>
<pdfrwt beam="1">  1        5 0.35446821E-01 0.12868990E+03</pdfrwt>
<pdfrwt beam="2">  1       -5 0.11234598E-01 0.12868990E+03</pdfrwt>
<totfact> 0.35829853E+02</totfact>
</mgrwt>
</event>
<event>
 8    1  0.3542708E-007  0.1298309E+03  0.7546771E-02  0.1227708E+00
         -5   -1    0    0    0  501 -0.00000000000E+00  0.00000000000E+00  0.66377832431E+02  0.66544020304E+02  0.47000000000E+01 0. -1.
          5   -1    0    0  501    0  0.00000000000E+00 -0.00000000000E+00 -0.36832415325E+03  0.36835413920E+03  0.47000000000E+01 0. -1.
         25    2    1    2    0    0  0.23858864344E+02  0.25703704677E+02 -0.29558541190E+02  0.13315319499E+03  0.12500456046E+03 0.  0.
         25    2    1    2    0    0 -0.23858864344E+02 -0.25703704677E+02 -0.27238777963E+03  0.30174496452E+03  0.12499998111E+03 0.  0.
          5    1    3    3  502    0 -0.13127356630E+02  0.48736371066E+02  0.30231565006E+02  0.59022020293E+02  0.47000000000E+01 0. -1.
         -5    1    3    3    0  502  0.36986220974E+02 -0.23032666389E+02 -0.59790106197E+02  0.74131174697E+02  0.47000000000E+01 0. -1.
          5    1    4    4  503    0 -0.35711752235E+02  0.35897832724E+02 -0.52729354472E+02  0.73256115547E+02  0.47000000000E+01 0. -1.
         -5    1    4    4    0  503  0.11852887891E+02 -0.61601537401E+02 -0.21965842515E+03  0.22848884897E+03  0.47000000000E+01 0. -1.
<mgrwt>
<rscale>  0 0.12982981E+03</rscale>
<asrwt>0</asrwt>
<pdfrwt beam="2">  1        5 0.56680343E-01 0.12983091E+03</pdfrwt>
<pdfrwt beam="1">  1       -5 0.10227065E-01 0.12983091E+03</pdfrwt>
<totfact> 0.15956278E+02</totfact>
</mgrwt>
</event>
<event>
 8    1  0.3542708E-007  0.1294307E+03  0.7546771E-02  0.1228303E+00
         -5   -1    0    0    0  501 -0.00000000000E+00  0.00000000000E+00  0.12513046141E+03  0.12521869818E+03  0.47000000000E+01 0. -1.
          5   -1    0    0  501    0  0.00000000000E+00 -0.00000000000E+00 -0.13371718780E+03  0.13379976201E+03  0.47000000000E+01 0. -1.
         25    2    1    2    0    0  0.18525311059E+02 -0.28005123561E+02 -0.28591468851E+01  0.12946105276E+03  0.12499806145E+03 0.  0.
         25    2    1    2    0    0 -0.18525311059E+02  0.28005123561E+02 -0.57275795084E+01  0.12955740743E+03  0.12499937022E+03 0.  0.
          5    1    4    4  502    0  0.28903585230E+02  0.21303557374E+02  0.46235643177E+02  0.58728898303E+02  0.47000000000E+01 0.  1.
         -5    1    4    4    0  502 -0.47428896289E+02  0.67015661872E+01 -0.51963222685E+02  0.70828509122E+02  0.47000000000E+01 0.  1.
          5    1    3    3  503    0  0.49786784635E+02  0.19766068830E+02 -0.34627625965E+02  0.63957672576E+02  0.47000000000E+01 0. -1.
         -5    1    3    3    0  503 -0.31261473576E+02 -0.47771192391E+02  0.31768479080E+02  0.65503380185E+02  0.47000000000E+01 0. -1.
<mgrwt>
<rscale>  0 0.12943042E+03</rscale>
<asrwt>0</asrwt>
<pdfrwt beam="2">  1        5 0.20585014E-01 0.12943074E+03</pdfrwt>
<pdfrwt beam="1">  1       -5 0.19263979E-01 0.12943074E+03</pdfrwt>
<totfact> 0.38804877E+02</totfact>
</mgrwt>
</event>
<event>
 8    1  0.3542708E-007  0.1253797E+03  0.7546771E-02  0.1234485E+00
         -5   -1    0    0    0  501 -0.00000000000E+00  0.00000000000E+00  0.18894918792E+03  0.18900763375E+03  0.47000000000E+01 0.  1.
          5   -1    0    0  501    0  0.00000000000E+00 -0.00000000000E+00 -0.83131902365E+02  0.83264657514E+02  0.47000000000E+01 0.  1.
         25    2    1    2    0    0 -0.23569229327E+01 -0.92645103894E+01  0.57287186450E+02  0.13784733468E+03  0.12501471796E+03 0.  0.
         25    2    1    2    0    0  0.23569229327E+01  0.92645103894E+01  0.48530099108E+02  0.13442495659E+03  0.12499404865E+03 0.  0.
          5    1    3    3  502    0 -0.51024883146E+02  0.23625665002E+02  0.11146761820E+01  0.56436187414E+02  0.47000000000E+01 0.  1.
         -5    1    3    3    0  502  0.48667960214E+02 -0.32890175391E+02  0.56172510268E+02  0.81411147262E+02  0.47000000000E+01 0.  1.
          5    1    4    4  503    0 -0.10049115936E+02  0.19623170338E+02  0.88357129007E+02  0.91187311571E+02  0.47000000000E+01 0. -1.
         -5    1    4    4    0  503  0.12406038869E+02 -0.10358659948E+02 -0.39827029899E+02  0.43237645020E+02  0.47000000000E+01 0. -1.
<mgrwt>
<rscale>  0 0.12537453E+03</rscale>
<asrwt>0</asrwt>
<pdfrwt beam="2">  1        5 0.12804231E-01 0.12537969E+03</pdfrwt>
<pdfrwt beam="1">  1       -5 0.29083813E-01 0.12537969E+03</pdfrwt>
<totfact> 0.41637490E+02</totfact>
</mgrwt>
</event>
<event>
 8    1  0.3542708E-007  0.1344442E+03  0.7546771E-02  0.1221009E+00
         -5   -1    0    0    0  501 -0.00000000000E+00  0.00000000000E+00  0.50550941598E+02  0.50768963910E+02  0.47000000000E+01 0.  1.
          5   -1    0    0  501    0  0.00000000000E+00 -0.00000000000E+00 -0.37726294034E+03  0.37729221586E+03  0.47000000000E+01 0.  1.
         25    2    1    2    0    0 -0.33547982413E+02  0.36384007393E+02 -0.11321813198E+03  0.17576574892E+03  0.12500395980E+03 0.  0.
         25    2    1    2    0    0  0.33547982413E+02 -0.36384007393E+02 -0.21349386676E+03  0.25229543086E+03  0.12499636063E+03 0.  0.
          5    1    3    3  502    0  0.34083111339E+02  0.53049555131E+02 -0.66509199565E+02  0.91768607949E+02  0.47000000000E+01 0. -1.
         -5    1    3    3    0  502 -0.67631093751E+02 -0.16665547739E+02 -0.46708932418E+02  0.83997140970E+02  0.47000000000E+01 0. -1.
          5    1    4    4  503    0  0.76488509226E+02 -0.35986983947E+02 -0.10098722194E+03  0.13178036292E+03  0.47000000000E+01 0. -1.
         -5    1    4    4    0  503 -0.42940526814E+02 -0.39702344564E+00 -0.11250664482E+03  0.12051506793E+03  0.47000000000E+01 0. -1.
<mgrwt>
<rscale>  0 0.13444247E+03</rscale>
<asrwt>0</asrwt>
<pdfrwt beam="2">  1        5 0.58059474E-01 0.13444424E+03</pdfrwt>
<pdfrwt beam="1">  1       -5 0.77960911E-02 0.13444424E+03</pdfrwt>
<totfact> 0.24504647E+02</totfact>
</mgrwt>
</event>
<event>
 8    1  0.3542708E-007  0.1363833E+03  0.7546771E-02  0.1218280E+00
         -5   -1    0    0    0  501 -0.00000000000E+00  0.00000000000E+00  0.14184196150E+03  0.14191980849E+03  0.47000000000E+01 0. -1.
          5   -1    0    0  501    0  0.00000000000E+00 -0.00000000000E+00 -0.16211196938E+03  0.16218008699E+03  0.47000000000E+01 0. -1.
         25    2    1    2    0    0  0.44862129199E+00 -0.54542060789E+02  0.56467143798E+02  0.14761081897E+03  0.12500151156E+03 0.  0.
         25    2    1    2    0    0 -0.44862129199E+00  0.54542060789E+02 -0.76737151682E+02  0.15648907650E+03  0.12500081184E+03 0.  0.
          5    1    3    3  502    0 -0.44572414359E+02 -0.52668108873E+02  0.71889000418E+02  0.99753437010E+02  0.47000000000E+01 0. -1.
         -5    1    3    3    0  502  0.45021035651E+02 -0.18739519154E+01 -0.15421856620E+02  0.47857381964E+02  0.47000000000E+01 0. -1.
          5    1    4    4  503    0 -0.35355998549E+02  0.74468136909E+02 -0.81162312874E+02  0.11577979564E+03  0.47000000000E+01 0. -1.
         -5    1    4    4    0  503  0.34907377257E+02 -0.19926076120E+02  0.44251611920E+01  0.40709280859E+02  0.47000000000E+01 0. -1.
<mgrwt>
<rscale>  0 0.13638318E+03</rscale>
<asrwt>0</asrwt>
<pdfrwt beam="2">  1        5 0.24951531E-01 0.13638334E+03</pdfrwt>
<pdfrwt beam="1">  1       -5 0.21833068E-01 0.13638334E+03</pdfrwt>
<totfact> 0.21731871E+02</totfact>
</mgrwt>
</event>
<event>
 8    1  0.3542708E-007  0.1483339E+03  0.7546771E-02  0.1202538E+00
         -5   -1    0    0    0  501 -0.00000000000E+00  0.00000000000E+00  0.10492930701E+02  0.11497460358E+02  0.47000000000E+01 0.  1.
          5   -1    0    0  501    0  0.00000000000E+00 -0.00000000000E+00 -0.22664168364E+04  0.22664217098E+04  0.47000000000E+01 0.  1.
         25    2    1    2    0    0  0.28296738101E+02  0.74667753619E+02 -0.73754975014E+03  0.75231665935E+03  0.12499897275E+03 0.  0.
         25    2    1    2    0    0 -0.28296738101E+02 -0.74667753619E+02 -0.15183741556E+04  0.15256025108E+04  0.12500786242E+03 0.  0.
          5    1    3    3  502    0  0.93882043054E+01  0.17276847797E+02 -0.10566940512E+02  0.22811796985E+02  0.47000000000E+01 0.  1.
         -5    1    3    3    0  502  0.18908533796E+02  0.57390905822E+02 -0.72698280963E+03  0.72950486237E+03  0.47000000000E+01 0.  1.
          5    1    4    4  503    0 -0.26087086020E+02  0.13990160575E+02 -0.93745424525E+03  0.93793326660E+03  0.47000000000E+01 0.  1.
         -5    1    4    4    0  503 -0.22096520807E+01 -0.88657914194E+02 -0.58091991034E+03  0.58766924417E+03  0.47000000000E+01 0.  1.
<mgrwt>
<rscale>  0 0.14833202E+03</rscale>
<asrwt>0</asrwt>
<pdfrwt beam="2">  1        5 0.34875679E+00 0.14833390E+03</pdfrwt>
<pdfrwt beam="1">  1       -5 0.16919452E-02 0.14833390E+03</pdfrwt>
<totfact> 0.14947807E+01</totfact>
</mgrwt>
</event>
<event>
 8    1  0.3542708E-007  0.1332420E+03  0.7546771E-02  0.1222724E+00
         -5   -1    0    0    0  501 -0.00000000000E+00  0.00000000000E+00  0.48690715520E+03  0.48692983867E+03  0.47000000000E+01 0. -1.
          5   -1    0    0  501    0  0.00000000000E+00 -0.00000000000E+00 -0.37132811821E+02  0.37429075780E+02  0.47000000000E+01 0. -1.
         25    2    1    2    0    0 -0.34823373397E+02  0.30259405041E+02  0.18546478213E+03  0.22836400688E+03  0.12499854119E+03 0.  0.
         25    2    1    2    0    0  0.34823373397E+02 -0.30259405041E+02  0.26430956125E+03  0.29599490757E+03  0.12500056884E+03 0.  0.
          5    1    3    3  502    0 -0.11577685676E+02  0.76953369972E+02  0.13343465854E+03  0.15454048678E+03  0.47000000000E+01 0.  1.
         -5    1    3    3    0  502 -0.23245687721E+02 -0.46693964931E+02  0.52030123587E+02  0.73823520094E+02  0.47000000000E+01 0.  1.
          5    1    4    4  503    0  0.68462699062E+02 -0.34874764133E+02  0.24466049680E+03  0.25648438360E+03  0.47000000000E+01 0. -1.
         -5    1    4    4    0  503 -0.33639325665E+02  0.46153590918E+01  0.19649064455E+02  0.39510523974E+02  0.47000000000E+01 0. -1.
<mgrwt>
<rscale>  0 0.13324156E+03</rscale>
<asrwt>0</asrwt>
<pdfrwt beam="2">  1        5 0.57372750E-02 0.13324204E+03</pdfrwt>
<pdfrwt beam="1">  1       -5 0.74933323E-01 0.13324204E+03</pdfrwt>
<totfact> 0.23257984E+02</totfact>
</mgrwt>
</event>
<event>
 8    1  0.3542708E-007  0.1341100E+03  0.7546771E-02  0.1221493E+00
         -5   -1    0    0    0  501 -0.00000000000E+00  0.00000000000E+00  0.47598066160E+02  0.47829550512E+02  0.47000000000E+01 0.  1.
          5   -1    0    0  501    0  0.00000000000E+00 -0.00000000000E+00 -0.41486976143E+03  0.41489638339E+03  0.47000000000E+01 0.  1.
         25    2    1    2    0    0  0.39153540698E+01  0.48335644587E+02 -0.11341735145E+03  0.17563879558E+03  0.12503530049E+03 0.  0.
         25    2    1    2    0    0 -0.39153540698E+01 -0.48335644587E+02 -0.25385434381E+03  0.28708713831E+03  0.12500133030E+03 0.  0.
          5    1    4    4  502    0 -0.47135957494E+02  0.19849859068E+02 -0.12256986772E+03  0.13289574059E+03  0.47000000000E+01 0. -1.
         -5    1    4    4    0  502  0.43220603424E+02 -0.68185503654E+02 -0.13128447609E+03  0.15419139772E+03  0.47000000000E+01 0. -1.
          5    1    3    3  503    0 -0.18222134888E+02 -0.32532267396E+02 -0.73733519323E+02  0.82759389157E+02  0.47000000000E+01 0. -1.
         -5    1    3    3    0  503  0.22137488958E+02  0.80867911982E+02 -0.39683832132E+02  0.92879406428E+02  0.47000000000E+01 0. -1.
<mgrwt>
<rscale>  0 0.13410208E+03</rscale>
<asrwt>0</asrwt>
<pdfrwt beam="2">  1        5 0.63845969E-01 0.13411000E+03</pdfrwt>
<pdfrwt beam="1">  1       -5 0.73426340E-02 0.13411000E+03</pdfrwt>
<totfact> 0.22019625E+02</totfact>
</mgrwt>
</event>
<event>
 8    1  0.3542708E-007  0.1337619E+03  0.7546771E-02  0.1221978E+00
          5   -1    0    0  501    0  0.00000000000E+00  0.00000000000E+00  0.62273364755E+02  0.62450476042E+02  0.47000000000E+01 0.  1.
         -5   -1    0    0    0  501 -0.00000000000E+00 -0.00000000000E+00 -0.30073177836E+03  0.30076850319E+03  0.47000000000E+01 0.  1.
         25    2    1    2    0    0  0.47152198826E+02  0.65921513753E+01 -0.15842710535E+03  0.20734368621E+03  0.12500188073E+03 0.  0.
         25    2    1    2    0    0 -0.47152198826E+02 -0.65921513753E+01 -0.80031308253E+02  0.15587529303E+03  0.12500124144E+03 0.  0.
          5    1    3    3  502    0  0.66304575967E+02 -0.14520960260E+02 -0.27698128388E+02  0.73460407004E+02  0.47000000000E+01 0. -1.
         -5    1    3    3    0  502 -0.19152377141E+02  0.21113111635E+02 -0.13072897696E+03  0.13388327920E+03  0.47000000000E+01 0. -1.
          5    1    4    4  503    0 -0.17456473922E+02 -0.14592090160E+02  0.32033883097E+02  0.39571672232E+02  0.47000000000E+01 0. -1.
         -5    1    4    4    0  503 -0.29695724904E+02  0.79999387844E+01 -0.11206519135E+03  0.11630362080E+03  0.47000000000E+01 0. -1.
<mgrwt>
<rscale>  0 0.13376179E+03</rscale>
<asrwt>0</asrwt>
<pdfrwt beam="1">  1        5 0.95969667E-02 0.13376194E+03</pdfrwt>
<pdfrwt beam="2">  1       -5 0.46282876E-01 0.13376194E+03</pdfrwt>
<totfact> 0.27717996E+02</totfact>
</mgrwt>
</event>
<event>
 8    1  0.3542708E-007  0.1253368E+03  0.7546771E-02  0.1234545E+00
         -5   -1    0    0    0  501 -0.00000000000E+00  0.00000000000E+00  0.67506076591E+02  0.67669493693E+02  0.47000000000E+01 0.  1.
          5   -1    0    0  501    0  0.00000000000E+00 -0.00000000000E+00 -0.23327092311E+03  0.23331826668E+03  0.47000000000E+01 0.  1.
         25    2    1    2    0    0  0.64421748902E+01  0.64825102053E+01 -0.92911509960E+02  0.15601879198E+03  0.12500316081E+03 0.  0.
         25    2    1    2    0    0 -0.64421748902E+01 -0.64825102053E+01 -0.72853336557E+02  0.14496896839E+03  0.12499947437E+03 0.  0.
          5    1    3    3  502    0 -0.10990538286E+02 -0.59945616233E+01  0.29112536265E+02  0.32036798664E+02  0.47000000000E+01 0. -1.
         -5    1    3    3    0  502  0.17432713176E+02  0.12477071829E+02 -0.12202404622E+03  0.12398199332E+03  0.47000000000E+01 0. -1.
          5    1    4    4  503    0  0.23225983682E+02  0.46674446191E+02 -0.64926533542E+02  0.83399610329E+02  0.47000000000E+01 0. -1.
         -5    1    4    4    0  503 -0.29668158572E+02 -0.53156956397E+02 -0.79268030156E+01  0.61569358064E+02  0.47000000000E+01 0. -1.
<mgrwt>
<rscale>  0 0.12533589E+03</rscale>
<asrwt>0</asrwt>
<pdfrwt beam="2">  1        5 0.35904046E-01 0.12533681E+03</pdfrwt>
<pdfrwt beam="1">  1       -5 0.10401763E-01 0.12533681E+03</pdfrwt>
<totfact> 0.39582456E+02</totfact>
</mgrwt>
</event>
<event>
 8    1  0.3542708E-007  0.1421250E+03  0.7546771E-02  0.1210500E+00
         -5   -1    0    0    0  501 -0.00000000000E+00  0.00000000000E+00  0.12711980769E+03  0.12720666455E+03  0.47000000000E+01 0.  1.
          5   -1    0    0  501    0  0.00000000000E+00 -0.00000000000E+00 -0.18371252781E+03  0.18377263908E+03  0.47000000000E+01 0.  1.
         25    2    1    2    0    0  0.16501964395E+02 -0.65582751037E+02  0.29034242994E+02  0.14505313239E+03  0.12499604748E+03 0.  0.
         25    2    1    2    0    0 -0.16501964395E+02  0.65582751037E+02 -0.85626963119E+02  0.16592617125E+03  0.12500442165E+03 0.  0.
          5    1    3    3  502    0  0.38101357368E+02 -0.68026877193E+02  0.65767707521E+02  0.10211195232E+03  0.47000000000E+01 0.  1.
         -5    1    3    3    0  502 -0.21599392972E+02  0.24441261558E+01 -0.36733464526E+02  0.42941180067E+02  0.47000000000E+01 0.  1.
          5    1    4    4  503    0 -0.20099835215E+02  0.58391437129E+02  0.15925537628E+02  0.63947447599E+02  0.47000000000E+01 0.  1.
         -5    1    4    4    0  503  0.35978708196E+01  0.71913139078E+01 -0.10155250075E+03  0.10197872365E+03  0.47000000000E+01 0.  1.
<mgrwt>
<rscale>  0 0.14212317E+03</rscale>
<asrwt>0</asrwt>
<pdfrwt beam="2">  1        5 0.28274771E-01 0.14212501E+03</pdfrwt>
<pdfrwt beam="1">  1       -5 0.19568199E-01 0.14212501E+03</pdfrwt>
<totfact> 0.21250030E+02</totfact>
</mgrwt>
</event>
<event>
 8    1  0.3542708E-007  0.1504965E+03  0.7546771E-02  0.1199865E+00
          5   -1    0    0  501    0  0.00000000000E+00  0.00000000000E+00  0.31915501778E+03  0.31918962291E+03  0.47000000000E+01 0. -1.
         -5   -1    0    0    0  501 -0.00000000000E+00 -0.00000000000E+00 -0.70863256228E+02  0.71018948762E+02  0.47000000000E+01 0. -1.
         25    2    1    2    0    0  0.28763502848E+02 -0.78722486723E+02  0.12132686176E+03  0.19331168103E+03  0.12499851850E+03 0.  0.
         25    2    1    2    0    0 -0.28763502848E+02  0.78722486723E+02  0.12696489979E+03  0.19689689064E+03  0.12499492291E+03 0.  0.
          5    1    4    4  502    0  0.48973449531E+02  0.24666434365E+02  0.55645093139E+02  0.78264283896E+02  0.47000000000E+01 0. -1.
         -5    1    4    4    0  502 -0.77736952379E+02  0.54056052358E+02  0.71319806656E+02  0.11863260674E+03  0.47000000000E+01 0. -1.
          5    1    3    3  503    0 -0.32261556858E+02  0.13798288612E+02  0.50582349029E+02  0.61740301690E+02  0.47000000000E+01 0. -1.
         -5    1    3    3    0  503  0.61025059706E+02 -0.92520775335E+02  0.70744512726E+02  0.13157137934E+03  0.47000000000E+01 0. -1.
<mgrwt>
<rscale>  0 0.15049576E+03</rscale>
<asrwt>0</asrwt>
<pdfrwt beam="1">  1        5 0.49115411E-01 0.15049651E+03</pdfrwt>
<pdfrwt beam="2">  1       -5 0.10916678E-01 0.15049651E+03</pdfrwt>
<totfact> 0.20312248E+02</totfact>
</mgrwt>
</event>
<event>
 8    1  0.3542708E-007  0.1280269E+03  0.7546771E-02  0.1230420E+00
          5   -1    0    0  501    0  0.00000000000E+00  0.00000000000E+00  0.34077524333E+02  0.34400111404E+02  0.47000000000E+01 0.  1.
         -5   -1    0    0    0  501 -0.00000000000E+00 -0.00000000000E+00 -0.58037805155E+03  0.58039708194E+03  0.47000000000E+01 0.  1.
         25    2    1    2    0    0 -0.27259518655E+02 -0.42495158737E+01 -0.40200124602E+03  0.42189003887E+03  0.12500025340E+03 0.  0.
         25    2    1    2    0    0  0.27259518655E+02  0.42495158737E+01 -0.14429928120E+03  0.19290715448E+03  0.12501899036E+03 0.  0.
          5    1    4    4  502    0 -0.16586866849E+02 -0.39212726593E+02 -0.11818748981E+03  0.12571051995E+03  0.47000000000E+01 0.  1.
         -5    1    4    4    0  502  0.43846385504E+02  0.43462242467E+02 -0.26111791387E+02  0.67196634525E+02  0.47000000000E+01 0.  1.
          5    1    3    3  503    0 -0.26689306172E+02 -0.32822252735E+02 -0.38688660531E+03  0.38922095872E+03  0.47000000000E+01 0. -1.
         -5    1    3    3    0  503 -0.57021248310E+00  0.28572736861E+02 -0.15114640717E+02  0.32669080153E+02  0.47000000000E+01 0. -1.
<mgrwt>
<rscale>  0 0.12802233E+03</rscale>
<asrwt>0</asrwt>
<pdfrwt beam="1">  1        5 0.52689748E-02 0.12802690E+03</pdfrwt>
<pdfrwt beam="2">  1       -5 0.89315202E-01 0.12802690E+03</pdfrwt>
<totfact> 0.17586695E+02</totfact>
</mgrwt>
</event>
<event>
 8    1  0.3542708E-007  0.1251269E+03  0.7546771E-02  0.1234878E+00
          5   -1    0    0  501    0  0.00000000000E+00  0.00000000000E+00  0.53223867045E+02  0.53430983738E+02  0.47000000000E+01 0. -1.
         -5   -1    0    0    0  501 -0.00000000000E+00 -0.00000000000E+00 -0.29427489643E+03  0.29431242697E+03  0.47000000000E+01 0. -1.
         25    2    1    2    0    0 -0.41637230188E+00 -0.55929572233E+01 -0.13036626925E+03  0.18068692597E+03  0.12498378503E+03 0.  0.
         25    2    1    2    0    0  0.41637230188E+00  0.55929572233E+01 -0.11068476013E+03  0.16705648474E+03  0.12500119373E+03 0.  0.
          5    1    3    3  502    0  0.13933355471E+02  0.53408554321E+02 -0.95786819383E+02  0.11065178190E+03  0.47000000000E+01 0.  1.
         -5    1    3    3    0  502 -0.14349727773E+02 -0.59001511544E+02 -0.34579449870E+02  0.70035144070E+02  0.47000000000E+01 0.  1.
          5    1    4    4  503    0  0.14932514833E+02  0.15010790297E+02  0.23326200140E+02  0.31851301976E+02  0.47000000000E+01 0. -1.
         -5    1    4    4    0  503 -0.14516142531E+02 -0.94178330739E+01 -0.13401096027E+03  0.13520518277E+03  0.47000000000E+01 0. -1.
<mgrwt>
<rscale>  0 0.12512260E+03</rscale>
<asrwt>0</asrwt>
<pdfrwt beam="1">  1        5 0.82071064E-02 0.12512695E+03</pdfrwt>
<pdfrwt beam="2">  1       -5 0.45291879E-01 0.12512695E+03</pdfrwt>
<totfact> 0.37082881E+02</totfact>
</mgrwt>
</event>
<event>
 8    1  0.3542708E-007  0.1740604E+03  0.7546771E-02  0.1173690E+00
         -5   -1    0    0    0  501 -0.00000000000E+00  0.00000000000E+00  0.62988979829E+02  0.63164084573E+02  0.47000000000E+01 0.  1.
          5   -1    0    0  501    0  0.00000000000E+00 -0.00000000000E+00 -0.55057287314E+03  0.55059293369E+03  0.47000000000E+01 0.  1.
         25    2    1    2    0    0 -0.88876283534E+02 -0.82203223346E+02 -0.13397765590E+03  0.21965203821E+03  0.12506255198E+03 0.  0.
         25    2    1    2    0    0  0.88876283534E+02  0.82203223346E+02 -0.35360623741E+03  0.39410498006E+03  0.12500000187E+03 0.  0.
          5    1    4    4  502    0 -0.16214775826E+02  0.63387239405E+02 -0.10973014817E+03  0.12784231104E+03  0.47000000000E+01 0.  1.
         -5    1    4    4    0  502  0.10509105936E+03  0.18815983941E+02 -0.24387608924E+03  0.26626266902E+03  0.47000000000E+01 0.  1.
          5    1    3    3  503    0 -0.96040654522E+02 -0.10845677153E+03 -0.12238156102E+03  0.18969980256E+03  0.47000000000E+01 0. -1.
         -5    1    3    3    0  503  0.71643709880E+01  0.26253548189E+02 -0.11596094875E+02  0.29952235651E+02  0.47000000000E+01 0. -1.
<mgrwt>
<rscale>  0 0.17404912E+03</rscale>
<asrwt>0</asrwt>
<pdfrwt beam="2">  1        5 0.84718529E-01 0.17406035E+03</pdfrwt>
<pdfrwt beam="1">  1       -5 0.97056253E-02 0.17406035E+03</pdfrwt>
<totfact> 0.77464672E+01</totfact>
</mgrwt>
</event>
<event>
 8    1  0.3542708E-007  0.1693571E+03  0.7546771E-02  0.1178521E+00
         -5   -1    0    0    0  501 -0.00000000000E+00  0.00000000000E+00  0.38454773503E+03  0.38457645601E+03  0.47000000000E+01 0.  1.
          5   -1    0    0  501    0  0.00000000000E+00 -0.00000000000E+00 -0.10481041152E+03  0.10491573935E+03  0.47000000000E+01 0.  1.
         25    2    1    2    0    0  0.11403572181E+03  0.72848418952E+01  0.27143370407E+03  0.31993163912E+03  0.12499113261E+03 0.  0.
         25    2    1    2    0    0 -0.11403572181E+03 -0.72848418952E+01  0.83036194430E+01  0.16956055624E+03  0.12499846945E+03 0.  0.
          5    1    3    3  502    0  0.95983311508E+02  0.50106584738E+02  0.12112358287E+03  0.16253146849E+03  0.47000000000E+01 0. -1.
         -5    1    3    3    0  502  0.18052410304E+02 -0.42821742843E+02  0.15031012120E+03  0.15740017063E+03  0.47000000000E+01 0. -1.
          5    1    4    4  503    0 -0.17442892750E+02  0.18216770913E+00  0.57877310436E+02  0.60631351262E+02  0.47000000000E+01 0.  1.
         -5    1    4    4    0  503 -0.96592829062E+02 -0.74670096043E+01 -0.49573690992E+02  0.10892920498E+03  0.47000000000E+01 0.  1.
<mgrwt>
<rscale>  0 0.16935576E+03</rscale>
<asrwt>0</asrwt>
<pdfrwt beam="2">  1        5 0.16134990E-01 0.16935711E+03</pdfrwt>
<pdfrwt beam="1">  1       -5 0.59171502E-01 0.16935711E+03</pdfrwt>
<totfact> 0.69966294E+01</totfact>
</mgrwt>
</event>
<event>
 8    1  0.3542708E-007  0.1270986E+03  0.7546771E-02  0.1231827E+00
         -5   -1    0    0    0  501 -0.00000000000E+00  0.00000000000E+00  0.35130329639E+03  0.35133473505E+03  0.47000000000E+01 0. -1.
          5   -1    0    0  501    0  0.00000000000E+00 -0.00000000000E+00 -0.45975725785E+02  0.46215336864E+02  0.47000000000E+01 0. -1.
         25    2    1    2    0    0 -0.22441416167E+02  0.49780037381E+01  0.14143124105E+03  0.19014951806E+03  0.12500258234E+03 0.  0.
         25    2    1    2    0    0  0.22441416167E+02 -0.49780037381E+01  0.16389632956E+03  0.20740055386E+03  0.12499834086E+03 0.  0.
          5    1    3    3  502    0 -0.92451528336E+01  0.48207242361E+02  0.89819503166E+01  0.50121617078E+02  0.47000000000E+01 0. -1.
         -5    1    3    3    0  502 -0.13196263333E+02 -0.43229238623E+02  0.13244929073E+03  0.14002790098E+03  0.47000000000E+01 0. -1.
          5    1    4    4  503    0  0.72046264683E+02 -0.59293204422E+01  0.68147200950E+02  0.99458293233E+02  0.47000000000E+01 0.  1.
         -5    1    4    4    0  503 -0.49604848516E+02  0.95131670415E+00  0.95749128609E+02  0.10794226063E+03  0.47000000000E+01 0.  1.
<mgrwt>
<rscale>  0 0.12709751E+03</rscale>
<asrwt>0</asrwt>
<pdfrwt beam="2">  1        5 0.70940387E-02 0.12709856E+03</pdfrwt>
<pdfrwt beam="1">  1       -5 0.54067510E-01 0.12709856E+03</pdfrwt>
<totfact> 0.32898405E+02</totfact>
</mgrwt>
</event>
<event>
 8    1  0.3542708E-007  0.1294500E+03  0.7546771E-02  0.1228275E+00
          5   -1    0    0  501    0  0.00000000000E+00  0.00000000000E+00  0.48049627878E+02  0.48278947164E+02  0.47000000000E+01 0. -1.
         -5   -1    0    0    0  501 -0.00000000000E+00 -0.00000000000E+00 -0.58485531635E+03  0.58487420106E+03  0.47000000000E+01 0. -1.
         25    2    1    2    0    0 -0.21086853260E+02 -0.26206903731E+02 -0.46996470991E+03  0.48746705418E+03  0.12500337261E+03 0.  0.
         25    2    1    2    0    0  0.21086853260E+02  0.26206903731E+02 -0.66840978564E+02  0.14568609405E+03  0.12500105759E+03 0.  0.
          5    1    3    3  502    0 -0.10356308200E+02  0.46544607837E+02 -0.27292976518E+03  0.27710359139E+03  0.47000000000E+01 0. -1.
         -5    1    3    3    0  502 -0.10730545060E+02 -0.72751511568E+02 -0.19703494473E+03  0.21036346279E+03  0.47000000000E+01 0. -1.
          5    1    4    4  503    0  0.66281340279E+02 -0.15358459956E+01 -0.89969189550E+01  0.67071673922E+02  0.47000000000E+01 0. -1.
         -5    1    4    4    0  503 -0.45194487019E+02  0.27742749727E+02 -0.57844059609E+02  0.78614420123E+02  0.47000000000E+01 0. -1.
<mgrwt>
<rscale>  0 0.12944943E+03</rscale>
<asrwt>0</asrwt>
<pdfrwt beam="1">  1        5 0.74113435E-02 0.12944999E+03</pdfrwt>
<pdfrwt beam="2">  1       -5 0.89996829E-01 0.12944999E+03</pdfrwt>
<totfact> 0.97638543E+01</totfact>
</mgrwt>
</event>
<event>
 8    1  0.3542708E-007  0.1398096E+03  0.7546771E-02  0.1213592E+00
         -5   -1    0    0    0  501 -0.00000000000E+00  0.00000000000E+00  0.27796267138E+03  0.27800240409E+03  0.47000000000E+01 0. -1.
          5   -1    0    0  501    0  0.00000000000E+00 -0.00000000000E+00 -0.72090543515E+02  0.72243591164E+02  0.47000000000E+01 0. -1.
         25    2    1    2    0    0  0.27604893628E+02  0.56209647002E+02  0.13135823262E+03  0.19183772757E+03  0.12500069549E+03 0.  0.
         25    2    1    2    0    0 -0.27604893628E+02 -0.56209647002E+02  0.74513895244E+02  0.15840826769E+03  0.12497721440E+03 0.  0.
          5    1    3    3  502    0 -0.38248358326E+02  0.38168875504E+02  0.10559029242E+03  0.11870635967E+03  0.47000000000E+01 0.  1.
         -5    1    3    3    0  502  0.65853251954E+02  0.18040771498E+02  0.25767940202E+02  0.73131367904E+02  0.47000000000E+01 0.  1.
          5    1    4    4  503    0  0.33547853979E+02  0.21540228032E+02  0.28365319166E+02  0.49154056411E+02  0.47000000000E+01 0.  1.
         -5    1    4    4    0  503 -0.61152747607E+02 -0.77749875034E+02  0.46148576077E+02  0.10925421128E+03  0.47000000000E+01 0.  1.
<mgrwt>
<rscale>  0 0.13980437E+03</rscale>
<asrwt>0</asrwt>
<pdfrwt beam="2">  1        5 0.11105682E-01 0.13980961E+03</pdfrwt>
<pdfrwt beam="1">  1       -5 0.42778317E-01 0.13980961E+03</pdfrwt>
<totfact> 0.25671799E+02</totfact>
</mgrwt>
</event>
<event>
 8    1  0.3542708E-007  0.1424187E+03  0.7546771E-02  0.1210123E+00
         -5   -1    0    0    0  501 -0.00000000000E+00  0.00000000000E+00  0.30144816096E+03  0.30148479853E+03  0.47000000000E+01 0.  1.
          5   -1    0    0  501    0  0.00000000000E+00 -0.00000000000E+00 -0.67148507492E+02  0.67312792680E+02  0.47000000000E+01 0.  1.
         25    2    1    2    0    0 -0.12653442239E+02  0.67062290629E+02  0.11589283805E+03  0.18358622455E+03  0.12496116000E+03 0.  0.
         25    2    1    2    0    0  0.12653442239E+02 -0.67062290629E+02  0.11840681542E+03  0.18521136666E+03  0.12500246389E+03 0.  0.
          5    1    3    3  502    0  0.37889946570E+02  0.13020414725E+02 -0.61312649522E+01  0.40802716338E+02  0.47000000000E+01 0.  1.
         -5    1    3    3    0  502 -0.50543388809E+02  0.54041875904E+02  0.12202410300E+03  0.14278350821E+03  0.47000000000E+01 0.  1.
          5    1    4    4  503    0 -0.21099019746E+02 -0.83455158281E+02  0.33910389798E+02  0.92638742512E+02  0.47000000000E+01 0.  1.
         -5    1    4    4    0  503  0.33752461984E+02  0.16392867651E+02  0.84496425618E+02  0.92572624150E+02  0.47000000000E+01 0.  1.
<mgrwt>
<rscale>  0 0.14240960E+03</rscale>
<asrwt>0</asrwt>
<pdfrwt beam="2">  1        5 0.10345995E-01 0.14241867E+03</pdfrwt>
<pdfrwt beam="1">  1       -5 0.46392097E-01 0.14241867E+03</pdfrwt>
<totfact> 0.24711963E+02</totfact>
</mgrwt>
</event>
<event>
 8    1  0.3542708E-007  0.1377122E+03  0.7546771E-02  0.1216443E+00
          5   -1    0    0  501    0  0.00000000000E+00  0.00000000000E+00  0.42666430607E+03  0.42669019215E+03  0.47000000000E+01 0.  1.
         -5   -1    0    0    0  501 -0.00000000000E+00 -0.00000000000E+00 -0.53448364230E+02  0.53654614329E+02  0.47000000000E+01 0.  1.
         25    2    1    2    0    0  0.40406359833E+02  0.41312612323E+02  0.87450419016E+02  0.16312786737E+03  0.12499487779E+03 0.  0.
         25    2    1    2    0    0 -0.40406359833E+02 -0.41312612323E+02  0.28576552283E+03  0.31721693911E+03  0.12500098628E+03 0.  0.
          5    1    4    4  502    0  0.17111715795E+02 -0.69128236888E+02  0.17903415505E+03  0.19273516189E+03  0.47000000000E+01 0.  1.
         -5    1    4    4    0  502 -0.57518075629E+02  0.27815624566E+02  0.10673136777E+03  0.12448177722E+03  0.47000000000E+01 0.  1.
          5    1    3    3  503    0 -0.37125893026E+02  0.29592938239E+02  0.66472078146E+02  0.81821153131E+02  0.47000000000E+01 0.  1.
         -5    1    3    3    0  503  0.77532252859E+02  0.11719674083E+02  0.20978340870E+02  0.81306714235E+02  0.47000000000E+01 0.  1.
<mgrwt>
<rscale>  0 0.13771082E+03</rscale>
<asrwt>0</asrwt>
<pdfrwt beam="1">  1        5 0.65658521E-01 0.13771221E+03</pdfrwt>
<pdfrwt beam="2">  1       -5 0.82406816E-02 0.13771221E+03</pdfrwt>
<totfact> 0.17137467E+02</totfact>
</mgrwt>
</event>
<event>
 8    1  0.3542708E-007  0.1250745E+03  0.7546771E-02  0.1234953E+00
         -5   -1    0    0    0  501 -0.00000000000E+00  0.00000000000E+00  0.17505848758E+03  0.17512156942E+03  0.47000000000E+01 0. -1.
          5   -1    0    0  501    0  0.00000000000E+00 -0.00000000000E+00 -0.10060271907E+03  0.10071244752E+03  0.47000000000E+01 0. -1.
         25    2    1    2    0    0  0.24654128717E+01 -0.34822416008E+01  0.83576822711E+02  0.15042733977E+03  0.12500037996E+03 0.  0.
         25    2    1    2    0    0 -0.24654128717E+01  0.34822416008E+01 -0.91210542018E+01  0.12540667716E+03  0.12500174711E+03 0.  0.
          5    1    3    3  502    0 -0.55113980516E+02  0.24292582913E+02  0.33461786359E+02  0.69061288572E+02  0.47000000000E+01 0. -1.
         -5    1    3    3    0  502  0.57579393387E+02 -0.27774824513E+02  0.50115036352E+02  0.81366051202E+02  0.47000000000E+01 0. -1.
          5    1    4    4  503    0 -0.33848413225E+02 -0.34195964909E+02 -0.43742490347E+02  0.65196430544E+02  0.47000000000E+01 0.  1.
         -5    1    4    4    0  503  0.31383000353E+02  0.37678206510E+02  0.34621436145E+02  0.60210246617E+02  0.47000000000E+01 0.  1.
<mgrwt>
<rscale>  0 0.12507420E+03</rscale>
<asrwt>0</asrwt>
<pdfrwt beam="2">  1        5 0.15490635E-01 0.12507454E+03</pdfrwt>
<pdfrwt beam="1">  1       -5 0.26945368E-01 0.12507454E+03</pdfrwt>
<totfact> 0.34267721E+02</totfact>
</mgrwt>
</event>
<event>
 8    1  0.3542708E-007  0.1628234E+03  0.7546771E-02  0.1185547E+00
          5   -1    0    0  501    0  0.00000000000E+00  0.00000000000E+00  0.12027546098E+04  0.12027637929E+04  0.47000000000E+01 0.  1.
         -5   -1    0    0    0  501 -0.00000000000E+00 -0.00000000000E+00 -0.21814607944E+02  0.22315176892E+02  0.47000000000E+01 0.  1.
         25    2    1    2    0    0  0.41161894722E+02 -0.95877638864E+02  0.56695057536E+03  0.58986681332E+03  0.12499231714E+03 0.  0.
         25    2    1    2    0    0 -0.41161894722E+02  0.95877638864E+02  0.61398942652E+03  0.63521215645E+03  0.12499857844E+03 0.  0.
          5    1    4    4  502    0  0.38250568206E+02  0.59615855582E+00  0.15760127053E+03  0.16224583769E+03  0.47000000000E+01 0. -1.
         -5    1    4    4    0  502 -0.79412462928E+02  0.95281480308E+02  0.45638815599E+03  0.47296631876E+03  0.47000000000E+01 0. -1.
          5    1    3    3  503    0  0.43239845285E+02 -0.90326071927E+02  0.20863790190E+03  0.23147429144E+03  0.47000000000E+01 0. -1.
         -5    1    3    3    0  503 -0.20779505635E+01 -0.55515669372E+01  0.35831267347E+03  0.35839252188E+03  0.47000000000E+01 0. -1.
<mgrwt>
<rscale>  0 0.16282222E+03</rscale>
<asrwt>0</asrwt>
<pdfrwt beam="1">  1        5 0.18507836E+00 0.16282343E+03</pdfrwt>
<pdfrwt beam="2">  1       -5 0.33953056E-02 0.16282343E+03</pdfrwt>
<totfact> 0.57620609E+01</totfact>
</mgrwt>
</event>
<event>
 8    1  0.3542708E-007  0.1259166E+03  0.7546771E-02  0.1233645E+00
         -5   -1    0    0    0  501 -0.00000000000E+00  0.00000000000E+00  0.12026348811E+04  0.12026440650E+04  0.47000000000E+01 0. -1.
          5   -1    0    0  501    0  0.00000000000E+00 -0.00000000000E+00 -0.13519604620E+02  0.14313270384E+02  0.47000000000E+01 0. -1.
         25    2    1    2    0    0  0.12644339262E+02  0.83813033910E+01  0.73506811225E+03  0.74577484867E+03  0.12499947876E+03 0.  0.
         25    2    1    2    0    0 -0.12644339262E+02 -0.83813033910E+01  0.45404716419E+03  0.47118248674E+03  0.12499593172E+03 0.  0.
          5    1    3    3  502    0 -0.52322748919E+02  0.17591339779E+02  0.23745059425E+03  0.24382780810E+03  0.47000000000E+01 0.  1.
         -5    1    3    3    0  502  0.64967088180E+02 -0.92100363876E+01  0.49761751800E+03  0.50194704057E+03  0.47000000000E+01 0.  1.
          5    1    4    4  503    0 -0.42694230994E+01 -0.16466759275E+02  0.45775285738E+03  0.45809294972E+03  0.47000000000E+01 0. -1.
         -5    1    4    4    0  503 -0.83749161622E+01  0.80854558840E+01 -0.37056931976E+01  0.13089537030E+02  0.47000000000E+01 0. -1.
<mgrwt>
<rscale>  0 0.12591574E+03</rscale>
<asrwt>0</asrwt>
<pdfrwt beam="2">  1        5 0.21416960E-02 0.12591662E+03</pdfrwt>
<pdfrwt beam="1">  1       -5 0.18508258E+00 0.12591662E+03</pdfrwt>
<totfact> 0.11206121E+02</totfact>
</mgrwt>
</event>
<event>
 8    1  0.3542708E-007  0.1588205E+03  0.7546771E-02  0.1190035E+00
          5   -1    0    0  501    0  0.00000000000E+00  0.00000000000E+00  0.34490243911E+02  0.34809006378E+02  0.47000000000E+01 0. -1.
         -5   -1    0    0    0  501 -0.00000000000E+00 -0.00000000000E+00 -0.76478559430E+03  0.76480003612E+03  0.47000000000E+01 0. -1.
         25    2    1    2    0    0  0.87970677494E+02 -0.43128829743E+02 -0.45323691048E+03  0.48025760517E+03  0.12499893696E+03 0.  0.
         25    2    1    2    0    0 -0.87970677494E+02  0.43128829743E+02 -0.27705843991E+03  0.31935143734E+03  0.12500010140E+03 0.  0.
          5    1    3    3  502    0  0.50614961187E+02  0.30734819209E+02 -0.30200736678E+03  0.30779383196E+03  0.47000000000E+01 0. -1.
         -5    1    3    3    0  502  0.37355716307E+02 -0.73863648952E+02 -0.15122954371E+03  0.17246377320E+03  0.47000000000E+01 0. -1.
          5    1    4    4  503    0  0.82844169633E+01 -0.34033746200E+02 -0.59382358823E+02  0.69103415141E+02  0.47000000000E+01 0. -1.
         -5    1    4    4    0  503 -0.96255094457E+02  0.77162575943E+02 -0.21767608109E+03  0.25024802219E+03  0.47000000000E+01 0. -1.
<mgrwt>
<rscale>  0 0.15882030E+03</rscale>
<asrwt>0</asrwt>
<pdfrwt beam="1">  1        5 0.53318230E-02 0.15882053E+03</pdfrwt>
<pdfrwt beam="2">  1       -5 0.11768494E+00 0.15882053E+03</pdfrwt>
<totfact> 0.94035298E+01</totfact>
</mgrwt>
</event>
<event>
 8    1  0.3542708E-007  0.1442775E+03  0.7546771E-02  0.1207687E+00
          5   -1    0    0  501    0  0.00000000000E+00  0.00000000000E+00  0.17042458405E+02  0.17678670439E+02  0.47000000000E+01 0.  1.
         -5   -1    0    0    0  501 -0.00000000000E+00 -0.00000000000E+00 -0.14549713951E+04  0.14549789863E+04  0.47000000000E+01 0.  1.
         25    2    1    2    0    0  0.58477241078E+02  0.42075525091E+02 -0.10281114349E+04  0.10381854969E+04  0.12500426343E+03 0.  0.
         25    2    1    2    0    0 -0.58477241078E+02 -0.42075525091E+02 -0.40981750180E+03  0.43447215983E+03  0.12500294138E+03 0.  0.
          5    1    3    3  502    0 -0.14746457688E+02 -0.28280999732E+02 -0.45403352559E+03  0.45517667484E+03  0.47000000000E+01 0.  1.
         -5    1    3    3    0  502  0.73223698766E+02  0.70356524823E+02 -0.57407790936E+03  0.58300882211E+03  0.47000000000E+01 0.  1.
          5    1    4    4  503    0  0.30518956671E+02 -0.10206934936E+02 -0.34531671516E+02  0.47435372611E+02  0.47000000000E+01 0. -1.
         -5    1    4    4    0  503 -0.88996197748E+02 -0.31868590155E+02 -0.37528583028E+03  0.38703678722E+03  0.47000000000E+01 0. -1.
<mgrwt>
<rscale>  0 0.14427724E+03</rscale>
<asrwt>0</asrwt>
<pdfrwt beam="1">  1        5 0.26714411E-02 0.14427752E+03</pdfrwt>
<pdfrwt beam="2">  1       -5 0.22389118E+00 0.14427752E+03</pdfrwt>
<totfact> 0.45019506E+01</totfact>
</mgrwt>
</event>
<event>
 8    1  0.3542708E-007  0.1398719E+03  0.7546771E-02  0.1213508E+00
          5   -1    0    0  501    0  0.00000000000E+00  0.00000000000E+00  0.19268916941E+02  0.19833838763E+02  0.47000000000E+01 0.  1.
         -5   -1    0    0    0  501 -0.00000000000E+00 -0.00000000000E+00 -0.10760768591E+04  0.10760871232E+04  0.47000000000E+01 0.  1.
         25    2    1    2    0    0 -0.62722384101E+02 -0.68495144391E+00 -0.67408597669E+03  0.68844059610E+03  0.12499593497E+03 0.  0.
         25    2    1    2    0    0  0.62722384101E+02  0.68495144391E+00 -0.38272196551E+03  0.40748036590E+03  0.12501831498E+03 0.  0.
          5    1    3    3  502    0  0.17947722998E+02  0.37093878137E+02 -0.34482973858E+03  0.34731500855E+03  0.47000000000E+01 0.  1.
         -5    1    3    3    0  502 -0.80670107099E+02 -0.37778829581E+02 -0.32925623812E+03  0.34112558755E+03  0.47000000000E+01 0.  1.
          5    1    4    4  503    0 -0.10248619963E+02 -0.46833186649E+02 -0.18887345022E+03  0.19491960338E+03  0.47000000000E+01 0.  1.
         -5    1    4    4    0  503  0.72971004064E+02  0.47518138093E+02 -0.19384851529E+03  0.21256076252E+03  0.47000000000E+01 0.  1.
<mgrwt>
<rscale>  0 0.13986689E+03</rscale>
<asrwt>0</asrwt>
<pdfrwt beam="1">  1        5 0.30086947E-02 0.13987189E+03</pdfrwt>
<pdfrwt beam="2">  1       -5 0.16559448E+00 0.13987189E+03</pdfrwt>
<totfact> 0.92829476E+01</totfact>
</mgrwt>
</event>
<event>
 8    1  0.3542708E-007  0.1302101E+03  0.7546771E-02  0.1227147E+00
         -5   -1    0    0    0  501 -0.00000000000E+00  0.00000000000E+00  0.25162161266E+03  0.25166550410E+03  0.47000000000E+01 0. -1.
          5   -1    0    0  501    0  0.00000000000E+00 -0.00000000000E+00 -0.68344075111E+02  0.68505493231E+02  0.47000000000E+01 0. -1.
         25    2    1    2    0    0  0.29208428815E+02  0.21829772130E+02  0.11190023324E+03  0.17168060606E+03  0.12499158784E+03 0.  0.
         25    2    1    2    0    0 -0.29208428815E+02 -0.21829772130E+02  0.71377304305E+02  0.14849039128E+03  0.12500002187E+03 0.  0.
          5    1    3    3  502    0 -0.43177425534E+02 -0.22111389093E+01  0.75285060663E+02  0.86943139867E+02  0.47000000000E+01 0. -1.
         -5    1    3    3    0  502  0.72385854349E+02  0.24040911039E+02  0.36615172579E+02  0.84737466191E+02  0.47000000000E+01 0. -1.
          5    1    4    4  503    0  0.15785792623E+02 -0.54222356385E+02  0.73500121208E+02  0.92809552301E+02  0.47000000000E+01 0. -1.
         -5    1    4    4    0  503 -0.44994221438E+02  0.32392584255E+02 -0.21228169029E+01  0.55680838977E+02  0.47000000000E+01 0. -1.
<mgrwt>
<rscale>  0 0.13020810E+03</rscale>
<asrwt>0</asrwt>
<pdfrwt beam="2">  1        5 0.10530266E-01 0.13021013E+03</pdfrwt>
<pdfrwt beam="1">  1       -5 0.38726810E-01 0.13021013E+03</pdfrwt>
<totfact> 0.33718987E+02</totfact>
</mgrwt>
</event>
<event>
 8    1  0.3542708E-007  0.2165557E+03  0.7546771E-02  0.1136479E+00
          5   -1    0    0  501    0  0.00000000000E+00  0.00000000000E+00  0.44044781432E+03  0.44047289035E+03  0.47000000000E+01 0. -1.
         -5   -1    0    0    0  501 -0.00000000000E+00 -0.00000000000E+00 -0.10778641732E+03  0.10788883983E+03  0.47000000000E+01 0. -1.
         25    2    1    2    0    0  0.11923819962E+03 -0.13058664753E+03  0.19753348792E+03  0.29311408655E+03  0.12500307246E+03 0.  0.
         25    2    1    2    0    0 -0.11923819962E+03  0.13058664753E+03  0.13512790908E+03  0.25524764363E+03  0.12498474709E+03 0.  0.
          5    1    3    3  502    0  0.13156479533E+02 -0.70801437124E+02  0.15107510917E+02  0.73731020192E+02  0.47000000000E+01 0.  1.
         -5    1    3    3    0  502  0.10608172008E+03 -0.59785210408E+02  0.18242597700E+03  0.21938306636E+03  0.47000000000E+01 0.  1.
          5    1    4    4  503    0 -0.13795439497E+03  0.13847098312E+03  0.11894120807E+03  0.22885525826E+03  0.47000000000E+01 0. -1.
         -5    1    4    4    0  503  0.18716195350E+02 -0.78843355865E+01  0.16186701004E+02  0.26392385368E+02  0.47000000000E+01 0. -1.
<mgrwt>
<rscale>  0 0.21655310E+03</rscale>
<asrwt>0</asrwt>
<pdfrwt beam="1">  1        5 0.67771010E-01 0.21655574E+03</pdfrwt>
<pdfrwt beam="2">  1       -5 0.16592333E-01 0.21655574E+03</pdfrwt>
<totfact> 0.52530918E+01</totfact>
</mgrwt>
</event>
<event>
 8    1  0.3542708E-007  0.1329927E+03  0.7546771E-02  0.1223093E+00
          5   -1    0    0  501    0  0.00000000000E+00  0.00000000000E+00  0.90795057684E+02  0.90916623892E+02  0.47000000000E+01 0. -1.
         -5   -1    0    0    0  501 -0.00000000000E+00 -0.00000000000E+00 -0.19643934186E+03  0.19649555982E+03  0.47000000000E+01 0. -1.
         25    2    1    2    0    0  0.15374756045E+01  0.45368632257E+02 -0.67191415267E+02  0.14900246223E+03  0.12500548324E+03 0.  0.
         25    2    1    2    0    0 -0.15374756045E+01 -0.45368632257E+02 -0.38452868907E+02  0.13840972148E+03  0.12497180182E+03 0.  0.
          5    1    3    3  502    0 -0.43231055811E+02  0.71272878396E+01  0.16081686129E+02  0.46908773670E+02  0.47000000000E+01 0.  1.
         -5    1    3    3    0  502  0.44768531415E+02  0.38241344417E+02 -0.83273101396E+02  0.10209368856E+03  0.47000000000E+01 0.  1.
          5    1    4    4  503    0  0.43662841086E+02 -0.10411110804E+02 -0.61782071641E+02  0.76511105704E+02  0.47000000000E+01 0. -1.
         -5    1    4    4    0  503 -0.45200316690E+02 -0.34957521452E+02  0.23329202734E+02  0.61898615778E+02  0.47000000000E+01 0. -1.
<mgrwt>
<rscale>  0 0.13298474E+03</rscale>
<asrwt>0</asrwt>
<pdfrwt beam="1">  1        5 0.13982146E-01 0.13299266E+03</pdfrwt>
<pdfrwt beam="2">  1       -5 0.30235113E-01 0.13299266E+03</pdfrwt>
<totfact> 0.33693624E+02</totfact>
</mgrwt>
</event>
<event>
 8    1  0.3542708E-007  0.1626244E+03  0.7546771E-02  0.1185767E+00
         -5   -1    0    0    0  501 -0.00000000000E+00  0.00000000000E+00  0.20913292755E+03  0.20918573418E+03  0.47000000000E+01 0.  1.
          5   -1    0    0  501    0  0.00000000000E+00 -0.00000000000E+00 -0.15036695121E+03  0.15044038692E+03  0.47000000000E+01 0.  1.
         25    2    1    2    0    0  0.85674809824E+02 -0.58990856198E+02  0.10122640014E+03  0.19155540284E+03  0.12500637631E+03 0.  0.
         25    2    1    2    0    0 -0.85674809824E+02  0.58990856198E+02 -0.42460423800E+02  0.16807071827E+03  0.12499913838E+03 0.  0.
          5    1    3    3  502    0  0.40633404939E+02 -0.28738460287E+02  0.12310180840E+03  0.13286503651E+03  0.47000000000E+01 0.  1.
         -5    1    3    3    0  502  0.45041404885E+02 -0.30252395911E+02 -0.21875408264E+02  0.58690366322E+02  0.47000000000E+01 0.  1.
          5    1    4    4  503    0 -0.10025854946E+03  0.75357520508E+02 -0.64796237028E+01  0.12567660148E+03  0.47000000000E+01 0. -1.
         -5    1    4    4    0  503  0.14583739636E+02 -0.16366664310E+02 -0.35980800097E+02  0.42394116786E+02  0.47000000000E+01 0. -1.
<mgrwt>
<rscale>  0 0.16262299E+03</rscale>
<asrwt>0</asrwt>
<pdfrwt beam="2">  1        5 0.23143088E-01 0.16262438E+03</pdfrwt>
<pdfrwt beam="1">  1       -5 0.32184007E-01 0.16262438E+03</pdfrwt>
<totfact> 0.12542799E+02</totfact>
</mgrwt>
</event>
<event>
 8    1  0.3542708E-007  0.1983666E+03  0.7546771E-02  0.1151125E+00
          5   -1    0    0  501    0  0.00000000000E+00  0.00000000000E+00  0.15729917804E+03  0.15736937889E+03  0.47000000000E+01 0.  1.
         -5   -1    0    0    0  501 -0.00000000000E+00 -0.00000000000E+00 -0.27937442166E+03  0.27941395362E+03  0.47000000000E+01 0.  1.
         25    2    1    2    0    0 -0.10024209141E+03  0.11694044897E+03 -0.13183318949E+03  0.23817688846E+03  0.12499877940E+03 0.  0.
         25    2    1    2    0    0  0.10024209141E+03 -0.11694044897E+03  0.97579458647E+01  0.19860644404E+03  0.12500302641E+03 0.  0.
          5    1    3    3  502    0 -0.86964855739E+02  0.12514022542E+02 -0.86767270157E+02  0.12357239200E+03  0.47000000000E+01 0. -1.
         -5    1    3    3    0  502 -0.13277235671E+02  0.10442642643E+03 -0.45065919332E+02  0.11460449646E+03  0.47000000000E+01 0. -1.
          5    1    4    4  503    0  0.82098707053E+02 -0.45660717968E+01 -0.10049919252E+02  0.82970703193E+02  0.47000000000E+01 0.  1.
         -5    1    4    4    0  503  0.18143384358E+02 -0.11237437718E+03  0.19807865117E+02  0.11563574085E+03  0.47000000000E+01 0.  1.
<mgrwt>
<rscale>  0 0.19836592E+03</rscale>
<asrwt>0</asrwt>
<pdfrwt beam="1">  1        5 0.24208315E-01 0.19836659E+03</pdfrwt>
<pdfrwt beam="2">  1       -5 0.42989121E-01 0.19836659E+03</pdfrwt>
<totfact> 0.67639866E+01</totfact>
</mgrwt>
</event>
<event>
 8    1  0.3542708E-007  0.1442713E+03  0.7546771E-02  0.1207697E+00
         -5   -1    0    0    0  501 -0.00000000000E+00  0.00000000000E+00  0.13674509010E+03  0.13682583699E+03  0.47000000000E+01 0. -1.
          5   -1    0    0  501    0  0.00000000000E+00 -0.00000000000E+00 -0.24624573224E+03  0.24629058173E+03  0.47000000000E+01 0. -1.
         25    2    1    2    0    0 -0.15079583819E+02  0.70434361499E+02  0.63697154471E+02  0.15770708019E+03  0.12500321007E+03 0.  0.
         25    2    1    2    0    0  0.15079583819E+02 -0.70434361499E+02 -0.17319779661E+03  0.22540933852E+03  0.12499399992E+03 0.  0.
          5    1    4    4  502    0  0.31383604272E+01 -0.10583215592E+03 -0.13669091789E+03  0.17296471191E+03  0.47000000000E+01 0. -1.
         -5    1    4    4    0  502  0.11941223392E+02  0.35397794426E+02 -0.36506878722E+02  0.52444626611E+02  0.47000000000E+01 0. -1.
          5    1    3    3  503    0  0.82093467736E+01  0.77061903057E+02  0.91856146211E+02  0.12027290582E+03  0.47000000000E+01 0. -1.
         -5    1    3    3    0  503 -0.23288930592E+02 -0.66275415579E+01 -0.28158991740E+02  0.37434174374E+02  0.47000000000E+01 0. -1.
<mgrwt>
<rscale>  0 0.14426926E+03</rscale>
<asrwt>0</asrwt>
<pdfrwt beam="2">  1        5 0.37893620E-01 0.14427126E+03</pdfrwt>
<pdfrwt beam="1">  1       -5 0.21047367E-01 0.14427126E+03</pdfrwt>
<totfact> 0.10410850E+02</totfact>
</mgrwt>
</event>
<event>
 8    1  0.3542708E-007  0.1265256E+03  0.7546771E-02  0.1232709E+00
          5   -1    0    0  501    0  0.00000000000E+00  0.00000000000E+00  0.23018527071E+02  0.23493458420E+02  0.47000000000E+01 0.  1.
         -5   -1    0    0    0  501 -0.00000000000E+00 -0.00000000000E+00 -0.70950883754E+03  0.70952440447E+03  0.47000000000E+01 0.  1.
         25    2    1    2    0    0 -0.18094455408E+01  0.19478921114E+02 -0.40729500236E+03  0.42649095656E+03  0.12499045813E+03 0.  0.
         25    2    1    2    0    0  0.18094455408E+01 -0.19478921114E+02 -0.27919530811E+03  0.30652690633E+03  0.12500408703E+03 0.  0.
          5    1    4    4  502    0  0.39284509363E+02  0.36575118071E+02 -0.82441787890E+02  0.98487310494E+02  0.47000000000E+01 0.  1.
         -5    1    4    4    0  502 -0.37475063823E+02 -0.56054039186E+02 -0.19675352022E+03  0.20803959583E+03  0.47000000000E+01 0.  1.
          5    1    3    3  503    0 -0.59079273724E+02  0.22923279727E+02 -0.27444013694E+03  0.28170075630E+03  0.47000000000E+01 0. -1.
         -5    1    3    3    0  503  0.57269828183E+02 -0.34443586121E+01 -0.13285486542E+03  0.14479020026E+03  0.47000000000E+01 0. -1.
<mgrwt>
<rscale>  0 0.12652222E+03</rscale>
<asrwt>0</asrwt>
<pdfrwt beam="1">  1        5 0.35790430E-02 0.12652559E+03</pdfrwt>
<pdfrwt beam="2">  1       -5 0.10919292E+00 0.12652559E+03</pdfrwt>
<totfact> 0.20338750E+02</totfact>
</mgrwt>
</event>
<event>
 8    1  0.3542708E-007  0.1330251E+03  0.7546771E-02  0.1223046E+00
         -5   -1    0    0    0  501 -0.00000000000E+00  0.00000000000E+00  0.70533438618E+03  0.70535004525E+03  0.47000000000E+01 0.  1.
          5   -1    0    0  501    0  0.00000000000E+00 -0.00000000000E+00 -0.27133640430E+02  0.27537691315E+02  0.47000000000E+01 0.  1.
         25    2    1    2    0    0 -0.19828439341E+02 -0.40862460309E+02  0.44461129796E+03  0.46407608919E+03  0.12499801044E+03 0.  0.
         25    2    1    2    0    0  0.19828439341E+02  0.40862460309E+02  0.23358944779E+03  0.26881164737E+03  0.12503105204E+03 0.  0.
          5    1    4    4  502    0 -0.12403131570E+02  0.49756508934E+02  0.24521259461E+02  0.57034463438E+02  0.47000000000E+01 0. -1.
         -5    1    4    4    0  502  0.32231570911E+02 -0.88940486253E+01  0.20906818833E+03  0.21177718394E+03  0.47000000000E+01 0. -1.
          5    1    3    3  503    0  0.43946193827E+02 -0.51781956281E+02  0.23349188102E+03  0.24321428299E+03  0.47000000000E+01 0. -1.
         -5    1    3    3    0  503 -0.63774633168E+02  0.10919495972E+02  0.21111941695E+03  0.22086180620E+03  0.47000000000E+01 0. -1.
<mgrwt>
<rscale>  0 0.13301731E+03</rscale>
<asrwt>0</asrwt>
<pdfrwt beam="2">  1        5 0.42066924E-02 0.13302508E+03</pdfrwt>
<pdfrwt beam="1">  1       -5 0.10854525E+00 0.13302508E+03</pdfrwt>
<totfact> 0.16125800E+02</totfact>
</mgrwt>
</event>
<event>
 8    1  0.3542708E-007  0.1271206E+03  0.7546771E-02  0.1231796E+00
         -5   -1    0    0    0  501 -0.00000000000E+00  0.00000000000E+00  0.54865011142E+02  0.55065955431E+02  0.47000000000E+01 0.  1.
          5   -1    0    0  501    0  0.00000000000E+00 -0.00000000000E+00 -0.33397811079E+03  0.33401118018E+03  0.47000000000E+01 0.  1.
         25    2    1    2    0    0  0.51775813054E+01 -0.22500641611E+02 -0.72059041986E+02  0.14611411241E+03  0.12499496827E+03 0.  0.
         25    2    1    2    0    0 -0.51775813054E+01  0.22500641611E+02 -0.20705405766E+03  0.24296302320E+03  0.12500624635E+03 0.  0.
          5    1    3    3  502    0  0.24952008012E+02 -0.69970177158E+02 -0.33276884344E+02  0.81534467724E+02  0.47000000000E+01 0.  1.
         -5    1    3    3    0  502 -0.19774426707E+02  0.47469535547E+02 -0.38782157643E+02  0.64579644688E+02  0.47000000000E+01 0.  1.
          5    1    4    4  503    0  0.23377297207E+02  0.54195189786E+02 -0.42445727497E+02  0.72851536727E+02  0.47000000000E+01 0.  1.
         -5    1    4    4    0  503 -0.28554878513E+02 -0.31694548175E+02 -0.16460833016E+03  0.17011148647E+03  0.47000000000E+01 0.  1.
<mgrwt>
<rscale>  0 0.12711783E+03</rscale>
<asrwt>0</asrwt>
<pdfrwt beam="2">  1        5 0.51399248E-01 0.12712060E+03</pdfrwt>
<pdfrwt beam="1">  1       -5 0.84587722E-02 0.12712060E+03</pdfrwt>
<totfact> 0.27139661E+02</totfact>
</mgrwt>
</event>
<event>
 8    1  0.3542708E-007  0.1262684E+03  0.7546771E-02  0.1233103E+00
         -5   -1    0    0    0  501 -0.00000000000E+00  0.00000000000E+00  0.21589058512E+03  0.21594173923E+03  0.47000000000E+01 0.  1.
          5   -1    0    0  501    0  0.00000000000E+00 -0.00000000000E+00 -0.10138824098E+03  0.10149712020E+03  0.47000000000E+01 0.  1.
         25    2    1    2    0    0  0.11549182643E+02  0.13591570271E+02  0.14010380292E+03  0.18860749357E+03  0.12500238652E+03 0.  0.
         25    2    1    2    0    0 -0.11549182643E+02 -0.13591570271E+02 -0.25601458778E+02  0.12883136587E+03  0.12499588688E+03 0.  0.
          5    1    3    3  502    0  0.81458216305E+01 -0.42735557284E+02  0.12128457477E+03  0.12893688512E+03  0.47000000000E+01 0.  1.
         -5    1    3    3    0  502  0.34033610123E+01  0.56327127555E+02  0.18819228149E+02  0.59670608451E+02  0.47000000000E+01 0.  1.
          5    1    4    4  503    0  0.28828337460E+02  0.28627859085E+02  0.27873208447E+02  0.49493768351E+02  0.47000000000E+01 0.  1.
         -5    1    4    4    0  503 -0.40377520102E+02 -0.42219429357E+02 -0.53474667225E+02  0.79337597516E+02  0.47000000000E+01 0.  1.
<mgrwt>
<rscale>  0 0.12626680E+03</rscale>
<asrwt>0</asrwt>
<pdfrwt beam="2">  1        5 0.15610501E-01 0.12626841E+03</pdfrwt>
<pdfrwt beam="1">  1       -5 0.33226246E-01 0.12626841E+03</pdfrwt>
<totfact> 0.22495711E+02</totfact>
</mgrwt>
</event>
<event>
 8    1  0.3542708E-007  0.1274121E+03  0.7546771E-02  0.1231348E+00
          5   -1    0    0  501    0  0.00000000000E+00  0.00000000000E+00  0.76010118226E+02  0.76155289197E+02  0.47000000000E+01 0.  1.
         -5   -1    0    0    0  501 -0.00000000000E+00 -0.00000000000E+00 -0.27819451581E+03  0.27823421541E+03  0.47000000000E+01 0.  1.
         25    2    1    2    0    0  0.14780939683E+02 -0.19752907610E+02 -0.18671282450E+03  0.22604145798E+03  0.12499763340E+03 0.  0.
         25    2    1    2    0    0 -0.14780939683E+02  0.19752907610E+02 -0.15471573088E+02  0.12834804663E+03  0.12500079185E+03 0.  0.
          5    1    3    3  502    0 -0.22478943711E+02  0.45815813953E+02 -0.64892116522E+02  0.82688986602E+02  0.47000000000E+01 0. -1.
         -5    1    3    3    0  502  0.37259883394E+02 -0.65568721563E+02 -0.12182070797E+03  0.14335247138E+03  0.47000000000E+01 0. -1.
          5    1    4    4  503    0  0.16411792122E+02  0.16397732417E+02 -0.65199378404E+02  0.69363401685E+02  0.47000000000E+01 0.  1.
         -5    1    4    4    0  503 -0.31192731805E+02  0.33551751931E+01  0.49727805316E+02  0.58984644948E+02  0.47000000000E+01 0.  1.
<mgrwt>
<rscale>  0 0.12741136E+03</rscale>
<asrwt>0</asrwt>
<pdfrwt beam="1">  1        5 0.11708085E-01 0.12741213E+03</pdfrwt>
<pdfrwt beam="2">  1       -5 0.42813377E-01 0.12741213E+03</pdfrwt>
<totfact> 0.22607248E+02</totfact>
</mgrwt>
</event>
<event>
 8    1  0.3542708E-007  0.1719330E+03  0.7546771E-02  0.1175847E+00
          5   -1    0    0  501    0  0.00000000000E+00  0.00000000000E+00  0.11537835642E+04  0.11537931370E+04  0.47000000000E+01 0.  1.
         -5   -1    0    0    0  501 -0.00000000000E+00 -0.00000000000E+00 -0.25531712616E+02  0.25960707792E+02  0.47000000000E+01 0.  1.
         25    2    1    2    0    0 -0.95095956310E+02  0.69945305473E+02  0.60685224599E+03  0.63073814630E+03  0.12500149630E+03 0.  0.
         25    2    1    2    0    0  0.95095956310E+02 -0.69945305473E+02  0.52139960556E+03  0.54901569847E+03  0.12500040728E+03 0.  0.
          5    1    3    3  502    0 -0.90577673563E+02  0.86408709181E+02  0.32464515611E+03  0.34797607297E+03  0.47000000000E+01 0.  1.
         -5    1    3    3    0  502 -0.45182827469E+01 -0.16463403708E+02  0.28220708988E+03  0.28276207334E+03  0.47000000000E+01 0.  1.
          5    1    4    4  503    0  0.16013145557E+02 -0.63265729586E+02  0.38989099551E+03  0.39534295460E+03  0.47000000000E+01 0. -1.
         -5    1    4    4    0  503  0.79082810753E+02 -0.66795758862E+01  0.13150861005E+03  0.15367274387E+03  0.47000000000E+01 0. -1.
<mgrwt>
<rscale>  0 0.17193281E+03</rscale>
<asrwt>0</asrwt>
<pdfrwt beam="1">  1        5 0.17753885E+00 0.17193301E+03</pdfrwt>
<pdfrwt beam="2">  1       -5 0.39616929E-02 0.17193301E+03</pdfrwt>
<totfact> 0.51383449E+01</totfact>
</mgrwt>
</event>
<event>
 8    1  0.3542708E-007  0.1315757E+03  0.7546771E-02  0.1225138E+00
         -5   -1    0    0    0  501 -0.00000000000E+00  0.00000000000E+00  0.88565173561E+02  0.88689796301E+02  0.47000000000E+01 0.  1.
          5   -1    0    0  501    0  0.00000000000E+00 -0.00000000000E+00 -0.24136756104E+03  0.24141331678E+03  0.47000000000E+01 0.  1.
         25    2    1    2    0    0  0.34428084875E+02  0.22399366132E+02 -0.42207239711E+01  0.13163731532E+03  0.12499417443E+03 0.  0.
         25    2    1    2    0    0 -0.34428084875E+02 -0.22399366132E+02 -0.14858166350E+03  0.19846579776E+03  0.12500055009E+03 0.  0.
          5    1    3    3  502    0  0.29397498999E+02 -0.45475726027E+02  0.21878827953E+02  0.58592044833E+02  0.47000000000E+01 0. -1.
         -5    1    3    3    0  502  0.50305858757E+01  0.67875092159E+02 -0.26099551924E+02  0.73045270487E+02  0.47000000000E+01 0. -1.
          5    1    4    4  503    0  0.45438656222E+02  0.48003210419E+01 -0.40235338518E+02  0.61062975910E+02  0.47000000000E+01 0. -1.
         -5    1    4    4    0  503 -0.79866741097E+02 -0.27199687174E+02 -0.10834632498E+03  0.13740282185E+03  0.47000000000E+01 0. -1.
<mgrwt>
<rscale>  0 0.13157418E+03</rscale>
<asrwt>0</asrwt>
<pdfrwt beam="2">  1        5 0.37146577E-01 0.13157569E+03</pdfrwt>
<pdfrwt beam="1">  1       -5 0.13638517E-01 0.13157569E+03</pdfrwt>
<totfact> 0.23294694E+02</totfact>
</mgrwt>
</event>
<event>
 8    1  0.3542708E-007  0.1276318E+03  0.7546771E-02  0.1231017E+00
          5   -1    0    0  501    0  0.00000000000E+00  0.00000000000E+00  0.15964405414E+03  0.15971322432E+03  0.47000000000E+01 0.  1.
         -5   -1    0    0    0  501 -0.00000000000E+00 -0.00000000000E+00 -0.10228537817E+03  0.10239330343E+03  0.47000000000E+01 0.  1.
         25    2    1    2    0    0 -0.18709457782E+02 -0.17728758804E+02  0.20489046386E+02  0.12926589279E+03  0.12500206925E+03 0.  0.
         25    2    1    2    0    0  0.18709457782E+02  0.17728758804E+02  0.36869629594E+02  0.13284063496E+03  0.12499164777E+03 0.  0.
          5    1    4    4  502    0  0.29919128177E+02 -0.31480639874E+02  0.62332758338E+02  0.76116014608E+02  0.47000000000E+01 0.  1.
         -5    1    4    4    0  502 -0.11209670396E+02  0.49209398678E+02 -0.25463128744E+02  0.56724620352E+02  0.47000000000E+01 0.  1.
          5    1    3    3  503    0  0.27213943631E+02 -0.58534743364E+02  0.13065690979E+01  0.64735709090E+02  0.47000000000E+01 0.  1.
         -5    1    3    3    0  503 -0.45923401413E+02  0.40805984560E+02  0.19182477288E+02  0.64530183698E+02  0.47000000000E+01 0.  1.
<mgrwt>
<rscale>  0 0.12762922E+03</rscale>
<asrwt>0</asrwt>
<pdfrwt beam="1">  1        5 0.24574246E-01 0.12763178E+03</pdfrwt>
<pdfrwt beam="2">  1       -5 0.15749835E-01 0.12763178E+03</pdfrwt>
<totfact> 0.39981888E+02</totfact>
</mgrwt>
</event>
<event>
 8    1  0.3542708E-007  0.1258384E+03  0.7546771E-02  0.1233766E+00
          5   -1    0    0  501    0  0.00000000000E+00  0.00000000000E+00  0.13551766616E+04  0.13551848118E+04  0.47000000000E+01 0. -1.
         -5   -1    0    0    0  501 -0.00000000000E+00 -0.00000000000E+00 -0.11247874011E+02  0.12190351503E+02  0.47000000000E+01 0. -1.
         25    2    1    2    0    0 -0.19784476631E+01 -0.14307394769E+02  0.63078956094E+03  0.64321907113E+03  0.12500674974E+03 0.  0.
         25    2    1    2    0    0  0.19784476631E+01  0.14307394769E+02  0.71313922669E+03  0.72415609222E+03  0.12500349374E+03 0.  0.
          5    1    4    4  502    0 -0.17982191939E+02  0.38161270638E+02  0.82925389385E+02  0.93157672836E+02  0.47000000000E+01 0. -1.
         -5    1    4    4    0  502  0.19960639602E+02 -0.23853875868E+02  0.63021383731E+03  0.63099841938E+03  0.47000000000E+01 0. -1.
          5    1    3    3  503    0  0.56965491463E+02 -0.24279692268E+02  0.24246325369E+03  0.25029001192E+03  0.47000000000E+01 0. -1.
         -5    1    3    3    0  503 -0.58943939126E+02  0.99722974989E+01  0.38832630724E+03  0.39292905921E+03  0.47000000000E+01 0. -1.
<mgrwt>
<rscale>  0 0.12583759E+03</rscale>
<asrwt>0</asrwt>
<pdfrwt beam="1">  1        5 0.20856186E+00 0.12583840E+03</pdfrwt>
<pdfrwt beam="2">  1       -5 0.18035672E-02 0.12583840E+03</pdfrwt>
<totfact> 0.10187562E+02</totfact>
</mgrwt>
</event>
<event>
 8    1  0.3542708E-007  0.1269239E+03  0.7546771E-02  0.1232095E+00
          5   -1    0    0  501    0  0.00000000000E+00  0.00000000000E+00  0.46964634912E+03  0.46966986623E+03  0.47000000000E+01 0.  1.
         -5   -1    0    0    0  501 -0.00000000000E+00 -0.00000000000E+00 -0.34472905994E+02  0.34791827311E+02  0.47000000000E+01 0.  1.
         25    2    1    2    0    0  0.43246850034E+01  0.21576348080E+02  0.19200853293E+03  0.23016721406E+03  0.12500171205E+03 0.  0.
         25    2    1    2    0    0 -0.43246850034E+01 -0.21576348080E+02  0.24316491020E+03  0.27429447947E+03  0.12499618483E+03 0.  0.
          5    1    3    3  502    0  0.25551936810E+02  0.11429680929E+02  0.20214016938E+03  0.20412319113E+03  0.47000000000E+01 0. -1.
         -5    1    3    3    0  502 -0.21227251806E+02  0.10146667151E+02 -0.10131636449E+02  0.26044022935E+02  0.47000000000E+01 0. -1.
          5    1    4    4  503    0  0.48702312293E+02 -0.19635080377E+02  0.19658371959E+03  0.20353058839E+03  0.47000000000E+01 0.  1.
         -5    1    4    4    0  503 -0.53026997296E+02 -0.19412677032E+01  0.46581190613E+02  0.70763891085E+02  0.47000000000E+01 0.  1.
<mgrwt>
<rscale>  0 0.12692251E+03</rscale>
<asrwt>0</asrwt>
<pdfrwt beam="1">  1        5 0.72279619E-01 0.12692387E+03</pdfrwt>
<pdfrwt beam="2">  1       -5 0.53298659E-02 0.12692387E+03</pdfrwt>
<totfact> 0.28057589E+02</totfact>
</mgrwt>
</event>
<event>
 8    1  0.3542708E-007  0.1257132E+03  0.7546771E-02  0.1233961E+00
          5   -1    0    0  501    0  0.00000000000E+00  0.00000000000E+00  0.66377686177E+02  0.66543874415E+02  0.47000000000E+01 0. -1.
         -5   -1    0    0    0  501 -0.00000000000E+00 -0.00000000000E+00 -0.23905913782E+03  0.23910533532E+03  0.47000000000E+01 0. -1.
         25    2    1    2    0    0 -0.13377791446E+02  0.10561870583E+01 -0.98320216058E+02  0.15959531854E+03  0.12499487981E+03 0.  0.
         25    2    1    2    0    0  0.13377791446E+02 -0.10561870583E+01 -0.74361235589E+02  0.14605389119E+03  0.12498825920E+03 0.  0.
          5    1    4    4  502    0  0.54371096393E+02  0.39871268126E+02 -0.39538797973E+02  0.78302877917E+02  0.47000000000E+01 0.  1.
         -5    1    4    4    0  502 -0.40993304947E+02 -0.40927455184E+02 -0.34822437616E+02  0.67751013275E+02  0.47000000000E+01 0.  1.
          5    1    3    3  503    0 -0.53664169091E+02  0.17793090459E+02 -0.10077820119E+03  0.11564935342E+03  0.47000000000E+01 0. -1.
         -5    1    3    3    0  503  0.40286377645E+02 -0.16736903401E+02  0.24579851298E+01  0.43945965117E+02  0.47000000000E+01 0. -1.
<mgrwt>
<rscale>  0 0.12571152E+03</rscale>
<asrwt>0</asrwt>
<pdfrwt beam="1">  1        5 0.10228289E-01 0.12571317E+03</pdfrwt>
<pdfrwt beam="2">  1       -5 0.36794666E-01 0.12571317E+03</pdfrwt>
<totfact> 0.38844687E+02</totfact>
</mgrwt>
</event>
<event>
 8    1  0.3542708E-007  0.1298336E+03  0.7546771E-02  0.1227704E+00
         -5   -1    0    0    0  501 -0.00000000000E+00  0.00000000000E+00  0.31722961749E+04  0.31722996566E+04  0.47000000000E+01 0.  1.
          5   -1    0    0  501    0  0.00000000000E+00 -0.00000000000E+00 -0.43421112486E+01  0.63987444155E+01  0.47000000000E+01 0.  1.
         25    2    1    2    0    0  0.35094327479E+02  0.42540065342E-01  0.17522830741E+04  0.17570864303E+04  0.12500055236E+03 0.  0.
         25    2    1    2    0    0 -0.35094327479E+02 -0.42540065342E-01  0.14156709896E+04  0.14216119708E+04  0.12499852415E+03 0.  0.
          5    1    3    3  502    0  0.79503055949E+02  0.18017571459E+02  0.10810643675E+04  0.10841437291E+04  0.47000000000E+01 0.  1.
         -5    1    3    3    0  502 -0.44408728471E+02 -0.17975031394E+02  0.67121870659E+03  0.67294270113E+03  0.47000000000E+01 0.  1.
          5    1    4    4  503    0 -0.40789646315E+02 -0.48735905116E+02  0.42845789262E+03  0.43317114336E+03  0.47000000000E+01 0. -1.
         -5    1    4    4    0  503  0.56953188363E+01  0.48693365050E+02  0.98721309698E+03  0.98844082742E+03  0.47000000000E+01 0. -1.
<mgrwt>
<rscale>  0 0.12983307E+03</rscale>
<asrwt>0</asrwt>
<pdfrwt beam="2">  1        5 0.82648693E-03 0.12983355E+03</pdfrwt>
<pdfrwt beam="1">  1       -5 0.48820436E+00 0.12983355E+03</pdfrwt>
<totfact> 0.43920084E+00</totfact>
</mgrwt>
</event>
<event>
 8    1  0.3542708E-007  0.1811783E+03  0.7546771E-02  0.1166669E+00
          5   -1    0    0  501    0  0.00000000000E+00  0.00000000000E+00  0.10143792744E+03  0.10154675339E+03  0.47000000000E+01 0. -1.
         -5   -1    0    0    0  501 -0.00000000000E+00 -0.00000000000E+00 -0.36848714870E+03  0.36851712139E+03  0.47000000000E+01 0. -1.
         25    2    1    2    0    0 -0.41752658486E+02 -0.12432669065E+03 -0.21581798380E+03  0.28178158093E+03  0.12499218663E+03 0.  0.
         25    2    1    2    0    0  0.41752658486E+02  0.12432669065E+03 -0.51231237451E+02  0.18828229385E+03  0.12500068795E+03 0.  0.
          5    1    3    3  502    0  0.12104487094E+02  0.12883441998E+02  0.23521166460E+01  0.18442454778E+02  0.47000000000E+01 0. -1.
         -5    1    3    3    0  502 -0.53857145580E+02 -0.13721013265E+03 -0.21817010045E+03  0.26333912615E+03  0.47000000000E+01 0. -1.
          5    1    4    4  503    0  0.45637660294E+02  0.45400647815E+01  0.18347728134E+02  0.49619928990E+02  0.47000000000E+01 0. -1.
         -5    1    4    4    0  503 -0.38850018082E+01  0.11978662587E+03 -0.69578965585E+02  0.13866236486E+03  0.47000000000E+01 0. -1.
<mgrwt>
<rscale>  0 0.18117685E+03</rscale>
<asrwt>0</asrwt>
<pdfrwt beam="1">  1        5 0.15616512E-01 0.18117832E+03</pdfrwt>
<pdfrwt beam="2">  1       -5 0.56701007E-01 0.18117832E+03</pdfrwt>
<totfact> 0.83115832E+01</totfact>
</mgrwt>
</event>
<event>
 8    1  0.3542708E-007  0.1688395E+03  0.7546771E-02  0.1179064E+00
          5   -1    0    0  501    0  0.00000000000E+00  0.00000000000E+00  0.74995605769E+02  0.75142736739E+02  0.47000000000E+01 0. -1.
         -5   -1    0    0    0  501 -0.00000000000E+00 -0.00000000000E+00 -0.39555317975E+03  0.39558110168E+03  0.47000000000E+01 0. -1.
         25    2    1    2    0    0  0.10509940531E+03  0.42855755201E+02 -0.11298650302E+03  0.20315602291E+03  0.12499567605E+03 0.  0.
         25    2    1    2    0    0 -0.10509940531E+03 -0.42855755201E+02 -0.20757107096E+03  0.26756781551E+03  0.12499714255E+03 0.  0.
          5    1    4    4  502    0 -0.61931873725E+02 -0.24162060444E+02 -0.13728458800E+02  0.68043535542E+02  0.47000000000E+01 0.  1.
         -5    1    4    4    0  502 -0.43167531588E+02 -0.18693694757E+02 -0.19384261216E+03  0.19952427997E+03  0.47000000000E+01 0.  1.
          5    1    3    3  503    0  0.52004683633E+02  0.62035152823E+02 -0.50326381720E+01  0.81242013469E+02  0.47000000000E+01 0. -1.
         -5    1    3    3    0  503  0.53094721680E+02 -0.19179397622E+02 -0.10795386484E+03  0.12191400944E+03  0.47000000000E+01 0. -1.
<mgrwt>
<rscale>  0 0.16883926E+03</rscale>
<asrwt>0</asrwt>
<pdfrwt beam="1">  1        5 0.11551251E-01 0.16883953E+03</pdfrwt>
<pdfrwt beam="2">  1       -5 0.60867800E-01 0.16883953E+03</pdfrwt>
<totfact> 0.11992079E+02</totfact>
</mgrwt>
</event>
<event>
 8    1  0.3542708E-007  0.1448855E+03  0.7546771E-02  0.1206905E+00
          5   -1    0    0  501    0  0.00000000000E+00  0.00000000000E+00  0.11816844642E+04  0.11816938110E+04  0.47000000000E+01 0. -1.
         -5   -1    0    0    0  501 -0.00000000000E+00 -0.00000000000E+00 -0.18342497793E+02  0.18935079226E+02  0.47000000000E+01 0. -1.
         25    2    1    2    0    0  0.59419753990E+02 -0.42852350823E+02  0.45090968200E+03  0.47361520040E+03  0.12499914238E+03 0.  0.
         25    2    1    2    0    0 -0.59419753990E+02  0.42852350823E+02  0.71243228443E+03  0.72701368983E+03  0.12498845617E+03 0.  0.
          5    1    3    3  502    0  0.40306227684E+02  0.36476525453E+02  0.10679123302E+03  0.11992325191E+03  0.47000000000E+01 0. -1.
         -5    1    3    3    0  502  0.19113526306E+02 -0.79328876275E+02  0.34411844897E+03  0.35369194849E+03  0.47000000000E+01 0. -1.
          5    1    4    4  503    0  0.38716334474E+02  0.70700729376E+01  0.16591724371E+03  0.17058593801E+03  0.47000000000E+01 0.  1.
         -5    1    4    4    0  503 -0.98136088464E+02  0.35782277885E+02  0.54651504072E+03  0.55642775182E+03  0.47000000000E+01 0.  1.
<mgrwt>
<rscale>  0 0.14488322E+03</rscale>
<asrwt>0</asrwt>
<pdfrwt beam="1">  1        5 0.18184391E+00 0.14488553E+03</pdfrwt>
<pdfrwt beam="2">  1       -5 0.28682249E-02 0.14488553E+03</pdfrwt>
<totfact> 0.77244730E+01</totfact>
</mgrwt>
</event>
<event>
 8    1  0.3542708E-007  0.1262229E+03  0.7546771E-02  0.1233172E+00
         -5   -1    0    0    0  501 -0.00000000000E+00  0.00000000000E+00  0.45197552911E+02  0.45441267469E+02  0.47000000000E+01 0. -1.
          5   -1    0    0  501    0  0.00000000000E+00 -0.00000000000E+00 -0.36883749254E+03  0.36886743676E+03  0.47000000000E+01 0. -1.
         25    2    1    2    0    0  0.17323382005E+02  0.28237775825E+01 -0.11664389552E+03  0.17186627694E+03  0.12499658196E+03 0.  0.
         25    2    1    2    0    0 -0.17323382005E+02 -0.28237775825E+01 -0.20699604411E+03  0.24244242729E+03  0.12499157968E+03 0.  0.
          5    1    3    3  502    0  0.33686191529E+02  0.40960350809E+02 -0.59701365975E+01  0.53574642968E+02  0.47000000000E+01 0.  1.
         -5    1    3    3    0  502 -0.16362809524E+02 -0.38136573227E+02 -0.11067375892E+03  0.11829163397E+03  0.47000000000E+01 0.  1.
          5    1    4    4  503    0 -0.24778569872E+02  0.32127726192E+02 -0.20195768813E+03  0.20604651443E+03  0.47000000000E+01 0.  1.
         -5    1    4    4    0  503  0.74551878672E+01 -0.34951503774E+02 -0.50383559830E+01  0.36395912864E+02  0.47000000000E+01 0.  1.
<mgrwt>
<rscale>  0 0.12622165E+03</rscale>
<asrwt>0</asrwt>
<pdfrwt beam="2">  1        5 0.56765278E-01 0.12622289E+03</pdfrwt>
<pdfrwt beam="1">  1       -5 0.69745206E-02 0.12622289E+03</pdfrwt>
<totfact> 0.30412823E+02</totfact>
</mgrwt>
</event>
<event>
 8    1  0.3542708E-007  0.1501329E+03  0.7546771E-02  0.1200311E+00
         -5   -1    0    0    0  501 -0.00000000000E+00  0.00000000000E+00  0.13547234599E+03  0.13555385103E+03  0.47000000000E+01 0. -1.
          5   -1    0    0  501    0  0.00000000000E+00 -0.00000000000E+00 -0.21816672493E+03  0.21821734548E+03  0.47000000000E+01 0. -1.
         25    2    1    2    0    0  0.83142286885E+02  0.11321399995E+01  0.44946915282E+02  0.15671232150E+03  0.12499841962E+03 0.  0.
         25    2    1    2    0    0 -0.83142286885E+02 -0.11321399995E+01 -0.12764129423E+03  0.19705887500E+03  0.12500391441E+03 0.  0.
          5    1    4    4  502    0 -0.22994024260E+02  0.40310503975E+02 -0.11322732008E+03  0.12245888246E+03  0.47000000000E+01 0. -1.
         -5    1    4    4    0  502 -0.60148262625E+02 -0.41442643974E+02 -0.14413974149E+02  0.74599992541E+02  0.47000000000E+01 0. -1.
          5    1    3    3  503    0  0.39843613936E+02  0.48723741020E+02  0.63554699995E+02  0.89570120029E+02  0.47000000000E+01 0. -1.
         -5    1    3    3    0  503  0.43298672949E+02 -0.47591601021E+02 -0.18607784714E+02  0.67142201475E+02  0.47000000000E+01 0. -1.
<mgrwt>
<rscale>  0 0.15013180E+03</rscale>
<asrwt>0</asrwt>
<pdfrwt beam="2">  1        5 0.33574275E-01 0.15013294E+03</pdfrwt>
<pdfrwt beam="1">  1       -5 0.20852063E-01 0.15013294E+03</pdfrwt>
<totfact> 0.13691241E+02</totfact>
</mgrwt>
</event>
<event>
 8    1  0.3542708E-007  0.1370115E+03  0.7546771E-02  0.1217413E+00
         -5   -1    0    0    0  501 -0.00000000000E+00  0.00000000000E+00  0.11809042773E+03  0.11818392074E+03  0.47000000000E+01 0. -1.
          5   -1    0    0  501    0  0.00000000000E+00 -0.00000000000E+00 -0.16123222872E+03  0.16130071785E+03  0.47000000000E+01 0. -1.
         25    2    1    2    0    0  0.55213918789E+02  0.10005327372E+02 -0.42651715493E+01  0.13707789527E+03  0.12499389697E+03 0.  0.
         25    2    1    2    0    0 -0.55213918789E+02 -0.10005327372E+02 -0.38876629444E+02  0.14240674332E+03  0.12497841742E+03 0.  0.
          5    1    4    4  502    0 -0.92352827211E+02  0.36681206816E+01 -0.97779932642E+01  0.93060189961E+02  0.47000000000E+01 0.  1.
         -5    1    4    4    0  502  0.37138908423E+02 -0.13673448054E+02 -0.29098636179E+02  0.49346553355E+02  0.47000000000E+01 0.  1.
          5    1    3    3  503    0  0.72974973161E+02 -0.40048625390E+02  0.19513771754E+01  0.83397463848E+02  0.47000000000E+01 0. -1.
         -5    1    3    3    0  503 -0.17761054372E+02  0.50053952763E+02 -0.62165487248E+01  0.53680431422E+02  0.47000000000E+01 0. -1.
<mgrwt>
<rscale>  0 0.13700799E+03</rscale>
<asrwt>0</asrwt>
<pdfrwt beam="2">  1        5 0.24817418E-01 0.13701152E+03</pdfrwt>
<pdfrwt beam="1">  1       -5 0.18180218E-01 0.13701152E+03</pdfrwt>
<totfact> 0.30944677E+02</totfact>
</mgrwt>
</event>
<event>
 8    1  0.3542708E-007  0.1940792E+03  0.7546771E-02  0.1154833E+00
         -5   -1    0    0    0  501 -0.00000000000E+00  0.00000000000E+00  0.89645702571E+02  0.89768825265E+02  0.47000000000E+01 0.  1.
          5   -1    0    0  501    0  0.00000000000E+00 -0.00000000000E+00 -0.42445963080E+03  0.42448565132E+03  0.47000000000E+01 0.  1.
         25    2    1    2    0    0 -0.69614722022E+02 -0.13113290052E+03 -0.14030550245E+03  0.23948132863E+03  0.12499450237E+03 0.  0.
         25    2    1    2    0    0  0.69614722022E+02  0.13113290052E+03 -0.19450842577E+03  0.27477314795E+03  0.12499883207E+03 0.  0.
          5    1    3    3  502    0 -0.32440748897E+01 -0.23539527214E+02 -0.10554335012E+03  0.10828722047E+03  0.47000000000E+01 0.  1.
         -5    1    3    3    0  502 -0.66370647132E+02 -0.10759337331E+03 -0.34762152338E+02  0.13119410816E+03  0.47000000000E+01 0.  1.
          5    1    4    4  503    0  0.65802795366E+02  0.50352039975E+02 -0.24628993757E+02  0.86567968332E+02  0.47000000000E+01 0. -1.
         -5    1    4    4    0  503  0.38119266556E+01  0.80780860546E+02 -0.16987943201E+03  0.18820517962E+03  0.47000000000E+01 0. -1.
<mgrwt>
<rscale>  0 0.19407855E+03</rscale>
<asrwt>0</asrwt>
<pdfrwt beam="2">  1        5 0.65312953E-01 0.19407925E+03</pdfrwt>
<pdfrwt beam="1">  1       -5 0.13803119E-01 0.19407925E+03</pdfrwt>
<totfact> 0.77614873E+01</totfact>
</mgrwt>
</event>
<event>
 8    1  0.3542708E-007  0.1280915E+03  0.7546771E-02  0.1230316E+00
         -5   -1    0    0    0  501 -0.00000000000E+00  0.00000000000E+00  0.11538510885E+03  0.11548079210E+03  0.47000000000E+01 0. -1.
          5   -1    0    0  501    0  0.00000000000E+00 -0.00000000000E+00 -0.15500723155E+03  0.15507846992E+03  0.47000000000E+01 0. -1.
         25    2    1    2    0    0  0.27980868235E+02  0.10491162471E+01  0.19350545775E+02  0.12954488877E+03  0.12499361965E+03 0.  0.
         25    2    1    2    0    0 -0.27980868235E+02 -0.10491162471E+01 -0.58972668469E+02  0.14101437325E+03  0.12499299262E+03 0.  0.
          5    1    4    4  502    0  0.63675994668E+01  0.28827405234E+02  0.29126324566E+02  0.41737254320E+02  0.47000000000E+01 0. -1.
         -5    1    4    4    0  502 -0.34348467702E+02 -0.29876521481E+02 -0.88098993034E+02  0.99277118929E+02  0.47000000000E+01 0. -1.
          5    1    3    3  503    0  0.18151289920E+02  0.13804732572E+02 -0.51614932463E+02  0.56623592435E+02  0.47000000000E+01 0.  1.
         -5    1    3    3    0  503  0.98295783156E+01 -0.12755616325E+02  0.70965478238E+02  0.72921296336E+02  0.47000000000E+01 0.  1.
<mgrwt>
<rscale>  0 0.12809136E+03</rscale>
<asrwt>0</asrwt>
<pdfrwt beam="2">  1        5 0.23860107E-01 0.12809151E+03</pdfrwt>
<pdfrwt beam="1">  1       -5 0.17764395E-01 0.12809151E+03</pdfrwt>
<totfact> 0.33986355E+02</totfact>
</mgrwt>
</event>
<event>
 8    1  0.3542708E-007  0.1332856E+03  0.7546771E-02  0.1222661E+00
         -5   -1    0    0    0  501 -0.00000000000E+00  0.00000000000E+00  0.52345676378E+03  0.52347786347E+03  0.47000000000E+01 0. -1.
          5   -1    0    0  501    0  0.00000000000E+00 -0.00000000000E+00 -0.44274989320E+02  0.44523754101E+02  0.47000000000E+01 0. -1.
         25    2    1    2    0    0 -0.15991563833E+02 -0.43397588975E+02  0.37756298746E+03  0.40039836499E+03  0.12500384132E+03 0.  0.
         25    2    1    2    0    0  0.15991563833E+02  0.43397588975E+02  0.10161878700E+03  0.16760325258E+03  0.12500156624E+03 0.  0.
          5    1    4    4  502    0  0.54489210608E+02  0.24478742775E+02  0.10846139911E+03  0.12391225935E+03  0.47000000000E+01 0.  1.
         -5    1    4    4    0  502 -0.38497646775E+02  0.18918846200E+02 -0.68426121157E+01  0.43690993229E+02  0.47000000000E+01 0.  1.
          5    1    3    3  503    0  0.45778793666E+02 -0.49802223952E+02  0.15287473117E+03  0.16723855085E+03  0.47000000000E+01 0. -1.
         -5    1    3    3    0  503 -0.61770357499E+02  0.64046349774E+01  0.22468825629E+03  0.23315981414E+03  0.47000000000E+01 0. -1.
<mgrwt>
<rscale>  0 0.13328503E+03</rscale>
<asrwt>0</asrwt>
<pdfrwt beam="2">  1        5 0.68322955E-02 0.13328556E+03</pdfrwt>
<pdfrwt beam="1">  1       -5 0.80552570E-01 0.13328556E+03</pdfrwt>
<totfact> 0.14678213E+02</totfact>
</mgrwt>
</event>
<event>
 8    1  0.3542708E-007  0.1319847E+03  0.7546771E-02  0.1224543E+00
         -5   -1    0    0    0  501 -0.00000000000E+00  0.00000000000E+00  0.26197881007E+03  0.26202096658E+03  0.47000000000E+01 0. -1.
          5   -1    0    0  501    0  0.00000000000E+00 -0.00000000000E+00 -0.72206215409E+02  0.72359018399E+02  0.47000000000E+01 0. -1.
         25    2    1    2    0    0  0.21093998922E+02 -0.36743902894E+02  0.14239530193E+03  0.19415553719E+03  0.12499951768E+03 0.  0.
         25    2    1    2    0    0 -0.21093998922E+02  0.36743902894E+02  0.47377292731E+02  0.14022444779E+03  0.12499286660E+03 0.  0.
          5    1    3    3  502    0  0.30391465122E+02 -0.33790101248E+02  0.16386190442E+03  0.17011239171E+03  0.47000000000E+01 0.  1.
         -5    1    3    3    0  502 -0.92974661996E+01 -0.29538016462E+01 -0.21466602490E+02  0.24043145476E+02  0.47000000000E+01 0.  1.
          5    1    4    4  503    0  0.51780085185E+02  0.46718281211E+01  0.19873484318E+02  0.55857395022E+02  0.47000000000E+01 0. -1.
         -5    1    4    4    0  503 -0.72874084107E+02  0.32072074773E+02  0.27503808414E+02  0.84367052763E+02  0.47000000000E+01 0. -1.
<mgrwt>
<rscale>  0 0.13198309E+03</rscale>
<asrwt>0</asrwt>
<pdfrwt beam="2">  1        5 0.11123645E-01 0.13198466E+03</pdfrwt>
<pdfrwt beam="1">  1       -5 0.40319430E-01 0.13198466E+03</pdfrwt>
<totfact> 0.28348774E+02</totfact>
</mgrwt>
</event>
<event>
 8    1  0.3542708E-007  0.1407925E+03  0.7546771E-02  0.1212283E+00
         -5   -1    0    0    0  501 -0.00000000000E+00  0.00000000000E+00  0.19909196940E+02  0.20456444530E+02  0.47000000000E+01 0.  1.
          5   -1    0    0  501    0  0.00000000000E+00 -0.00000000000E+00 -0.98783478024E+03  0.98784596119E+03  0.47000000000E+01 0.  1.
         25    2    1    2    0    0 -0.30515871799E+02  0.57155065184E+02 -0.44290806338E+03  0.46474733222E+03  0.12499844115E+03 0.  0.
         25    2    1    2    0    0  0.30515871799E+02 -0.57155065184E+02 -0.52501751991E+03  0.54355507350E+03  0.12494319431E+03 0.  0.
          5    1    4    4  502    0  0.45168053000E+02  0.25076839337E+02 -0.13406216343E+03  0.14374892885E+03  0.47000000000E+01 0. -1.
         -5    1    4    4    0  502 -0.14652181201E+02 -0.82231904522E+02 -0.39095535648E+03  0.39980614465E+03  0.47000000000E+01 0. -1.
          5    1    3    3  503    0  0.22984157244E+02  0.38392769585E+01 -0.10883468452E+02  0.26144816261E+02  0.47000000000E+01 0.  1.
         -5    1    3    3    0  503 -0.53500029043E+02  0.53315788226E+02 -0.43202459493E+03  0.43860251596E+03  0.47000000000E+01 0.  1.
<mgrwt>
<rscale>  0 0.14078024E+03</rscale>
<asrwt>0</asrwt>
<pdfrwt beam="2">  1        5 0.15201750E+00 0.14079251E+03</pdfrwt>
<pdfrwt beam="1">  1       -5 0.31059102E-02 0.14079251E+03</pdfrwt>
<totfact> 0.11218438E+02</totfact>
</mgrwt>
</event>
<event>
 8    1  0.3542708E-007  0.1603570E+03  0.7546771E-02  0.1188294E+00
          5   -1    0    0  501    0  0.00000000000E+00  0.00000000000E+00  0.34330782581E+03  0.34333999660E+03  0.47000000000E+01 0.  1.
         -5   -1    0    0    0  501 -0.00000000000E+00 -0.00000000000E+00 -0.75139179940E+02  0.75286030325E+02  0.47000000000E+01 0.  1.
         25    2    1    2    0    0  0.81879285837E+02  0.58193581017E+02  0.14829228164E+03  0.21841435130E+03  0.12499407081E+03 0.  0.
         25    2    1    2    0    0 -0.81879285837E+02 -0.58193581017E+02  0.11987636423E+03  0.20021167562E+03  0.12499464803E+03 0.  0.
          5    1    3    3  502    0  0.13178812615E+02  0.68540984572E+02  0.20524828255E+02  0.72903403507E+02  0.47000000000E+01 0. -1.
         -5    1    3    3    0  502  0.68700473222E+02 -0.10347403554E+02  0.12776745339E+03  0.14551094779E+03  0.47000000000E+01 0. -1.
          5    1    4    4  503    0 -0.78381360886E+02 -0.86655980800E+02  0.12447673447E+03  0.17079064426E+03  0.47000000000E+01 0. -1.
         -5    1    4    4    0  503 -0.34979249511E+01  0.28462399782E+02 -0.46003702388E+01  0.29421031366E+02  0.47000000000E+01 0. -1.
<mgrwt>
<rscale>  0 0.16035690E+03</rscale>
<asrwt>0</asrwt>
<pdfrwt beam="1">  1        5 0.52830360E-01 0.16035702E+03</pdfrwt>
<pdfrwt beam="2">  1       -5 0.11573645E-01 0.16035702E+03</pdfrwt>
<totfact> 0.16009794E+02</totfact>
</mgrwt>
</event>
<event>
 8    1  0.3542708E-007  0.1881108E+03  0.7546771E-02  0.1160177E+00
          5   -1    0    0  501    0  0.00000000000E+00  0.00000000000E+00  0.10822990806E+03  0.10833191126E+03  0.47000000000E+01 0. -1.
         -5   -1    0    0    0  501 -0.00000000000E+00 -0.00000000000E+00 -0.18068006653E+04  0.18068067783E+04  0.47000000000E+01 0.  1.
         25    2    1    2    0    0  0.13296799442E+03  0.45596277027E+02 -0.17159502155E+04  0.17262302344E+04  0.12500468849E+03 0.  0.
         25    2    1    2    0    0 -0.13296799442E+03 -0.45596277027E+02  0.17379458206E+02  0.18890845520E+03  0.12499940344E+03 0.  0.
          5    1    3    3  502    0  0.79905696255E+02 -0.36493858762E+02 -0.67960575356E+03  0.68527570532E+03  0.47000000000E+01 0.  1.
         -5    1    3    3    0  502  0.53062298161E+02  0.82090135789E+02 -0.10363444619E+04  0.10409545291E+04  0.47000000000E+01 0.  1.
          5    1    4    4  503    0 -0.11507756379E+03  0.12664819149E+02 -0.19530411068E+02  0.11750221398E+03  0.47000000000E+01 0.  1.
         -5    1    4    4    0  503 -0.17890430621E+02 -0.58261096176E+02  0.36909869274E+02  0.71406241220E+02  0.47000000000E+01 0.  1.
<mgrwt>
<rscale>  0 0.18810994E+03</rscale>
<asrwt>0</asrwt>
<pdfrwt beam="1">  1        5 0.16659073E-01 0.18811082E+03</pdfrwt>
<pdfrwt beam="2">  1       -5 0.27797763E+00 0.18811082E+03</pdfrwt>
<totfact> 0.94663261E-01</totfact>
</mgrwt>
</event>
<event>
 8    1  0.3542708E-007  0.1272707E+03  0.7546771E-02  0.1231563E+00
          5   -1    0    0  501    0  0.00000000000E+00  0.00000000000E+00  0.63343015396E+02  0.63517144138E+02  0.47000000000E+01 0. -1.
         -5   -1    0    0    0  501 -0.00000000000E+00 -0.00000000000E+00 -0.30138739776E+03  0.30142404272E+03  0.47000000000E+01 0. -1.
         25    2    1    2    0    0 -0.20794564009E+02 -0.11856505540E+02 -0.19045330070E+03  0.22906352454E+03  0.12499859164E+03 0.  0.
         25    2    1    2    0    0  0.20794564009E+02  0.11856505540E+02 -0.47591081669E+02  0.13587766232E+03  0.12499934979E+03 0.  0.
          5    1    3    3  502    0  0.27594007399E+02  0.58417946299E+01 -0.17164937205E+03  0.17401480607E+03  0.47000000000E+01 0. -1.
         -5    1    3    3    0  502 -0.48388571408E+02 -0.17698300170E+02 -0.18803928651E+02  0.55048718464E+02  0.47000000000E+01 0. -1.
          5    1    4    4  503    0 -0.10278268624E+02  0.37704831162E+01  0.40386063302E+02  0.42106810113E+02  0.47000000000E+01 0.  1.
         -5    1    4    4    0  503  0.31072832633E+02  0.80860224240E+01 -0.87977144971E+02  0.93770852208E+02  0.47000000000E+01 0.  1.
<mgrwt>
<rscale>  0 0.12727050E+03</rscale>
<asrwt>0</asrwt>
<pdfrwt beam="1">  1        5 0.97612928E-02 0.12727069E+03</pdfrwt>
<pdfrwt beam="2">  1       -5 0.46383504E-01 0.12727069E+03</pdfrwt>
<totfact> 0.26316868E+02</totfact>
</mgrwt>
</event>
<event>
 8    1  0.3542708E-007  0.1274853E+03  0.7546771E-02  0.1231236E+00
          5   -1    0    0  501    0  0.00000000000E+00  0.00000000000E+00  0.39211769619E+03  0.39214586274E+03  0.47000000000E+01 0. -1.
         -5   -1    0    0    0  501 -0.00000000000E+00 -0.00000000000E+00 -0.11952400395E+03  0.11961637647E+03  0.47000000000E+01 0. -1.
         25    2    1    2    0    0 -0.24749068675E+02  0.38432341284E+01 -0.70548273841E+02  0.14570362048E+03  0.12500079692E+03 0.  0.
         25    2    1    2    0    0  0.24749068675E+02 -0.38432341284E+01  0.34314196609E+03  0.36605861873E+03  0.12500086644E+03 0.  0.
          5    1    4    4  502    0 -0.72683705062E+01 -0.15576834175E+02 -0.31188853783E+01  0.18091003807E+02  0.47000000000E+01 0. -1.
         -5    1    4    4    0  502  0.32017439181E+02  0.11733600047E+02  0.34626085146E+03  0.34796761493E+03  0.47000000000E+01 0. -1.
          5    1    3    3  503    0 -0.42313787957E+02 -0.37628325244E+01 -0.10086315968E+03  0.10954488825E+03  0.47000000000E+01 0. -1.
         -5    1    3    3    0  503  0.17564719282E+02  0.76060666527E+01  0.30314885840E+02  0.36158732235E+02  0.47000000000E+01 0. -1.
<mgrwt>
<rscale>  0 0.12748529E+03</rscale>
<asrwt>0</asrwt>
<pdfrwt beam="1">  1        5 0.60335071E-01 0.12748531E+03</pdfrwt>
<pdfrwt beam="2">  1       -5 0.18397581E-01 0.12748531E+03</pdfrwt>
<totfact> 0.48283387E+01</totfact>
</mgrwt>
</event>
<event>
 8    1  0.3542708E-007  0.1465948E+03  0.7546771E-02  0.1204723E+00
         -5   -1    0    0    0  501 -0.00000000000E+00  0.00000000000E+00  0.83496223487E+03  0.83497546291E+03  0.47000000000E+01 0.  1.
          5   -1    0    0  501    0  0.00000000000E+00 -0.00000000000E+00 -0.25848662262E+02  0.26272482577E+02  0.47000000000E+01 0.  1.
         25    2    1    2    0    0  0.46442558153E+02 -0.60891474933E+02  0.45355662259E+03  0.47665884432E+03  0.12500144416E+03 0.  0.
         25    2    1    2    0    0 -0.46442558153E+02  0.60891474933E+02  0.35555695002E+03  0.38458910117E+03  0.12499339625E+03 0.  0.
          5    1    3    3  502    0  0.39801830308E+02 -0.44313421995E+01  0.32593202797E+02  0.51848137460E+02  0.47000000000E+01 0. -1.
         -5    1    3    3    0  502  0.66407278457E+01 -0.56460132734E+02  0.42096341979E+03  0.42481070686E+03  0.47000000000E+01 0. -1.
          5    1    4    4  503    0 -0.34883879635E+02 -0.31826524860E+02  0.74114230026E+02  0.88004669395E+02  0.47000000000E+01 0. -1.
         -5    1    4    4    0  503 -0.11558678519E+02  0.92717999793E+02  0.28144271999E+03  0.29658443177E+03  0.47000000000E+01 0. -1.
<mgrwt>
<rscale>  0 0.14659311E+03</rscale>
<asrwt>0</asrwt>
<pdfrwt beam="2">  1        5 0.40103361E-02 0.14659483E+03</pdfrwt>
<pdfrwt beam="1">  1       -5 0.12848936E+00 0.14659483E+03</pdfrwt>
<totfact> 0.11730037E+02</totfact>
</mgrwt>
</event>
<event>
 8    1  0.3542708E-007  0.1322674E+03  0.7546771E-02  0.1224130E+00
          5   -1    0    0  501    0  0.00000000000E+00  0.00000000000E+00  0.28018909085E+03  0.28022850788E+03  0.47000000000E+01 0.  1.
         -5   -1    0    0    0  501 -0.00000000000E+00 -0.00000000000E+00 -0.62759315960E+02  0.62935059703E+02  0.47000000000E+01 0.  1.
         25    2    1    2    0    0  0.37737635559E+02  0.21119135903E+02  0.94161741930E+02  0.16236072791E+03  0.12499770112E+03 0.  0.
         25    2    1    2    0    0 -0.37737635559E+02 -0.21119135903E+02  0.12326803296E+03  0.18080283967E+03  0.12499804737E+03 0.  0.
          5    1    3    3  502    0 -0.52741532033E+01  0.50207214454E+02  0.97733194925E+02  0.11010199120E+03  0.47000000000E+01 0.  1.
         -5    1    3    3    0  502  0.43011788762E+02 -0.29088078551E+02 -0.35714529954E+01  0.52258736713E+02  0.47000000000E+01 0.  1.
          5    1    4    4  503    0 -0.75173668065E+02 -0.38790926403E+02  0.10601214532E+03  0.13570733693E+03  0.47000000000E+01 0.  1.
         -5    1    4    4    0  503  0.37436032506E+02  0.17671790501E+02  0.17255887631E+02  0.45095502739E+02  0.47000000000E+01 0.  1.
<mgrwt>
<rscale>  0 0.13226729E+03</rscale>
<asrwt>0</asrwt>
<pdfrwt beam="1">  1        5 0.43122564E-01 0.13226738E+03</pdfrwt>
<pdfrwt beam="2">  1       -5 0.96718304E-02 0.13226738E+03</pdfrwt>
<totfact> 0.31555350E+02</totfact>
</mgrwt>
</event>
<event>
 8    1  0.3542708E-007  0.1265734E+03  0.7546771E-02  0.1232632E+00
         -5   -1    0    0    0  501 -0.00000000000E+00  0.00000000000E+00  0.23552708814E+03  0.23557397829E+03  0.47000000000E+01 0.  1.
          5   -1    0    0  501    0  0.00000000000E+00 -0.00000000000E+00 -0.73580280058E+02  0.73730235409E+02  0.47000000000E+01 0.  1.
         25    2    1    2    0    0  0.11436571021E+02 -0.16269616835E+02  0.12394053922E+03  0.17714782231E+03  0.12499839238E+03 0.  0.
         25    2    1    2    0    0 -0.11436571021E+02  0.16269616835E+02  0.38006268870E+02  0.13215639140E+03  0.12500135889E+03 0.  0.
          5    1    3    3  502    0  0.25126886669E+02  0.51324597648E+02  0.59806797508E+02  0.82852385515E+02  0.47000000000E+01 0. -1.
         -5    1    3    3    0  502 -0.13690315648E+02 -0.67594214484E+02  0.64133741708E+02  0.94295436792E+02  0.47000000000E+01 0. -1.
          5    1    4    4  503    0  0.27473472026E+02  0.46512016919E+02  0.57424402593E+02  0.78979816385E+02  0.47000000000E+01 0. -1.
         -5    1    4    4    0  503 -0.38910043046E+02 -0.30242400084E+02 -0.19418133723E+02  0.53176575012E+02  0.47000000000E+01 0. -1.
<mgrwt>
<rscale>  0 0.12657271E+03</rscale>
<asrwt>0</asrwt>
<pdfrwt beam="2">  1        5 0.11335185E-01 0.12657344E+03</pdfrwt>
<pdfrwt beam="1">  1       -5 0.36250079E-01 0.12657344E+03</pdfrwt>
<totfact> 0.33514440E+02</totfact>
</mgrwt>
</event>
<event>
 8    1  0.3542708E-007  0.1970305E+03  0.7546771E-02  0.1152269E+00
         -5   -1    0    0    0  501 -0.00000000000E+00  0.00000000000E+00  0.51313389111E+03  0.51315541525E+03  0.47000000000E+01 0. -1.
          5   -1    0    0  501    0  0.00000000000E+00 -0.00000000000E+00 -0.75559896039E+02  0.75705930345E+02  0.47000000000E+01 0. -1.
         25    2    1    2    0    0 -0.11404861027E+03  0.10093867769E+03  0.21752031118E+03  0.29348955142E+03  0.12500131542E+03 0.  0.
         25    2    1    2    0    0  0.11404861027E+03 -0.10093867769E+03  0.22005368389E+03  0.29537179418E+03  0.12500068339E+03 0.  0.
          5    1    3    3  502    0 -0.41154464384E+01  0.83367717612E+02  0.11420983344E+03  0.14153829621E+03  0.47000000000E+01 0. -1.
         -5    1    3    3    0  502 -0.10993316383E+03  0.17570960076E+02  0.10331047774E+03  0.15195125521E+03  0.47000000000E+01 0. -1.
          5    1    4    4  503    0 -0.20093324225E+02  0.92509630196E+01  0.17706227063E+02  0.28721463612E+02  0.47000000000E+01 0.  1.
         -5    1    4    4    0  503  0.13414193450E+03 -0.11018964071E+03  0.20234745682E+03  0.26665033057E+03  0.47000000000E+01 0.  1.
<mgrwt>
<rscale>  0 0.19703043E+03</rscale>
<asrwt>0</asrwt>
<pdfrwt beam="2">  1        5 0.11637489E-01 0.19703053E+03</pdfrwt>
<pdfrwt beam="1">  1       -5 0.78956562E-01 0.19703053E+03</pdfrwt>
<totfact> 0.68650335E+01</totfact>
</mgrwt>
</event>
<event>
 8    1  0.3542708E-007  0.1305585E+03  0.7546771E-02  0.1226632E+00
         -5   -1    0    0    0  501 -0.00000000000E+00  0.00000000000E+00  0.15384978793E+03  0.15392156199E+03  0.47000000000E+01 0.  1.
          5   -1    0    0  501    0  0.00000000000E+00 -0.00000000000E+00 -0.12108884388E+03  0.12118002357E+03  0.47000000000E+01 0.  1.
         25    2    1    2    0    0  0.31158461469E+02 -0.21185423843E+02  0.56759248623E+02  0.14235577289E+03  0.12499552739E+03 0.  0.
         25    2    1    2    0    0 -0.31158461469E+02  0.21185423843E+02 -0.23998304572E+02  0.13274581267E+03  0.12500344097E+03 0.  0.
          5    1    4    4  502    0  0.50846359562E+00  0.68568191775E+02  0.44527660150E+01  0.68875050517E+02  0.47000000000E+01 0. -1.
         -5    1    4    4    0  502 -0.31666925065E+02 -0.47382767932E+02 -0.28451070587E+02  0.63870762149E+02  0.47000000000E+01 0. -1.
          5    1    3    3  503    0  0.54500527756E+02 -0.55858861381E+02  0.89754695759E+01  0.78696689731E+02  0.47000000000E+01 0.  1.
         -5    1    3    3    0  503 -0.23342066287E+02  0.34673437538E+02  0.47783779047E+02  0.63659083164E+02  0.47000000000E+01 0.  1.
<mgrwt>
<rscale>  0 0.13055664E+03</rscale>
<asrwt>0</asrwt>
<pdfrwt beam="2">  1        5 0.18641588E-01 0.13055854E+03</pdfrwt>
<pdfrwt beam="1">  1       -5 0.23681733E-01 0.13055854E+03</pdfrwt>
<totfact> 0.31763800E+02</totfact>
</mgrwt>
</event>
<event>
 8    1  0.3542708E-007  0.1517717E+03  0.7546771E-02  0.1198314E+00
          5   -1    0    0  501    0  0.00000000000E+00  0.00000000000E+00  0.11794014393E+03  0.11803375598E+03  0.47000000000E+01 0.  1.
         -5   -1    0    0    0  501 -0.00000000000E+00 -0.00000000000E+00 -0.20302193484E+03  0.20307633054E+03  0.47000000000E+01 0.  1.
         25    2    1    2    0    0  0.38645495229E+02 -0.76911622380E+02 -0.74234519600E+02  0.16895383976E+03  0.12500305640E+03 0.  0.
         25    2    1    2    0    0 -0.38645495229E+02  0.76911622380E+02 -0.10847271310E+02  0.15215624676E+03  0.12499995270E+03 0.  0.
          5    1    3    3  502    0 -0.44104157209E+02 -0.35619088771E+02 -0.14316764183E+02  0.58659661648E+02  0.47000000000E+01 0.  1.
         -5    1    3    3    0  502  0.82749652438E+02 -0.41292533609E+02 -0.59917755418E+02  0.11029417811E+03  0.47000000000E+01 0.  1.
          5    1    4    4  503    0  0.10303061032E+02  0.60187164001E+02  0.44917533993E+02  0.75949474239E+02  0.47000000000E+01 0. -1.
         -5    1    4    4    0  503 -0.48948556261E+02  0.16724458379E+02 -0.55764805303E+02  0.76206772524E+02  0.47000000000E+01 0. -1.
<mgrwt>
<rscale>  0 0.15177102E+03</rscale>
<asrwt>0</asrwt>
<pdfrwt beam="1">  1        5 0.18156023E-01 0.15177166E+03</pdfrwt>
<pdfrwt beam="2">  1       -5 0.31245529E-01 0.15177166E+03</pdfrwt>
<totfact> 0.20514321E+02</totfact>
</mgrwt>
</event>
<event>
 8    1  0.3542708E-007  0.1950243E+03  0.7546771E-02  0.1154007E+00
         -5   -1    0    0    0  501 -0.00000000000E+00  0.00000000000E+00  0.14300551735E+04  0.14300628969E+04  0.47000000000E+01 0. -1.
          5   -1    0    0  501    0  0.00000000000E+00 -0.00000000000E+00 -0.29280876247E+02  0.29655686028E+02  0.47000000000E+01 0. -1.
         25    2    1    2    0    0  0.14504303111E+03  0.37022134053E+02  0.92852387550E+03  0.94878322381E+03  0.12499959646E+03 0.  0.
         25    2    1    2    0    0 -0.14504303111E+03 -0.37022134053E+02  0.47225042170E+03  0.51093535913E+03  0.12500544439E+03 0.  0.
          5    1    4    4  502    0 -0.15500173481E+02 -0.12164198111E+02 -0.34019208959E+00  0.20259043024E+02  0.47000000000E+01 0.  1.
         -5    1    4    4    0  502 -0.12954285763E+03 -0.24857935942E+02  0.47259061379E+03  0.49067631611E+03  0.47000000000E+01 0.  1.
          5    1    3    3  503    0  0.93091408864E+02  0.41078679900E+02  0.83845995395E+03  0.84462456317E+03  0.47000000000E+01 0. -1.
         -5    1    3    3    0  503  0.51951622251E+02 -0.40565458466E+01  0.90063921555E+02  0.10415866063E+03  0.47000000000E+01 0. -1.
<mgrwt>
<rscale>  0 0.19502337E+03</rscale>
<asrwt>0</asrwt>
<pdfrwt beam="2">  1        5 0.45341754E-02 0.19502431E+03</pdfrwt>
<pdfrwt beam="1">  1       -5 0.22003794E+00 0.19502431E+03</pdfrwt>
<totfact> 0.21656772E+01</totfact>
</mgrwt>
</event>
<event>
 8    1  0.3542708E-007  0.1340641E+03  0.7546771E-02  0.1221551E+00
          5   -1    0    0  501    0  0.00000000000E+00  0.00000000000E+00  0.83791082719E+03  0.83792400868E+03  0.47000000000E+01 0.  1.
         -5   -1    0    0    0  501 -0.00000000000E+00 -0.00000000000E+00 -0.34278608330E+02  0.34599320644E+02  0.47000000000E+01 0.  1.
         25    2    1    2    0    0 -0.45412079993E+02 -0.16813804039E+02  0.13377818748E+03  0.18938526156E+03  0.12500085134E+03 0.  0.
         25    2    1    2    0    0  0.45412079993E+02  0.16813804039E+02  0.66985403138E+03  0.68313806776E+03  0.12501294034E+03 0.  0.
          5    1    4    4  502    0  0.88597478236E+02  0.15142940848E+02  0.48060120877E+03  0.48895647421E+03  0.47000000000E+01 0.  1.
         -5    1    4    4    0  502 -0.43185398243E+02  0.16708631914E+01  0.18925282261E+03  0.19418159354E+03  0.47000000000E+01 0.  1.
          5    1    3    3  503    0  0.15014044943E+02  0.25377570193E+02 -0.67706593676E+01  0.30616571374E+02  0.47000000000E+01 0.  1.
         -5    1    3    3    0  503 -0.60426124936E+02 -0.42191374232E+02  0.14054884685E+03  0.15876869019E+03  0.47000000000E+01 0.  1.
<mgrwt>
<rscale>  0 0.13406133E+03</rscale>
<asrwt>0</asrwt>
<pdfrwt beam="1">  1        5 0.12893503E+00 0.13406415E+03</pdfrwt>
<pdfrwt beam="2">  1       -5 0.52993166E-02 0.13406415E+03</pdfrwt>
<totfact> 0.71323828E+01</totfact>
</mgrwt>
</event>
<event>
 8    1  0.3542708E-007  0.1618033E+03  0.7546771E-02  0.1186677E+00
          5   -1    0    0  501    0  0.00000000000E+00  0.00000000000E+00  0.34959496806E+03  0.34962656034E+03  0.47000000000E+01 0. -1.
         -5   -1    0    0    0  501 -0.00000000000E+00 -0.00000000000E+00 -0.78288015689E+02  0.78428970416E+02  0.47000000000E+01 0. -1.
         25    2    1    2    0    0 -0.97633861995E+02 -0.31977693525E+02  0.90374662590E+02  0.18532771902E+03  0.12499535954E+03 0.  0.
         25    2    1    2    0    0  0.97633861995E+02  0.31977693525E+02  0.18093228978E+03  0.24272781174E+03  0.12500141285E+03 0.  0.
          5    1    4    4  502    0  0.27686069177E+02  0.54954952372E+02  0.15097693116E+03  0.16310330763E+03  0.47000000000E+01 0. -1.
         -5    1    4    4    0  502  0.69947792818E+02 -0.22977258847E+02  0.29955358621E+02  0.79624504107E+02  0.47000000000E+01 0. -1.
          5    1    3    3  503    0 -0.49454070694E+02 -0.12206248805E+02 -0.26264886788E+02  0.57503320740E+02  0.47000000000E+01 0.  1.
         -5    1    3    3    0  503 -0.48179791300E+02 -0.19771444720E+02  0.11663954938E+03  0.12782439828E+03  0.47000000000E+01 0.  1.
<mgrwt>
<rscale>  0 0.16180210E+03</rscale>
<asrwt>0</asrwt>
<pdfrwt beam="1">  1        5 0.53797114E-01 0.16180327E+03</pdfrwt>
<pdfrwt beam="2">  1       -5 0.12057583E-01 0.16180327E+03</pdfrwt>
<totfact> 0.14357113E+02</totfact>
</mgrwt>
</event>
<event>
 8    1  0.3542708E-007  0.1253998E+03  0.7546771E-02  0.1234446E+00
          5   -1    0    0  501    0  0.00000000000E+00  0.00000000000E+00  0.16432275063E+03  0.16438995217E+03  0.47000000000E+01 0. -1.
         -5   -1    0    0    0  501 -0.00000000000E+00 -0.00000000000E+00 -0.98349970362E+02  0.98462209351E+02  0.47000000000E+01 0. -1.
         25    2    1    2    0    0 -0.63008426561E+01  0.77394933346E+01  0.10837984231E+02  0.12586688365E+03  0.12500164048E+03 0.  0.
         25    2    1    2    0    0  0.63008426561E+01 -0.77394933346E+01  0.55134796039E+02  0.13698527787E+03  0.12500208096E+03 0.  0.
          5    1    3    3  502    0  0.31810755408E+02 -0.47882215662E+02  0.21128801522E+01  0.57716418797E+02  0.47000000000E+01 0. -1.
         -5    1    3    3    0  502 -0.38111598064E+02  0.55621708996E+02  0.87251040790E+01  0.68150464854E+02  0.47000000000E+01 0. -1.
          5    1    4    4  503    0  0.73568842151E+01 -0.53165210353E+02 -0.12557850423E+02  0.55321360653E+02  0.47000000000E+01 0. -1.
         -5    1    4    4    0  503 -0.10560415590E+01  0.45425717019E+02  0.67692646463E+02  0.81663917219E+02  0.47000000000E+01 0. -1.
<mgrwt>
<rscale>  0 0.12539973E+03</rscale>
<asrwt>0</asrwt>
<pdfrwt beam="1">  1        5 0.25294226E-01 0.12539984E+03</pdfrwt>
<pdfrwt beam="2">  1       -5 0.15144568E-01 0.12539984E+03</pdfrwt>
<totfact> 0.40353702E+02</totfact>
</mgrwt>
</event>
<event>
 8    1  0.3542708E-007  0.1446311E+03  0.7546771E-02  0.1207232E+00
          5   -1    0    0  501    0  0.00000000000E+00  0.00000000000E+00  0.69968317580E+03  0.69969896134E+03  0.47000000000E+01 0.  1.
         -5   -1    0    0    0  501 -0.00000000000E+00 -0.00000000000E+00 -0.36027822359E+02  0.36333097637E+02  0.47000000000E+01 0.  1.
         25    2    1    2    0    0 -0.70422454590E+02 -0.18263040489E+02  0.17828315491E+03  0.22957139364E+03  0.12500112277E+03 0.  0.
         25    2    1    2    0    0  0.70422454590E+02  0.18263040489E+02  0.48537219853E+03  0.50646066534E+03  0.12499349450E+03 0.  0.
          5    1    3    3  502    0  0.24488227459E+02 -0.25853623130E+02  0.11946024693E+02  0.37853409608E+02  0.47000000000E+01 0.  1.
         -5    1    3    3    0  502 -0.94910682048E+02  0.75905826409E+01  0.16633713022E+03  0.19171798403E+03  0.47000000000E+01 0.  1.
          5    1    4    4  503    0 -0.26972259953E+02  0.34718778761E+02  0.11798394716E+03  0.12599681819E+03  0.47000000000E+01 0.  1.
         -5    1    4    4    0  503  0.97394714543E+02 -0.16455738272E+02  0.36738825137E+03  0.38046384715E+03  0.47000000000E+01 0.  1.
<mgrwt>
<rscale>  0 0.14462940E+03</rscale>
<asrwt>0</asrwt>
<pdfrwt beam="1">  1        5 0.10766825E+00 0.14463105E+03</pdfrwt>
<pdfrwt beam="2">  1       -5 0.55674393E-02 0.14463105E+03</pdfrwt>
<totfact> 0.10618079E+02</totfact>
</mgrwt>
</event>
<event>
 8    1  0.3542708E-007  0.1730682E+03  0.7546771E-02  0.1174706E+00
         -5   -1    0    0    0  501 -0.00000000000E+00  0.00000000000E+00  0.99320890228E+02  0.99432033247E+02  0.47000000000E+01 0.  1.
          5   -1    0    0  501    0  0.00000000000E+00 -0.00000000000E+00 -0.30252266966E+03  0.30255917712E+03  0.47000000000E+01 0.  1.
         25    2    1    2    0    0  0.11865725908E+03 -0.14974348643E+02 -0.88014575411E+02  0.19416272583E+03  0.12509525317E+03 0.  0.
         25    2    1    2    0    0 -0.11865725908E+03  0.14974348643E+02 -0.11518720403E+03  0.20782848454E+03  0.12498324195E+03 0.  0.
          5    1    4    4  502    0 -0.50927078990E+02 -0.28569537892E+01  0.20409576759E+02  0.55139553706E+02  0.47000000000E+01 0. -1.
         -5    1    4    4    0  502 -0.67730180088E+02  0.17831302433E+02 -0.13559678078E+03  0.15268893084E+03  0.47000000000E+01 0. -1.
          5    1    3    3  503    0  0.32955667392E+02 -0.63146555557E+02 -0.18738056322E+02  0.73802223860E+02  0.47000000000E+01 0.  1.
         -5    1    3    3    0  503  0.85701591686E+02  0.48172206913E+02 -0.69276519089E+02  0.12036050197E+03  0.47000000000E+01 0.  1.
<mgrwt>
<rscale>  0 0.17304795E+03</rscale>
<asrwt>0</asrwt>
<pdfrwt beam="2">  1        5 0.46553307E-01 0.17306819E+03</pdfrwt>
<pdfrwt beam="1">  1       -5 0.15291495E-01 0.17306819E+03</pdfrwt>
<totfact> 0.12995547E+02</totfact>
</mgrwt>
</event>
<event>
 8    1  0.3542708E-007  0.1250781E+03  0.7546771E-02  0.1234959E+00
         -5   -1    0    0    0  501 -0.00000000000E+00  0.00000000000E+00  0.48419679012E+03  0.48421960056E+03  0.47000000000E+01 0. -1.
          5   -1    0    0  501    0  0.00000000000E+00 -0.00000000000E+00 -0.35300464782E+02  0.35611975708E+02  0.47000000000E+01 0. -1.
         25    2    1    2    0    0 -0.34057258642E+01 -0.10773369102E+00  0.30220559529E+03  0.32705524873E+03  0.12500121328E+03 0.  0.
         25    2    1    2    0    0  0.34057258642E+01  0.10773369102E+00  0.14669073005E+03  0.19277632754E+03  0.12503172238E+03 0.  0.
          5    1    4    4  502    0  0.24409469826E+01  0.14410039569E+02  0.16687375700E+03  0.16757848382E+03  0.47000000000E+01 0.  1.
         -5    1    4    4    0  502  0.96477888163E+00 -0.14302305878E+02 -0.20183026946E+02  0.25197843726E+02  0.47000000000E+01 0.  1.
          5    1    3    3  503    0  0.42613353195E+02 -0.38602987222E+02  0.93675858318E+02  0.11001520315E+03  0.47000000000E+01 0. -1.
         -5    1    3    3    0  503 -0.46019079060E+02  0.38495253531E+02  0.20852973697E+03  0.21704004557E+03  0.47000000000E+01 0. -1.
<mgrwt>
<rscale>  0 0.12507052E+03</rscale>
<asrwt>0</asrwt>
<pdfrwt beam="2">  1        5 0.54565583E-02 0.12507814E+03</pdfrwt>
<pdfrwt beam="1">  1       -5 0.74517524E-01 0.12507814E+03</pdfrwt>
<totfact> 0.25043863E+02</totfact>
</mgrwt>
</event>
<event>
 8    1  0.3542708E-007  0.1422441E+03  0.7546771E-02  0.1210341E+00
         -5   -1    0    0    0  501 -0.00000000000E+00  0.00000000000E+00  0.10199648442E+03  0.10210471504E+03  0.47000000000E+01 0. -1.
          5   -1    0    0  501    0  0.00000000000E+00 -0.00000000000E+00 -0.20128172139E+03  0.20133658725E+03  0.47000000000E+01 0. -1.
         25    2    1    2    0    0  0.59640762909E+02  0.32437397315E+02 -0.30669667432E+02  0.14551292254E+03  0.12499670708E+03 0.  0.
         25    2    1    2    0    0 -0.59640762909E+02 -0.32437397315E+02 -0.68615569542E+02  0.15792837975E+03  0.12499628555E+03 0.  0.
          5    1    3    3  502    0 -0.32269940612E+02  0.37417832946E+02 -0.16249254534E+02  0.52226157837E+02  0.47000000000E+01 0. -1.
         -5    1    3    3    0  502  0.91910703521E+02 -0.49804356319E+01 -0.14420412898E+02  0.93286764704E+02  0.47000000000E+01 0. -1.
          5    1    4    4  503    0 -0.48020915427E+02 -0.63689040363E+02  0.17498303672E+01  0.79921549580E+02  0.47000000000E+01 0. -1.
         -5    1    4    4    0  503 -0.11619847481E+02  0.31251643049E+02 -0.70365399909E+02  0.78006830169E+02  0.47000000000E+01 0. -1.
<mgrwt>
<rscale>  0 0.14224400E+03</rscale>
<asrwt>0</asrwt>
<pdfrwt beam="2">  1        5 0.30978964E-01 0.14224409E+03</pdfrwt>
<pdfrwt beam="1">  1       -5 0.15704313E-01 0.14224409E+03</pdfrwt>
<totfact> 0.26642038E+02</totfact>
</mgrwt>
</event>
<event>
 8    1  0.3542708E-007  0.1266682E+03  0.7546771E-02  0.1232489E+00
          5   -1    0    0  501    0  0.00000000000E+00  0.00000000000E+00  0.37094148749E+03  0.37097126189E+03  0.47000000000E+01 0.  1.
         -5   -1    0    0    0  501 -0.00000000000E+00 -0.00000000000E+00 -0.43567543635E+02  0.43820324718E+02  0.47000000000E+01 0.  1.
         25    2    1    2    0    0  0.19786928833E+02  0.53064929068E+01  0.14207640640E+03  0.19033667069E+03  0.12499064579E+03 0.  0.
         25    2    1    2    0    0 -0.19786928833E+02 -0.53064929068E+01  0.18529753746E+03  0.22445491591E+03  0.12500060187E+03 0.  0.
          5    1    4    4  502    0 -0.69850267480E+02  0.87772387708E+01  0.78329364994E+02  0.10542143619E+03  0.47000000000E+01 0. -1.
         -5    1    4    4    0  502  0.50063338646E+02 -0.14083731678E+02  0.10696817246E+03  0.11903347972E+03  0.47000000000E+01 0. -1.
          5    1    3    3  503    0 -0.16662982322E+02  0.18780806588E+02 -0.14205105633E+02  0.29227533286E+02  0.47000000000E+01 0. -1.
         -5    1    3    3    0  503  0.36449911155E+02 -0.13474313681E+02  0.15628151203E+03  0.16110913741E+03  0.47000000000E+01 0. -1.
<mgrwt>
<rscale>  0 0.12666574E+03</rscale>
<asrwt>0</asrwt>
<pdfrwt beam="1">  1        5 0.57089652E-01 0.12666820E+03</pdfrwt>
<pdfrwt beam="2">  1       -5 0.67244346E-02 0.12666820E+03</pdfrwt>
<totfact> 0.31997187E+02</totfact>
</mgrwt>
</event>
<event>
 8    1  0.3542708E-007  0.1333701E+03  0.7546771E-02  0.1222554E+00
         -5   -1    0    0    0  501 -0.00000000000E+00  0.00000000000E+00  0.31321400550E+03  0.31324926694E+03  0.47000000000E+01 0.  1.
          5   -1    0    0  501    0  0.00000000000E+00 -0.00000000000E+00 -0.61291183039E+02  0.61471124264E+02  0.47000000000E+01 0.  1.
         25    2    1    2    0    0  0.57045503173E+01  0.46059439358E+02  0.17751612663E+03  0.22203504963E+03  0.12503429211E+03 0.  0.
         25    2    1    2    0    0 -0.57045503173E+01 -0.46059439358E+02  0.74406695830E+02  0.15268534157E+03  0.12498977278E+03 0.  0.
          5    1    4    4  502    0  0.11298223174E+02 -0.80417216571E+02  0.79486255965E+02  0.11373096964E+03  0.47000000000E+01 0. -1.
         -5    1    4    4    0  502 -0.17002773491E+02  0.34357777213E+02 -0.50795601354E+01  0.38954371932E+02  0.47000000000E+01 0. -1.
          5    1    3    3  503    0  0.57748814689E+02  0.49389062528E+01  0.44150007187E+02  0.73011173991E+02  0.47000000000E+01 0.  1.
         -5    1    3    3    0  503 -0.52044264371E+02  0.41120533105E+02  0.13336611944E+03  0.14902387564E+03  0.47000000000E+01 0.  1.
<mgrwt>
<rscale>  0 0.13335968E+03</rscale>
<asrwt>0</asrwt>
<pdfrwt beam="2">  1        5 0.94459670E-02 0.13337012E+03</pdfrwt>
<pdfrwt beam="1">  1       -5 0.48203323E-01 0.13337012E+03</pdfrwt>
<totfact> 0.26136101E+02</totfact>
</mgrwt>
</event>
<event>
 8    1  0.3542708E-007  0.2161811E+03  0.7546771E-02  0.1136763E+00
         -5   -1    0    0    0  501 -0.00000000000E+00  0.00000000000E+00  0.38838808482E+03  0.38841652183E+03  0.47000000000E+01 0. -1.
          5   -1    0    0  501    0  0.00000000000E+00 -0.00000000000E+00 -0.12030337038E+03  0.12039514494E+03  0.47000000000E+01 0. -1.
         25    2    1    2    0    0 -0.13432478487E+03 -0.11430309789E+03  0.13950972023E+03  0.25728471696E+03  0.12499647006E+03 0.  0.
         25    2    1    2    0    0  0.13432478487E+03  0.11430309789E+03  0.12857499421E+03  0.25152694981E+03  0.12500372524E+03 0.  0.
          5    1    3    3  502    0 -0.16088372990E+02 -0.94679639539E+02  0.65542200060E+02  0.11636554420E+03  0.47000000000E+01 0. -1.
         -5    1    3    3    0  502 -0.11823641188E+03 -0.19623458347E+02  0.73967520171E+02  0.14091917276E+03  0.47000000000E+01 0. -1.
          5    1    4    4  503    0  0.14376242166E+03  0.10239900308E+03  0.14514147276E+03  0.22856361659E+03  0.47000000000E+01 0.  1.
         -5    1    4    4    0  503 -0.94376367852E+01  0.11904094806E+02 -0.16566478544E+02  0.22963333220E+02  0.47000000000E+01 0.  1.
<mgrwt>
<rscale>  0 0.21618007E+03</rscale>
<asrwt>0</asrwt>
<pdfrwt beam="2">  1        5 0.18517458E-01 0.21618112E+03</pdfrwt>
<pdfrwt beam="1">  1       -5 0.59761260E-01 0.21618112E+03</pdfrwt>
<totfact> 0.56724221E+01</totfact>
</mgrwt>
</event>
<event>
 8    1  0.3542708E-007  0.1441769E+03  0.7546771E-02  0.1207820E+00
          5   -1    0    0  501    0  0.00000000000E+00  0.00000000000E+00  0.10949855394E+03  0.10959937644E+03  0.47000000000E+01 0.  1.
         -5   -1    0    0    0  501 -0.00000000000E+00 -0.00000000000E+00 -0.19722307991E+03  0.19727907454E+03  0.47000000000E+01 0.  1.
         25    2    1    2    0    0 -0.66187462425E+02 -0.27953766262E+02 -0.13721569837E+02  0.14481855832E+03  0.12498775991E+03 0.  0.
         25    2    1    2    0    0  0.66187462425E+02  0.27953766262E+02 -0.74002956136E+02  0.16205989265E+03  0.12499911223E+03 0.  0.
          5    1    3    3  502    0 -0.74768098210E+01  0.45446673627E+02 -0.20145115643E+02  0.50489786226E+02  0.47000000000E+01 0. -1.
         -5    1    3    3    0  502 -0.58710652604E+02 -0.73400439889E+02  0.64235458063E+01  0.94328772099E+02  0.47000000000E+01 0. -1.
          5    1    4    4  503    0  0.28208303757E+02  0.67731250131E+00 -0.10296016700E+03  0.10685996979E+03  0.47000000000E+01 0.  1.
         -5    1    4    4    0  503  0.37979158668E+02  0.27276453761E+02  0.28957210868E+02  0.55199922864E+02  0.47000000000E+01 0.  1.
<mgrwt>
<rscale>  0 0.14417441E+03</rscale>
<asrwt>0</asrwt>
<pdfrwt beam="1">  1        5 0.16857994E-01 0.14417688E+03</pdfrwt>
<pdfrwt beam="2">  1       -5 0.30354075E-01 0.14417688E+03</pdfrwt>
<totfact> 0.24476248E+02</totfact>
</mgrwt>
</event>
<event>
 8    1  0.3542708E-007  0.1255205E+03  0.7546771E-02  0.1234260E+00
          5   -1    0    0  501    0  0.00000000000E+00  0.00000000000E+00  0.44279774237E+03  0.44282268533E+03  0.47000000000E+01 0.  1.
         -5   -1    0    0    0  501 -0.00000000000E+00 -0.00000000000E+00 -0.35485339063E+02  0.35795241142E+02  0.47000000000E+01 0.  1.
         25    2    1    2    0    0  0.66012977469E+01  0.92594967918E+01  0.19187968233E+03  0.22928846853E+03  0.12500429552E+03 0.  0.
         25    2    1    2    0    0 -0.66012977469E+01 -0.92594967918E+01  0.21543272098E+03  0.24932945795E+03  0.12499842367E+03 0.  0.
          5    1    4    4  502    0  0.34198687467E+02 -0.40904197031E+02  0.17665416102E+03  0.18458463144E+03  0.47000000000E+01 0.  1.
         -5    1    4    4    0  502 -0.40799985214E+02  0.31644700239E+02  0.38778559957E+02  0.64744826504E+02  0.47000000000E+01 0.  1.
          5    1    3    3  503    0 -0.14007284008E+02  0.30633015733E+02 -0.10547341649E+01  0.34026285756E+02  0.47000000000E+01 0.  1.
         -5    1    3    3    0  503  0.20608581755E+02 -0.21373518941E+02  0.19293441650E+03  0.19526218278E+03  0.47000000000E+01 0.  1.
<mgrwt>
<rscale>  0 0.12551901E+03</rscale>
<asrwt>0</asrwt>
<pdfrwt beam="1">  1        5 0.68148489E-01 0.12552047E+03</pdfrwt>
<pdfrwt beam="2">  1       -5 0.54850401E-02 0.12552047E+03</pdfrwt>
<totfact> 0.30410924E+02</totfact>
</mgrwt>
</event>
<event>
 8    1  0.3542708E-007  0.1312592E+03  0.7546771E-02  0.1225601E+00
          5   -1    0    0  501    0  0.00000000000E+00  0.00000000000E+00  0.80648410669E+02  0.80785247065E+02  0.47000000000E+01 0. -1.
         -5   -1    0    0    0  501 -0.00000000000E+00 -0.00000000000E+00 -0.21511233884E+03  0.21516367797E+03  0.47000000000E+01 0. -1.
         25    2    1    2    0    0  0.93459103844E+01 -0.38936287463E+02 -0.80894247798E+02  0.15417904518E+03  0.12499567242E+03 0.  0.
         25    2    1    2    0    0 -0.93459103844E+01  0.38936287463E+02 -0.53569680370E+02  0.14176987986E+03  0.12500243061E+03 0.  0.
          5    1    3    3  502    0  0.23862928112E+02 -0.65818623747E+02 -0.96688458810E+02  0.11946664236E+03  0.47000000000E+01 0. -1.
         -5    1    3    3    0  502 -0.14517017728E+02  0.26882336284E+02  0.15794211012E+02  0.34712402817E+02  0.47000000000E+01 0. -1.
          5    1    4    4  503    0  0.48412601857E+02  0.13258920783E+02 -0.59643350304E+02  0.78096083349E+02  0.47000000000E+01 0.  1.
         -5    1    4    4    0  503 -0.57758512241E+02  0.25677366680E+02  0.60736699341E+01  0.63673796513E+02  0.47000000000E+01 0.  1.
<mgrwt>
<rscale>  0 0.13125763E+03</rscale>
<asrwt>0</asrwt>
<pdfrwt beam="1">  1        5 0.12421923E-01 0.13125924E+03</pdfrwt>
<pdfrwt beam="2">  1       -5 0.33108681E-01 0.13125924E+03</pdfrwt>
<totfact> 0.34627176E+02</totfact>
</mgrwt>
</event>
<event>
 8    1  0.3542708E-007  0.1380942E+03  0.7546771E-02  0.1215919E+00
          5   -1    0    0  501    0  0.00000000000E+00  0.00000000000E+00  0.73637263129E+02  0.73787102675E+02  0.47000000000E+01 0. -1.
         -5   -1    0    0    0  501 -0.00000000000E+00 -0.00000000000E+00 -0.30759622089E+03  0.30763212626E+03  0.47000000000E+01 0. -1.
         25    2    1    2    0    0 -0.42643247629E+02 -0.40331418867E+02 -0.19312433076E+03  0.23741414520E+03  0.12499359701E+03 0.  0.
         25    2    1    2    0    0  0.42643247629E+02  0.40331418867E+02 -0.40834627001E+02  0.14400508373E+03  0.12499970985E+03 0.  0.
          5    1    4    4  502    0 -0.64302704961E+01  0.51963468434E+02  0.27196487768E+02  0.59188591615E+02  0.47000000000E+01 0.  1.
         -5    1    4    4    0  502  0.49073518125E+02 -0.11632049568E+02 -0.68031114769E+02  0.84816492117E+02  0.47000000000E+01 0.  1.
          5    1    3    3  503    0  0.72645814334E+01 -0.68547392903E+02 -0.56771132744E+02  0.89423546845E+02  0.47000000000E+01 0. -1.
         -5    1    3    3    0  503 -0.49907829062E+02  0.28215974037E+02 -0.13635319802E+03  0.14799059836E+03  0.47000000000E+01 0. -1.
<mgrwt>
<rscale>  0 0.13809278E+03</rscale>
<asrwt>0</asrwt>
<pdfrwt beam="1">  1        5 0.11343098E-01 0.13809416E+03</pdfrwt>
<pdfrwt beam="2">  1       -5 0.47336783E-01 0.13809416E+03</pdfrwt>
<totfact> 0.19944873E+02</totfact>
</mgrwt>
</event>
<event>
 8    1  0.3542708E-007  0.1276609E+03  0.7546771E-02  0.1230970E+00
         -5   -1    0    0    0  501 -0.00000000000E+00  0.00000000000E+00  0.38531991755E+03  0.38534858098E+03  0.47000000000E+01 0. -1.
          5   -1    0    0  501    0  0.00000000000E+00 -0.00000000000E+00 -0.51498236048E+02  0.51712264658E+02  0.47000000000E+01 0. -1.
         25    2    1    2    0    0 -0.24155704432E+02 -0.94115739767E+01  0.25985849377E+03  0.28952153498E+03  0.12499682657E+03 0.  0.
         25    2    1    2    0    0  0.24155704432E+02  0.94115739767E+01  0.73963187728E+02  0.14753931065E+03  0.12500087707E+03 0.  0.
          5    1    4    4  502    0  0.29601280228E+01 -0.37627532450E+02 -0.17928911846E+02  0.42049131218E+02  0.47000000000E+01 0.  1.
         -5    1    4    4    0  502  0.21195576410E+02  0.47039106427E+02  0.91892099574E+02  0.10549017943E+03  0.47000000000E+01 0.  1.
          5    1    3    3  503    0 -0.11960907634E+02 -0.38213972661E+02  0.15609671903E+02  0.43233353732E+02  0.47000000000E+01 0. -1.
         -5    1    3    3    0  503 -0.12194796798E+02  0.28802398685E+02  0.24424882187E+03  0.24628818125E+03  0.47000000000E+01 0. -1.
<mgrwt>
<rscale>  0 0.12765987E+03</rscale>
<asrwt>0</asrwt>
<pdfrwt beam="2">  1        5 0.79414739E-02 0.12766086E+03</pdfrwt>
<pdfrwt beam="1">  1       -5 0.59298658E-01 0.12766086E+03</pdfrwt>
<totfact> 0.22264853E+02</totfact>
</mgrwt>
</event>
<event>
 8    1  0.3542708E-007  0.1477567E+03  0.7546771E-02  0.1203257E+00
          5   -1    0    0  501    0  0.00000000000E+00  0.00000000000E+00  0.14294484829E+03  0.14302209498E+03  0.47000000000E+01 0. -1.
         -5   -1    0    0    0  501 -0.00000000000E+00 -0.00000000000E+00 -0.16462761877E+03  0.16469469591E+03  0.47000000000E+01 0. -1.
         25    2    1    2    0    0  0.36751989013E+02  0.69686106204E+02  0.30769871074E+02  0.15092656448E+03  0.12500072322E+03 0.  0.
         25    2    1    2    0    0 -0.36751989013E+02 -0.69686106204E+02 -0.52452641554E+02  0.15679022641E+03  0.12500013359E+03 0.  0.
          5    1    3    3  502    0  0.15392889986E+02 -0.30011402492E+02 -0.17195738745E+02  0.38149820087E+02  0.47000000000E+01 0. -1.
         -5    1    3    3    0  502  0.21359099026E+02  0.99697508696E+02  0.47965609819E+02  0.11277674440E+03  0.47000000000E+01 0. -1.
          5    1    4    4  503    0 -0.58092646627E+02 -0.46745787397E+02 -0.83766399065E+02  0.11224448247E+03  0.47000000000E+01 0.  1.
         -5    1    4    4    0  503  0.21340657614E+02 -0.22940318807E+02  0.31313757511E+02  0.44545743947E+02  0.47000000000E+01 0.  1.
<mgrwt>
<rscale>  0 0.14775658E+03</rscale>
<asrwt>0</asrwt>
<pdfrwt beam="1">  1        5 0.22002617E-01 0.14775670E+03</pdfrwt>
<pdfrwt beam="2">  1       -5 0.25338428E-01 0.14775670E+03</pdfrwt>
<totfact> 0.21358606E+02</totfact>
</mgrwt>
</event>
<event>
 8    1  0.3542708E-007  0.1441827E+03  0.7546771E-02  0.1207809E+00
         -5   -1    0    0    0  501 -0.00000000000E+00  0.00000000000E+00  0.49679051590E+02  0.49900883428E+02  0.47000000000E+01 0. -1.
          5   -1    0    0  501    0  0.00000000000E+00 -0.00000000000E+00 -0.49257673855E+03  0.49259916094E+03  0.47000000000E+01 0. -1.
         25    2    1    2    0    0  0.49959851975E+02 -0.51642825827E+02 -0.11543036590E+03  0.18469653844E+03  0.12500269466E+03 0.  0.
         25    2    1    2    0    0 -0.49959851975E+02  0.51642825827E+02 -0.32746732106E+03  0.35780350593E+03  0.12500213688E+03 0.  0.
          5    1    4    4  502    0 -0.24239046688E+02  0.82130673515E+02 -0.29161810321E+03  0.30396741115E+03  0.47000000000E+01 0.  1.
         -5    1    4    4    0  502 -0.25720805287E+02 -0.30487847688E+02 -0.35849217843E+02  0.53836094781E+02  0.47000000000E+01 0.  1.
          5    1    3    3  503    0  0.47720574518E+02  0.20947472759E+02 -0.96057412688E+02  0.10938540295E+03  0.47000000000E+01 0.  1.
         -5    1    3    3    0  503  0.22392774573E+01 -0.72590298586E+02 -0.19372953214E+02  0.75311135488E+02  0.47000000000E+01 0.  1.
<mgrwt>
<rscale>  0 0.14418255E+03</rscale>
<asrwt>0</asrwt>
<pdfrwt beam="2">  1        5 0.75799822E-01 0.14418267E+03</pdfrwt>
<pdfrwt beam="1">  1       -5 0.76617201E-02 0.14418267E+03</pdfrwt>
<totfact> 0.14252519E+02</totfact>
</mgrwt>
</event>
<event>
 8    1  0.3542708E-007  0.1758677E+03  0.7546771E-02  0.1171864E+00
          5   -1    0    0  501    0  0.00000000000E+00  0.00000000000E+00  0.15273613608E+03  0.15280843322E+03  0.47000000000E+01 0.  1.
         -5   -1    0    0    0  501 -0.00000000000E+00 -0.00000000000E+00 -0.25363140689E+03  0.25367495060E+03  0.47000000000E+01 0.  1.
         25    2    1    2    0    0  0.10066267682E+03 -0.71907717130E+02 -0.14181133628E+03  0.22591882198E+03  0.12500065895E+03 0.  0.
         25    2    1    2    0    0 -0.10066267682E+03  0.71907717130E+02  0.40916065471E+02  0.18056456184E+03  0.12500296913E+03 0.  0.
          5    1    3    3  502    0  0.20415008349E+02 -0.90709667331E+02 -0.69590832641E+02  0.11623248385E+03  0.47000000000E+01 0.  1.
         -5    1    3    3    0  502  0.80247668473E+02  0.18801950201E+02 -0.72220503642E+02  0.10968633813E+03  0.47000000000E+01 0.  1.
          5    1    4    4  503    0 -0.68948847283E+02  0.97246412195E+02 -0.46069365273E+01  0.11939062815E+03  0.47000000000E+01 0. -1.
         -5    1    4    4    0  503 -0.31713829539E+02 -0.25338695065E+02  0.45523001999E+02  0.61173933686E+02  0.47000000000E+01 0. -1.
<mgrwt>
<rscale>  0 0.17586726E+03</rscale>
<asrwt>0</asrwt>
<pdfrwt beam="1">  1        5 0.23506778E-01 0.17586767E+03</pdfrwt>
<pdfrwt beam="2">  1       -5 0.39029127E-01 0.17586767E+03</pdfrwt>
<totfact> 0.84456659E+01</totfact>
</mgrwt>
</event>
<event>
 8    1  0.3542708E-007  0.1294278E+03  0.7546771E-02  0.1228313E+00
          5   -1    0    0  501    0  0.00000000000E+00  0.00000000000E+00  0.75519138924E+02  0.75665251892E+02  0.47000000000E+01 0. -1.
         -5   -1    0    0    0  501 -0.00000000000E+00 -0.00000000000E+00 -0.25537252759E+03  0.25541577447E+03  0.47000000000E+01 0. -1.
         25    2    1    2    0    0  0.29591534530E+02 -0.15806277456E+02 -0.15028223561E+03  0.19833381779E+03  0.12500422240E+03 0.  0.
         25    2    1    2    0    0 -0.29591534530E+02  0.15806277456E+02 -0.29571153059E+02  0.13274720857E+03  0.12498748324E+03 0.  0.
          5    1    4    4  502    0 -0.50452978195E+02 -0.27175126147E+02  0.22662296021E+02  0.61803399185E+02  0.47000000000E+01 0. -1.
         -5    1    4    4    0  502  0.20861443665E+02  0.42981403604E+02 -0.52233449079E+02  0.70943809386E+02  0.47000000000E+01 0. -1.
          5    1    3    3  503    0 -0.25220204659E+02  0.12620517866E+02  0.68847420729E+01  0.29407921852E+02  0.47000000000E+01 0.  1.
         -5    1    3    3    0  503  0.54811739189E+02 -0.28426795323E+02 -0.15716697768E+03  0.16892589594E+03  0.47000000000E+01 0.  1.
<mgrwt>
<rscale>  0 0.12942375E+03</rscale>
<asrwt>0</asrwt>
<pdfrwt beam="1">  1        5 0.11632895E-01 0.12942779E+03</pdfrwt>
<pdfrwt beam="2">  1       -5 0.39302647E-01 0.12942779E+03</pdfrwt>
<totfact> 0.27405821E+02</totfact>
</mgrwt>
</event>
<event>
 8    1  0.3542708E-007  0.1391428E+03  0.7546771E-02  0.1214487E+00
         -5   -1    0    0    0  501 -0.00000000000E+00  0.00000000000E+00  0.42655002937E+03  0.42657592238E+03  0.47000000000E+01 0. -1.
          5   -1    0    0  501    0  0.00000000000E+00 -0.00000000000E+00 -0.45340365790E+02  0.45583316795E+02  0.47000000000E+01 0. -1.
         25    2    1    2    0    0  0.32147238977E+02  0.51987397417E+02  0.17952899236E+03  0.22713738376E+03  0.12499839015E+03 0.  0.
         25    2    1    2    0    0 -0.32147238977E+02 -0.51987397417E+02  0.20168067122E+03  0.24502185541E+03  0.12499792808E+03 0.  0.
          5    1    4    4  502    0 -0.19467515287E+02 -0.25424932075E+02  0.21125151380E+03  0.21371640883E+03  0.47000000000E+01 0. -1.
         -5    1    4    4    0  502 -0.12679723690E+02 -0.26562465342E+02 -0.95708425808E+01  0.31305446581E+02  0.47000000000E+01 0. -1.
          5    1    3    3  503    0 -0.72158710165E+01 -0.26318618066E+02  0.43728370550E+00  0.27695119939E+02  0.47000000000E+01 0.  1.
         -5    1    3    3    0  503  0.39363109993E+02  0.78306015483E+02  0.17909170866E+03  0.19944226382E+03  0.47000000000E+01 0.  1.
<mgrwt>
<rscale>  0 0.13914274E+03</rscale>
<asrwt>0</asrwt>
<pdfrwt beam="2">  1        5 0.69961211E-02 0.13914285E+03</pdfrwt>
<pdfrwt beam="1">  1       -5 0.65643762E-01 0.13914285E+03</pdfrwt>
<totfact> 0.22757640E+02</totfact>
</mgrwt>
</event>
<event>
 8    1  0.3542708E-007  0.1287953E+03  0.7546771E-02  0.1229257E+00
          5   -1    0    0  501    0  0.00000000000E+00  0.00000000000E+00  0.14578174900E+03  0.14585749326E+03  0.47000000000E+01 0. -1.
         -5   -1    0    0    0  501 -0.00000000000E+00 -0.00000000000E+00 -0.21468883987E+03  0.21474028026E+03  0.47000000000E+01 0. -1.
         25    2    1    2    0    0 -0.26170803179E+02 -0.16686753142E+02 -0.15811297547E+03  0.20392638788E+03  0.12499159968E+03 0.  0.
         25    2    1    2    0    0  0.26170803179E+02  0.16686753142E+02  0.89205884597E+02  0.15667138564E+03  0.12499949825E+03 0.  0.
          5    1    4    4  502    0  0.16602368250E+02 -0.13709584588E+02  0.11394462239E+03  0.11605627218E+03  0.47000000000E+01 0.  1.
         -5    1    4    4    0  502  0.95684349294E+01  0.30396337730E+02 -0.24738737788E+02  0.40615113465E+02  0.47000000000E+01 0.  1.
          5    1    3    3  503    0  0.31370226718E+02 -0.26837076424E+02 -0.13442999156E+03  0.14070477044E+03  0.47000000000E+01 0. -1.
         -5    1    3    3    0  503 -0.57541029896E+02  0.10150323282E+02 -0.23682983916E+02  0.63221617438E+02  0.47000000000E+01 0. -1.
<mgrwt>
<rscale>  0 0.12879340E+03</rscale>
<asrwt>0</asrwt>
<pdfrwt beam="1">  1        5 0.22437745E-01 0.12879532E+03</pdfrwt>
<pdfrwt beam="2">  1       -5 0.33038836E-01 0.12879532E+03</pdfrwt>
<totfact> 0.11707584E+02</totfact>
</mgrwt>
</event>
<event>
 8    1  0.3542708E-007  0.1290798E+03  0.7546771E-02  0.1228830E+00
         -5   -1    0    0    0  501 -0.00000000000E+00  0.00000000000E+00  0.79884538582E+03  0.79885921190E+03  0.47000000000E+01 0. -1.
          5   -1    0    0  501    0  0.00000000000E+00 -0.00000000000E+00 -0.21127663956E+02  0.21644125860E+02  0.47000000000E+01 0. -1.
         25    2    1    2    0    0 -0.23977692603E+02 -0.21471751738E+02  0.45424696640E+03  0.47222912373E+03  0.12499629175E+03 0.  0.
         25    2    1    2    0    0  0.23977692603E+02  0.21471751738E+02  0.32347075546E+03  0.34827421403E+03  0.12500253059E+03 0.  0.
          5    1    4    4  502    0 -0.23219226245E+02  0.52042807302E+02  0.24522441698E+03  0.25180288112E+03  0.47000000000E+01 0.  1.
         -5    1    4    4    0  502  0.47196918849E+02 -0.30571055564E+02  0.78246338483E+02  0.96471332909E+02  0.47000000000E+01 0.  1.
          5    1    3    3  503    0 -0.26677747392E+01  0.52252702072E+01  0.43002526334E+03  0.43009096431E+03  0.47000000000E+01 0. -1.
         -5    1    3    3    0  503 -0.21309917864E+02 -0.26697021945E+02  0.24221703054E+02  0.42138159416E+02  0.47000000000E+01 0. -1.
<mgrwt>
<rscale>  0 0.12907830E+03</rscale>
<asrwt>0</asrwt>
<pdfrwt beam="2">  1        5 0.32912011E-02 0.12907981E+03</pdfrwt>
<pdfrwt beam="1">  1       -5 0.12294009E+00 0.12907981E+03</pdfrwt>
<totfact> 0.17416463E+02</totfact>
</mgrwt>
</event>
<event>
 8    1  0.3542708E-007  0.1494455E+03  0.7546771E-02  0.1201158E+00
          5   -1    0    0  501    0  0.00000000000E+00  0.00000000000E+00  0.45448182779E+02  0.45690560490E+02  0.47000000000E+01 0. -1.
         -5   -1    0    0    0  501 -0.00000000000E+00 -0.00000000000E+00 -0.48988692785E+03  0.48990947335E+03  0.47000000000E+01 0. -1.
         25    2    1    2    0    0 -0.11153650097E+02  0.81123439956E+02 -0.22492459791E+03  0.27004637688E+03  0.12501421718E+03 0.  0.
         25    2    1    2    0    0  0.11153650097E+02 -0.81123439956E+02 -0.21951414716E+03  0.26555365697E+03  0.12500746979E+03 0.  0.
          5    1    4    4  502    0  0.13683069040E+02 -0.43929597371E+02 -0.35958135680E+01  0.46390255214E+02  0.47000000000E+01 0.  1.
         -5    1    4    4    0  502 -0.25294189430E+01 -0.37193842585E+02 -0.21591833359E+03  0.21916340175E+03  0.47000000000E+01 0.  1.
          5    1    3    3  503    0 -0.53118030357E+02  0.59132369860E+01 -0.13582000267E+03  0.14603306011E+03  0.47000000000E+01 0.  1.
         -5    1    3    3    0  503  0.41964380260E+02  0.75210202970E+02 -0.89104595244E+02  0.12401331676E+03  0.47000000000E+01 0.  1.
<mgrwt>
<rscale>  0 0.14944413E+03</rscale>
<asrwt>0</asrwt>
<pdfrwt beam="1">  1        5 0.70124072E-02 0.14944554E+03</pdfrwt>
<pdfrwt beam="2">  1       -5 0.75387595E-01 0.14944554E+03</pdfrwt>
<totfact> 0.16980675E+02</totfact>
</mgrwt>
</event>
<event>
 8    1  0.3542708E-007  0.1720595E+03  0.7546771E-02  0.1175718E+00
          5   -1    0    0  501    0  0.00000000000E+00  0.00000000000E+00  0.39562149022E+03  0.39564940733E+03  0.47000000000E+01 0. -1.
         -5   -1    0    0    0  501 -0.00000000000E+00 -0.00000000000E+00 -0.95429278132E+02  0.95544948191E+02  0.47000000000E+01 0. -1.
         25    2    1    2    0    0 -0.94803136842E+02  0.70646093247E+02  0.35791721668E+02  0.17573898810E+03  0.12499855739E+03 0.  0.
         25    2    1    2    0    0  0.94803136842E+02 -0.70646093247E+02  0.26440049042E+03  0.31545536743E+03  0.12500385697E+03 0.  0.
          5    1    4    4  502    0  0.99207279142E+02 -0.94611238351E+02  0.17319574687E+03  0.22093489401E+03  0.47000000000E+01 0. -1.
         -5    1    4    4    0  502 -0.44041422997E+01  0.23965145104E+02  0.91204743551E+02  0.94520473419E+02  0.47000000000E+01 0. -1.
          5    1    3    3  503    0 -0.76568475944E+02 -0.20159358939E+02  0.16804213423E+02  0.81077758048E+02  0.47000000000E+01 0.  1.
         -5    1    3    3    0  503 -0.18234660898E+02  0.90805452187E+02  0.18987508244E+02  0.94661230048E+02  0.47000000000E+01 0.  1.
<mgrwt>
<rscale>  0 0.17205853E+03</rscale>
<asrwt>0</asrwt>
<pdfrwt beam="1">  1        5 0.60875889E-01 0.17205949E+03</pdfrwt>
<pdfrwt beam="2">  1       -5 0.14692473E-01 0.17205949E+03</pdfrwt>
<totfact> 0.78318406E+01</totfact>
</mgrwt>
</event>
<event>
 8    1  0.3542708E-007  0.1306153E+03  0.7546771E-02  0.1226553E+00
         -5   -1    0    0    0  501 -0.00000000000E+00  0.00000000000E+00  0.28048074400E+03  0.28052012005E+03  0.47000000000E+01 0. -1.
          5   -1    0    0  501    0  0.00000000000E+00 -0.00000000000E+00 -0.73576350727E+02  0.73726314070E+02  0.47000000000E+01 0. -1.
         25    2    1    2    0    0 -0.21266928923E+02 -0.31261867288E+02  0.17749190072E+03  0.22036045266E+03  0.12500307061E+03 0.  0.
         25    2    1    2    0    0  0.21266928923E+02  0.31261867288E+02  0.29412492551E+02  0.13388598146E+03  0.12502309668E+03 0.  0.
          5    1    4    4  502    0  0.40859441684E+02 -0.36963869817E+02 -0.36927810500E+01  0.55421550668E+02  0.47000000000E+01 0.  1.
         -5    1    4    4    0  502 -0.19592512761E+02  0.68225737105E+02  0.33105273601E+02  0.78464430795E+02  0.47000000000E+01 0.  1.
          5    1    3    3  503    0  0.32299220415E+02  0.25568881014E+01  0.96660061561E+00  0.32753650681E+02  0.47000000000E+01 0.  1.
         -5    1    3    3    0  503 -0.53566149338E+02 -0.33818755389E+02  0.17652530011E+03  0.18760680198E+03  0.47000000000E+01 0.  1.
<mgrwt>
<rscale>  0 0.13061053E+03</rscale>
<asrwt>0</asrwt>
<pdfrwt beam="2">  1        5 0.11334003E-01 0.13061532E+03</pdfrwt>
<pdfrwt beam="1">  1       -5 0.43165448E-01 0.13061532E+03</pdfrwt>
<totfact> 0.23749424E+02</totfact>
</mgrwt>
</event>
<event>
 8    1  0.3542708E-007  0.1316171E+03  0.7546771E-02  0.1225077E+00
          5   -1    0    0  501    0  0.00000000000E+00  0.00000000000E+00  0.19537828046E+02  0.20095191583E+02  0.47000000000E+01 0. -1.
         -5   -1    0    0    0  501 -0.00000000000E+00 -0.00000000000E+00 -0.10149448203E+04  0.10149557026E+04  0.47000000000E+01 0. -1.
         25    2    1    2    0    0 -0.41090138428E+02  0.29826494113E+01 -0.69080192010E+03  0.70322851979E+03  0.12500305019E+03 0.  0.
         25    2    1    2    0    0  0.41090138428E+02 -0.29826494113E+01 -0.30460507211E+03  0.33182237436E+03  0.12499816997E+03 0.  0.
          5    1    4    4  502    0  0.75900118270E+02  0.13717903095E+01 -0.10822398430E+03  0.13227709756E+03  0.47000000000E+01 0.  1.
         -5    1    4    4    0  502 -0.34809979841E+02 -0.43544397208E+01 -0.19638108781E+03  0.19954527680E+03  0.47000000000E+01 0.  1.
          5    1    3    3  503    0  0.37742411483E+02 -0.95710097024E+01 -0.39042913798E+03  0.39239405657E+03  0.47000000000E+01 0.  1.
         -5    1    3    3    0  503 -0.78832549911E+02  0.12553659114E+02 -0.30037278212E+03  0.31083446322E+03  0.47000000000E+01 0.  1.
<mgrwt>
<rscale>  0 0.13161593E+03</rscale>
<asrwt>0</asrwt>
<pdfrwt beam="1">  1        5 0.30495317E-02 0.13161709E+03</pdfrwt>
<pdfrwt beam="2">  1       -5 0.15618903E+00 0.13161709E+03</pdfrwt>
<totfact> 0.10503879E+02</totfact>
</mgrwt>
</event>
<event>
 8    1  0.3542708E-007  0.1301390E+03  0.7546771E-02  0.1227253E+00
          5   -1    0    0  501    0  0.00000000000E+00  0.00000000000E+00  0.80684299544E+03  0.80685668448E+03  0.47000000000E+01 0.  1.
         -5   -1    0    0    0  501 -0.00000000000E+00 -0.00000000000E+00 -0.21785655209E+02  0.22286874453E+02  0.47000000000E+01 0.  1.
         25    2    1    2    0    0 -0.35546184796E+02 -0.68364869060E+01  0.30160984399E+03  0.32848846016E+03  0.12500360660E+03 0.  0.
         25    2    1    2    0    0  0.35546184796E+02  0.68364869060E+01  0.48344749624E+03  0.50065509877E+03  0.12499510988E+03 0.  0.
          5    1    3    3  502    0 -0.61731007766E+02  0.40765146416E+02  0.19768902392E+03  0.21112923686E+03  0.47000000000E+01 0.  1.
         -5    1    3    3    0  502  0.26184822969E+02 -0.47601633322E+02  0.10392082007E+03  0.11735922330E+03  0.47000000000E+01 0.  1.
          5    1    4    4  503    0  0.14882052988E+01 -0.44714060756E+02  0.74411814565E+02  0.86952689039E+02  0.47000000000E+01 0.  1.
         -5    1    4    4    0  503  0.34057979497E+02  0.51550547662E+02  0.40903568168E+03  0.41370240973E+03  0.47000000000E+01 0.  1.
<mgrwt>
<rscale>  0 0.13013700E+03</rscale>
<asrwt>0</asrwt>
<pdfrwt beam="1">  1        5 0.12416928E+00 0.13013904E+03</pdfrwt>
<pdfrwt beam="2">  1       -5 0.33912480E-02 0.13013904E+03</pdfrwt>
<totfact> 0.16217698E+02</totfact>
</mgrwt>
</event>
<event>
 8    1  0.3542708E-007  0.1661668E+03  0.7546771E-02  0.1181907E+00
          5   -1    0    0  501    0  0.00000000000E+00  0.00000000000E+00  0.31408703877E+03  0.31412220221E+03  0.47000000000E+01 0.  1.
         -5   -1    0    0    0  501 -0.00000000000E+00 -0.00000000000E+00 -0.10077212502E+03  0.10088166920E+03  0.47000000000E+01 0.  1.
         25    2    1    2    0    0 -0.10941251074E+03 -0.34198602370E+01  0.32276251307E+02  0.16926741806E+03  0.12500763764E+03 0.  0.
         25    2    1    2    0    0  0.10941251074E+03  0.34198602370E+01  0.18103866245E+03  0.24573645335E+03  0.12501445617E+03 0.  0.
          5    1    4    4  502    0  0.14081896448E+02  0.41423446926E+02  0.83337476530E+01  0.44785523473E+02  0.47000000000E+01 0. -1.
         -5    1    4    4    0  502  0.95330614295E+02 -0.38003586690E+02  0.17270491480E+03  0.20095092988E+03  0.47000000000E+01 0. -1.
          5    1    3    3  503    0 -0.80525398135E+02  0.55433024681E+02  0.46935304464E+01  0.97986117374E+02  0.47000000000E+01 0. -1.
         -5    1    3    3    0  503 -0.28887112608E+02 -0.58852884918E+02  0.27582720860E+02  0.71281300690E+02  0.47000000000E+01 0. -1.
<mgrwt>
<rscale>  0 0.16616552E+03</rscale>
<asrwt>0</asrwt>
<pdfrwt beam="1">  1        5 0.48332214E-01 0.16616681E+03</pdfrwt>
<pdfrwt beam="2">  1       -5 0.15514535E-01 0.16616681E+03</pdfrwt>
<totfact> 0.11554050E+02</totfact>
</mgrwt>
</event>
<event>
 8    1  0.3542708E-007  0.1385421E+03  0.7546771E-02  0.1215305E+00
          5   -1    0    0  501    0  0.00000000000E+00  0.00000000000E+00  0.12766421881E+03  0.12775070553E+03  0.47000000000E+01 0. -1.
         -5   -1    0    0    0  501 -0.00000000000E+00 -0.00000000000E+00 -0.15396438687E+03  0.15403610753E+03  0.47000000000E+01 0. -1.
         25    2    1    2    0    0  0.57311467455E+02 -0.16868069852E+02 -0.35252313187E+02  0.14295675522E+03  0.12499908877E+03 0.  0.
         25    2    1    2    0    0 -0.57311467455E+02  0.16868069852E+02  0.89521451264E+01  0.13883005785E+03  0.12499803190E+03 0.  0.
          5    1    4    4  502    0  0.55799652543E+01  0.40880960569E+02  0.45897061639E+02  0.61895227735E+02  0.47000000000E+01 0. -1.
         -5    1    4    4    0  502 -0.62891432710E+02 -0.24012890716E+02 -0.36944916512E+02  0.76934830116E+02  0.47000000000E+01 0. -1.
          5    1    3    3  503    0  0.71754070027E+02 -0.31752438493E+02  0.22211607316E+02  0.81684205420E+02  0.47000000000E+01 0. -1.
         -5    1    3    3    0  503 -0.14442602571E+02  0.14884368640E+02 -0.57463920503E+02  0.61272549795E+02  0.47000000000E+01 0. -1.
<mgrwt>
<rscale>  0 0.13854184E+03</rscale>
<asrwt>0</asrwt>
<pdfrwt beam="1">  1        5 0.19652819E-01 0.13854208E+03</pdfrwt>
<pdfrwt beam="2">  1       -5 0.23698999E-01 0.13854208E+03</pdfrwt>
<totfact> 0.29358665E+02</totfact>
</mgrwt>
</event>
<event>
 8    1  0.3542708E-007  0.1294123E+03  0.7546771E-02  0.1228338E+00
         -5   -1    0    0    0  501 -0.00000000000E+00  0.00000000000E+00  0.26083036159E+03  0.26087270368E+03  0.47000000000E+01 0.  1.
          5   -1    0    0  501    0  0.00000000000E+00 -0.00000000000E+00 -0.64494751820E+02  0.64665779299E+02  0.47000000000E+01 0.  1.
         25    2    1    2    0    0  0.26415501454E+02 -0.20501159122E+02  0.11143315042E+03  0.17076133495E+03  0.12499604097E+03 0.  0.
         25    2    1    2    0    0 -0.26415501454E+02  0.20501159122E+02  0.84902459346E+02  0.15477714803E+03  0.12501784555E+03 0.  0.
          5    1    4    4  502    0 -0.68994071827E+01  0.13414823544E+02 -0.32140345555E+02  0.35814119039E+02  0.47000000000E+01 0.  1.
         -5    1    4    4    0  502 -0.19516094272E+02  0.70863355780E+01  0.11704280490E+03  0.11896302899E+03  0.47000000000E+01 0.  1.
          5    1    3    3  503    0 -0.34467796126E+02 -0.63513852402E+01 -0.76577843899E+01  0.36181497012E+02  0.47000000000E+01 0. -1.
         -5    1    3    3    0  503  0.60883297580E+02 -0.14149773881E+02  0.11909093481E+03  0.13457983794E+03  0.47000000000E+01 0. -1.
<mgrwt>
<rscale>  0 0.12940701E+03</rscale>
<asrwt>0</asrwt>
<pdfrwt beam="2">  1        5 0.99386826E-02 0.12941228E+03</pdfrwt>
<pdfrwt beam="1">  1       -5 0.40144161E-01 0.12941228E+03</pdfrwt>
<totfact> 0.34588868E+02</totfact>
</mgrwt>
</event>
<event>
 8    1  0.3542708E-007  0.1417084E+03  0.7546771E-02  0.1211051E+00
         -5   -1    0    0    0  501 -0.00000000000E+00  0.00000000000E+00  0.30664882294E+02  0.31022975455E+02  0.47000000000E+01 0.  1.
          5   -1    0    0  501    0  0.00000000000E+00 -0.00000000000E+00 -0.65099400506E+03  0.65101097120E+03  0.47000000000E+01 0.  1.
         25    2    1    2    0    0  0.43622801768E+02 -0.50537815232E+02 -0.31791433346E+03  0.34806391073E+03  0.12498777110E+03 0.  0.
         25    2    1    2    0    0 -0.43622801768E+02  0.50537815232E+02 -0.30241478930E+03  0.33397003593E+03  0.12499704200E+03 0.  0.
          5    1    4    4  502    0 -0.17112217042E+02  0.89202920638E+02 -0.23254740743E+03  0.24970057214E+03  0.47000000000E+01 0. -1.
         -5    1    4    4    0  502 -0.26510584726E+02 -0.38665105406E+02 -0.69867381870E+02  0.84269463793E+02  0.47000000000E+01 0. -1.
          5    1    3    3  503    0  0.18194450999E+02 -0.87626935997E+02 -0.15553169288E+03  0.17950408199E+03  0.47000000000E+01 0.  1.
         -5    1    3    3    0  503  0.25428350769E+02  0.37089120766E+02 -0.16238264058E+03  0.16855982874E+03  0.47000000000E+01 0.  1.
<mgrwt>
<rscale>  0 0.14170639E+03</rscale>
<asrwt>0</asrwt>
<pdfrwt beam="2">  1        5 0.10018176E+00 0.14170843E+03</pdfrwt>
<pdfrwt beam="1">  1       -5 0.47465254E-02 0.14170843E+03</pdfrwt>
<totfact> 0.16431241E+02</totfact>
</mgrwt>
</event>
<event>
 8    1  0.3542708E-007  0.1273866E+03  0.7546771E-02  0.1231392E+00
          5   -1    0    0  501    0  0.00000000000E+00  0.00000000000E+00  0.11190286577E+03  0.11200152395E+03  0.47000000000E+01 0. -1.
         -5   -1    0    0    0  501 -0.00000000000E+00 -0.00000000000E+00 -0.19111510332E+03  0.19117288698E+03  0.47000000000E+01 0. -1.
         25    2    1    2    0    0 -0.15575761274E+02  0.18897991913E+02 -0.11420063014E+03  0.17107016959E+03  0.12499392210E+03 0.  0.
         25    2    1    2    0    0  0.15575761274E+02 -0.18897991913E+02  0.34988392590E+02  0.13210424135E+03  0.12501041768E+03 0.  0.
          5    1    4    4  502    0  0.65627186867E+02  0.97131939451E+01  0.32955031546E+02  0.74225318436E+02  0.47000000000E+01 0.  1.
         -5    1    4    4    0  502 -0.50051425593E+02 -0.28611185858E+02  0.20333610440E+01  0.57878922910E+02  0.47000000000E+01 0.  1.
          5    1    3    3  503    0  0.21565682551E+02  0.56852419030E+02 -0.22511328615E+02  0.65008661957E+02  0.47000000000E+01 0. -1.
         -5    1    3    3    0  503 -0.37141443825E+02 -0.37954427116E+02 -0.91689301526E+02  0.10606150763E+03  0.47000000000E+01 0. -1.
<mgrwt>
<rscale>  0 0.12738254E+03</rscale>
<asrwt>0</asrwt>
<pdfrwt beam="1">  1        5 0.17227859E-01 0.12738659E+03</pdfrwt>
<pdfrwt beam="2">  1       -5 0.29414358E-01 0.12738659E+03</pdfrwt>
<totfact> 0.23970370E+02</totfact>
</mgrwt>
</event>
<event>
 8    1  0.3542708E-007  0.1269505E+03  0.7546771E-02  0.1232058E+00
         -5   -1    0    0    0  501 -0.00000000000E+00  0.00000000000E+00  0.30702225309E+03  0.30705822557E+03  0.47000000000E+01 0. -1.
          5   -1    0    0  501    0  0.00000000000E+00 -0.00000000000E+00 -0.52560177883E+02  0.52769899556E+02  0.47000000000E+01 0. -1.
         25    2    1    2    0    0 -0.19566621383E+02 -0.10442493969E+02  0.13878029359E+03  0.18807627650E+03  0.12498326904E+03 0.  0.
         25    2    1    2    0    0  0.19566621383E+02  0.10442493969E+02  0.11568178161E+03  0.17175184863E+03  0.12499809822E+03 0.  0.
          5    1    3    3  502    0 -0.44820813589E+02 -0.20578260877E+02  0.31274509910E+01  0.49641123085E+02  0.47000000000E+01 0. -1.
         -5    1    3    3    0  502  0.25254192206E+02  0.10135766908E+02  0.13565284260E+03  0.13843515341E+03  0.47000000000E+01 0. -1.
          5    1    4    4  503    0  0.48274422459E+02  0.15130031081E+02 -0.15924242020E+01  0.50832701277E+02  0.47000000000E+01 0. -1.
         -5    1    4    4    0  503 -0.28707801077E+02 -0.46875371118E+01  0.11727420582E+03  0.12091914735E+03  0.47000000000E+01 0. -1.
<mgrwt>
<rscale>  0 0.12694682E+03</rscale>
<asrwt>0</asrwt>
<pdfrwt beam="2">  1        5 0.81050807E-02 0.12695047E+03</pdfrwt>
<pdfrwt beam="1">  1       -5 0.47253093E-01 0.12695047E+03</pdfrwt>
<totfact> 0.34861501E+02</totfact>
</mgrwt>
</event>
<event>
 8    1  0.3542708E-007  0.1253451E+03  0.7546771E-02  0.1234537E+00
          5   -1    0    0  501    0  0.00000000000E+00  0.00000000000E+00  0.60748170776E+02  0.60929715679E+02  0.47000000000E+01 0.  1.
         -5   -1    0    0    0  501 -0.00000000000E+00 -0.00000000000E+00 -0.26372530759E+03  0.26376718497E+03  0.47000000000E+01 0.  1.
         25    2    1    2    0    0 -0.90044747708E+01 -0.13339013473E+01 -0.12537187255E+03  0.17727247501E+03  0.12499825642E+03 0.  0.
         25    2    1    2    0    0  0.90044747708E+01  0.13339013473E+01 -0.77605264263E+02  0.14742442564E+03  0.12501409670E+03 0.  0.
          5    1    4    4  502    0 -0.51202393018E+02  0.27602012796E+02 -0.46366706425E+02  0.74535344810E+02  0.47000000000E+01 0.  1.
         -5    1    4    4    0  502  0.60206867789E+02 -0.26268111449E+02 -0.31238557838E+02  0.72889080827E+02  0.47000000000E+01 0.  1.
          5    1    3    3  503    0  0.25265982341E+02  0.49978856412E+02 -0.30334822352E+02  0.63863506004E+02  0.47000000000E+01 0. -1.
         -5    1    3    3    0  503 -0.34270457112E+02 -0.51312757760E+02 -0.95037050203E+02  0.11340896901E+03  0.47000000000E+01 0. -1.
<mgrwt>
<rscale>  0 0.12534111E+03</rscale>
<asrwt>0</asrwt>
<pdfrwt beam="1">  1        5 0.93630589E-02 0.12534506E+03</pdfrwt>
<pdfrwt beam="2">  1       -5 0.40590310E-01 0.12534506E+03</pdfrwt>
<totfact> 0.37071064E+02</totfact>
</mgrwt>
</event>
<event>
 8    1  0.3542708E-007  0.1527084E+03  0.7546771E-02  0.1197184E+00
         -5   -1    0    0    0  501 -0.00000000000E+00  0.00000000000E+00  0.13779342842E+03  0.13787356134E+03  0.47000000000E+01 0. -1.
          5   -1    0    0  501    0  0.00000000000E+00 -0.00000000000E+00 -0.16916794699E+03  0.16923322454E+03  0.47000000000E+01 0. -1.
         25    2    1    2    0    0  0.78610711668E+02  0.38920497494E+02 -0.19302196478E+02  0.15392189312E+03  0.12499970112E+03 0.  0.
         25    2    1    2    0    0 -0.78610711668E+02 -0.38920497494E+02 -0.12072322089E+02  0.15318489276E+03  0.12500168517E+03 0.  0.
          5    1    4    4  502    0 -0.17861674183E+02  0.43875372047E+02  0.84732258603E+01  0.48352592829E+02  0.47000000000E+01 0. -1.
         -5    1    4    4    0  502 -0.60749037485E+02 -0.82795869541E+02 -0.20545547949E+02  0.10483229993E+03  0.47000000000E+01 0. -1.
          5    1    3    3  503    0  0.17825873651E+02 -0.40252063620E+02  0.17258346788E+02  0.47517690716E+02  0.47000000000E+01 0. -1.
         -5    1    3    3    0  503  0.60784838017E+02  0.79172561115E+02 -0.36560543266E+02  0.10640420241E+03  0.47000000000E+01 0. -1.
<mgrwt>
<rscale>  0 0.15270804E+03</rscale>
<asrwt>0</asrwt>
<pdfrwt beam="2">  1        5 0.26037023E-01 0.15270845E+03</pdfrwt>
<pdfrwt beam="1">  1       -5 0.21210174E-01 0.15270845E+03</pdfrwt>
<totfact> 0.21958952E+02</totfact>
</mgrwt>
</event>
<event>
 8    1  0.3542708E-007  0.1776265E+03  0.7546771E-02  0.1170121E+00
          5   -1    0    0  501    0  0.00000000000E+00  0.00000000000E+00  0.72502952329E+02  0.72655131246E+02  0.47000000000E+01 0.  1.
         -5   -1    0    0    0  501 -0.00000000000E+00 -0.00000000000E+00 -0.43602304599E+03  0.43604837648E+03  0.47000000000E+01 0.  1.
         25    2    1    2    0    0 -0.87714911555E+02  0.90729412550E+02 -0.19656859343E+03  0.26493466235E+03  0.12500172552E+03 0.  0.
         25    2    1    2    0    0  0.87714911555E+02 -0.90729412550E+02 -0.16695150023E+03  0.24376884537E+03  0.12499885814E+03 0.  0.
          5    1    3    3  502    0 -0.90395994086E+02  0.11680580671E+03 -0.18246428405E+03  0.23479850336E+03  0.47000000000E+01 0. -1.
         -5    1    3    3    0  502  0.26810825311E+01 -0.26076394157E+02 -0.14104309383E+02  0.30136158994E+02  0.47000000000E+01 0. -1.
          5    1    4    4  503    0  0.11874062508E+03 -0.60565831503E+02 -0.13499096177E+03  0.18976882186E+03  0.47000000000E+01 0. -1.
         -5    1    4    4    0  503 -0.31025713523E+02 -0.30163581047E+02 -0.31960538455E+02  0.54000023514E+02  0.47000000000E+01 0. -1.
<mgrwt>
<rscale>  0 0.17762597E+03</rscale>
<asrwt>0</asrwt>
<pdfrwt beam="1">  1        5 0.11167955E-01 0.17762647E+03</pdfrwt>
<pdfrwt beam="2">  1       -5 0.67094122E-01 0.17762647E+03</pdfrwt>
<totfact> 0.10404819E+02</totfact>
</mgrwt>
</event>
<event>
 8    1  0.3542708E-007  0.1380518E+03  0.7546771E-02  0.1215977E+00
          5   -1    0    0  501    0  0.00000000000E+00  0.00000000000E+00  0.29508816429E+03  0.29512559141E+03  0.47000000000E+01 0.  1.
         -5   -1    0    0    0  501 -0.00000000000E+00 -0.00000000000E+00 -0.11317412634E+03  0.11327167728E+03  0.47000000000E+01 0.  1.
         25    2    1    2    0    0  0.36113910760E+02 -0.46121341543E+02 -0.42917079152E+02  0.14456888754E+03  0.12500757923E+03 0.  0.
         25    2    1    2    0    0 -0.36113910760E+02  0.46121341543E+02  0.22483111710E+03  0.26382838115E+03  0.12499996315E+03 0.  0.
          5    1    4    4  502    0 -0.24048777513E+02  0.81245747814E+02  0.89165275678E+02  0.12309245153E+03  0.47000000000E+01 0. -1.
         -5    1    4    4    0  502 -0.12065133247E+02 -0.35124406271E+02  0.13566584142E+03  0.14073592961E+03  0.47000000000E+01 0. -1.
          5    1    3    3  503    0 -0.17472515658E+01 -0.60787006498E+02  0.24499194856E+02  0.65729853154E+02  0.47000000000E+01 0. -1.
         -5    1    3    3    0  503  0.37861162325E+02  0.14665664955E+02 -0.67416274008E+02  0.78839034382E+02  0.47000000000E+01 0. -1.
<mgrwt>
<rscale>  0 0.13805003E+03</rscale>
<asrwt>0</asrwt>
<pdfrwt beam="1">  1        5 0.45408562E-01 0.13805176E+03</pdfrwt>
<pdfrwt beam="2">  1       -5 0.17421787E-01 0.13805176E+03</pdfrwt>
<totfact> 0.10051317E+02</totfact>
</mgrwt>
</event>
<event>
 8    1  0.3542708E-007  0.1308743E+03  0.7546771E-02  0.1226180E+00
         -5   -1    0    0    0  501 -0.00000000000E+00  0.00000000000E+00  0.46873458058E+02  0.47108503163E+02  0.47000000000E+01 0. -1.
          5   -1    0    0  501    0  0.00000000000E+00 -0.00000000000E+00 -0.37399045827E+03  0.37401998994E+03  0.47000000000E+01 0. -1.
         25    2    1    2    0    0  0.31208229962E+02 -0.22784212000E+02 -0.19772103897E+03  0.23708663970E+03  0.12499356599E+03 0.  0.
         25    2    1    2    0    0 -0.31208229962E+02  0.22784212000E+02 -0.12939596124E+03  0.18404185341E+03  0.12504005393E+03 0.  0.
          5    1    4    4  502    0  0.28372381494E+02 -0.21145079635E+02 -0.96519468199E+02  0.10290871764E+03  0.47000000000E+01 0.  1.
         -5    1    4    4    0  502 -0.59580611455E+02  0.43929291635E+02 -0.32876493042E+02  0.81133135769E+02  0.47000000000E+01 0.  1.
          5    1    3    3  503    0  0.34055582029E+02 -0.72464070083E+02 -0.11017739572E+03  0.13627902498E+03  0.47000000000E+01 0.  1.
         -5    1    3    3    0  503 -0.28473520675E+01  0.49679858083E+02 -0.87543643251E+02  0.10080761472E+03  0.47000000000E+01 0.  1.
<mgrwt>
<rscale>  0 0.13086322E+03</rscale>
<asrwt>0</asrwt>
<pdfrwt beam="2">  1        5 0.57557344E-01 0.13087433E+03</pdfrwt>
<pdfrwt beam="1">  1       -5 0.72316535E-02 0.13087433E+03</pdfrwt>
<totfact> 0.28120785E+02</totfact>
</mgrwt>
</event>
<event>
 8    1  0.3542708E-007  0.1388868E+03  0.7546771E-02  0.1214849E+00
          5   -1    0    0  501    0  0.00000000000E+00  0.00000000000E+00  0.60075730662E+03  0.60077569146E+03  0.47000000000E+01 0. -1.
         -5   -1    0    0    0  501 -0.00000000000E+00 -0.00000000000E+00 -0.16433287825E+03  0.16440007565E+03  0.47000000000E+01 0.  1.
         25    2    1    2    0    0  0.41207319344E+02 -0.44215186767E+02 -0.12500291199E+03  0.18682449575E+03  0.12499855318E+03 0.  0.
         25    2    1    2    0    0 -0.41207319344E+02  0.44215186767E+02  0.56142734035E+03  0.57835127137E+03  0.12504602629E+03 0.  0.
          5    1    4    4  502    0 -0.54646081651E+02 -0.23669355608E+02  0.36901332918E+03  0.37381728123E+03  0.47000000000E+01 0. -1.
         -5    1    4    4    0  502  0.13438762307E+02  0.67884542375E+02  0.19241401117E+03  0.20453399013E+03  0.47000000000E+01 0. -1.
          5    1    3    3  503    0  0.68196477679E+02  0.18013608721E+02 -0.59232298384E+02  0.92226920359E+02  0.47000000000E+01 0. -1.
         -5    1    3    3    0  503 -0.26989158335E+02 -0.62228795487E+02 -0.65770613607E+02  0.94597575390E+02  0.47000000000E+01 0. -1.
<mgrwt>
<rscale>  0 0.13887608E+03</rscale>
<asrwt>0</asrwt>
<pdfrwt beam="1">  1        5 0.92430785E-01 0.13888677E+03</pdfrwt>
<pdfrwt beam="2">  1       -5 0.25288564E-01 0.13888677E+03</pdfrwt>
<totfact> 0.10287553E+01</totfact>
</mgrwt>
</event>
<event>
 8    1  0.3542708E-007  0.1498543E+03  0.7546771E-02  0.1200653E+00
          5   -1    0    0  501    0  0.00000000000E+00  0.00000000000E+00  0.16895292576E+03  0.16901828636E+03  0.47000000000E+01 0. -1.
         -5   -1    0    0    0  501 -0.00000000000E+00 -0.00000000000E+00 -0.16406620503E+03  0.16413351160E+03  0.47000000000E+01 0. -1.
         25    2    1    2    0    0 -0.90437219057E+01 -0.82154436526E+02 -0.70267858029E+02  0.16551093455E+03  0.12500062894E+03 0.  0.
         25    2    1    2    0    0  0.90437219057E+01  0.82154436526E+02  0.75154578766E+02  0.16764086342E+03  0.12499643207E+03 0.  0.
          5    1    3    3  502    0  0.25856328937E+02 -0.80227528463E+02  0.27017922878E+01  0.84465352370E+02  0.47000000000E+01 0. -1.
         -5    1    3    3    0  502 -0.34900050842E+02 -0.19269080629E+01 -0.72969650317E+02  0.81045582180E+02  0.47000000000E+01 0. -1.
          5    1    4    4  503    0 -0.19888593558E+02  0.88671751157E+02  0.95077140371E+02  0.13160542629E+03  0.47000000000E+01 0.  1.
         -5    1    4    4    0  503  0.28932315464E+02 -0.65173146312E+01 -0.19922561605E+02  0.36035437128E+02  0.47000000000E+01 0.  1.
<mgrwt>
<rscale>  0 0.14985338E+03</rscale>
<asrwt>0</asrwt>
<pdfrwt beam="1">  1        5 0.26002963E-01 0.14985425E+03</pdfrwt>
<pdfrwt beam="2">  1       -5 0.25251160E-01 0.14985425E+03</pdfrwt>
<totfact> 0.15703666E+02</totfact>
</mgrwt>
</event>
<event>
 8    1  0.3542708E-007  0.1423411E+03  0.7546771E-02  0.1210214E+00
          5   -1    0    0  501    0  0.00000000000E+00  0.00000000000E+00  0.35762498482E+03  0.35765586779E+03  0.47000000000E+01 0.  1.
         -5   -1    0    0    0  501 -0.00000000000E+00 -0.00000000000E+00 -0.58100722272E+02  0.58290513195E+02  0.47000000000E+01 0.  1.
         25    2    1    2    0    0 -0.15424194006E+02 -0.66315565111E+02  0.11554835944E+03  0.18333691588E+03  0.12500136567E+03 0.  0.
         25    2    1    2    0    0  0.15424194006E+02  0.66315565111E+02  0.18397590311E+03  0.23260946511E+03  0.12499748156E+03 0.  0.
          5    1    4    4  502    0 -0.38332758030E+02  0.77273627592E+02  0.99456234586E+02  0.13173551707E+03  0.47000000000E+01 0. -1.
         -5    1    4    4    0  502  0.53756952036E+02 -0.10958062481E+02  0.84519668522E+02  0.10087394804E+03  0.47000000000E+01 0. -1.
          5    1    3    3  503    0 -0.64083626990E+02 -0.43438469857E+02  0.10117168271E+03  0.12748102327E+03  0.47000000000E+01 0.  1.
         -5    1    3    3    0  503  0.48659432984E+02 -0.22877095254E+02  0.14376676726E+02  0.55855892610E+02  0.47000000000E+01 0.  1.
<mgrwt>
<rscale>  0 0.14234029E+03</rscale>
<asrwt>0</asrwt>
<pdfrwt beam="1">  1        5 0.55036203E-01 0.14234114E+03</pdfrwt>
<pdfrwt beam="2">  1       -5 0.89555476E-02 0.14234114E+03</pdfrwt>
<totfact> 0.22093777E+02</totfact>
</mgrwt>
</event>
<event>
 8    1  0.3542708E-007  0.1284687E+03  0.7546771E-02  0.1229751E+00
          5   -1    0    0  501    0  0.00000000000E+00  0.00000000000E+00  0.29205564233E+03  0.29209345801E+03  0.47000000000E+01 0.  1.
         -5   -1    0    0    0  501 -0.00000000000E+00 -0.00000000000E+00 -0.73362194188E+02  0.73512594405E+02  0.47000000000E+01 0.  1.
         25    2    1    2    0    0  0.26819269902E+02 -0.12649486140E+02  0.21477673569E+02  0.13023770682E+03  0.12498514743E+03 0.  0.
         25    2    1    2    0    0 -0.26819269902E+02  0.12649486140E+02  0.19721577457E+03  0.23536834560E+03  0.12499965453E+03 0.  0.
          5    1    3    3  502    0 -0.36727941735E+02 -0.37747748701E+02 -0.11674678464E+02  0.54149998646E+02  0.47000000000E+01 0. -1.
         -5    1    3    3    0  502  0.63547211637E+02  0.25098262561E+02  0.33152352034E+02  0.76087708178E+02  0.47000000000E+01 0. -1.
          5    1    4    4  503    0 -0.73334445439E+02  0.19150296259E+02  0.15244012516E+03  0.17030782864E+03  0.47000000000E+01 0.  1.
         -5    1    4    4    0  503  0.46515175537E+02 -0.65008101188E+01  0.44775649404E+02  0.65060516959E+02  0.47000000000E+01 0.  1.
<mgrwt>
<rscale>  0 0.12846513E+03</rscale>
<asrwt>0</asrwt>
<pdfrwt beam="1">  1        5 0.44946115E-01 0.12846866E+03</pdfrwt>
<pdfrwt beam="2">  1       -5 0.11300970E-01 0.12846866E+03</pdfrwt>
<totfact> 0.21822107E+02</totfact>
</mgrwt>
</event>
<event>
 8    1  0.3542708E-007  0.1330638E+03  0.7546771E-02  0.1222980E+00
          5   -1    0    0  501    0  0.00000000000E+00  0.00000000000E+00  0.12904450218E+03  0.12913006445E+03  0.47000000000E+01 0.  1.
         -5   -1    0    0    0  501 -0.00000000000E+00 -0.00000000000E+00 -0.14254343130E+03  0.14262089541E+03  0.47000000000E+01 0.  1.
         25    2    1    2    0    0  0.32422042332E+02 -0.32090321150E+02 -0.33444785542E+02  0.13720051269E+03  0.12499779782E+03 0.  0.
         25    2    1    2    0    0 -0.32422042332E+02  0.32090321150E+02  0.19945856425E+02  0.13455044717E+03  0.12500003242E+03 0.  0.
          5    1    4    4  502    0 -0.14568994150E+02  0.19019031352E+02  0.72946917053E+02  0.76924130490E+02  0.47000000000E+01 0. -1.
         -5    1    4    4    0  502 -0.17853048182E+02  0.13071289798E+02 -0.53001060628E+02  0.57626316680E+02  0.47000000000E+01 0. -1.
          5    1    3    3  503    0  0.24872852335E+02 -0.15899055557E+02 -0.80916522190E+02  0.86261302530E+02  0.47000000000E+01 0. -1.
         -5    1    3    3    0  503  0.75491899971E+01 -0.16191265593E+02  0.47471736647E+02  0.50939210157E+02  0.47000000000E+01 0. -1.
<mgrwt>
<rscale>  0 0.13306332E+03</rscale>
<asrwt>0</asrwt>
<pdfrwt beam="1">  1        5 0.19865541E-01 0.13306384E+03</pdfrwt>
<pdfrwt beam="2">  1       -5 0.21942299E-01 0.13306384E+03</pdfrwt>
<totfact> 0.32836512E+02</totfact>
</mgrwt>
</event>
<event>
 8    1  0.3542708E-007  0.1672221E+03  0.7546771E-02  0.1180777E+00
         -5   -1    0    0    0  501 -0.00000000000E+00  0.00000000000E+00  0.16789516342E+03  0.16796093564E+03  0.47000000000E+01 0.  1.
          5   -1    0    0  501    0  0.00000000000E+00 -0.00000000000E+00 -0.16828039750E+03  0.16834601921E+03  0.47000000000E+01 0.  1.
         25    2    1    2    0    0  0.33024089522E+02 -0.10605252270E+03  0.17494061600E+02  0.16813177025E+03  0.12499808765E+03 0.  0.
         25    2    1    2    0    0 -0.33024089522E+02  0.10605252270E+03 -0.17879295681E+02  0.16817518460E+03  0.12500198174E+03 0.  0.
          5    1    3    3  502    0 -0.15481038387E+02 -0.69079943832E+02 -0.42291371093E+02  0.82597525739E+02  0.47000000000E+01 0. -1.
         -5    1    3    3    0  502  0.48505127909E+02 -0.36972578873E+02  0.59785432693E+02  0.85534244512E+02  0.47000000000E+01 0. -1.
          5    1    4    4  503    0 -0.21855966439E+02 -0.31561702218E+01 -0.49019497386E+02  0.53968933688E+02  0.47000000000E+01 0. -1.
         -5    1    4    4    0  503 -0.11168123083E+02  0.10920869293E+03  0.31140201705E+02  0.11420625091E+03  0.47000000000E+01 0. -1.
<mgrwt>
<rscale>  0 0.16722135E+03</rscale>
<asrwt>0</asrwt>
<pdfrwt beam="2">  1        5 0.25899399E-01 0.16722208E+03</pdfrwt>
<pdfrwt beam="1">  1       -5 0.25840132E-01 0.16722208E+03</pdfrwt>
<totfact> 0.15670710E+02</totfact>
</mgrwt>
</event>
<event>
 8    1  0.3542708E-007  0.1335092E+03  0.7546771E-02  0.1222340E+00
         -5   -1    0    0    0  501 -0.00000000000E+00  0.00000000000E+00  0.16458090975E+03  0.16464800593E+03  0.47000000000E+01 0. -1.
          5   -1    0    0  501    0  0.00000000000E+00 -0.00000000000E+00 -0.10823494289E+03  0.10833694136E+03  0.47000000000E+01 0. -1.
         25    2    1    2    0    0 -0.14297894225E+02 -0.44661905570E+02  0.31708730659E+02  0.13722302652E+03  0.12500239926E+03 0.  0.
         25    2    1    2    0    0  0.14297894225E+02  0.44661905570E+02  0.24637236206E+02  0.13576192076E+03  0.12500076052E+03 0.  0.
          5    1    3    3  502    0  0.12982532438E+02  0.34787821204E+02  0.37381103120E+02  0.52897783726E+02  0.47000000000E+01 0. -1.
         -5    1    3    3    0  502 -0.27280426663E+02 -0.79449726774E+02 -0.56723724612E+01  0.84325242797E+02  0.47000000000E+01 0. -1.
          5    1    4    4  503    0  0.31800457453E+02 -0.31330765506E+02  0.35044346781E+02  0.56948065838E+02  0.47000000000E+01 0. -1.
         -5    1    4    4    0  503 -0.17502563228E+02  0.75992671077E+02 -0.10407110574E+02  0.78813854921E+02  0.47000000000E+01 0. -1.
<mgrwt>
<rscale>  0 0.13350885E+03</rscale>
<asrwt>0</asrwt>
<pdfrwt beam="2">  1        5 0.16664537E-01 0.13350923E+03</pdfrwt>
<pdfrwt beam="1">  1       -5 0.25333147E-01 0.13350923E+03</pdfrwt>
<totfact> 0.34597446E+02</totfact>
</mgrwt>
</event>
<event>
 8    1  0.3542708E-007  0.1284231E+03  0.7546771E-02  0.1229815E+00
         -5   -1    0    0    0  501 -0.00000000000E+00  0.00000000000E+00  0.60884879016E+03  0.60886693068E+03  0.47000000000E+01 0.  1.
          5   -1    0    0  501    0  0.00000000000E+00 -0.00000000000E+00 -0.61640619231E+02  0.61819543344E+02  0.47000000000E+01 0.  1.
         25    2    1    2    0    0  0.20955605811E+02 -0.20709303687E+02  0.52484987638E+03  0.54033313476E+03  0.12499796444E+03 0.  0.
         25    2    1    2    0    0 -0.20955605811E+02  0.20709303687E+02  0.22358294546E+02  0.13035333926E+03  0.12499634813E+03 0.  0.
          5    1    3    3  502    0  0.64509006364E+02 -0.43681084811E+02  0.28910759525E+03  0.29945741050E+03  0.47000000000E+01 0.  1.
         -5    1    3    3    0  502 -0.43553400553E+02  0.22971781123E+02  0.23574228113E+03  0.24087572427E+03  0.47000000000E+01 0.  1.
          5    1    4    4  503    0 -0.15191162659E+01  0.71585553158E+02  0.12853885432E+01  0.71767272199E+02  0.47000000000E+01 0. -1.
         -5    1    4    4    0  503 -0.19436489545E+02 -0.50876249471E+02  0.21072906003E+02  0.58586067059E+02  0.47000000000E+01 0. -1.
<mgrwt>
<rscale>  0 0.12842275E+03</rscale>
<asrwt>0</asrwt>
<pdfrwt beam="2">  1        5 0.94983311E-02 0.12842314E+03</pdfrwt>
<pdfrwt beam="1">  1       -5 0.93684203E-01 0.12842314E+03</pdfrwt>
<totfact> 0.57777109E+01</totfact>
</mgrwt>
</event>
<event>
 8    1  0.3542708E-007  0.1283533E+03  0.7546771E-02  0.1229921E+00
         -5   -1    0    0    0  501 -0.00000000000E+00  0.00000000000E+00  0.21414286279E+02  0.21923997282E+02  0.47000000000E+01 0.  1.
          5   -1    0    0  501    0  0.00000000000E+00 -0.00000000000E+00 -0.90171416859E+03  0.90172641740E+03  0.47000000000E+01 0.  1.
         25    2    1    2    0    0 -0.27173256583E+02  0.10533792824E+02 -0.25694921366E+03  0.28722239370E+03  0.12499783350E+03 0.  0.
         25    2    1    2    0    0  0.27173256583E+02 -0.10533792824E+02 -0.62335066865E+03  0.63642802098E+03  0.12500089245E+03 0.  0.
          5    1    4    4  502    0  0.30139928701E+02 -0.23149448027E+02 -0.62131365992E+03  0.62249262345E+03  0.47000000000E+01 0. -1.
         -5    1    4    4    0  502 -0.29666721182E+01  0.12615655203E+02 -0.20370087300E+01  0.13935397526E+02  0.47000000000E+01 0. -1.
          5    1    3    3  503    0 -0.11173218753E+02 -0.57226056332E+02 -0.11236475416E+03  0.12667908398E+03  0.47000000000E+01 0. -1.
         -5    1    3    3    0  503 -0.16000037830E+02  0.67759849157E+02 -0.14458445950E+03  0.16054330972E+03  0.47000000000E+01 0. -1.
<mgrwt>
<rscale>  0 0.12835256E+03</rscale>
<asrwt>0</asrwt>
<pdfrwt beam="2">  1        5 0.13876538E+00 0.12835330E+03</pdfrwt>
<pdfrwt beam="1">  1       -5 0.33346571E-02 0.12835330E+03</pdfrwt>
<totfact> 0.12417078E+02</totfact>
</mgrwt>
</event>
<event>
 8    1  0.3542708E-007  0.1562941E+03  0.7546771E-02  0.1192946E+00
          5   -1    0    0  501    0  0.00000000000E+00  0.00000000000E+00  0.53417060801E+03  0.53419128453E+03  0.47000000000E+01 0.  1.
         -5   -1    0    0    0  501 -0.00000000000E+00 -0.00000000000E+00 -0.51842950216E+02  0.52055561539E+02  0.47000000000E+01 0.  1.
         25    2    1    2    0    0 -0.29648282020E+02 -0.89019466558E+02  0.13958871205E+03  0.20955396756E+03  0.12499748292E+03 0.  0.
         25    2    1    2    0    0  0.29648282020E+02  0.89019466558E+02  0.34273894575E+03  0.37669287850E+03  0.12499621486E+03 0.  0.
          5    1    3    3  502    0  0.47196383891E+02 -0.26180521093E+02  0.68663922382E+02  0.87462806804E+02  0.47000000000E+01 0.  1.
         -5    1    3    3    0  502 -0.76844665911E+02 -0.62838945465E+02  0.70924789666E+02  0.12209116076E+03  0.47000000000E+01 0.  1.
          5    1    4    4  503    0 -0.11362707408E+02  0.89545105261E+02  0.12038614724E+03  0.15054019876E+03  0.47000000000E+01 0.  1.
         -5    1    4    4    0  503  0.41010989428E+02 -0.52563870333E+00  0.22235279851E+03  0.22615267975E+03  0.47000000000E+01 0.  1.
<mgrwt>
<rscale>  0 0.15629388E+03</rscale>
<asrwt>0</asrwt>
<pdfrwt beam="1">  1        5 0.82198044E-01 0.15629414E+03</pdfrwt>
<pdfrwt beam="2">  1       -5 0.79937832E-02 0.15629414E+03</pdfrwt>
<totfact> 0.11274617E+02</totfact>
</mgrwt>
</event>
<event>
 8    1  0.3542708E-007  0.1564428E+03  0.7546771E-02  0.1192773E+00
          5   -1    0    0  501    0  0.00000000000E+00  0.00000000000E+00  0.13918856177E+03  0.13926789195E+03  0.47000000000E+01 0. -1.
         -5   -1    0    0    0  501 -0.00000000000E+00 -0.00000000000E+00 -0.17845905304E+03  0.17852093326E+03  0.47000000000E+01 0. -1.
         25    2    1    2    0    0  0.58888422124E+02  0.73363433257E+02 -0.39483521621E+02  0.16134837071E+03  0.12499723458E+03 0.  0.
         25    2    1    2    0    0 -0.58888422124E+02 -0.73363433257E+02  0.21303035696E+00  0.15644045449E+03  0.12499412314E+03 0.  0.
          5    1    4    4  502    0 -0.37764884506E+02  0.57215058328E+01  0.48012766864E+02  0.61532413512E+02  0.47000000000E+01 0.  1.
         -5    1    4    4    0  502 -0.21123537618E+02 -0.79084939090E+02 -0.47799736507E+02  0.94908040979E+02  0.47000000000E+01 0.  1.
          5    1    3    3  503    0  0.84161121351E+02  0.36094351888E+02 -0.62094498731E+02  0.11074165141E+03  0.47000000000E+01 0.  1.
         -5    1    3    3    0  503 -0.25272699227E+02  0.37269081369E+02  0.22610977109E+02  0.50606719299E+02  0.47000000000E+01 0.  1.
<mgrwt>
<rscale>  0 0.15644217E+03</rscale>
<asrwt>0</asrwt>
<pdfrwt beam="1">  1        5 0.21424487E-01 0.15644280E+03</pdfrwt>
<pdfrwt beam="2">  1       -5 0.27466101E-01 0.15644280E+03</pdfrwt>
<totfact> 0.19583748E+02</totfact>
</mgrwt>
</event>
<event>
 8    1  0.3542708E-007  0.1325457E+03  0.7546771E-02  0.1223728E+00
          5   -1    0    0  501    0  0.00000000000E+00  0.00000000000E+00  0.79187076561E+02  0.79326433767E+02  0.47000000000E+01 0.  1.
         -5   -1    0    0    0  501 -0.00000000000E+00 -0.00000000000E+00 -0.23252840291E+03  0.23257589763E+03  0.47000000000E+01 0.  1.
         25    2    1    2    0    0  0.89440075172E+01  0.43154554632E+02 -0.11063554087E+03  0.17265162142E+03  0.12500419440E+03 0.  0.
         25    2    1    2    0    0 -0.89440075172E+01 -0.43154554632E+02 -0.42705785476E+02  0.13925070998E+03  0.12499866104E+03 0.  0.
          5    1    4    4  502    0 -0.62099866203E+02 -0.36722506730E+02 -0.28817811791E+01  0.72355584067E+02  0.47000000000E+01 0. -1.
         -5    1    4    4    0  502  0.53155858686E+02 -0.64320479019E+01 -0.39824004296E+02  0.66895125914E+02  0.47000000000E+01 0. -1.
          5    1    3    3  503    0  0.43380043977E+02  0.29593124498E+02  0.32385344605E+01  0.52821958866E+02  0.47000000000E+01 0.  1.
         -5    1    3    3    0  503 -0.34436036460E+02  0.13561430134E+02 -0.11387407533E+03  0.11982966255E+03  0.47000000000E+01 0.  1.
<mgrwt>
<rscale>  0 0.13254438E+03</rscale>
<asrwt>0</asrwt>
<pdfrwt beam="1">  1        5 0.12197001E-01 0.13254569E+03</pdfrwt>
<pdfrwt beam="2">  1       -5 0.35787973E-01 0.13254569E+03</pdfrwt>
<totfact> 0.30726309E+02</totfact>
</mgrwt>
</event>
<event>
 8    1  0.3542708E-007  0.1266796E+03  0.7546771E-02  0.1232472E+00
         -5   -1    0    0    0  501 -0.00000000000E+00  0.00000000000E+00  0.54806661929E+03  0.54808677158E+03  0.47000000000E+01 0. -1.
          5   -1    0    0  501    0  0.00000000000E+00 -0.00000000000E+00 -0.50037861555E+02  0.50258109684E+02  0.47000000000E+01 0. -1.
         25    2    1    2    0    0  0.48252691926E+01 -0.19902538670E+02  0.44206436123E+03  0.45985391934E+03  0.12500133358E+03 0.  0.
         25    2    1    2    0    0 -0.48252691926E+01  0.19902538670E+02  0.55964396507E+02  0.13849096192E+03  0.12501335364E+03 0.  0.
          5    1    4    4  502    0 -0.34706446994E+02 -0.28728828679E+02 -0.14615464156E+02  0.47598160182E+02  0.47000000000E+01 0. -1.
         -5    1    4    4    0  502  0.29881177801E+02  0.48631367349E+02  0.70579860663E+02  0.90892801741E+02  0.47000000000E+01 0. -1.
          5    1    3    3  503    0  0.41932282684E+02  0.31966371285E+02  0.29156951927E+03  0.29633602513E+03  0.47000000000E+01 0. -1.
         -5    1    3    3    0  503 -0.37107013491E+02 -0.51868909956E+02  0.15049484196E+03  0.16351789421E+03  0.47000000000E+01 0. -1.
<mgrwt>
<rscale>  0 0.12667668E+03</rscale>
<asrwt>0</asrwt>
<pdfrwt beam="2">  1        5 0.77166245E-02 0.12667965E+03</pdfrwt>
<pdfrwt beam="1">  1       -5 0.84336438E-01 0.12667965E+03</pdfrwt>
<totfact> 0.10540274E+02</totfact>
</mgrwt>
</event>
<event>
 8    1  0.3542708E-007  0.1765746E+03  0.7546771E-02  0.1171161E+00
          5   -1    0    0  501    0  0.00000000000E+00  0.00000000000E+00  0.19266279812E+03  0.19272011773E+03  0.47000000000E+01 0. -1.
         -5   -1    0    0    0  501 -0.00000000000E+00 -0.00000000000E+00 -0.16549431248E+03  0.16556103848E+03  0.47000000000E+01 0. -1.
         25    2    1    2    0    0 -0.66746655463E+02 -0.10533793499E+03 -0.13487422868E+02  0.17708651878E+03  0.12500611183E+03 0.  0.
         25    2    1    2    0    0  0.66746655463E+02  0.10533793499E+03  0.40655908505E+02  0.18119463743E+03  0.12500958832E+03 0.  0.
          5    1    3    3  502    0  0.13313538968E+02 -0.30799791165E+02  0.42306814818E+02  0.54201789967E+02  0.47000000000E+01 0. -1.
         -5    1    3    3    0  502 -0.80060194432E+02 -0.74538143825E+02 -0.55794237686E+02  0.12288472882E+03  0.47000000000E+01 0. -1.
          5    1    4    4  503    0 -0.57150175212E+01 -0.25676217914E+02  0.44435444563E+01  0.27088091091E+02  0.47000000000E+01 0. -1.
         -5    1    4    4    0  503  0.72461672984E+02  0.13101415290E+03  0.36212364049E+02  0.15410654633E+03  0.47000000000E+01 0. -1.
<mgrwt>
<rscale>  0 0.17657400E+03</rscale>
<asrwt>0</asrwt>
<pdfrwt beam="1">  1        5 0.29649972E-01 0.17657461E+03</pdfrwt>
<pdfrwt beam="2">  1       -5 0.25470205E-01 0.17657461E+03</pdfrwt>
<totfact> 0.12581721E+02</totfact>
</mgrwt>
</event>
<event>
 8    1  0.3542708E-007  0.1259087E+03  0.7546771E-02  0.1233656E+00
          5   -1    0    0  501    0  0.00000000000E+00  0.00000000000E+00  0.47249255379E+02  0.47482440269E+02  0.47000000000E+01 0.  1.
         -5   -1    0    0    0  501 -0.00000000000E+00 -0.00000000000E+00 -0.33698667658E+03  0.33701945076E+03  0.47000000000E+01 0.  1.
         25    2    1    2    0    0  0.11150590810E+02 -0.10163536987E+02 -0.16157398852E+03  0.20483933964E+03  0.12500147255E+03 0.  0.
         25    2    1    2    0    0 -0.11150590810E+02  0.10163536987E+02 -0.12816343269E+03  0.17966255140E+03  0.12500053494E+03 0.  0.
          5    1    3    3  502    0  0.21482827341E+02 -0.61808236893E+01  0.15340663751E+02  0.27516184626E+02  0.47000000000E+01 0. -1.
         -5    1    3    3    0  502 -0.10332236531E+02 -0.39827132973E+01 -0.17691465227E+03  0.17732315501E+03  0.47000000000E+01 0. -1.
          5    1    4    4  503    0 -0.20969514590E+02 -0.21154451351E+02  0.14312788815E+02  0.33379294147E+02  0.47000000000E+01 0. -1.
         -5    1    4    4    0  503  0.98189237807E+01  0.31317988338E+02 -0.14247622150E+03  0.14628325725E+03  0.47000000000E+01 0. -1.
<mgrwt>
<rscale>  0 0.12590847E+03</rscale>
<asrwt>0</asrwt>
<pdfrwt beam="1">  1        5 0.72895748E-02 0.12590870E+03</pdfrwt>
<pdfrwt beam="2">  1       -5 0.51864561E-01 0.12590870E+03</pdfrwt>
<totfact> 0.34214846E+02</totfact>
</mgrwt>
</event>
<event>
 8    1  0.3542708E-007  0.1450657E+03  0.7546771E-02  0.1206671E+00
          5   -1    0    0  501    0  0.00000000000E+00  0.00000000000E+00  0.16902913018E+03  0.16909446132E+03  0.47000000000E+01 0. -1.
         -5   -1    0    0    0  501 -0.00000000000E+00 -0.00000000000E+00 -0.12460965930E+03  0.12469826459E+03  0.47000000000E+01 0. -1.
         25    2    1    2    0    0 -0.42473197740E+02  0.60120870877E+02  0.15715084783E+02  0.14591443104E+03  0.12500226260E+03 0.  0.
         25    2    1    2    0    0  0.42473197740E+02 -0.60120870877E+02  0.28704386099E+02  0.14787829487E+03  0.12500222666E+03 0.  0.
          5    1    3    3  502    0  0.38729487366E+02 -0.39529472212E+01 -0.71897004324E+01  0.39867038713E+02  0.47000000000E+01 0.  1.
         -5    1    3    3    0  502 -0.81202685107E+02  0.64073818098E+02  0.22904785216E+02  0.10604739233E+03  0.47000000000E+01 0.  1.
          5    1    4    4  503    0  0.53843537274E+02 -0.85986985677E+02  0.49008306832E+02  0.11276875609E+03  0.47000000000E+01 0.  1.
         -5    1    4    4    0  503 -0.11370339534E+02  0.25866114800E+02 -0.20303920733E+02  0.35109538777E+02  0.47000000000E+01 0.  1.
<mgrwt>
<rscale>  0 0.14506569E+03</rscale>
<asrwt>0</asrwt>
<pdfrwt beam="1">  1        5 0.26016323E-01 0.14506570E+03</pdfrwt>
<pdfrwt beam="2">  1       -5 0.19182558E-01 0.14506570E+03</pdfrwt>
<totfact> 0.26090611E+02</totfact>
</mgrwt>
</event>
<event>
 8    1  0.3542708E-007  0.1389495E+03  0.7546771E-02  0.1214750E+00
         -5   -1    0    0    0  501 -0.00000000000E+00  0.00000000000E+00  0.15380800137E+03  0.15387979493E+03  0.47000000000E+01 0.  1.
          5   -1    0    0  501    0  0.00000000000E+00 -0.00000000000E+00 -0.16278012776E+03  0.16284796589E+03  0.47000000000E+01 0.  1.
         25    2    1    2    0    0  0.28173079213E+02  0.53741514785E+02  0.71388627317E+02  0.15621554692E+03  0.12500035274E+03 0.  0.
         25    2    1    2    0    0 -0.28173079213E+02 -0.53741514785E+02 -0.80360753705E+02  0.16051221389E+03  0.12499778906E+03 0.  0.
          5    1    3    3  502    0  0.25536917257E+02  0.22753678079E+02 -0.32655030884E+02  0.47521627194E+02  0.47000000000E+01 0. -1.
         -5    1    3    3    0  502  0.26361619555E+01  0.30987836706E+02  0.10404365820E+03  0.10869391973E+03  0.47000000000E+01 0. -1.
          5    1    4    4  503    0  0.36765842107E+02  0.18725335870E+02 -0.24285201568E+02  0.48106406688E+02  0.47000000000E+01 0.  1.
         -5    1    4    4    0  503 -0.64938921319E+02 -0.72466850654E+02 -0.56075552137E+02  0.11240580720E+03  0.47000000000E+01 0.  1.
<mgrwt>
<rscale>  0 0.13894891E+03</rscale>
<asrwt>0</asrwt>
<pdfrwt beam="2">  1        5 0.25053837E-01 0.13894949E+03</pdfrwt>
<pdfrwt beam="1">  1       -5 0.23673510E-01 0.13894949E+03</pdfrwt>
<totfact> 0.18613543E+02</totfact>
</mgrwt>
</event>
<event>
 8    1  0.3542708E-007  0.1258101E+03  0.7546771E-02  0.1233827E+00
         -5   -1    0    0    0  501 -0.00000000000E+00  0.00000000000E+00  0.30973864766E+02  0.31328426365E+02  0.47000000000E+01 0. -1.
          5   -1    0    0  501    0  0.00000000000E+00 -0.00000000000E+00 -0.53261876263E+03  0.53263949938E+03  0.47000000000E+01 0. -1.
         25    2    1    2    0    0  0.11950009982E+02 -0.70070135987E+01 -0.18961742832E+03  0.22753169949E+03  0.12499601663E+03 0.  0.
         25    2    1    2    0    0 -0.11950009982E+02  0.70070135987E+01 -0.31202746954E+03  0.33643622625E+03  0.12504515828E+03 0.  0.
          5    1    4    4  502    0  0.31048650970E+02  0.43702080800E+02 -0.72533458059E+02  0.90316571743E+02  0.47000000000E+01 0. -1.
         -5    1    4    4    0  502 -0.42998660952E+02 -0.36695067202E+02 -0.23949401148E+03  0.24611965451E+03  0.47000000000E+01 0. -1.
          5    1    3    3  503    0 -0.25582725328E+02 -0.22259409699E+02 -0.18304661306E+03  0.18622059421E+03  0.47000000000E+01 0.  1.
         -5    1    3    3    0  503  0.37532735309E+02  0.15252396100E+02 -0.65708152596E+01  0.41311105284E+02  0.47000000000E+01 0.  1.
<mgrwt>
<rscale>  0 0.12579793E+03</rscale>
<asrwt>0</asrwt>
<pdfrwt beam="2">  1        5 0.81970211E-01 0.12581015E+03</pdfrwt>
<pdfrwt beam="1">  1       -5 0.47940795E-02 0.12581015E+03</pdfrwt>
<totfact> 0.24993894E+02</totfact>
</mgrwt>
</event>
<event>
 8    1  0.3542708E-007  0.1386919E+03  0.7546771E-02  0.1215110E+00
          5   -1    0    0  501    0  0.00000000000E+00  0.00000000000E+00  0.48882103579E+02  0.49107535575E+02  0.47000000000E+01 0. -1.
         -5   -1    0    0    0  501 -0.00000000000E+00 -0.00000000000E+00 -0.39503805280E+03  0.39506601114E+03  0.47000000000E+01 0. -1.
         25    2    1    2    0    0 -0.60010512686E+02 -0.31278790016E+01 -0.19166100157E+03  0.23657849245E+03  0.12499759320E+03 0.  0.
         25    2    1    2    0    0  0.60010512686E+02  0.31278790016E+01 -0.15449494765E+03  0.20759505427E+03  0.12496388457E+03 0.  0.
          5    1    4    4  502    0  0.24714691607E+02  0.10224453439E+02 -0.16700055099E+03  0.16919405858E+03  0.47000000000E+01 0. -1.
         -5    1    4    4    0  502  0.35295821079E+02 -0.70965744376E+01  0.12505603341E+02  0.38400995681E+02  0.47000000000E+01 0. -1.
          5    1    3    3  503    0  0.24238947105E+02  0.28404942755E+02 -0.19765568041E+02  0.42510410603E+02  0.47000000000E+01 0.  1.
         -5    1    3    3    0  503 -0.84249459791E+02 -0.31532821757E+02 -0.17189543353E+03  0.19406808184E+03  0.47000000000E+01 0.  1.
<mgrwt>
<rscale>  0 0.13868431E+03</rscale>
<asrwt>0</asrwt>
<pdfrwt beam="1">  1        5 0.75398154E-02 0.13869190E+03</pdfrwt>
<pdfrwt beam="2">  1       -5 0.60794575E-01 0.13869190E+03</pdfrwt>
<totfact> 0.23710944E+02</totfact>
</mgrwt>
</event>
<event>
 8    1  0.3542708E-007  0.1917197E+03  0.7546771E-02  0.1156923E+00
          5   -1    0    0  501    0  0.00000000000E+00  0.00000000000E+00  0.27440750047E+03  0.27444774787E+03  0.47000000000E+01 0.  1.
         -5   -1    0    0    0  501 -0.00000000000E+00 -0.00000000000E+00 -0.13568794464E+03  0.13576932025E+03  0.47000000000E+01 0.  1.
         25    2    1    2    0    0  0.13401115808E+03 -0.56311778010E+02  0.45476435346E+02  0.19703948642E+03  0.12500578468E+03 0.  0.
         25    2    1    2    0    0 -0.13401115808E+03  0.56311778010E+02  0.93243120479E+02  0.21317758170E+03  0.12498157860E+03 0.  0.
          5    1    3    3  502    0 -0.24013708109E+02 -0.26301220097E+01  0.84730367638E+01  0.26028024722E+02  0.47000000000E+01 0.  1.
         -5    1    3    3    0  502  0.15802486619E+03 -0.53681656000E+02  0.37003398583E+02  0.17101146170E+03  0.47000000000E+01 0.  1.
          5    1    4    4  503    0  0.25444027702E+01 -0.15788582837E+02  0.50061596619E+02  0.52763688172E+02  0.47000000000E+01 0. -1.
         -5    1    4    4    0  503 -0.13655556085E+03  0.72100360847E+02  0.43181523861E+02  0.16041389353E+03  0.47000000000E+01 0. -1.
<mgrwt>
<rscale>  0 0.19171578E+03</rscale>
<asrwt>0</asrwt>
<pdfrwt beam="1">  1        5 0.42225894E-01 0.19171973E+03</pdfrwt>
<pdfrwt beam="2">  1       -5 0.20884424E-01 0.19171973E+03</pdfrwt>
<totfact> 0.92144395E+01</totfact>
</mgrwt>
</event>
<event>
 8    1  0.3542708E-007  0.1328140E+03  0.7546771E-02  0.1223344E+00
          5   -1    0    0  501    0  0.00000000000E+00  0.00000000000E+00  0.11913222715E+03  0.11922490321E+03  0.47000000000E+01 0.  1.
         -5   -1    0    0    0  501 -0.00000000000E+00 -0.00000000000E+00 -0.20774895092E+03  0.20780210925E+03  0.47000000000E+01 0.  1.
         25    2    1    2    0    0  0.27755593532E+02 -0.35263144763E+02 -0.13206704205E+03  0.18729994939E+03  0.12500282035E+03 0.  0.
         25    2    1    2    0    0 -0.27755593532E+02  0.35263144763E+02  0.43450318282E+02  0.13972706307E+03  0.12498743794E+03 0.  0.
          5    1    4    4  502    0  0.33642090247E+02  0.27876033681E+02  0.61086238152E+02  0.75249464992E+02  0.47000000000E+01 0.  1.
         -5    1    4    4    0  502 -0.61397683780E+02  0.73871110821E+01 -0.17635919870E+02  0.64477598073E+02  0.47000000000E+01 0.  1.
          5    1    3    3  503    0  0.48950015660E+02 -0.71536088193E+02 -0.10832423556E+03  0.13881551050E+03  0.47000000000E+01 0.  1.
         -5    1    3    3    0  503 -0.21194422128E+02  0.36272943429E+02 -0.23742806494E+02  0.48484438891E+02  0.47000000000E+01 0.  1.
<mgrwt>
<rscale>  0 0.13281041E+03</rscale>
<asrwt>0</asrwt>
<pdfrwt beam="1">  1        5 0.18339253E-01 0.13281403E+03</pdfrwt>
<pdfrwt beam="2">  1       -5 0.31972595E-01 0.13281403E+03</pdfrwt>
<totfact> 0.18406746E+02</totfact>
</mgrwt>
</event>
<event>
 8    1  0.3542708E-007  0.1271809E+03  0.7546771E-02  0.1231702E+00
          5   -1    0    0  501    0  0.00000000000E+00  0.00000000000E+00  0.15185721480E+03  0.15192993019E+03  0.47000000000E+01 0.  1.
         -5   -1    0    0    0  501 -0.00000000000E+00 -0.00000000000E+00 -0.11549254283E+03  0.11558813715E+03  0.47000000000E+01 0.  1.
         25    2    1    2    0    0  0.19379276970E+01  0.23337760687E+02 -0.19403459592E+02  0.12864740791E+03  0.12500101872E+03 0.  0.
         25    2    1    2    0    0 -0.19379276970E+01 -0.23337760687E+02  0.55768131566E+02  0.13887065943E+03  0.12500627550E+03 0.  0.
          5    1    3    3  502    0  0.40386856611E+02  0.12978040402E+02 -0.58652891039E+02  0.72538123403E+02  0.47000000000E+01 0. -1.
         -5    1    3    3    0  502 -0.38448928914E+02  0.10359720285E+02  0.39249431447E+02  0.56109284508E+02  0.47000000000E+01 0. -1.
          5    1    4    4  503    0 -0.48638808181E+02  0.23357754083E+02  0.47702426744E+02  0.72172916349E+02  0.47000000000E+01 0.  1.
         -5    1    4    4    0  503  0.46700880484E+02 -0.46695514770E+02  0.80657048213E+01  0.66697743079E+02  0.47000000000E+01 0.  1.
<mgrwt>
<rscale>  0 0.12717959E+03</rscale>
<asrwt>0</asrwt>
<pdfrwt beam="1">  1        5 0.23375595E-01 0.12718088E+03</pdfrwt>
<pdfrwt beam="2">  1       -5 0.17781030E-01 0.12718088E+03</pdfrwt>
<totfact> 0.35183978E+02</totfact>
</mgrwt>
</event>
<event>
 8    1  0.3542708E-007  0.1251992E+03  0.7546771E-02  0.1234759E+00
          5   -1    0    0  501    0  0.00000000000E+00  0.00000000000E+00  0.13964792277E+02  0.14734497730E+02  0.47000000000E+01 0. -1.
         -5   -1    0    0    0  501 -0.00000000000E+00 -0.00000000000E+00 -0.11422293400E+04  0.11422390096E+04  0.47000000000E+01 0. -1.
         25    2    1    2    0    0  0.64255009995E+01 -0.27980112717E+01 -0.68591938452E+03  0.69725176586E+03  0.12500202797E+03 0.  0.
         25    2    1    2    0    0 -0.64255009995E+01  0.27980112717E+01 -0.44234516318E+03  0.45972174149E+03  0.12500288111E+03 0.  0.
          5    1    4    4  502    0 -0.26370577528E-01  0.42695451853E+02 -0.39488076098E+03  0.39721002971E+03  0.47000000000E+01 0. -1.
         -5    1    4    4    0  502 -0.63991304220E+01 -0.39897440581E+02 -0.47464402192E+02  0.62511711787E+02  0.47000000000E+01 0. -1.
          5    1    3    3  503    0  0.41544772354E+02  0.74575816662E+01 -0.62203327395E+03  0.62348140914E+03  0.47000000000E+01 0.  1.
         -5    1    3    3    0  503 -0.35119271354E+02 -0.10255592938E+02 -0.63886110567E+02  0.73770356719E+02  0.47000000000E+01 0.  1.
<mgrwt>
<rscale>  0 0.12519897E+03</rscale>
<asrwt>0</asrwt>
<pdfrwt beam="1">  1        5 0.22083824E-02 0.12519919E+03</pdfrwt>
<pdfrwt beam="2">  1       -5 0.17578747E+00 0.12519919E+03</pdfrwt>
<totfact> 0.12396301E+02</totfact>
</mgrwt>
</event>
<event>
 8    1  0.3542708E-007  0.2028872E+03  0.7546771E-02  0.1147327E+00
         -5   -1    0    0    0  501 -0.00000000000E+00  0.00000000000E+00  0.47458847421E+03  0.47461174643E+03  0.47000000000E+01 0. -1.
          5   -1    0    0  501    0  0.00000000000E+00 -0.00000000000E+00 -0.10107471025E+03  0.10118392685E+03  0.47000000000E+01 0. -1.
         25    2    1    2    0    0  0.65615287188E+02  0.14571137587E+03  0.29546379661E+03  0.35841351066E+03  0.12499687415E+03 0.  0.
         25    2    1    2    0    0 -0.65615287188E+02 -0.14571137587E+03  0.78049967351E+02  0.21738216262E+03  0.12500414494E+03 0.  0.
          5    1    4    4  502    0 -0.23056715185E+02 -0.12064569370E+03 -0.23090898915E+01  0.12294070692E+03  0.47000000000E+01 0. -1.
         -5    1    4    4    0  502 -0.42558572003E+02 -0.25065682171E+02  0.80359057243E+02  0.94441455699E+02  0.47000000000E+01 0. -1.
          5    1    3    3  503    0  0.74933839380E+02  0.12163209014E+03  0.29950004433E+03  0.33186113390E+03  0.47000000000E+01 0.  1.
         -5    1    3    3    0  503 -0.93185521920E+01  0.24079285725E+02 -0.40362477239E+01  0.26552376762E+02  0.47000000000E+01 0.  1.
<mgrwt>
<rscale>  0 0.20288606E+03</rscale>
<asrwt>0</asrwt>
<pdfrwt beam="2">  1        5 0.15560147E-01 0.20288718E+03</pdfrwt>
<pdfrwt beam="1">  1       -5 0.73023803E-01 0.20288718E+03</pdfrwt>
<totfact> 0.49054969E+01</totfact>
</mgrwt>
</event>
<event>
 8    1  0.3542708E-007  0.1839353E+03  0.7546771E-02  0.1164048E+00
         -5   -1    0    0    0  501 -0.00000000000E+00  0.00000000000E+00  0.19952864172E+03  0.19958398951E+03  0.47000000000E+01 0.  1.
          5   -1    0    0  501    0  0.00000000000E+00 -0.00000000000E+00 -0.17915441253E+03  0.17921605266E+03  0.47000000000E+01 0.  1.
         25    2    1    2    0    0 -0.84087218781E+02  0.10552798141E+03  0.54258214678E+02  0.19176976255E+03  0.12499949098E+03 0.  0.
         25    2    1    2    0    0  0.84087218781E+02 -0.10552798141E+03 -0.33883985490E+02  0.18703027961E+03  0.12500154317E+03 0.  0.
          5    1    4    4  502    0  0.71120442514E+02 -0.10243921832E+03 -0.73594268857E+02  0.14487966456E+03  0.47000000000E+01 0. -1.
         -5    1    4    4    0  502  0.12966776267E+02 -0.30887630886E+01  0.39710283368E+02  0.42150615053E+02  0.47000000000E+01 0. -1.
          5    1    3    3  503    0 -0.10335251227E+01 -0.15738353753E+02 -0.20914925286E+02  0.26613681683E+02  0.47000000000E+01 0. -1.
         -5    1    3    3    0  503 -0.83053693658E+02  0.12126633517E+03  0.75173139964E+02  0.16515608087E+03  0.47000000000E+01 0. -1.
<mgrwt>
<rscale>  0 0.18393497E+03</rscale>
<asrwt>0</asrwt>
<pdfrwt beam="2">  1        5 0.27571216E-01 0.18393532E+03</pdfrwt>
<pdfrwt beam="1">  1       -5 0.30705713E-01 0.18393532E+03</pdfrwt>
<totfact> 0.10190236E+02</totfact>
</mgrwt>
</event>
<event>
 8    1  0.3542708E-007  0.1285859E+03  0.7546771E-02  0.1229586E+00
         -5   -1    0    0    0  501 -0.00000000000E+00  0.00000000000E+00  0.19352846485E+04  0.19352903557E+04  0.47000000000E+01 0.  1.
          5   -1    0    0  501    0  0.00000000000E+00 -0.00000000000E+00 -0.82954085956E+01  0.95343486284E+01  0.47000000000E+01 0.  1.
         25    2    1    2    0    0  0.29974405623E+02  0.40771488913E+01  0.11640362520E+04  0.11711118431E+04  0.12492984036E+03 0.  0.
         25    2    1    2    0    0 -0.29974405623E+02 -0.40771488913E+01  0.76295298798E+03  0.77371286124E+03  0.12497696443E+03 0.  0.
          5    1    3    3  502    0  0.71086894633E+02 -0.31741679053E+00  0.42705500888E+03  0.43295671602E+03  0.47000000000E+01 0. -1.
         -5    1    3    3    0  502 -0.41112489010E+02  0.43945656818E+01  0.73698124309E+03  0.73815512708E+03  0.47000000000E+01 0. -1.
          5    1    4    4  503    0 -0.56529573123E+02  0.38004793225E+02  0.58174177008E+03  0.58573503736E+03  0.47000000000E+01 0.  1.
         -5    1    4    4    0  503  0.26555167500E+02 -0.42081942117E+02  0.18121121791E+03  0.18797782388E+03  0.47000000000E+01 0.  1.
<mgrwt>
<rscale>  0 0.12857443E+03</rscale>
<asrwt>0</asrwt>
<pdfrwt beam="2">  1        5 0.13719589E-02 0.12858588E+03</pdfrwt>
<pdfrwt beam="1">  1       -5 0.29783181E+00 0.12858588E+03</pdfrwt>
<totfact> 0.42666267E+01</totfact>
</mgrwt>
</event>
<event>
 8    1  0.3542708E-007  0.1281749E+03  0.7546771E-02  0.1230205E+00
         -5   -1    0    0    0  501 -0.00000000000E+00  0.00000000000E+00  0.65362709026E+02  0.65531471303E+02  0.47000000000E+01 0. -1.
          5   -1    0    0  501    0  0.00000000000E+00 -0.00000000000E+00 -0.29336059717E+03  0.29339824467E+03  0.47000000000E+01 0. -1.
         25    2    1    2    0    0  0.26895022190E+02 -0.82948043795E+01 -0.45614407748E+02  0.13601149886E+03  0.12500523041E+03 0.  0.
         25    2    1    2    0    0 -0.26895022190E+02  0.82948043795E+01 -0.18238348040E+03  0.22291821711E+03  0.12504659770E+03 0.  0.
          5    1    3    3  502    0  0.46596951563E+02  0.67789229193E+00 -0.81405878105E+02  0.93918807611E+02  0.47000000000E+01 0.  1.
         -5    1    3    3    0  502 -0.19701929373E+02 -0.89726966714E+01  0.35791470358E+02  0.42092691253E+02  0.47000000000E+01 0.  1.
          5    1    4    4  503    0  0.36418700887E+02  0.39903244823E+02 -0.10346523642E+03  0.11681496423E+03  0.47000000000E+01 0.  1.
         -5    1    4    4    0  503 -0.63313723077E+02 -0.31608440444E+02 -0.78918243982E+02  0.10610325287E+03  0.47000000000E+01 0.  1.
<mgrwt>
<rscale>  0 0.12816478E+03</rscale>
<asrwt>0</asrwt>
<pdfrwt beam="2">  1        5 0.45148276E-01 0.12817487E+03</pdfrwt>
<pdfrwt beam="1">  1       -5 0.10071679E-01 0.12817487E+03</pdfrwt>
<totfact> 0.26431613E+02</totfact>
</mgrwt>
</event>
<event>
 8    1  0.3542708E-007  0.1928437E+03  0.7546771E-02  0.1155922E+00
          5   -1    0    0  501    0  0.00000000000E+00  0.00000000000E+00  0.65277693939E+03  0.65279385919E+03  0.47000000000E+01 0. -1.
         -5   -1    0    0    0  501 -0.00000000000E+00 -0.00000000000E+00 -0.56928221086E+02  0.57121907846E+02  0.47000000000E+01 0. -1.
         25    2    1    2    0    0  0.38508573151E+02 -0.14170456976E+03  0.28521160553E+03  0.34428737185E+03  0.12500015677E+03 0.  0.
         25    2    1    2    0    0 -0.38508573151E+02  0.14170456976E+03  0.31063711278E+03  0.36562839519E+03  0.12500244892E+03 0.  0.
          5    1    4    4  502    0  0.33571544502E+02  0.18914070158E+02  0.12943313348E+03  0.13512888918E+03  0.47000000000E+01 0. -1.
         -5    1    4    4    0  502 -0.72080117653E+02  0.12279049960E+03  0.18120397930E+03  0.23049950600E+03  0.47000000000E+01 0. -1.
          5    1    3    3  503    0  0.16953336120E+02 -0.14803229455E+03  0.16695290560E+03  0.22382211357E+03  0.47000000000E+01 0.  1.
         -5    1    3    3    0  503  0.21555237031E+02  0.63277247885E+01  0.11825869993E+03  0.12046525828E+03  0.47000000000E+01 0.  1.
<mgrwt>
<rscale>  0 0.19284337E+03</rscale>
<asrwt>0</asrwt>
<pdfrwt beam="1">  1        5 0.10044341E+00 0.19284374E+03</pdfrwt>
<pdfrwt beam="2">  1       -5 0.87743891E-02 0.19284374E+03</pdfrwt>
<totfact> 0.63144871E+01</totfact>
</mgrwt>
</event>
<event>
 8    1  0.3542708E-007  0.1767596E+03  0.7546771E-02  0.1170977E+00
         -5   -1    0    0    0  501 -0.00000000000E+00  0.00000000000E+00  0.91375688718E+03  0.91376897456E+03  0.47000000000E+01 0. -1.
          5   -1    0    0  501    0  0.00000000000E+00 -0.00000000000E+00 -0.35814218582E+02  0.36121299155E+02  0.47000000000E+01 0. -1.
         25    2    1    2    0    0  0.12474849409E+03 -0.74318659936E+01  0.54482888057E+03  0.57278483589E+03  0.12500615868E+03 0.  0.
         25    2    1    2    0    0 -0.12474849409E+03  0.74318659936E+01  0.33311378802E+03  0.37710543783E+03  0.12500518412E+03 0.  0.
          5    1    3    3  502    0  0.10724033945E+03 -0.58198640977E+02  0.40135885552E+03  0.41952186250E+03  0.47000000000E+01 0.  1.
         -5    1    3    3    0  502  0.17508154635E+02  0.50766774983E+02  0.14347002506E+03  0.15326297338E+03  0.47000000000E+01 0.  1.
          5    1    4    4  503    0  0.36536663433E+01  0.19582097807E+02  0.65838393396E+00  0.20477580465E+02  0.47000000000E+01 0.  1.
         -5    1    4    4    0  503 -0.12840216043E+03 -0.12150231814E+02  0.33245540409E+03  0.35662785736E+03  0.47000000000E+01 0.  1.
<mgrwt>
<rscale>  0 0.17675944E+03</rscale>
<asrwt>0</asrwt>
<pdfrwt beam="2">  1        5 0.55344315E-02 0.17675961E+03</pdfrwt>
<pdfrwt beam="1">  1       -5 0.14060253E+00 0.17675961E+03</pdfrwt>
<totfact> 0.57189091E+01</totfact>
</mgrwt>
</event>
<event>
 8    1  0.3542708E-007  0.1794307E+03  0.7546771E-02  0.1168356E+00
          5   -1    0    0  501    0  0.00000000000E+00  0.00000000000E+00  0.20519203347E+03  0.20524585404E+03  0.47000000000E+01 0.  1.
         -5   -1    0    0    0  501 -0.00000000000E+00 -0.00000000000E+00 -0.20705918168E+03  0.20711251705E+03  0.47000000000E+01 0.  1.
         25    2    1    2    0    0  0.55861485817E+02 -0.11596308556E+03 -0.10249426099E+03  0.20664088390E+03  0.12500975383E+03 0.  0.
         25    2    1    2    0    0 -0.55861485817E+02  0.11596308556E+03  0.10062711278E+03  0.20571748719E+03  0.12500370354E+03 0.  0.
          5    1    3    3  502    0  0.77947597477E+02 -0.21548786619E+02 -0.59272335215E+02  0.10037667996E+03  0.47000000000E+01 0. -1.
         -5    1    3    3    0  502 -0.22086111660E+02 -0.94414298937E+02 -0.43221925774E+02  0.10626420394E+03  0.47000000000E+01 0. -1.
          5    1    4    4  503    0  0.39707565407E+02  0.29601776816E+02  0.19607433261E+02  0.53474268395E+02  0.47000000000E+01 0.  1.
         -5    1    4    4    0  503 -0.95569051224E+02  0.86361308740E+02  0.81019679519E+02  0.15224321879E+03  0.47000000000E+01 0.  1.
<mgrwt>
<rscale>  0 0.17942966E+03</rscale>
<asrwt>0</asrwt>
<pdfrwt beam="1">  1        5 0.31576248E-01 0.17943071E+03</pdfrwt>
<pdfrwt beam="2">  1       -5 0.31863502E-01 0.17943071E+03</pdfrwt>
<totfact> 0.71990626E+01</totfact>
</mgrwt>
</event>
<event>
 8    1  0.3542708E-007  0.1284126E+03  0.7546771E-02  0.1229835E+00
          5   -1    0    0  501    0  0.00000000000E+00  0.00000000000E+00  0.36179168759E+03  0.36182221492E+03  0.47000000000E+01 0.  1.
         -5   -1    0    0    0  501 -0.00000000000E+00 -0.00000000000E+00 -0.45759558803E+02  0.46000295889E+02  0.47000000000E+01 0.  1.
         25    2    1    2    0    0 -0.49709063677E+01  0.28939437965E+02  0.14050440033E+03  0.19034514400E+03  0.12501034499E+03 0.  0.
         25    2    1    2    0    0  0.49709063677E+01 -0.28939437965E+02  0.17552772846E+03  0.21747736681E+03  0.12499688250E+03 0.  0.
          5    1    3    3  502    0 -0.35348303664E+01 -0.38664027481E+02  0.10860541597E+03  0.11543235432E+03  0.47000000000E+01 0. -1.
         -5    1    3    3    0  502 -0.14360760013E+01  0.67603465446E+02  0.31898984361E+02  0.74912789682E+02  0.47000000000E+01 0. -1.
          5    1    4    4  503    0 -0.17618706265E+02  0.12084383772E+02 -0.11432976450E+02  0.24683072987E+02  0.47000000000E+01 0. -1.
         -5    1    4    4    0  503  0.22589612632E+02 -0.41023821738E+02  0.18696070491E+03  0.19279429382E+03  0.47000000000E+01 0. -1.
<mgrwt>
<rscale>  0 0.12840929E+03</rscale>
<asrwt>0</asrwt>
<pdfrwt beam="1">  1        5 0.55681126E-01 0.12841257E+03</pdfrwt>
<pdfrwt beam="2">  1       -5 0.70607986E-02 0.12841257E+03</pdfrwt>
<totfact> 0.31246861E+02</totfact>
</mgrwt>
</event>
<event>
 8    1  0.3542708E-007  0.1256564E+03  0.7546771E-02  0.1234051E+00
          5   -1    0    0  501    0  0.00000000000E+00  0.00000000000E+00  0.21511383435E+03  0.21516517313E+03  0.47000000000E+01 0. -1.
         -5   -1    0    0    0  501 -0.00000000000E+00 -0.00000000000E+00 -0.73606710767E+02  0.73756612381E+02  0.47000000000E+01 0. -1.
         25    2    1    2    0    0  0.11920289750E+02 -0.46734009450E+01  0.60846598007E+02  0.13960448005E+03  0.12499267329E+03 0.  0.
         25    2    1    2    0    0 -0.11920289750E+02  0.46734009450E+01  0.80660525572E+02  0.14931730546E+03  0.12500241334E+03 0.  0.
          5    1    4    4  502    0 -0.33993792936E+02  0.56260175551E+02  0.26004670782E+02  0.70845735325E+02  0.47000000000E+01 0. -1.
         -5    1    4    4    0  502  0.22073503186E+02 -0.51586774606E+02  0.54655854790E+02  0.78471570138E+02  0.47000000000E+01 0. -1.
          5    1    3    3  503    0 -0.28988693051E+02 -0.43545101082E+02 -0.49970134678E+01  0.52759646479E+02  0.47000000000E+01 0. -1.
         -5    1    3    3    0  503  0.40908982801E+02  0.38871700137E+02  0.65843611475E+02  0.86844833568E+02  0.47000000000E+01 0. -1.
<mgrwt>
<rscale>  0 0.12565400E+03</rscale>
<asrwt>0</asrwt>
<pdfrwt beam="1">  1        5 0.33109916E-01 0.12565643E+03</pdfrwt>
<pdfrwt beam="2">  1       -5 0.11339589E-01 0.12565643E+03</pdfrwt>
<totfact> 0.40032398E+02</totfact>
</mgrwt>
</event>
<event>
 8    1  0.3542708E-007  0.1307607E+03  0.7546771E-02  0.1226334E+00
         -5   -1    0    0    0  501 -0.00000000000E+00  0.00000000000E+00  0.35511383113E+03  0.35514493247E+03  0.47000000000E+01 0.  1.
          5   -1    0    0  501    0  0.00000000000E+00 -0.00000000000E+00 -0.85532312294E+02  0.85661347447E+02  0.47000000000E+01 0.  1.
         25    2    1    2    0    0 -0.30666361532E+02 -0.23049841807E+02  0.28061382931E+03  0.30958096253E+03  0.12499812089E+03 0.  0.
         25    2    1    2    0    0  0.30666361532E+02  0.23049841807E+02 -0.11032310477E+02  0.13122531738E+03  0.12500660427E+03 0.  0.
          5    1    4    4  502    0 -0.35681461190E+02 -0.18590061674E+02 -0.30103134784E+02  0.50468265173E+02  0.47000000000E+01 0. -1.
         -5    1    4    4    0  502  0.66347822721E+02  0.41639903481E+02  0.19070824307E+02  0.80757052209E+02  0.47000000000E+01 0. -1.
          5    1    3    3  503    0  0.50285712333E+01 -0.10675825051E+02  0.26967010474E+03  0.26996910038E+03  0.47000000000E+01 0.  1.
         -5    1    3    3    0  503 -0.35694932765E+02 -0.12374016756E+02  0.10943724570E+02  0.39611862153E+02  0.47000000000E+01 0.  1.
<mgrwt>
<rscale>  0 0.13075872E+03</rscale>
<asrwt>0</asrwt>
<pdfrwt beam="2">  1        5 0.13171136E-01 0.13076074E+03</pdfrwt>
<pdfrwt beam="1">  1       -5 0.54645214E-01 0.13076074E+03</pdfrwt>
<totfact> 0.11072714E+02</totfact>
</mgrwt>
</event>
<event>
 8    1  0.3542708E-007  0.1451166E+03  0.7546771E-02  0.1206618E+00
         -5   -1    0    0    0  501 -0.00000000000E+00  0.00000000000E+00  0.25663409660E+03  0.25667713092E+03  0.47000000000E+01 0. -1.
          5   -1    0    0  501    0  0.00000000000E+00 -0.00000000000E+00 -0.82948877153E+02  0.83081924755E+02  0.47000000000E+01 0. -1.
         25    2    1    2    0    0 -0.73714348740E+02 -0.14877850618E+01  0.10577100034E+03  0.17957266368E+03  0.12499127295E+03 0.  0.
         25    2    1    2    0    0  0.73714348740E+02  0.14877850618E+01  0.67914219107E+02  0.16018639199E+03  0.12494526925E+03 0.  0.
          5    1    4    4  502    0 -0.30988068079E+02 -0.19451640292E+02  0.27129309420E+02  0.45789912676E+02  0.47000000000E+01 0. -1.
         -5    1    4    4    0  502  0.10470241682E+03  0.20939425354E+02  0.40784909688E+02  0.11439647932E+03  0.47000000000E+01 0. -1.
          5    1    3    3  503    0 -0.78324468435E+02 -0.98476028582E+01  0.13053401698E+03  0.15262017307E+03  0.47000000000E+01 0. -1.
         -5    1    3    3    0  503  0.46101196952E+01  0.83598177965E+01 -0.24763016642E+02  0.26952490616E+02  0.47000000000E+01 0. -1.
<mgrwt>
<rscale>  0 0.14510673E+03</rscale>
<asrwt>0</asrwt>
<pdfrwt beam="2">  1        5 0.12774911E-01 0.14511663E+03</pdfrwt>
<pdfrwt beam="1">  1       -5 0.39495713E-01 0.14511663E+03</pdfrwt>
<totfact> 0.23898992E+02</totfact>
</mgrwt>
</event>
<event>
 8    1  0.3542708E-007  0.1974819E+03  0.7546771E-02  0.1151881E+00
         -5   -1    0    0    0  501 -0.00000000000E+00  0.00000000000E+00  0.43735707107E+03  0.43738232430E+03  0.47000000000E+01 0. -1.
          5   -1    0    0  501    0  0.00000000000E+00 -0.00000000000E+00 -0.92743568359E+02  0.92862583810E+02  0.47000000000E+01 0. -1.
         25    2    1    2    0    0  0.98592272170E+02  0.11684872334E+03  0.22495889311E+03  0.29934160974E+03  0.12499934182E+03 0.  0.
         25    2    1    2    0    0 -0.98592272170E+02 -0.11684872334E+03  0.11965460960E+03  0.23090329837E+03  0.12500018929E+03 0.  0.
          5    1    3    3  502    0  0.52403441412E+02 -0.86831453619E+01  0.11260304384E+03  0.12459154533E+03  0.47000000000E+01 0.  1.
         -5    1    3    3    0  502  0.46188830758E+02  0.12553186870E+03  0.11235584927E+03  0.17475006441E+03  0.47000000000E+01 0.  1.
          5    1    4    4  503    0 -0.79540624330E+02 -0.14353051641E+03  0.10334775253E+03  0.19398599953E+03  0.47000000000E+01 0. -1.
         -5    1    4    4    0  503 -0.19051647840E+02  0.26681793066E+02  0.16306857072E+02  0.36917298847E+02  0.47000000000E+01 0. -1.
<mgrwt>
<rscale>  0 0.19748178E+03</rscale>
<asrwt>0</asrwt>
<pdfrwt beam="2">  1        5 0.14279339E-01 0.19748192E+03</pdfrwt>
<pdfrwt beam="1">  1       -5 0.67296799E-01 0.19748192E+03</pdfrwt>
<totfact> 0.68565723E+01</totfact>
</mgrwt>
</event>
<event>
 8    1  0.3542708E-007  0.1396275E+03  0.7546771E-02  0.1213840E+00
          5   -1    0    0  501    0  0.00000000000E+00  0.00000000000E+00  0.36726127004E+02  0.37025645230E+02  0.47000000000E+01 0. -1.
         -5   -1    0    0    0  501 -0.00000000000E+00 -0.00000000000E+00 -0.53136509937E+03  0.53138588505E+03  0.47000000000E+01 0. -1.
         25    2    1    2    0    0  0.57820701382E+02 -0.22835527283E+02 -0.22570341066E+03  0.26540132993E+03  0.12502456370E+03 0.  0.
         25    2    1    2    0    0 -0.57820701382E+02  0.22835527283E+02 -0.26893556171E+03  0.30301020035E+03  0.12499660137E+03 0.  0.
          5    1    3    3  502    0  0.76121824905E+01 -0.57689927311E+02 -0.42491075113E+02  0.72205640359E+02  0.47000000000E+01 0. -1.
         -5    1    3    3    0  502  0.50208518891E+02  0.34854400028E+02 -0.18321233555E+03  0.19319568957E+03  0.47000000000E+01 0. -1.
          5    1    4    4  503    0 -0.41674360741E+02 -0.16992208560E+02 -0.18525402328E+02  0.48895480633E+02  0.47000000000E+01 0.  1.
         -5    1    4    4    0  503 -0.16146340640E+02  0.39827735843E+02 -0.25041015938E+03  0.25411471972E+03  0.47000000000E+01 0.  1.
<mgrwt>
<rscale>  0 0.13962123E+03</rscale>
<asrwt>0</asrwt>
<pdfrwt beam="1">  1        5 0.56748125E-02 0.13962749E+03</pdfrwt>
<pdfrwt beam="2">  1       -5 0.81773110E-01 0.13962749E+03</pdfrwt>
<totfact> 0.19676792E+02</totfact>
</mgrwt>
</event>
<event>
 8    1  0.3542708E-007  0.1287496E+03  0.7546771E-02  0.1229330E+00
         -5   -1    0    0    0  501 -0.00000000000E+00  0.00000000000E+00  0.11774415239E+02  0.12677809520E+02  0.47000000000E+01 0.  1.
          5   -1    0    0  501    0  0.00000000000E+00 -0.00000000000E+00 -0.14948589338E+04  0.14948663224E+04  0.47000000000E+01 0.  1.
         25    2    1    2    0    0 -0.22712697747E+02 -0.20752402597E+02 -0.51087093381E+03  0.52684493033E+03  0.12501976142E+03 0.  0.
         25    2    1    2    0    0  0.22712697747E+02  0.20752402597E+02 -0.97221358471E+03  0.98069920159E+03  0.12500056343E+03 0.  0.
          5    1    4    4  502    0 -0.24670454234E+02 -0.89864193957E+01 -0.49077510546E+02  0.55857668113E+02  0.47000000000E+01 0.  1.
         -5    1    4    4    0  502  0.47383151980E+02  0.29738821993E+02 -0.92313607416E+03  0.92484153347E+03  0.47000000000E+01 0.  1.
          5    1    3    3  503    0 -0.40255154800E+02 -0.27360914110E+02 -0.69104075017E+02  0.84655539056E+02  0.47000000000E+01 0.  1.
         -5    1    3    3    0  503  0.17542457053E+02  0.66085115130E+01 -0.44176685879E+03  0.44218939127E+03  0.47000000000E+01 0.  1.
<mgrwt>
<rscale>  0 0.12874498E+03</rscale>
<asrwt>0</asrwt>
<pdfrwt beam="2">  1        5 0.23004821E+00 0.12874964E+03</pdfrwt>
<pdfrwt beam="1">  1       -5 0.18815099E-02 0.12874964E+03</pdfrwt>
<totfact> 0.69550140E+01</totfact>
</mgrwt>
</event>
<event>
 8    1  0.3542708E-007  0.1305589E+03  0.7546771E-02  0.1226629E+00
          5   -1    0    0  501    0  0.00000000000E+00  0.00000000000E+00  0.36972818638E+02  0.37270354412E+02  0.47000000000E+01 0.  1.
         -5   -1    0    0    0  501 -0.00000000000E+00 -0.00000000000E+00 -0.53222183368E+03  0.53224258590E+03  0.47000000000E+01 0.  1.
         25    2    1    2    0    0 -0.96958997521E+01  0.36412566225E+02 -0.35330633493E+03  0.37665712964E+03  0.12500136624E+03 0.  0.
         25    2    1    2    0    0  0.96958997521E+01 -0.36412566225E+02 -0.14194268011E+03  0.19285581067E+03  0.12500301524E+03 0.  0.
          5    1    3    3  502    0 -0.26877152191E+02 -0.86782752018E+01 -0.31099054882E+03  0.31230578802E+03  0.47000000000E+01 0.  1.
         -5    1    3    3    0  502  0.17181252439E+02  0.45090841427E+02 -0.42315786102E+02  0.64351341628E+02  0.47000000000E+01 0.  1.
          5    1    4    4  503    0 -0.54150371806E+02 -0.31630627500E+02 -0.92373481083E+02  0.11174841999E+03  0.47000000000E+01 0.  1.
         -5    1    4    4    0  503  0.63846271558E+02 -0.47819387249E+01 -0.49569199029E+02  0.81107390676E+02  0.47000000000E+01 0.  1.
<mgrwt>
<rscale>  0 0.13055855E+03</rscale>
<asrwt>0</asrwt>
<pdfrwt beam="1">  1        5 0.57126100E-02 0.13055895E+03</pdfrwt>
<pdfrwt beam="2">  1       -5 0.81904760E-01 0.13055895E+03</pdfrwt>
<totfact> 0.18954083E+02</totfact>
</mgrwt>
</event>
<event>
 8    1  0.3542708E-007  0.1478578E+03  0.7546771E-02  0.1203130E+00
          5   -1    0    0  501    0  0.00000000000E+00  0.00000000000E+00  0.75378158659E+02  0.75524544373E+02  0.47000000000E+01 0. -1.
         -5   -1    0    0    0  501 -0.00000000000E+00 -0.00000000000E+00 -0.29168894084E+03  0.29172680406E+03  0.47000000000E+01 0. -1.
         25    2    1    2    0    0  0.77135634674E+02  0.16966078457E+02 -0.92556458354E+02  0.17443783556E+03  0.12499642610E+03 0.  0.
         25    2    1    2    0    0 -0.77135634674E+02 -0.16966078457E+02 -0.12375432383E+03  0.19281351287E+03  0.12499665646E+03 0.  0.
          5    1    4    4  502    0 -0.80525563064E+02 -0.25720421358E+02 -0.14568490232E+03  0.16849951675E+03  0.47000000000E+01 0. -1.
         -5    1    4    4    0  502  0.33899283896E+01  0.87543429012E+01  0.21930578497E+02  0.24313996120E+02  0.47000000000E+01 0. -1.
          5    1    3    3  503    0  0.25191401338E+02  0.69009043212E+02 -0.53867832406E+02  0.91217805908E+02  0.47000000000E+01 0. -1.
         -5    1    3    3    0  503  0.51944233336E+02 -0.52042964756E+02 -0.38688625948E+02  0.83220029651E+02  0.47000000000E+01 0. -1.
<mgrwt>
<rscale>  0 0.14785771E+03</rscale>
<asrwt>0</asrwt>
<pdfrwt beam="1">  1        5 0.11610813E-01 0.14785776E+03</pdfrwt>
<pdfrwt beam="2">  1       -5 0.44889394E-01 0.14785776E+03</pdfrwt>
<totfact> 0.21880573E+02</totfact>
</mgrwt>
</event>
<event>
 8    1  0.3542708E-007  0.1449491E+03  0.7546771E-02  0.1206822E+00
          5   -1    0    0  501    0  0.00000000000E+00  0.00000000000E+00  0.24177536204E+03  0.24182104062E+03  0.47000000000E+01 0. -1.
         -5   -1    0    0    0  501 -0.00000000000E+00 -0.00000000000E+00 -0.92835453053E+02  0.92954350859E+02  0.47000000000E+01 0. -1.
         25    2    1    2    0    0  0.38135708034E+02  0.62699135133E+02  0.31756845075E+02  0.14838716519E+03  0.12499895923E+03 0.  0.
         25    2    1    2    0    0 -0.38135708034E+02 -0.62699135133E+02  0.11718306391E+03  0.18638822629E+03  0.12499274643E+03 0.  0.
          5    1    4    4  502    0  0.54624978860E+01 -0.49527896121E+02  0.12961657528E+03  0.13894386623E+03  0.47000000000E+01 0.  1.
         -5    1    4    4    0  502 -0.43598205920E+02 -0.13171239011E+02 -0.12433511370E+02  0.47444360060E+02  0.47000000000E+01 0.  1.
          5    1    3    3  503    0  0.70681276701E+02  0.27529326574E+02  0.56074719684E+02  0.94446656295E+02  0.47000000000E+01 0.  1.
         -5    1    3    3    0  503 -0.32545568667E+02  0.35169808558E+02 -0.24317874609E+02  0.53940508891E+02  0.47000000000E+01 0.  1.
<mgrwt>
<rscale>  0 0.14494780E+03</rscale>
<asrwt>0</asrwt>
<pdfrwt beam="1">  1        5 0.37208869E-01 0.14494914E+03</pdfrwt>
<pdfrwt beam="2">  1       -5 0.14295037E-01 0.14494914E+03</pdfrwt>
<totfact> 0.22044216E+02</totfact>
</mgrwt>
</event>
<event>
 8    1  0.3542708E-007  0.1530856E+03  0.7546771E-02  0.1196735E+00
         -5   -1    0    0    0  501 -0.00000000000E+00  0.00000000000E+00  0.38172933045E+03  0.38175826347E+03  0.47000000000E+01 0.  1.
          5   -1    0    0  501    0  0.00000000000E+00 -0.00000000000E+00 -0.63619298416E+02  0.63792673019E+02  0.47000000000E+01 0.  1.
         25    2    1    2    0    0 -0.54986279596E+02  0.69188303744E+02  0.20182435775E+03  0.25330746373E+03  0.12498434895E+03 0.  0.
         25    2    1    2    0    0  0.54986279596E+02 -0.69188303744E+02  0.11628567429E+03  0.19224347276E+03  0.12499872981E+03 0.  0.
          5    1    4    4  502    0  0.89828990184E+02 -0.75020574984E+02  0.83796648196E+02  0.14401840992E+03  0.47000000000E+01 0. -1.
         -5    1    4    4    0  502 -0.34842710588E+02  0.58322712398E+01  0.32489026093E+02  0.48225062834E+02  0.47000000000E+01 0. -1.
          5    1    3    3  503    0 -0.50666305010E+02  0.16665592127E+02  0.10191629540E+02  0.54504823062E+02  0.47000000000E+01 0. -1.
         -5    1    3    3    0  503 -0.43199745859E+01  0.52522711617E+02  0.19163272821E+03  0.19880264067E+03  0.47000000000E+01 0. -1.
<mgrwt>
<rscale>  0 0.15308264E+03</rscale>
<asrwt>0</asrwt>
<pdfrwt beam="2">  1        5 0.98031466E-02 0.15308558E+03</pdfrwt>
<pdfrwt beam="1">  1       -5 0.58743151E-01 0.15308558E+03</pdfrwt>
<totfact> 0.16786345E+02</totfact>
</mgrwt>
</event>
<event>
 8    1  0.3542708E-007  0.1685756E+03  0.7546771E-02  0.1179342E+00
         -5   -1    0    0    0  501 -0.00000000000E+00  0.00000000000E+00  0.33790436959E+02  0.34115738741E+02  0.47000000000E+01 0.  1.
          5   -1    0    0  501    0  0.00000000000E+00 -0.00000000000E+00 -0.10324274427E+04  0.10324381407E+04  0.47000000000E+01 0.  1.
         25    2    1    2    0    0 -0.11299330613E+03  0.49438596872E+01 -0.26712471115E+03  0.31586887859E+03  0.12500243268E+03 0.  0.
         25    2    1    2    0    0  0.11299330613E+03 -0.49438596872E+01 -0.73151229460E+03  0.75068500089E+03  0.12500321770E+03 0.  0.
          5    1    3    3  502    0 -0.77490831819E+02 -0.57459407520E+02 -0.14960204902E+03  0.17807098472E+03  0.47000000000E+01 0. -1.
         -5    1    3    3    0  502 -0.35502474314E+02  0.62403267207E+02 -0.11752266213E+03  0.13779789387E+03  0.47000000000E+01 0. -1.
          5    1    4    4  503    0 -0.17730642551E+02  0.17077076782E+02 -0.24943020603E+03  0.25068609838E+03  0.47000000000E+01 0. -1.
         -5    1    4    4    0  503  0.13072394868E+03 -0.22020936469E+02 -0.48208208857E+03  0.49999890252E+03  0.47000000000E+01 0. -1.
<mgrwt>
<rscale>  0 0.16857546E+03</rscale>
<asrwt>0</asrwt>
<pdfrwt beam="2">  1        5 0.15886081E+00 0.16857560E+03</pdfrwt>
<pdfrwt beam="1">  1       -5 0.52243757E-02 0.16857560E+03</pdfrwt>
<totfact> 0.44480566E+01</totfact>
</mgrwt>
</event>
<event>
 8    1  0.3542708E-007  0.1274122E+03  0.7546771E-02  0.1231347E+00
         -5   -1    0    0    0  501 -0.00000000000E+00  0.00000000000E+00  0.12487230081E+04  0.12487318531E+04  0.47000000000E+01 0.  1.
          5   -1    0    0  501    0  0.00000000000E+00 -0.00000000000E+00 -0.14277469318E+02  0.15031171948E+02  0.47000000000E+01 0.  1.
         25    2    1    2    0    0 -0.15382311694E+02  0.19293485019E+02  0.83001546156E+03  0.83973761557E+03  0.12499897002E+03 0.  0.
         25    2    1    2    0    0  0.15382311694E+02 -0.19293485019E+02  0.40443007723E+03  0.42402540949E+03  0.12500002578E+03 0.  0.
          5    1    3    3  502    0  0.42233190935E+02  0.82935665679E+01  0.12529197277E+03  0.13256166152E+03  0.47000000000E+01 0. -1.
         -5    1    3    3    0  502 -0.57615502629E+02  0.10999918451E+02  0.70472348879E+03  0.70717595406E+03  0.47000000000E+01 0. -1.
          5    1    4    4  503    0 -0.45326220676E+02 -0.40917055032E+02  0.16393893455E+03  0.17500495974E+03  0.47000000000E+01 0. -1.
         -5    1    4    4    0  503  0.60708532370E+02  0.21623570013E+02  0.24049114269E+03  0.24902044975E+03  0.47000000000E+01 0. -1.
<mgrwt>
<rscale>  0 0.12741191E+03</rscale>
<asrwt>0</asrwt>
<pdfrwt beam="2">  1        5 0.22551916E-02 0.12741217E+03</pdfrwt>
<pdfrwt beam="1">  1       -5 0.19216986E+00 0.12741217E+03</pdfrwt>
<totfact> 0.92568631E+01</totfact>
</mgrwt>
</event>
<event>
 8    1  0.3542708E-007  0.1323670E+03  0.7546771E-02  0.1223986E+00
         -5   -1    0    0    0  501 -0.00000000000E+00  0.00000000000E+00  0.10205646650E+04  0.10205754874E+04  0.47000000000E+01 0.  1.
          5   -1    0    0  501    0  0.00000000000E+00 -0.00000000000E+00 -0.21340308473E+02  0.21851745141E+02  0.47000000000E+01 0.  1.
         25    2    1    2    0    0 -0.33729767228E+02  0.27532557482E+02  0.73586168355E+03  0.74767200515E+03  0.12500108422E+03 0.  0.
         25    2    1    2    0    0  0.33729767228E+02 -0.27532557482E+02  0.26336267301E+03  0.29475522740E+03  0.12500003051E+03 0.  0.
          5    1    4    4  502    0 -0.13912003917E+02 -0.46614305966E+02  0.33660365105E+02  0.59342628461E+02  0.47000000000E+01 0.  1.
         -5    1    4    4    0  502  0.47641771145E+02  0.19081748484E+02  0.22970230790E+03  0.23541259894E+03  0.47000000000E+01 0.  1.
          5    1    3    3  503    0  0.23471227971E+02 -0.28814526580E+02  0.10076808466E+03  0.10750568530E+03  0.47000000000E+01 0. -1.
         -5    1    3    3    0  503 -0.57200995199E+02  0.56347084062E+02  0.63509359888E+03  0.64016631985E+03  0.47000000000E+01 0. -1.
<mgrwt>
<rscale>  0 0.13236670E+03</rscale>
<asrwt>0</asrwt>
<pdfrwt beam="2">  1        5 0.33232980E-02 0.13236695E+03</pdfrwt>
<pdfrwt beam="1">  1       -5 0.15705013E+00 0.13236695E+03</pdfrwt>
<totfact> 0.90175416E+01</totfact>
</mgrwt>
</event>
<event>
 8    1  0.3542708E-007  0.1324556E+03  0.7546771E-02  0.1223864E+00
         -5   -1    0    0    0  501 -0.00000000000E+00  0.00000000000E+00  0.58402232812E+03  0.58404123976E+03  0.47000000000E+01 0. -1.
          5   -1    0    0  501    0  0.00000000000E+00 -0.00000000000E+00 -0.32330824985E+02  0.32670663357E+02  0.47000000000E+01 0. -1.
         25    2    1    2    0    0  0.37583328130E+02  0.22405555743E+02  0.36104684261E+03  0.38456998620E+03  0.12499894496E+03 0.  0.
         25    2    1    2    0    0 -0.37583328130E+02 -0.22405555743E+02  0.19064466052E+03  0.23214191693E+03  0.12501986853E+03 0.  0.
          5    1    3    3  502    0  0.17619157279E+02 -0.50180942259E+02  0.19530776042E+03  0.20247412909E+03  0.47000000000E+01 0.  1.
         -5    1    3    3    0  502  0.19964170851E+02  0.72586498002E+02  0.16573908219E+03  0.18209585711E+03  0.47000000000E+01 0.  1.
          5    1    4    4  503    0 -0.24690085514E+02 -0.37906667833E+00 -0.11991889184E+02  0.27850303776E+02  0.47000000000E+01 0.  1.
         -5    1    4    4    0  503 -0.12893242616E+02 -0.22026489065E+02  0.20263654971E+03  0.20429161315E+03  0.47000000000E+01 0.  1.
<mgrwt>
<rscale>  0 0.13245065E+03</rscale>
<asrwt>0</asrwt>
<pdfrwt beam="2">  1        5 0.50015695E-02 0.13245559E+03</pdfrwt>
<pdfrwt beam="1">  1       -5 0.89877180E-01 0.13245559E+03</pdfrwt>
<totfact> 0.19120829E+02</totfact>
</mgrwt>
</event>
<event>
 8    1  0.3542708E-007  0.1345910E+03  0.7546771E-02  0.1220799E+00
         -5   -1    0    0    0  501 -0.00000000000E+00  0.00000000000E+00  0.61882952459E+03  0.61884737254E+03  0.47000000000E+01 0. -1.
          5   -1    0    0  501    0  0.00000000000E+00 -0.00000000000E+00 -0.29218635014E+02  0.29594233088E+02  0.47000000000E+01 0. -1.
         25    2    1    2    0    0  0.48491991722E+02 -0.11738786996E+02  0.31816193812E+03  0.34545767346E+03  0.12499885159E+03 0.  0.
         25    2    1    2    0    0 -0.48491991722E+02  0.11738786996E+02  0.27144895145E+03  0.30298393217E+03  0.12500183010E+03 0.  0.
          5    1    4    4  502    0 -0.31743135403E+02  0.30101906657E+02  0.16823070120E+02  0.47104746235E+02  0.47000000000E+01 0. -1.
         -5    1    4    4    0  502 -0.16748856319E+02 -0.18363119661E+02  0.25462588133E+03  0.25587918594E+03  0.47000000000E+01 0. -1.
          5    1    3    3  503    0  0.80977764848E+02 -0.35666104149E+02  0.25863255944E+03  0.27339049030E+03  0.47000000000E+01 0. -1.
         -5    1    3    3    0  503 -0.32485773126E+02  0.23927317153E+02  0.59529378683E+02  0.72067183156E+02  0.47000000000E+01 0. -1.
<mgrwt>
<rscale>  0 0.13459028E+03</rscale>
<asrwt>0</asrwt>
<pdfrwt beam="2">  1        5 0.45254398E-02 0.13459097E+03</pdfrwt>
<pdfrwt beam="1">  1       -5 0.95234804E-01 0.13459097E+03</pdfrwt>
<totfact> 0.19758852E+02</totfact>
</mgrwt>
</event>
<event>
 8    1  0.3542708E-007  0.1392976E+03  0.7546771E-02  0.1214278E+00
          5   -1    0    0  501    0  0.00000000000E+00  0.00000000000E+00  0.21612652184E+03  0.21617762012E+03  0.47000000000E+01 0.  1.
         -5   -1    0    0    0  501 -0.00000000000E+00 -0.00000000000E+00 -0.90004619301E+02  0.90127251681E+02  0.47000000000E+01 0.  1.
         25    2    1    2    0    0  0.49830528869E+01 -0.61273368445E+02  0.53527330195E+02  0.14922797202E+03  0.12499822422E+03 0.  0.
         25    2    1    2    0    0 -0.49830528869E+01  0.61273368445E+02  0.72594572342E+02  0.15707689979E+03  0.12499569599E+03 0.  0.
          5    1    3    3  502    0 -0.35252459494E+02 -0.84469173961E+02  0.27038880762E+02  0.95556100396E+02  0.47000000000E+01 0. -1.
         -5    1    3    3    0  502  0.40235512381E+02  0.23195805516E+02  0.26488449433E+02  0.53671871622E+02  0.47000000000E+01 0. -1.
          5    1    4    4  503    0 -0.62166395754E+02  0.39857874648E+02  0.20786403851E+02  0.76860103549E+02  0.47000000000E+01 0.  1.
         -5    1    4    4    0  503  0.57183342868E+02  0.21415493797E+02  0.51808168491E+02  0.80216796237E+02  0.47000000000E+01 0.  1.
<mgrwt>
<rscale>  0 0.13929700E+03</rscale>
<asrwt>0</asrwt>
<pdfrwt beam="1">  1        5 0.33263598E-01 0.13929757E+03</pdfrwt>
<pdfrwt beam="2">  1       -5 0.13860228E-01 0.13929757E+03</pdfrwt>
<totfact> 0.28796743E+02</totfact>
</mgrwt>
</event>
<event>
 8    1  0.3542708E-007  0.1745087E+03  0.7546771E-02  0.1173227E+00
          5   -1    0    0  501    0  0.00000000000E+00  0.00000000000E+00  0.24994975892E+03  0.24999394390E+03  0.47000000000E+01 0.  1.
         -5   -1    0    0    0  501 -0.00000000000E+00 -0.00000000000E+00 -0.13539129700E+03  0.13547285080E+03  0.47000000000E+01 0.  1.
         25    2    1    2    0    0 -0.11916529063E+03  0.25013580295E+02 -0.39047175249E+01  0.17455241204E+03  0.12500900784E+03 0.  0.
         25    2    1    2    0    0  0.11916529063E+03 -0.25013580295E+02  0.11846317945E+03  0.21091438265E+03  0.12500122494E+03 0.  0.
          5    1    4    4  502    0  0.90082942093E+02  0.26348559204E+02  0.11908672282E+03  0.15170010079E+03  0.47000000000E+01 0.  1.
         -5    1    4    4    0  502  0.29082348533E+02 -0.51362139499E+02 -0.62354337330E+00  0.59214281862E+02  0.47000000000E+01 0.  1.
          5    1    3    3  503    0 -0.10781056169E+03  0.41446042437E+02 -0.48579062929E+02  0.12539101643E+03  0.47000000000E+01 0.  1.
         -5    1    3    3    0  503 -0.11354728936E+02 -0.16432462142E+02  0.44674345405E+02  0.49161395612E+02  0.47000000000E+01 0.  1.
<mgrwt>
<rscale>  0 0.17450734E+03</rscale>
<asrwt>0</asrwt>
<pdfrwt beam="1">  1        5 0.38463481E-01 0.17450873E+03</pdfrwt>
<pdfrwt beam="2">  1       -5 0.20839103E-01 0.17450873E+03</pdfrwt>
<totfact> 0.10909959E+02</totfact>
</mgrwt>
</event>
<event>
 8    1  0.3542708E-007  0.1474053E+03  0.7546771E-02  0.1203699E+00
          5   -1    0    0  501    0  0.00000000000E+00  0.00000000000E+00  0.26638198062E+04  0.26638239525E+04  0.47000000000E+01 0. -1.
         -5   -1    0    0    0  501 -0.00000000000E+00 -0.00000000000E+00 -0.90614554829E+01  0.10207838923E+02  0.47000000000E+01 0. -1.
         25    2    1    2    0    0 -0.77978349128E+02  0.47003301382E+01  0.80311030916E+03  0.81652586304E+03  0.12500240118E+03 0.  0.
         25    2    1    2    0    0  0.77978349128E+02 -0.47003301382E+01  0.18516480415E+04  0.18575059283E+04  0.12500035249E+03 0.  0.
          5    1    4    4  502    0  0.10397602228E+03  0.18935039203E+02  0.15827207366E+04  0.15862523661E+04  0.47000000000E+01 0. -1.
         -5    1    4    4    0  502 -0.25997673149E+02 -0.23635369341E+02  0.26892730490E+03  0.27125356221E+03  0.47000000000E+01 0. -1.
          5    1    3    3  503    0  0.12705856056E+02  0.36988953392E+02  0.40521377415E+03  0.40712395436E+03  0.47000000000E+01 0. -1.
         -5    1    3    3    0  503 -0.90684205183E+02 -0.32288623254E+02  0.39789653501E+03  0.40940190869E+03  0.47000000000E+01 0. -1.
<mgrwt>
<rscale>  0 0.14740484E+03</rscale>
<asrwt>0</asrwt>
<pdfrwt beam="1">  1        5 0.40990673E+00 0.14740528E+03</pdfrwt>
<pdfrwt beam="2">  1       -5 0.14825731E-02 0.14740528E+03</pdfrwt>
<totfact> 0.70152275E+00</totfact>
</mgrwt>
</event>
<event>
 8    1  0.3542708E-007  0.1654324E+03  0.7546771E-02  0.1182697E+00
          5   -1    0    0  501    0  0.00000000000E+00  0.00000000000E+00  0.45799219740E+03  0.45801631290E+03  0.47000000000E+01 0.  1.
         -5   -1    0    0    0  501 -0.00000000000E+00 -0.00000000000E+00 -0.60574331830E+02  0.60756396179E+02  0.47000000000E+01 0.  1.
         25    2    1    2    0    0  0.10829818219E+03  0.35891949224E+01  0.16650752917E+03  0.23471821772E+03  0.12500602334E+03 0.  0.
         25    2    1    2    0    0 -0.10829818219E+03 -0.35891949224E+01  0.23091033640E+03  0.28405449136E+03  0.12500396802E+03 0.  0.
          5    1    3    3  502    0 -0.25259714429E+02 -0.14989882594E+02  0.21890653278E+02  0.36932918300E+02  0.47000000000E+01 0.  1.
         -5    1    3    3    0  502  0.13355789662E+03  0.18579077517E+02  0.14461687590E+03  0.19778529942E+03  0.47000000000E+01 0.  1.
          5    1    4    4  503    0  0.21489302297E+02 -0.16293797569E+02  0.79976933073E+02  0.84532110918E+02  0.47000000000E+01 0. -1.
         -5    1    4    4    0  503 -0.12978748449E+03  0.12704602647E+02  0.15093340333E+03  0.19952238044E+03  0.47000000000E+01 0. -1.
<mgrwt>
<rscale>  0 0.16543203E+03</rscale>
<asrwt>0</asrwt>
<pdfrwt beam="1">  1        5 0.70476198E-01 0.16543242E+03</pdfrwt>
<pdfrwt beam="2">  1       -5 0.93349879E-02 0.16543242E+03</pdfrwt>
<totfact> 0.12492386E+02</totfact>
</mgrwt>
</event>
<event>
 8    1  0.3542708E-007  0.1283944E+03  0.7546771E-02  0.1229859E+00
          5   -1    0    0  501    0  0.00000000000E+00  0.00000000000E+00  0.24557761262E+03  0.24562258410E+03  0.47000000000E+01 0.  1.
         -5   -1    0    0    0  501 -0.00000000000E+00 -0.00000000000E+00 -0.71195778471E+02  0.71350745421E+02  0.47000000000E+01 0.  1.
         25    2    1    2    0    0 -0.41347847002E+01  0.29040614471E+02  0.48740157646E+02  0.13733212356E+03  0.12499622178E+03 0.  0.
         25    2    1    2    0    0  0.41347847002E+01 -0.29040614471E+02  0.12564167650E+03  0.17964120596E+03  0.12499871308E+03 0.  0.
          5    1    3    3  502    0  0.36728966212E+02  0.19287732184E+02  0.76224330566E+02  0.86909563007E+02  0.47000000000E+01 0.  1.
         -5    1    3    3    0  502 -0.40863750912E+02  0.97528822865E+01 -0.27484172920E+02  0.50422560552E+02  0.47000000000E+01 0.  1.
          5    1    4    4  503    0 -0.59247964373E+02 -0.23864975094E+02  0.71490810766E+02  0.95983771246E+02  0.47000000000E+01 0. -1.
         -5    1    4    4    0  503  0.63382749074E+02 -0.51756393762E+01  0.54150865733E+02  0.83657434713E+02  0.47000000000E+01 0. -1.
<mgrwt>
<rscale>  0 0.12839383E+03</rscale>
<asrwt>0</asrwt>
<pdfrwt beam="1">  1        5 0.37796551E-01 0.12839444E+03</pdfrwt>
<pdfrwt beam="2">  1       -5 0.10968577E-01 0.12839444E+03</pdfrwt>
<totfact> 0.32809874E+02</totfact>
</mgrwt>
</event>
<event>
 8    1  0.3542708E-007  0.1280526E+03  0.7546771E-02  0.1230377E+00
          5   -1    0    0  501    0  0.00000000000E+00  0.00000000000E+00  0.74654759997E+02  0.74802561388E+02  0.47000000000E+01 0.  1.
         -5   -1    0    0    0  501 -0.00000000000E+00 -0.00000000000E+00 -0.37995491519E+03  0.37998398332E+03  0.47000000000E+01 0.  1.
         25    2    1    2    0    0  0.25221844048E+02  0.11627520128E+02 -0.30050516625E+03  0.32665091323E+03  0.12500449403E+03 0.  0.
         25    2    1    2    0    0 -0.25221844048E+02 -0.11627520128E+02 -0.47949889476E+01  0.12813563148E+03  0.12499762996E+03 0.  0.
          5    1    3    3  502    0 -0.36790149977E+02  0.16654830733E+02 -0.34181919911E+02  0.53116778619E+02  0.47000000000E+01 0.  1.
         -5    1    3    3    0  502  0.62011994024E+02 -0.50273106049E+01 -0.26632324634E+03  0.27353413461E+03  0.47000000000E+01 0.  1.
          5    1    4    4  503    0  0.45056503042E+02  0.88027700910E+01 -0.24427741713E+02  0.52214766042E+02  0.47000000000E+01 0.  1.
         -5    1    4    4    0  503 -0.70278347090E+02 -0.20430290219E+02  0.19632752765E+02  0.75920865441E+02  0.47000000000E+01 0.  1.
<mgrwt>
<rscale>  0 0.12805091E+03</rscale>
<asrwt>0</asrwt>
<pdfrwt beam="1">  1        5 0.11498953E-01 0.12805258E+03</pdfrwt>
<pdfrwt beam="2">  1       -5 0.58468207E-01 0.12805258E+03</pdfrwt>
<totfact> 0.12084968E+02</totfact>
</mgrwt>
</event>
<event>
 8    1  0.3542708E-007  0.1342551E+03  0.7546771E-02  0.1221276E+00
          5   -1    0    0  501    0  0.00000000000E+00  0.00000000000E+00  0.27178530480E+03  0.27182594045E+03  0.47000000000E+01 0.  1.
         -5   -1    0    0    0  501 -0.00000000000E+00 -0.00000000000E+00 -0.67539142941E+02  0.67702480229E+02  0.47000000000E+01 0.  1.
         25    2    1    2    0    0  0.30654659795E+02  0.38192226253E+02  0.78152079284E+02  0.15534336052E+03  0.12500183138E+03 0.  0.
         25    2    1    2    0    0 -0.30654659795E+02 -0.38192226253E+02  0.12609408257E+03  0.18418506016E+03  0.12500425758E+03 0.  0.
          5    1    3    3  502    0 -0.10606520293E+02  0.71059523840E+02  0.16127745416E+02  0.73784472440E+02  0.47000000000E+01 0.  1.
         -5    1    3    3    0  502  0.41261180088E+02 -0.32867297588E+02  0.62024333868E+02  0.81558888080E+02  0.47000000000E+01 0.  1.
          5    1    4    4  503    0 -0.73727598841E+02 -0.40451835259E+02  0.54027904225E+02  0.10006604940E+03  0.47000000000E+01 0. -1.
         -5    1    4    4    0  503  0.43072939046E+02  0.22596090064E+01  0.72066178347E+02  0.84119010767E+02  0.47000000000E+01 0. -1.
<mgrwt>
<rscale>  0 0.13425449E+03</rscale>
<asrwt>0</asrwt>
<pdfrwt beam="1">  1        5 0.41828814E-01 0.13425505E+03</pdfrwt>
<pdfrwt beam="2">  1       -5 0.10406328E-01 0.13425505E+03</pdfrwt>
<totfact> 0.29727276E+02</totfact>
</mgrwt>
</event>
<event>
 8    1  0.3542708E-007  0.1389009E+03  0.7546771E-02  0.1214816E+00
         -5   -1    0    0    0  501 -0.00000000000E+00  0.00000000000E+00  0.33275386250E+03  0.33278705355E+03  0.47000000000E+01 0. -1.
          5   -1    0    0  501    0  0.00000000000E+00 -0.00000000000E+00 -0.59749631348E+02  0.59934200972E+02  0.47000000000E+01 0. -1.
         25    2    1    2    0    0 -0.60540437540E+02 -0.20372117711E+01  0.17145629991E+03  0.22065893801E+03  0.12499523724E+03 0.  0.
         25    2    1    2    0    0  0.60540437540E+02  0.20372117711E+01  0.10154793124E+03  0.17206231651E+03  0.12499665442E+03 0.  0.
          5    1    4    4  502    0  0.27786120713E+02  0.54955941696E+02  0.12007652025E+02  0.62916593512E+02  0.47000000000E+01 0. -1.
         -5    1    4    4    0  502  0.32754316827E+02 -0.52918729925E+02  0.89540279214E+02  0.10914572300E+03  0.47000000000E+01 0. -1.
          5    1    3    3  503    0 -0.14050932421E+02  0.44392930961E+02  0.14008941961E+03  0.14770002203E+03  0.47000000000E+01 0.  1.
         -5    1    3    3    0  503 -0.46489505119E+02 -0.46430142732E+02  0.31366880301E+02  0.72958915975E+02  0.47000000000E+01 0.  1.
<mgrwt>
<rscale>  0 0.13890058E+03</rscale>
<asrwt>0</asrwt>
<pdfrwt beam="2">  1        5 0.92090016E-02 0.13890089E+03</pdfrwt>
<pdfrwt beam="1">  1       -5 0.51209654E-01 0.13890089E+03</pdfrwt>
<totfact> 0.24364067E+02</totfact>
</mgrwt>
</event>
<event>
 8    1  0.3542708E-007  0.1660418E+03  0.7546771E-02  0.1182041E+00
         -5   -1    0    0    0  501 -0.00000000000E+00  0.00000000000E+00  0.12288105743E+03  0.12297090824E+03  0.47000000000E+01 0. -1.
          5   -1    0    0  501    0  0.00000000000E+00 -0.00000000000E+00 -0.26012412262E+03  0.26016657966E+03  0.47000000000E+01 0. -1.
         25    2    1    2    0    0 -0.10385144708E+03  0.34047305672E+02  0.25935449407E+01  0.16605648479E+03  0.12499475022E+03 0.  0.
         25    2    1    2    0    0  0.10385144708E+03 -0.34047305672E+02 -0.13983661014E+03  0.21708100310E+03  0.12500216914E+03 0.  0.
          5    1    3    3  502    0 -0.13177479096E+03  0.36807676226E+02 -0.35701583087E+01  0.13694610835E+03  0.47000000000E+01 0.  1.
         -5    1    3    3    0  502  0.27923343877E+02 -0.27603705540E+01  0.61637032494E+01  0.29110376443E+02  0.47000000000E+01 0.  1.
          5    1    4    4  503    0  0.90151776600E+02 -0.46741511755E+02 -0.30604696152E+02  0.10616425562E+03  0.47000000000E+01 0.  1.
         -5    1    4    4    0  503  0.13699670485E+02  0.12694206082E+02 -0.10923191398E+03  0.11091674748E+03  0.47000000000E+01 0.  1.
<mgrwt>
<rscale>  0 0.16604042E+03</rscale>
<asrwt>0</asrwt>
<pdfrwt beam="2">  1        5 0.40029273E-01 0.16604182E+03</pdfrwt>
<pdfrwt beam="1">  1       -5 0.18914956E-01 0.16604182E+03</pdfrwt>
<totfact> 0.11877504E+02</totfact>
</mgrwt>
</event>
<event>
 8    1  0.3542708E-007  0.1755087E+03  0.7546771E-02  0.1172222E+00
          5   -1    0    0  501    0  0.00000000000E+00  0.00000000000E+00  0.78947735168E+02  0.79087514110E+02  0.47000000000E+01 0. -1.
         -5   -1    0    0    0  501 -0.00000000000E+00 -0.00000000000E+00 -0.40035994153E+03  0.40038752826E+03  0.47000000000E+01 0. -1.
         25    2    1    2    0    0 -0.82390796911E+02  0.91599043613E+02 -0.19987043925E+03  0.26599034404E+03  0.12499616967E+03 0.  0.
         25    2    1    2    0    0  0.82390796911E+02 -0.91599043613E+02 -0.12154176712E+03  0.21348469832E+03  0.12499874823E+03 0.  0.
          5    1    4    4  502    0 -0.32431591701E+02 -0.33018641857E+02 -0.32010534120E+02  0.56469488620E+02  0.47000000000E+01 0. -1.
         -5    1    4    4    0  502  0.11482238861E+03 -0.58580401756E+02 -0.89531232995E+02  0.15701520970E+03  0.47000000000E+01 0. -1.
          5    1    3    3  503    0 -0.40024970447E+02  0.47080359005E+02 -0.56561505818E+01  0.62230543166E+02  0.47000000000E+01 0. -1.
         -5    1    3    3    0  503 -0.42365826464E+02  0.44518684608E+02 -0.19421428867E+03  0.20375980088E+03  0.47000000000E+01 0. -1.
<mgrwt>
<rscale>  0 0.17550827E+03</rscale>
<asrwt>0</asrwt>
<pdfrwt beam="1">  1        5 0.12158680E-01 0.17550873E+03</pdfrwt>
<pdfrwt beam="2">  1       -5 0.61606710E-01 0.17550873E+03</pdfrwt>
<totfact> 0.10782505E+02</totfact>
</mgrwt>
</event>
<event>
 8    1  0.3542708E-007  0.1738779E+03  0.7546771E-02  0.1173864E+00
          5   -1    0    0  501    0  0.00000000000E+00  0.00000000000E+00  0.59628000357E+02  0.59812945309E+02  0.47000000000E+01 0.  1.
         -5   -1    0    0    0  501 -0.00000000000E+00 -0.00000000000E+00 -0.56284669959E+03  0.56286632271E+03  0.47000000000E+01 0.  1.
         25    2    1    2    0    0 -0.20263886269E+02  0.11915502180E+03 -0.35049815319E+03  0.39125754271E+03  0.12499986012E+03 0.  0.
         25    2    1    2    0    0  0.20263886269E+02 -0.11915502180E+03 -0.15272054604E+03  0.23142172530E+03  0.12499562173E+03 0.  0.
          5    1    3    3  502    0 -0.29474644080E+02  0.12460783778E+03 -0.18326213433E+03  0.22361343376E+03  0.47000000000E+01 0.  1.
         -5    1    3    3    0  502  0.92107578106E+01 -0.54528159746E+01 -0.16723601886E+03  0.16764410895E+03  0.47000000000E+01 0.  1.
          5    1    4    4  503    0  0.13969791846E+02 -0.68183292637E+02 -0.16436022214E+03  0.17855108261E+03  0.47000000000E+01 0.  1.
         -5    1    4    4    0  503  0.62940944238E+01 -0.50971729163E+02  0.11639676106E+02  0.52870642689E+02  0.47000000000E+01 0.  1.
<mgrwt>
<rscale>  0 0.17387710E+03</rscale>
<asrwt>0</asrwt>
<pdfrwt beam="1">  1        5 0.91892749E-02 0.17387786E+03</pdfrwt>
<pdfrwt beam="2">  1       -5 0.86607533E-01 0.17387786E+03</pdfrwt>
<totfact> 0.80872310E+01</totfact>
</mgrwt>
</event>
<event>
 8    1  0.3542708E-007  0.1320636E+03  0.7546771E-02  0.1224426E+00
         -5   -1    0    0    0  501 -0.00000000000E+00  0.00000000000E+00  0.32831371032E+02  0.33166080924E+02  0.47000000000E+01 0.  1.
          5   -1    0    0  501    0  0.00000000000E+00 -0.00000000000E+00 -0.61580720903E+03  0.61582514458E+03  0.47000000000E+01 0.  1.
         25    2    1    2    0    0 -0.33345169821E+02 -0.26525138648E+02 -0.16911688912E+03  0.21457238389E+03  0.12500120965E+03 0.  0.
         25    2    1    2    0    0  0.33345169821E+02  0.26525138648E+02 -0.41385894888E+03  0.43441884161E+03  0.12500006819E+03 0.  0.
          5    1    4    4  502    0  0.45730125191E+02  0.53208049131E+02 -0.12023129149E+03  0.13928386230E+03  0.47000000000E+01 0. -1.
         -5    1    4    4    0  502 -0.12384955370E+02 -0.26682910483E+02 -0.29362765739E+03  0.29513497931E+03  0.47000000000E+01 0. -1.
          5    1    3    3  503    0 -0.51426379026E+02  0.28561308018E+02 -0.35561228970E+02  0.68899287233E+02  0.47000000000E+01 0. -1.
         -5    1    3    3    0  503  0.18081209205E+02 -0.55086446666E+02 -0.13355566015E+03  0.14567309666E+03  0.47000000000E+01 0. -1.
<mgrwt>
<rscale>  0 0.13206330E+03</rscale>
<asrwt>0</asrwt>
<pdfrwt beam="2">  1        5 0.94766689E-01 0.13206357E+03</pdfrwt>
<pdfrwt beam="1">  1       -5 0.50781072E-02 0.13206357E+03</pdfrwt>
<totfact> 0.16416518E+02</totfact>
</mgrwt>
</event>
<event>
 8    1  0.3542708E-007  0.1747288E+03  0.7546771E-02  0.1173006E+00
          5   -1    0    0  501    0  0.00000000000E+00  0.00000000000E+00  0.13347254800E+04  0.13347337551E+04  0.47000000000E+01 0. -1.
         -5   -1    0    0    0  501 -0.00000000000E+00 -0.00000000000E+00 -0.26478837622E+02  0.26892728419E+02  0.47000000000E+01 0. -1.
         25    2    1    2    0    0  0.75651251153E+02 -0.95809055825E+02  0.39654442087E+03  0.43333317149E+03  0.12501069078E+03 0.  0.
         25    2    1    2    0    0 -0.75651251153E+02  0.95809055825E+02  0.91170222154E+03  0.92829331205E+03  0.12500018180E+03 0.  0.
          5    1    3    3  502    0  0.10720309184E+03 -0.87932885944E+02  0.28373546241E+03  0.31583634680E+03  0.47000000000E+01 0.  1.
         -5    1    3    3    0  502 -0.31551840691E+02 -0.78761698810E+01  0.11280895846E+03  0.11749682469E+03  0.47000000000E+01 0.  1.
          5    1    4    4  503    0 -0.44409113868E+02  0.44139399349E+02  0.78864011011E+03  0.79113574640E+03  0.47000000000E+01 0. -1.
         -5    1    4    4    0  503 -0.31242137285E+02  0.51669656476E+02  0.12306211143E+03  0.13715756564E+03  0.47000000000E+01 0. -1.
<mgrwt>
<rscale>  0 0.17472694E+03</rscale>
<asrwt>0</asrwt>
<pdfrwt beam="1">  1        5 0.20537483E+00 0.17472882E+03</pdfrwt>
<pdfrwt beam="2">  1       -5 0.41061421E-02 0.17472882E+03</pdfrwt>
<totfact> 0.31144966E+01</totfact>
</mgrwt>
</event>
<event>
 8    1  0.3542708E-007  0.1367027E+03  0.7546771E-02  0.1217840E+00
          5   -1    0    0  501    0  0.00000000000E+00  0.00000000000E+00  0.12693243399E+03  0.12701941899E+03  0.47000000000E+01 0. -1.
         -5   -1    0    0    0  501 -0.00000000000E+00 -0.00000000000E+00 -0.14739958002E+03  0.14747449336E+03  0.47000000000E+01 0. -1.
         25    2    1    2    0    0 -0.53033109889E+02  0.15712338646E+02 -0.34241762455E+01  0.13673295577E+03  0.12499915152E+03 0.  0.
         25    2    1    2    0    0  0.53033109889E+02 -0.15712338646E+02 -0.17042969785E+02  0.13776095657E+03  0.12501291935E+03 0.  0.
          5    1    4    4  502    0  0.75011543181E+02  0.27550516110E+02 -0.32824580375E+02  0.86517660769E+02  0.47000000000E+01 0. -1.
         -5    1    4    4    0  502 -0.21978433291E+02 -0.43262854756E+02  0.15781610590E+02  0.51243295799E+02  0.47000000000E+01 0. -1.
          5    1    3    3  503    0 -0.77448828497E+02 -0.24073231883E+02 -0.25131685095E+02  0.85038421461E+02  0.47000000000E+01 0.  1.
         -5    1    3    3    0  503  0.24415718608E+02  0.39785570529E+02  0.21707508849E+02  0.51694534314E+02  0.47000000000E+01 0.  1.
<mgrwt>
<rscale>  0 0.13669952E+03</rscale>
<asrwt>0</asrwt>
<pdfrwt beam="1">  1        5 0.19540521E-01 0.13670266E+03</pdfrwt>
<pdfrwt beam="2">  1       -5 0.22689312E-01 0.13670266E+03</pdfrwt>
<totfact> 0.32083336E+02</totfact>
</mgrwt>
</event>
<event>
 8    1  0.3542708E-007  0.1265378E+03  0.7546771E-02  0.1232689E+00
         -5   -1    0    0    0  501 -0.00000000000E+00  0.00000000000E+00  0.17857986741E+03  0.17864170578E+03  0.47000000000E+01 0.  1.
          5   -1    0    0  501    0  0.00000000000E+00 -0.00000000000E+00 -0.91039060634E+02  0.91160301454E+02  0.47000000000E+01 0.  1.
         25    2    1    2    0    0 -0.36951347976E+01 -0.19237704058E+02  0.61196684482E+02  0.14055902116E+03  0.12501224323E+03 0.  0.
         25    2    1    2    0    0  0.36951347976E+01  0.19237704058E+02  0.26344122296E+02  0.12924298608E+03  0.12500397351E+03 0.  0.
          5    1    4    4  502    0  0.11247816000E+02  0.18401252753E+02 -0.48805123860E+02  0.53564443268E+02  0.47000000000E+01 0.  1.
         -5    1    4    4    0  502 -0.75526812020E+01  0.83645130473E+00  0.75149246157E+02  0.75678542811E+02  0.47000000000E+01 0.  1.
          5    1    3    3  503    0 -0.43423071745E+02  0.16153691700E+02 -0.13723520722E+02  0.48548222793E+02  0.47000000000E+01 0.  1.
         -5    1    3    3    0  503  0.39727936947E+02 -0.35391395758E+02  0.74920205204E+02  0.92010798364E+02  0.47000000000E+01 0.  1.
<mgrwt>
<rscale>  0 0.12653572E+03</rscale>
<asrwt>0</asrwt>
<pdfrwt beam="2">  1        5 0.14020092E-01 0.12653776E+03</pdfrwt>
<pdfrwt beam="1">  1       -5 0.27487909E-01 0.12653776E+03</pdfrwt>
<totfact> 0.39643503E+02</totfact>
</mgrwt>
</event>
<event>
 8    1  0.3542708E-007  0.1671761E+03  0.7546771E-02  0.1180826E+00
          5   -1    0    0  501    0  0.00000000000E+00  0.00000000000E+00  0.13589999330E+04  0.13590080603E+04  0.47000000000E+01 0. -1.
         -5   -1    0    0    0  501 -0.00000000000E+00 -0.00000000000E+00 -0.22703183048E+02  0.23184575056E+02  0.47000000000E+01 0. -1.
         25    2    1    2    0    0 -0.87343169003E+02 -0.68476590038E+02  0.44524089307E+03  0.47558996829E+03  0.12501396929E+03 0.  0.
         25    2    1    2    0    0  0.87343169003E+02  0.68476590038E+02  0.89105585690E+03  0.90660266706E+03  0.12501993143E+03 0.  0.
          5    1    3    3  502    0 -0.10016411091E+02 -0.49320507039E+02  0.33883077447E+03  0.34258024554E+03  0.47000000000E+01 0. -1.
         -5    1    3    3    0  502 -0.77326757912E+02 -0.19156082998E+02  0.10641011860E+03  0.13300972275E+03  0.47000000000E+01 0. -1.
          5    1    4    4  503    0 -0.21178187649E+02  0.18852560371E+02  0.40773522846E+03  0.40874691582E+03  0.47000000000E+01 0.  1.
         -5    1    4    4    0  503  0.10852135665E+03  0.49624029666E+02  0.48332062844E+03  0.49785575124E+03  0.47000000000E+01 0.  1.
<mgrwt>
<rscale>  0 0.16717501E+03</rscale>
<asrwt>0</asrwt>
<pdfrwt beam="1">  1        5 0.20911455E+00 0.16717612E+03</pdfrwt>
<pdfrwt beam="2">  1       -5 0.35304530E-02 0.16717612E+03</pdfrwt>
<totfact> 0.37261692E+01</totfact>
</mgrwt>
</event>
<event>
 8    1  0.3542708E-007  0.1272195E+03  0.7546771E-02  0.1231642E+00
          5   -1    0    0  501    0  0.00000000000E+00  0.00000000000E+00  0.32074447856E+02  0.32416974030E+02  0.47000000000E+01 0. -1.
         -5   -1    0    0    0  501 -0.00000000000E+00 -0.00000000000E+00 -0.52228984432E+03  0.52231099115E+03  0.47000000000E+01 0. -1.
         25    2    1    2    0    0 -0.48636819757E+01  0.23163910227E+02 -0.30034648582E+03  0.32617820676E+03  0.12499595547E+03 0.  0.
         25    2    1    2    0    0  0.48636819757E+01 -0.23163910227E+02 -0.18986891064E+03  0.22854975842E+03  0.12499826681E+03 0.  0.
          5    1    3    3  502    0 -0.14131978987E+02 -0.38686858808E+02 -0.22191672949E+03  0.22575542231E+03  0.47000000000E+01 0.  1.
         -5    1    3    3    0  502  0.92682970111E+01  0.61850769035E+02 -0.78429756322E+02  0.10042278445E+03  0.47000000000E+01 0.  1.
          5    1    4    4  503    0 -0.17653409220E+02  0.44233904732E+02 -0.11817264370E+03  0.12749566622E+03  0.47000000000E+01 0. -1.
         -5    1    4    4    0  503  0.22517091196E+02 -0.67397814959E+02 -0.71696266944E+02  0.10105409220E+03  0.47000000000E+01 0. -1.
<mgrwt>
<rscale>  0 0.12721888E+03</rscale>
<asrwt>0</asrwt>
<pdfrwt beam="1">  1        5 0.49625057E-02 0.12721945E+03</pdfrwt>
<pdfrwt beam="2">  1       -5 0.80380252E-01 0.12721945E+03</pdfrwt>
<totfact> 0.24799193E+02</totfact>
</mgrwt>
</event>
<event>
 8    1  0.3542708E-007  0.1454098E+03  0.7546771E-02  0.1206235E+00
          5   -1    0    0  501    0  0.00000000000E+00  0.00000000000E+00  0.13381580376E+03  0.13389831715E+03  0.47000000000E+01 0. -1.
         -5   -1    0    0    0  501 -0.00000000000E+00 -0.00000000000E+00 -0.16508922771E+03  0.16515611738E+03  0.47000000000E+01 0. -1.
         25    2    1    2    0    0  0.69570358331E+00 -0.74244819837E+02 -0.46986864994E+02  0.15279811853E+03  0.12500688888E+03 0.  0.
         25    2    1    2    0    0 -0.69570358331E+00  0.74244819837E+02  0.15713441043E+02  0.14625631600E+03  0.12502487938E+03 0.  0.
          5    1    3    3  502    0  0.35975552462E+00  0.11106735819E+02  0.33365317189E+02  0.35479901292E+02  0.47000000000E+01 0. -1.
         -5    1    3    3    0  502  0.33594805868E+00 -0.85351555656E+02 -0.80352182183E+02  0.11731821724E+03  0.47000000000E+01 0. -1.
          5    1    4    4  503    0  0.36268119516E+02  0.16989850547E+02  0.54426312626E+02  0.67737323692E+02  0.47000000000E+01 0.  1.
         -5    1    4    4    0  503 -0.36963823099E+02  0.57254969290E+02 -0.38712871583E+02  0.78518992306E+02  0.47000000000E+01 0.  1.
<mgrwt>
<rscale>  0 0.14540589E+03</rscale>
<asrwt>0</asrwt>
<pdfrwt beam="1">  1        5 0.20598539E-01 0.14540976E+03</pdfrwt>
<pdfrwt beam="2">  1       -5 0.25409835E-01 0.14540976E+03</pdfrwt>
<totfact> 0.23922096E+02</totfact>
</mgrwt>
</event>
<event>
 8    1  0.3542708E-007  0.1297507E+03  0.7546771E-02  0.1227827E+00
         -5   -1    0    0    0  501 -0.00000000000E+00  0.00000000000E+00  0.20388502884E+03  0.20393919434E+03  0.47000000000E+01 0. -1.
          5   -1    0    0  501    0  0.00000000000E+00 -0.00000000000E+00 -0.84528651344E+02  0.84659216262E+02  0.47000000000E+01 0. -1.
         25    2    1    2    0    0  0.23142802944E+01 -0.34759827546E+02  0.82339270048E+02  0.15367061970E+03  0.12498520897E+03 0.  0.
         25    2    1    2    0    0 -0.23142802944E+01  0.34759827546E+02  0.37017107450E+02  0.13492779090E+03  0.12498656332E+03 0.  0.
          5    1    3    3  502    0  0.55919603666E+02 -0.31117434514E+02  0.75844700371E+02  0.99346894160E+02  0.47000000000E+01 0. -1.
         -5    1    3    3    0  502 -0.53605323371E+02 -0.36423930320E+01  0.64945696775E+01  0.54323725535E+02  0.47000000000E+01 0. -1.
          5    1    4    4  503    0 -0.25831705731E+02 -0.41888964092E+02  0.13983480701E+02  0.51376940997E+02  0.47000000000E+01 0.  1.
         -5    1    4    4    0  503  0.23517425437E+02  0.76648791638E+02  0.23033626749E+02  0.83550849905E+02  0.47000000000E+01 0.  1.
<mgrwt>
<rscale>  0 0.12975037E+03</rscale>
<asrwt>0</asrwt>
<pdfrwt beam="2">  1        5 0.13018618E-01 0.12975069E+03</pdfrwt>
<pdfrwt beam="1">  1       -5 0.31381138E-01 0.12975069E+03</pdfrwt>
<totfact> 0.35268008E+02</totfact>
</mgrwt>
</event>
<event>
 8    1  0.3542708E-007  0.1387555E+03  0.7546771E-02  0.1215014E+00
         -5   -1    0    0    0  501 -0.00000000000E+00  0.00000000000E+00  0.14723096135E+03  0.14730596044E+03  0.47000000000E+01 0.  1.
          5   -1    0    0  501    0  0.00000000000E+00 -0.00000000000E+00 -0.13283841508E+03  0.13292153520E+03  0.47000000000E+01 0.  1.
         25    2    1    2    0    0  0.31490851857E+02 -0.51339265019E+02  0.25308928479E+02  0.14104482978E+03  0.12500283302E+03 0.  0.
         25    2    1    2    0    0 -0.31490851857E+02  0.51339265019E+02 -0.10916382203E+02  0.13918266586E+03  0.12500101276E+03 0.  0.
          5    1    4    4  502    0 -0.15834549654E+01  0.88293718316E+02 -0.19723020696E+02  0.90605604513E+02  0.47000000000E+01 0. -1.
         -5    1    4    4    0  502 -0.29907396891E+02 -0.36954453298E+02  0.88066384925E+01  0.48577061345E+02  0.47000000000E+01 0. -1.
          5    1    3    3  503    0  0.15698058002E+02  0.26347667106E+02 -0.30869455631E+02  0.43768046311E+02  0.47000000000E+01 0. -1.
         -5    1    3    3    0  503  0.15792793855E+02 -0.77686932125E+02  0.56178384109E+02  0.97276783468E+02  0.47000000000E+01 0. -1.
<mgrwt>
<rscale>  0 0.13875514E+03</rscale>
<asrwt>0</asrwt>
<pdfrwt beam="2">  1        5 0.20448842E-01 0.13875555E+03</pdfrwt>
<pdfrwt beam="1">  1       -5 0.22663080E-01 0.13875555E+03</pdfrwt>
<totfact> 0.29690947E+02</totfact>
</mgrwt>
</event>
<event>
 8    1  0.3542708E-007  0.1435007E+03  0.7546771E-02  0.1208698E+00
         -5   -1    0    0    0  501 -0.00000000000E+00  0.00000000000E+00  0.72015716563E+03  0.72017250240E+03  0.47000000000E+01 0.  1.
          5   -1    0    0  501    0  0.00000000000E+00 -0.00000000000E+00 -0.32789169128E+02  0.33124305458E+02  0.47000000000E+01 0.  1.
         25    2    1    2    0    0 -0.14981210081E+02  0.68871277252E+02  0.48097474498E+03  0.50192545020E+03  0.12499905104E+03 0.  0.
         25    2    1    2    0    0  0.14981210081E+02 -0.68871277252E+02  0.20639325152E+03  0.25137135766E+03  0.12498678206E+03 0.  0.
          5    1    4    4  502    0 -0.31951587840E+02  0.86586578303E+01  0.12524407189E+03  0.12963041257E+03  0.47000000000E+01 0. -1.
         -5    1    4    4    0  502  0.46932797922E+02 -0.77529935082E+02  0.81149179638E+02  0.12174094509E+03  0.47000000000E+01 0. -1.
          5    1    3    3  503    0  0.52217090430E+02  0.88112040352E+01  0.16988185678E+03  0.17800617156E+03  0.47000000000E+01 0. -1.
         -5    1    3    3    0  503 -0.67198300511E+02  0.60060073217E+02  0.31109288820E+03  0.32391927864E+03  0.47000000000E+01 0. -1.
<mgrwt>
<rscale>  0 0.14349803E+03</rscale>
<asrwt>0</asrwt>
<pdfrwt beam="2">  1        5 0.50714470E-02 0.14350070E+03</pdfrwt>
<pdfrwt beam="1">  1       -5 0.11082037E+00 0.14350070E+03</pdfrwt>
<totfact> 0.11519352E+02</totfact>
</mgrwt>
</event>
<event>
 8    1  0.3542708E-007  0.1339036E+03  0.7546771E-02  0.1221778E+00
          5   -1    0    0  501    0  0.00000000000E+00  0.00000000000E+00  0.87527339224E+03  0.87528601106E+03  0.47000000000E+01 0.  1.
         -5   -1    0    0    0  501 -0.00000000000E+00 -0.00000000000E+00 -0.20682984504E+02  0.21210276943E+02  0.47000000000E+01 0.  1.
         25    2    1    2    0    0 -0.47984940632E+02 -0.67560751731E+00  0.49476389663E+03  0.51256232620E+03  0.12500325540E+03 0.  0.
         25    2    1    2    0    0  0.47984940632E+02  0.67560751731E+00  0.35982651110E+03  0.38393396180E+03  0.12500863153E+03 0.  0.
          5    1    4    4  502    0 -0.21319818826E+01  0.38869490728E+02  0.27697812814E+03  0.27973980075E+03  0.47000000000E+01 0. -1.
         -5    1    4    4    0  502  0.50116922515E+02 -0.38193883210E+02  0.82848382961E+02  0.10419416105E+03  0.47000000000E+01 0. -1.
          5    1    3    3  503    0  0.21894096799E+02  0.20356779215E+02  0.34051521621E+03  0.34185735681E+03  0.47000000000E+01 0.  1.
         -5    1    3    3    0  503 -0.69879037431E+02 -0.21032386732E+02  0.15424868042E+03  0.17070496939E+03  0.47000000000E+01 0.  1.
<mgrwt>
<rscale>  0 0.13390233E+03</rscale>
<asrwt>0</asrwt>
<pdfrwt beam="1">  1        5 0.13469896E+00 0.13390358E+03</pdfrwt>
<pdfrwt beam="2">  1       -5 0.32235296E-02 0.13390358E+03</pdfrwt>
<totfact> 0.14390545E+02</totfact>
</mgrwt>
</event>
<event>
 8    1  0.3542708E-007  0.1438439E+03  0.7546771E-02  0.1208250E+00
         -5   -1    0    0    0  501 -0.00000000000E+00  0.00000000000E+00  0.13671897873E+03  0.13679974102E+03  0.47000000000E+01 0.  1.
          5   -1    0    0  501    0  0.00000000000E+00 -0.00000000000E+00 -0.15213095353E+03  0.15220353814E+03  0.47000000000E+01 0.  1.
         25    2    1    2    0    0 -0.41802008236E+02  0.57594624631E+02  0.37581170863E+01  0.14389294650E+03  0.12500603157E+03 0.  0.
         25    2    1    2    0    0  0.41802008236E+02 -0.57594624631E+02 -0.19170091894E+02  0.14511033266E+03  0.12499987017E+03 0.  0.
          5    1    3    3  502    0  0.16204536104E+02  0.76214135792E+02  0.20172722072E+02  0.80623881082E+02  0.47000000000E+01 0. -1.
         -5    1    3    3    0  502 -0.58006544340E+02 -0.18619511161E+02 -0.16414604985E+02  0.63269065419E+02  0.47000000000E+01 0. -1.
          5    1    4    4  503    0 -0.43218268067E+01 -0.87981505468E+02 -0.15417632869E+02  0.89550080372E+02  0.47000000000E+01 0.  1.
         -5    1    4    4    0  503  0.46123835042E+02  0.30386880836E+02 -0.37524590255E+01  0.55560252292E+02  0.47000000000E+01 0.  1.
<mgrwt>
<rscale>  0 0.14384252E+03</rscale>
<asrwt>0</asrwt>
<pdfrwt beam="2">  1        5 0.23416558E-01 0.14384386E+03</pdfrwt>
<pdfrwt beam="1">  1       -5 0.21045485E-01 0.14384386E+03</pdfrwt>
<totfact> 0.26764460E+02</totfact>
</mgrwt>
</event>
<event>
 8    1  0.3542708E-007  0.1288310E+03  0.7546771E-02  0.1229205E+00
          5   -1    0    0  501    0  0.00000000000E+00  0.00000000000E+00  0.17750611148E+03  0.17756832379E+03  0.47000000000E+01 0.  1.
         -5   -1    0    0    0  501 -0.00000000000E+00 -0.00000000000E+00 -0.94003503149E+02  0.94120925433E+02  0.47000000000E+01 0.  1.
         25    2    1    2    0    0 -0.11734228158E+02 -0.28869576146E+02  0.52997269329E+02  0.13929592929E+03  0.12499400315E+03 0.  0.
         25    2    1    2    0    0  0.11734228158E+02  0.28869576146E+02  0.30505339001E+02  0.13239331993E+03  0.12500508357E+03 0.  0.
          5    1    4    4  502    0 -0.57016899524E+01 -0.44818707120E+02 -0.98207563303E+01  0.46473250705E+02  0.47000000000E+01 0.  1.
         -5    1    4    4    0  502  0.17435918111E+02  0.73688283265E+02  0.40326095331E+02  0.85920069225E+02  0.47000000000E+01 0.  1.
          5    1    3    3  503    0 -0.31999284621E+02 -0.51748891961E+02 -0.16511662072E+02  0.63218881830E+02  0.47000000000E+01 0.  1.
         -5    1    3    3    0  503  0.20265056463E+02  0.22879315816E+02  0.69508931401E+02  0.76077047460E+02  0.47000000000E+01 0.  1.
<mgrwt>
<rscale>  0 0.12882827E+03</rscale>
<asrwt>0</asrwt>
<pdfrwt beam="1">  1        5 0.27322451E-01 0.12883096E+03</pdfrwt>
<pdfrwt beam="2">  1       -5 0.14475895E-01 0.12883096E+03</pdfrwt>
<totfact> 0.38119222E+02</totfact>
</mgrwt>
</event>
<event>
 8    1  0.3542708E-007  0.1363267E+03  0.7546771E-02  0.1218360E+00
          5   -1    0    0  501    0  0.00000000000E+00  0.00000000000E+00  0.15581985217E+04  0.15582056100E+04  0.47000000000E+01 0. -1.
         -5   -1    0    0    0  501 -0.00000000000E+00 -0.00000000000E+00 -0.11578943479E+02  0.12496476787E+02  0.47000000000E+01 0. -1.
         25    2    1    2    0    0 -0.49617135627E+02 -0.22349977075E+02  0.69565680132E+03  0.70888881267E+03  0.12499432744E+03 0.  0.
         25    2    1    2    0    0  0.49617135627E+02  0.22349977075E+02  0.85096277691E+03  0.86181327412E+03  0.12499236030E+03 0.  0.
          5    1    4    4  502    0  0.48903258156E+02 -0.26360809129E+02  0.16617488444E+03  0.17527864427E+03  0.47000000000E+01 0. -1.
         -5    1    4    4    0  502  0.71387747091E+00  0.48710786204E+02  0.68478789247E+03  0.68653462985E+03  0.47000000000E+01 0. -1.
          5    1    3    3  503    0 -0.76679990146E+02  0.54981144035E+01  0.60852570125E+03  0.61338052564E+03  0.47000000000E+01 0. -1.
         -5    1    3    3    0  503  0.27062854519E+02 -0.27848091478E+02  0.87131100070E+02  0.95508287038E+02  0.47000000000E+01 0. -1.
<mgrwt>
<rscale>  0 0.13632623E+03</rscale>
<asrwt>0</asrwt>
<pdfrwt beam="1">  1        5 0.23979396E+00 0.13632668E+03</pdfrwt>
<pdfrwt beam="2">  1       -5 0.18525007E-02 0.13632668E+03</pdfrwt>
<totfact> 0.62770142E+01</totfact>
</mgrwt>
</event>
<event>
 8    1  0.3542708E-007  0.1292563E+03  0.7546771E-02  0.1228563E+00
          5   -1    0    0  501    0  0.00000000000E+00  0.00000000000E+00  0.29130920784E+03  0.29134712042E+03  0.47000000000E+01 0. -1.
         -5   -1    0    0    0  501 -0.00000000000E+00 -0.00000000000E+00 -0.57308309086E+02  0.57500715564E+02  0.47000000000E+01 0. -1.
         25    2    1    2    0    0  0.24898025536E+02  0.21498407772E+02  0.12406247569E+03  0.17916090450E+03  0.12500015446E+03 0.  0.
         25    2    1    2    0    0 -0.24898025536E+02 -0.21498407772E+02  0.10993842307E+03  0.16968693148E+03  0.12500041854E+03 0.  0.
          5    1    3    3  502    0 -0.30052159509E+02  0.67800054001E+01  0.11766557945E+03  0.12172255071E+03  0.47000000000E+01 0. -1.
         -5    1    3    3    0  502  0.54950185045E+02  0.14718402372E+02  0.63968962445E+01  0.57438353793E+02  0.47000000000E+01 0. -1.
          5    1    4    4  503    0  0.21413253788E+02 -0.42273697754E+02 -0.96453678838E+00  0.47629962112E+02  0.47000000000E+01 0.  1.
         -5    1    4    4    0  503 -0.46311279324E+02  0.20775289982E+02  0.11090295986E+03  0.12205696937E+03  0.47000000000E+01 0.  1.
<mgrwt>
<rscale>  0 0.12925626E+03</rscale>
<asrwt>0</asrwt>
<pdfrwt beam="1">  1        5 0.44834517E-01 0.12925633E+03</pdfrwt>
<pdfrwt beam="2">  1       -5 0.88343800E-02 0.12925633E+03</pdfrwt>
<totfact> 0.33768528E+02</totfact>
</mgrwt>
</event>
<event>
 8    1  0.3542708E-007  0.1306493E+03  0.7546771E-02  0.1226509E+00
          5   -1    0    0  501    0  0.00000000000E+00  0.00000000000E+00  0.49290495145E+02  0.49514067816E+02  0.47000000000E+01 0. -1.
         -5   -1    0    0    0  501 -0.00000000000E+00 -0.00000000000E+00 -0.34592435629E+03  0.34595628377E+03  0.47000000000E+01 0. -1.
         25    2    1    2    0    0 -0.37584627760E+02 -0.47727458703E+01 -0.15752908162E+03  0.20465742067E+03  0.12503545471E+03 0.  0.
         25    2    1    2    0    0  0.37584627760E+02  0.47727458703E+01 -0.13910477953E+03  0.19081293091E+03  0.12499620621E+03 0.  0.
          5    1    4    4  502    0 -0.30464972401E+02  0.42321548722E+02 -0.48780534997E+02  0.71560174848E+02  0.47000000000E+01 0. -1.
         -5    1    4    4    0  502  0.68049600161E+02 -0.37548802852E+02 -0.90324244533E+02  0.11925275606E+03  0.47000000000E+01 0. -1.
          5    1    3    3  503    0  0.12434752601E+02 -0.15415981990E+02  0.14587232363E+02  0.25043021403E+02  0.47000000000E+01 0.  1.
         -5    1    3    3    0  503 -0.50019380360E+02  0.10643236120E+02 -0.17211631398E+03  0.17961439927E+03  0.47000000000E+01 0.  1.
<mgrwt>
<rscale>  0 0.13063994E+03</rscale>
<asrwt>0</asrwt>
<pdfrwt beam="1">  1        5 0.76028072E-02 0.13064933E+03</pdfrwt>
<pdfrwt beam="2">  1       -5 0.53238784E-01 0.13064933E+03</pdfrwt>
<totfact> 0.30528741E+02</totfact>
</mgrwt>
</event>
<event>
 8    1  0.3542708E-007  0.1343345E+03  0.7546771E-02  0.1221162E+00
          5   -1    0    0  501    0  0.00000000000E+00  0.00000000000E+00  0.11815125113E+04  0.11815218595E+04  0.47000000000E+01 0.  1.
         -5   -1    0    0    0  501 -0.00000000000E+00 -0.00000000000E+00 -0.14981916069E+02  0.15701840946E+02  0.47000000000E+01 0.  1.
         25    2    1    2    0    0  0.65745365039E+01 -0.48759835278E+02  0.54062565263E+03  0.55706539620E+03  0.12500005317E+03 0.  0.
         25    2    1    2    0    0 -0.65745365039E+01  0.48759835278E+02  0.62590494261E+03  0.64015830421E+03  0.12499964479E+03 0.  0.
          5    1    4    4  502    0  0.55972180850E+02  0.23609605097E+02  0.39127253186E+03  0.39598810926E+03  0.47000000000E+01 0.  1.
         -5    1    4    4    0  502 -0.62546717354E+02  0.25150230181E+02  0.23463241075E+03  0.24417019495E+03  0.47000000000E+01 0.  1.
          5    1    3    3  503    0 -0.43823704638E+02  0.86429167141E+01  0.97092614084E+02  0.10697795477E+03  0.47000000000E+01 0.  1.
         -5    1    3    3    0  503  0.50398241142E+02 -0.57402751992E+02  0.44353303855E+03  0.45008744143E+03  0.47000000000E+01 0.  1.
<mgrwt>
<rscale>  0 0.13433441E+03</rscale>
<asrwt>0</asrwt>
<pdfrwt beam="1">  1        5 0.18182737E+00 0.13433451E+03</pdfrwt>
<pdfrwt beam="2">  1       -5 0.23610066E-02 0.13433451E+03</pdfrwt>
<totfact> 0.10323590E+02</totfact>
</mgrwt>
</event>
<event>
 8    1  0.3542708E-007  0.1349978E+03  0.7546771E-02  0.1220225E+00
          5   -1    0    0  501    0  0.00000000000E+00  0.00000000000E+00  0.94263404690E+02  0.94380503621E+02  0.47000000000E+01 0.  1.
         -5   -1    0    0    0  501 -0.00000000000E+00 -0.00000000000E+00 -0.19554963878E+03  0.19560611245E+03  0.47000000000E+01 0.  1.
         25    2    1    2    0    0  0.33728452972E+02 -0.38209202171E+02 -0.66993853452E+02  0.15070138948E+03  0.12500072288E+03 0.  0.
         25    2    1    2    0    0 -0.33728452972E+02  0.38209202171E+02 -0.34292380636E+02  0.13928522659E+03  0.12500742100E+03 0.  0.
          5    1    4    4  502    0 -0.80974591230E+02  0.19288551317E+02 -0.27126966778E+02  0.87674939198E+02  0.47000000000E+01 0.  1.
         -5    1    4    4    0  502  0.47246138258E+02  0.18920650854E+02 -0.71654138574E+01  0.51610287393E+02  0.47000000000E+01 0.  1.
          5    1    3    3  503    0 -0.27928113797E+02 -0.25616302231E+02 -0.77810795389E+02  0.86676319484E+02  0.47000000000E+01 0. -1.
         -5    1    3    3    0  503  0.61656566769E+02 -0.12592899940E+02  0.10816941937E+02  0.64025069992E+02  0.47000000000E+01 0. -1.
<mgrwt>
<rscale>  0 0.13499625E+03</rscale>
<asrwt>0</asrwt>
<pdfrwt beam="1">  1        5 0.14515414E-01 0.13499780E+03</pdfrwt>
<pdfrwt beam="2">  1       -5 0.30097911E-01 0.13499780E+03</pdfrwt>
<totfact> 0.31945222E+02</totfact>
</mgrwt>
</event>
<event>
 8    1  0.3542708E-007  0.1298536E+03  0.7546771E-02  0.1227673E+00
         -5   -1    0    0    0  501 -0.00000000000E+00  0.00000000000E+00  0.34791577668E+03  0.34794752142E+03  0.47000000000E+01 0.  1.
          5   -1    0    0  501    0  0.00000000000E+00 -0.00000000000E+00 -0.48333853594E+02  0.48561830724E+02  0.47000000000E+01 0.  1.
         25    2    1    2    0    0  0.31373406445E+02  0.15938148979E+02  0.14612744728E+03  0.19548707367E+03  0.12499459948E+03 0.  0.
         25    2    1    2    0    0 -0.31373406445E+02 -0.15938148979E+02  0.15345447580E+03  0.20102227847E+03  0.12499346012E+03 0.  0.
          5    1    3    3  502    0  0.52441514871E+02  0.33877115767E+02  0.15408050208E+03  0.16631494995E+03  0.47000000000E+01 0.  1.
         -5    1    3    3    0  502 -0.21068108426E+02 -0.17938966788E+02 -0.79530547948E+01  0.29172123725E+02  0.47000000000E+01 0.  1.
          5    1    4    4  503    0 -0.50976897731E+02 -0.49210532958E+02  0.40927265566E+02  0.81960061755E+02  0.47000000000E+01 0.  1.
         -5    1    4    4    0  503  0.19603491285E+02  0.33272383979E+02  0.11252721024E+03  0.11906221672E+03  0.47000000000E+01 0.  1.
<mgrwt>
<rscale>  0 0.12985336E+03</rscale>
<asrwt>0</asrwt>
<pdfrwt beam="2">  1        5 0.74559561E-02 0.12985363E+03</pdfrwt>
<pdfrwt beam="1">  1       -5 0.53545483E-01 0.12985363E+03</pdfrwt>
<totfact> 0.31106414E+02</totfact>
</mgrwt>
</event>
<event>
 8    1  0.3542708E-007  0.1321176E+03  0.7546771E-02  0.1224351E+00
         -5   -1    0    0    0  501 -0.00000000000E+00  0.00000000000E+00  0.69929304375E+02  0.70087071635E+02  0.47000000000E+01 0.  1.
          5   -1    0    0  501    0  0.00000000000E+00 -0.00000000000E+00 -0.25460681437E+03  0.25465019129E+03  0.47000000000E+01 0.  1.
         25    2    1    2    0    0  0.38268056650E+02 -0.19044751529E+02 -0.68526264603E+02  0.14882198898E+03  0.12499995497E+03 0.  0.
         25    2    1    2    0    0 -0.38268056650E+02  0.19044751529E+02 -0.11615124539E+03  0.17591527395E+03  0.12501169978E+03 0.  0.
          5    1    3    3  502    0 -0.10012955265E+02 -0.35372117705E+02  0.23241276287E+02  0.43745775882E+02  0.47000000000E+01 0.  1.
         -5    1    3    3    0  502  0.48281011916E+02  0.16327366176E+02 -0.91767540890E+02  0.10507621310E+03  0.47000000000E+01 0.  1.
          5    1    4    4  503    0 -0.59519855386E+01 -0.17211996964E+02  0.22267280637E+02  0.29147911731E+02  0.47000000000E+01 0. -1.
         -5    1    4    4    0  503 -0.32316071112E+02  0.36256748493E+02 -0.13841852603E+03  0.14676736221E+03  0.47000000000E+01 0. -1.
<mgrwt>
<rscale>  0 0.13211487E+03</rscale>
<asrwt>0</asrwt>
<pdfrwt beam="2">  1        5 0.39185751E-01 0.13211764E+03</pdfrwt>
<pdfrwt beam="1">  1       -5 0.10773827E-01 0.13211764E+03</pdfrwt>
<totfact> 0.31795247E+02</totfact>
</mgrwt>
</event>
<event>
 8    1  0.3542708E-007  0.1267903E+03  0.7546771E-02  0.1232299E+00
          5   -1    0    0  501    0  0.00000000000E+00  0.00000000000E+00  0.15016312830E+03  0.15023666363E+03  0.47000000000E+01 0. -1.
         -5   -1    0    0    0  501 -0.00000000000E+00 -0.00000000000E+00 -0.10691886012E+03  0.10702211290E+03  0.47000000000E+01 0. -1.
         25    2    1    2    0    0 -0.15740102555E+02 -0.14229930050E+02  0.23297640299E+02  0.12890904024E+03  0.12499807548E+03 0.  0.
         25    2    1    2    0    0  0.15740102555E+02  0.14229930050E+02  0.19946627872E+02  0.12834973630E+03  0.12500218041E+03 0.  0.
          5    1    3    3  502    0  0.11588594345E+02 -0.66286470727E+02  0.76576262477E+01  0.67889034167E+02  0.47000000000E+01 0.  1.
         -5    1    3    3    0  502 -0.27328696900E+02  0.52056540677E+02  0.15640014052E+02  0.61020006072E+02  0.47000000000E+01 0.  1.
          5    1    4    4  503    0 -0.21122289411E+02 -0.17915091564E+02  0.59156243197E+02  0.65487805926E+02  0.47000000000E+01 0. -1.
         -5    1    4    4    0  503  0.36862391966E+02  0.32145021615E+02 -0.39209615326E+02  0.62861930371E+02  0.47000000000E+01 0. -1.
<mgrwt>
<rscale>  0 0.12678931E+03</rscale>
<asrwt>0</asrwt>
<pdfrwt beam="1">  1        5 0.23115619E-01 0.12679033E+03</pdfrwt>
<pdfrwt beam="2">  1       -5 0.16462655E-01 0.12679033E+03</pdfrwt>
<totfact> 0.41337724E+02</totfact>
</mgrwt>
</event>
<event>
 8    1  0.3542708E-007  0.1336002E+03  0.7546771E-02  0.1222212E+00
          5   -1    0    0  501    0  0.00000000000E+00  0.00000000000E+00  0.28511338415E+03  0.28515212050E+03  0.47000000000E+01 0.  1.
         -5   -1    0    0    0  501 -0.00000000000E+00 -0.00000000000E+00 -0.62512146943E+02  0.62688583613E+02  0.47000000000E+01 0.  1.
         25    2    1    2    0    0  0.46398186930E+02 -0.84385748994E+01  0.10672007006E+03  0.17098637264E+03  0.12499265970E+03 0.  0.
         25    2    1    2    0    0 -0.46398186930E+02  0.84385748994E+01  0.11588116715E+03  0.17685433147E+03  0.12500003345E+03 0.  0.
          5    1    3    3  502    0  0.29546908895E+02  0.13180608874E+02 -0.21928429792E+02  0.39366156895E+02  0.47000000000E+01 0. -1.
         -5    1    3    3    0  502  0.16851278035E+02 -0.21619183774E+02  0.12864849985E+03  0.13162021574E+03  0.47000000000E+01 0. -1.
          5    1    4    4  503    0 -0.68553335099E+02 -0.14719795550E+02  0.16302142189E+02  0.72139323355E+02  0.47000000000E+01 0. -1.
         -5    1    4    4    0  503  0.22155148169E+02  0.23158370450E+02  0.99579024965E+02  0.10471500812E+03  0.47000000000E+01 0. -1.
<mgrwt>
<rscale>  0 0.13359846E+03</rscale>
<asrwt>0</asrwt>
<pdfrwt beam="1">  1        5 0.43880150E-01 0.13360019E+03</pdfrwt>
<pdfrwt beam="2">  1       -5 0.96338051E-02 0.13360019E+03</pdfrwt>
<totfact> 0.30754293E+02</totfact>
</mgrwt>
</event>
<event>
 8    1  0.3542708E-007  0.1311160E+03  0.7546771E-02  0.1225812E+00
         -5   -1    0    0    0  501 -0.00000000000E+00  0.00000000000E+00  0.79656499706E+02  0.79795037098E+02  0.47000000000E+01 0. -1.
          5   -1    0    0  501    0  0.00000000000E+00 -0.00000000000E+00 -0.22260580170E+03  0.22265541303E+03  0.47000000000E+01 0. -1.
         25    2    1    2    0    0  0.38115342076E+02 -0.10629187474E+02 -0.44380126724E+02  0.13842322634E+03  0.12500254003E+03 0.  0.
         25    2    1    2    0    0 -0.38115342076E+02  0.10629187474E+02 -0.98569175273E+02  0.16402722379E+03  0.12499315543E+03 0.  0.
          5    1    3    3  502    0  0.51947842566E+02  0.47825625834E+02 -0.26611493991E+02  0.75605095371E+02  0.47000000000E+01 0. -1.
         -5    1    3    3    0  502 -0.13832500490E+02 -0.58454813308E+02 -0.17768632732E+02  0.62818130964E+02  0.47000000000E+01 0. -1.
          5    1    4    4  503    0  0.32574253465E+02 -0.10768041625E+02 -0.80814261667E+02  0.87920802988E+02  0.47000000000E+01 0. -1.
         -5    1    4    4    0  503 -0.70689595540E+02  0.21397229099E+02 -0.17754913606E+02  0.76106420806E+02  0.47000000000E+01 0. -1.
<mgrwt>
<rscale>  0 0.13111372E+03</rscale>
<asrwt>0</asrwt>
<pdfrwt beam="2">  1        5 0.34261519E-01 0.13111596E+03</pdfrwt>
<pdfrwt beam="1">  1       -5 0.12269319E-01 0.13111596E+03</pdfrwt>
<totfact> 0.33049381E+02</totfact>
</mgrwt>
</event>
<event>
 8    1  0.3542708E-007  0.1436908E+03  0.7546771E-02  0.1208450E+00
         -5   -1    0    0    0  501 -0.00000000000E+00  0.00000000000E+00  0.16071299244E+03  0.16078170274E+03  0.47000000000E+01 0.  1.
          5   -1    0    0  501    0  0.00000000000E+00 -0.00000000000E+00 -0.13040562705E+03  0.13049029683E+03  0.47000000000E+01 0.  1.
         25    2    1    2    0    0 -0.70308818236E+02 -0.87669607532E+01  0.33534036091E+02  0.14755193751E+03  0.12500741244E+03 0.  0.
         25    2    1    2    0    0  0.70308818236E+02  0.87669607532E+01 -0.32266707099E+01  0.14372006206E+03  0.12499942125E+03 0.  0.
          5    1    3    3  502    0 -0.70504275149E+02 -0.57478575292E+02  0.57291004010E+01  0.91266379480E+02  0.47000000000E+01 0. -1.
         -5    1    3    3    0  502  0.19545691279E+00  0.48711614539E+02  0.27804935690E+02  0.56285558033E+02  0.47000000000E+01 0. -1.
          5    1    4    4  503    0  0.53851439043E+02  0.19845255240E+02  0.56461383722E+02  0.80646075505E+02  0.47000000000E+01 0. -1.
         -5    1    4    4    0  503  0.16457379193E+02 -0.11078294487E+02 -0.59688054432E+02  0.63073986559E+02  0.47000000000E+01 0. -1.
<mgrwt>
<rscale>  0 0.14368905E+03</rscale>
<asrwt>0</asrwt>
<pdfrwt beam="2">  1        5 0.20074203E-01 0.14369079E+03</pdfrwt>
<pdfrwt beam="1">  1       -5 0.24736874E-01 0.14369079E+03</pdfrwt>
<totfact> 0.26325954E+02</totfact>
</mgrwt>
</event>
<event>
 8    1  0.3542708E-007  0.1334280E+03  0.7546771E-02  0.1222458E+00
          5   -1    0    0  501    0  0.00000000000E+00  0.00000000000E+00  0.96856417092E+02  0.96970384819E+02  0.47000000000E+01 0. -1.
         -5   -1    0    0    0  501 -0.00000000000E+00 -0.00000000000E+00 -0.19702585187E+03  0.19708190253E+03  0.47000000000E+01 0. -1.
         25    2    1    2    0    0 -0.46095889806E+02  0.72634661533E+01 -0.88520833423E+02  0.16011676876E+03  0.12499541068E+03 0.  0.
         25    2    1    2    0    0  0.46095889806E+02 -0.72634661533E+01 -0.11648601350E+02  0.13393551859E+03  0.12500177690E+03 0.  0.
          5    1    3    3  502    0 -0.70569800127E+02 -0.38760412380E+02 -0.47322336244E+02  0.93509142684E+02  0.47000000000E+01 0. -1.
         -5    1    3    3    0  502  0.24473910322E+02  0.46023878533E+02 -0.41198497179E+02  0.66607626076E+02  0.47000000000E+01 0. -1.
          5    1    4    4  503    0 -0.30166431425E+02  0.33479993283E+02  0.55622660862E+01  0.45650326824E+02  0.47000000000E+01 0. -1.
         -5    1    4    4    0  503  0.76262321231E+02 -0.40743459436E+02 -0.17210867436E+02  0.88285191761E+02  0.47000000000E+01 0. -1.
<mgrwt>
<rscale>  0 0.13342652E+03</rscale>
<asrwt>0</asrwt>
<pdfrwt beam="1">  1        5 0.14914066E-01 0.13342801E+03</pdfrwt>
<pdfrwt beam="2">  1       -5 0.30324748E-01 0.13342801E+03</pdfrwt>
<totfact> 0.29853978E+02</totfact>
</mgrwt>
</event>
<event>
 8    1  0.3542708E-007  0.1268822E+03  0.7546771E-02  0.1232161E+00
         -5   -1    0    0    0  501 -0.00000000000E+00  0.00000000000E+00  0.82848420976E+03  0.82849754123E+03  0.47000000000E+01 0.  1.
          5   -1    0    0  501    0  0.00000000000E+00 -0.00000000000E+00 -0.19665377774E+02  0.20219225579E+02  0.47000000000E+01 0.  1.
         25    2    1    2    0    0 -0.10702362429E+02  0.18936056085E+02  0.47325753005E+03  0.48996828604E+03  0.12499246696E+03 0.  0.
         25    2    1    2    0    0  0.10702362429E+02 -0.18936056085E+02  0.33556130194E+03  0.35874848077E+03  0.12500388119E+03 0.  0.
          5    1    4    4  502    0 -0.29738653854E+02  0.19266522822E+02  0.26018938196E+02  0.44211554820E+02  0.47000000000E+01 0.  1.
         -5    1    4    4    0  502  0.40441016283E+02 -0.38202578908E+02  0.30954236374E+03  0.31453692595E+03  0.47000000000E+01 0.  1.
          5    1    3    3  503    0  0.42377970661E+02 -0.29603616171E+02  0.25112043682E+03  0.25642899656E+03  0.47000000000E+01 0.  1.
         -5    1    3    3    0  503 -0.53080333090E+02  0.48539672256E+02  0.22213709322E+03  0.23353928948E+03  0.47000000000E+01 0.  1.
<mgrwt>
<rscale>  0 0.12687936E+03</rscale>
<asrwt>0</asrwt>
<pdfrwt beam="2">  1        5 0.30690714E-02 0.12688217E+03</pdfrwt>
<pdfrwt beam="1">  1       -5 0.12750276E+00 0.12688217E+03</pdfrwt>
<totfact> 0.17649823E+02</totfact>
</mgrwt>
</event>
<event>
 8    1  0.3542708E-007  0.1968691E+03  0.7546771E-02  0.1152410E+00
          5   -1    0    0  501    0  0.00000000000E+00  0.00000000000E+00  0.23814586005E+03  0.23819223467E+03  0.47000000000E+01 0. -1.
         -5   -1    0    0    0  501 -0.00000000000E+00 -0.00000000000E+00 -0.16725797258E+03  0.16732399526E+03  0.47000000000E+01 0. -1.
         25    2    1    2    0    0 -0.14174472036E+03 -0.55096619749E+02  0.17692937028E+01  0.19687705213E+03  0.12502095823E+03 0.  0.
         25    2    1    2    0    0  0.14174472036E+03  0.55096619749E+02  0.69118593770E+02  0.20863917781E+03  0.12500289299E+03 0.  0.
          5    1    3    3  502    0 -0.13154651221E+03 -0.79096615887E+02  0.31802988192E+02  0.15682563432E+03  0.47000000000E+01 0. -1.
         -5    1    3    3    0  502 -0.10198208144E+02  0.23999996137E+02 -0.30033694489E+02  0.40051417810E+02  0.47000000000E+01 0. -1.
          5    1    4    4  503    0  0.49575264297E+02  0.73191277526E+02  0.72660063631E+02  0.11452617510E+03  0.47000000000E+01 0.  1.
         -5    1    4    4    0  503  0.92169456062E+02 -0.18094657777E+02 -0.35414698614E+01  0.94113002712E+02  0.47000000000E+01 0.  1.
<mgrwt>
<rscale>  0 0.19686623E+03</rscale>
<asrwt>0</asrwt>
<pdfrwt beam="1">  1        5 0.36646471E-01 0.19686910E+03</pdfrwt>
<pdfrwt beam="2">  1       -5 0.25740642E-01 0.19686910E+03</pdfrwt>
<totfact> 0.83272207E+01</totfact>
</mgrwt>
</event>
<event>
 8    1  0.3542708E-007  0.1754152E+03  0.7546771E-02  0.1172319E+00
         -5   -1    0    0    0  501 -0.00000000000E+00  0.00000000000E+00  0.67974412610E+03  0.67976037467E+03  0.47000000000E+01 0. -1.
          5   -1    0    0  501    0  0.00000000000E+00 -0.00000000000E+00 -0.47416816103E+02  0.47649180993E+02  0.47000000000E+01 0. -1.
         25    2    1    2    0    0  0.12277295282E+03 -0.85210764177E+01  0.39590722385E+03  0.43302775042E+03  0.12499878422E+03 0.  0.
         25    2    1    2    0    0 -0.12277295282E+03  0.85210764177E+01  0.23642008616E+03  0.29438180524E+03  0.12498153236E+03 0.  0.
          5    1    3    3  502    0  0.10032022311E+03 -0.51744135900E+02  0.34222089211E+03  0.36038705826E+03  0.47000000000E+01 0.  1.
         -5    1    3    3    0  502  0.22452729716E+02  0.43223059483E+02  0.53686331734E+02  0.72640692162E+02  0.47000000000E+01 0.  1.
          5    1    4    4  503    0 -0.98511323486E+02  0.48750860261E+02  0.95227265569E+02  0.14550412138E+03  0.47000000000E+01 0.  1.
         -5    1    4    4    0  503 -0.24261629339E+02 -0.40229783843E+02  0.14119282059E+03  0.14887768386E+03  0.47000000000E+01 0.  1.
<mgrwt>
<rscale>  0 0.17541216E+03</rscale>
<asrwt>0</asrwt>
<pdfrwt beam="2">  1        5 0.73140191E-02 0.17541523E+03</pdfrwt>
<pdfrwt beam="1">  1       -5 0.10459514E+00 0.17541523E+03</pdfrwt>
<totfact> 0.76154457E+01</totfact>
</mgrwt>
</event>
<event>
 8    1  0.3542708E-007  0.1756732E+03  0.7546771E-02  0.1172058E+00
          5   -1    0    0  501    0  0.00000000000E+00  0.00000000000E+00  0.23329855276E+03  0.23334589073E+03  0.47000000000E+01 0.  1.
         -5   -1    0    0    0  501 -0.00000000000E+00 -0.00000000000E+00 -0.13679767780E+03  0.13687839366E+03  0.47000000000E+01 0.  1.
         25    2    1    2    0    0  0.39796584863E+01  0.12335692160E+03  0.14245731874E+02  0.17624748556E+03  0.12500986961E+03 0.  0.
         25    2    1    2    0    0 -0.39796584863E+01 -0.12335692160E+03  0.82255143087E+02  0.19397679883E+03  0.12501328781E+03 0.  0.
          5    1    3    3  502    0 -0.30399617959E+02  0.13544610911E+03  0.99189647865E+01  0.13924891779E+03  0.47000000000E+01 0.  1.
         -5    1    3    3    0  502  0.34379276446E+02 -0.12089187502E+02  0.43267670874E+01  0.36998567767E+02  0.47000000000E+01 0.  1.
          5    1    4    4  503    0 -0.56696309340E+02 -0.25502774082E+02  0.44098658976E+02  0.76365206096E+02  0.47000000000E+01 0.  1.
         -5    1    4    4    0  503  0.52716650853E+02 -0.97854147522E+02  0.38156484110E+02  0.11761159273E+03  0.47000000000E+01 0.  1.
<mgrwt>
<rscale>  0 0.17567264E+03</rscale>
<asrwt>0</asrwt>
<pdfrwt beam="1">  1        5 0.35901935E-01 0.17567325E+03</pdfrwt>
<pdfrwt beam="2">  1       -5 0.21055647E-01 0.17567325E+03</pdfrwt>
<totfact> 0.12331385E+02</totfact>
</mgrwt>
</event>
<event>
 8    1  0.3542708E-007  0.1694819E+03  0.7546771E-02  0.1178393E+00
         -5   -1    0    0    0  501 -0.00000000000E+00  0.00000000000E+00  0.98149231687E+02  0.98261699969E+02  0.47000000000E+01 0. -1.
          5   -1    0    0  501    0  0.00000000000E+00 -0.00000000000E+00 -0.32605944971E+03  0.32609332214E+03  0.47000000000E+01 0. -1.
         25    2    1    2    0    0 -0.61015699733E+02 -0.96831705975E+02 -0.45728763767E+02  0.17552940771E+03  0.12498063145E+03 0.  0.
         25    2    1    2    0    0  0.61015699733E+02  0.96831705975E+02 -0.18218145425E+03  0.24882561440E+03  0.12499923685E+03 0.  0.
          5    1    4    4  502    0 -0.53685962961E+01  0.82713118478E+01  0.17409532888E+02  0.20552816382E+02  0.47000000000E+01 0. -1.
         -5    1    4    4    0  502  0.66384296029E+02  0.88560394127E+02 -0.19959098714E+03  0.22827279802E+03  0.47000000000E+01 0. -1.
          5    1    3    3  503    0 -0.53932750441E+02 -0.12443588335E+03 -0.53098150471E+02  0.14572074052E+03  0.47000000000E+01 0.  1.
         -5    1    3    3    0  503 -0.70829492919E+01  0.27604177372E+02  0.73693867040E+01  0.29808667187E+02  0.47000000000E+01 0.  1.
<mgrwt>
<rscale>  0 0.16947844E+03</rscale>
<asrwt>0</asrwt>
<pdfrwt beam="2">  1        5 0.50174249E-01 0.16948187E+03</pdfrwt>
<pdfrwt beam="1">  1       -5 0.15111139E-01 0.16948187E+03</pdfrwt>
<totfact> 0.11262383E+02</totfact>
</mgrwt>
</event>
<event>
 8    1  0.3542708E-007  0.1995835E+03  0.7546771E-02  0.1150091E+00
         -5   -1    0    0    0  501 -0.00000000000E+00  0.00000000000E+00  0.40127403625E+03  0.40130156014E+03  0.47000000000E+01 0.  1.
          5   -1    0    0  501    0  0.00000000000E+00 -0.00000000000E+00 -0.10656729023E+03  0.10667088332E+03  0.47000000000E+01 0.  1.
         25    2    1    2    0    0  0.10176766905E+03  0.11769670045E+03  0.21417943286E+03  0.29275576464E+03  0.12499574596E+03 0.  0.
         25    2    1    2    0    0 -0.10176766905E+03 -0.11769670045E+03  0.80527313158E+02  0.21521667881E+03  0.12499759563E+03 0.  0.
          5    1    4    4  502    0  0.16148382773E+02 -0.45033682247E+02 -0.10766399424E+02  0.49262644666E+02  0.47000000000E+01 0. -1.
         -5    1    4    4    0  502 -0.11791605183E+03 -0.72663018207E+02  0.91293712582E+02  0.16595403415E+03  0.47000000000E+01 0. -1.
          5    1    3    3  503    0  0.44833719652E+02 -0.10339169557E+02  0.13926163675E+02  0.48301023588E+02  0.47000000000E+01 0.  1.
         -5    1    3    3    0  503  0.56933949401E+02  0.12803587001E+03  0.20025326919E+03  0.24445474105E+03  0.47000000000E+01 0.  1.
<mgrwt>
<rscale>  0 0.19958320E+03</rscale>
<asrwt>0</asrwt>
<pdfrwt beam="2">  1        5 0.16405053E-01 0.19958349E+03</pdfrwt>
<pdfrwt beam="1">  1       -5 0.61744554E-01 0.19958349E+03</pdfrwt>
<totfact> 0.64686100E+01</totfact>
</mgrwt>
</event>
<event>
 8    1  0.3542708E-007  0.1750639E+03  0.7546771E-02  0.1172672E+00
          5   -1    0    0  501    0  0.00000000000E+00  0.00000000000E+00  0.25503778006E+03  0.25508108369E+03  0.47000000000E+01 0. -1.
         -5   -1    0    0    0  501 -0.00000000000E+00 -0.00000000000E+00 -0.15974155560E+03  0.15981068357E+03  0.47000000000E+01 0. -1.
         25    2    1    2    0    0 -0.11476503522E+03  0.42947345890E+02 -0.55709891257E+02  0.18369877287E+03  0.12500463727E+03 0.  0.
         25    2    1    2    0    0  0.11476503522E+03 -0.42947345890E+02  0.15100611572E+03  0.23119299440E+03  0.12502746036E+03 0.  0.
          5    1    4    4  502    0  0.26949088783E+02 -0.75958832722E+02  0.77569694118E+02  0.11196046222E+03  0.47000000000E+01 0. -1.
         -5    1    4    4    0  502  0.87815946441E+02  0.33011486832E+02  0.73436421600E+02  0.11923253218E+03  0.47000000000E+01 0. -1.
          5    1    3    3  503    0 -0.11908064046E+03  0.31314921836E+02  0.32527165673E+01  0.12326188960E+03  0.47000000000E+01 0.  1.
         -5    1    3    3    0  503  0.43156052370E+01  0.11632424054E+02 -0.58962607824E+02  0.60436883269E+02  0.47000000000E+01 0.  1.
<mgrwt>
<rscale>  0 0.17505978E+03</rscale>
<asrwt>0</asrwt>
<pdfrwt beam="1">  1        5 0.39245230E-01 0.17506386E+03</pdfrwt>
<pdfrwt beam="2">  1       -5 0.24584273E-01 0.17506386E+03</pdfrwt>
<totfact> 0.76537342E+01</totfact>
</mgrwt>
</event>
<event>
 8    1  0.3542708E-007  0.1598022E+03  0.7546771E-02  0.1188921E+00
         -5   -1    0    0    0  501 -0.00000000000E+00  0.00000000000E+00  0.75955768013E+03  0.75957222135E+03  0.47000000000E+01 0.  1.
          5   -1    0    0  501    0  0.00000000000E+00 -0.00000000000E+00 -0.35698096374E+02  0.36006167315E+02  0.47000000000E+01 0.  1.
         25    2    1    2    0    0 -0.91018840607E+02 -0.40343428386E+02  0.46148773638E+03  0.48837205147E+03  0.12499723304E+03 0.  0.
         25    2    1    2    0    0  0.91018840607E+02  0.40343428386E+02  0.26237184738E+03  0.30720633720E+03  0.12499890303E+03 0.  0.
          5    1    4    4  502    0 -0.12935209397E+02  0.45167410270E+02  0.13284316314E+03  0.14098514314E+03  0.47000000000E+01 0.  1.
         -5    1    4    4    0  502  0.10395405000E+03 -0.48239818841E+01  0.12952868424E+03  0.16622119406E+03  0.47000000000E+01 0.  1.
          5    1    3    3  503    0 -0.10737228171E+03 -0.42493742129E+02  0.45592035196E+03  0.47034028355E+03  0.47000000000E+01 0.  1.
         -5    1    3    3    0  503  0.16353441099E+02  0.21503137431E+01  0.55673844168E+01  0.18031767917E+02  0.47000000000E+01 0.  1.
<mgrwt>
<rscale>  0 0.15980189E+03</rscale>
<asrwt>0</asrwt>
<pdfrwt beam="2">  1        5 0.55168315E-02 0.15980221E+03</pdfrwt>
<pdfrwt beam="1">  1       -5 0.11687984E+00 0.15980221E+03</pdfrwt>
<totfact> 0.90540302E+01</totfact>
</mgrwt>
</event>
<event>
 8    1  0.3542708E-007  0.1402095E+03  0.7546771E-02  0.1213054E+00
          5   -1    0    0  501    0  0.00000000000E+00  0.00000000000E+00  0.50842492743E+03  0.50844665092E+03  0.47000000000E+01 0. -1.
         -5   -1    0    0    0  501 -0.00000000000E+00 -0.00000000000E+00 -0.40164088200E+02  0.40438150068E+02  0.47000000000E+01 0. -1.
         25    2    1    2    0    0  0.46169427275E+02 -0.43553596400E+02  0.17841187057E+03  0.22691298680E+03  0.12502070325E+03 0.  0.
         25    2    1    2    0    0 -0.46169427275E+02  0.43553596400E+02  0.28984896865E+03  0.32197181419E+03  0.12499957091E+03 0.  0.
          5    1    4    4  502    0 -0.16718785961E+01  0.79290813898E+02  0.13209862138E+03  0.15414916191E+03  0.47000000000E+01 0.  1.
         -5    1    4    4    0  502 -0.44497548679E+02 -0.35737217498E+02  0.15775034728E+03  0.16782265228E+03  0.47000000000E+01 0.  1.
          5    1    3    3  503    0  0.64949009528E+01 -0.68728536178E+02  0.16326224085E+03  0.17732017570E+03  0.47000000000E+01 0.  1.
         -5    1    3    3    0  503  0.39674526322E+02  0.25174939778E+02  0.15149629723E+02  0.49592811097E+02  0.47000000000E+01 0.  1.
<mgrwt>
<rscale>  0 0.14020480E+03</rscale>
<asrwt>0</asrwt>
<pdfrwt beam="1">  1        5 0.78241974E-01 0.14020951E+03</pdfrwt>
<pdfrwt beam="2">  1       -5 0.62018431E-02 0.14020951E+03</pdfrwt>
<totfact> 0.18799201E+02</totfact>
</mgrwt>
</event>
<event>
 8    1  0.3542708E-007  0.1571951E+03  0.7546771E-02  0.1191904E+00
         -5   -1    0    0    0  501 -0.00000000000E+00  0.00000000000E+00  0.14481811575E+03  0.14489436376E+03  0.47000000000E+01 0.  1.
          5   -1    0    0  501    0  0.00000000000E+00 -0.00000000000E+00 -0.17098653898E+03  0.17105112251E+03  0.47000000000E+01 0.  1.
         25    2    1    2    0    0 -0.34474572358E+02 -0.88856943537E+02 -0.21817590343E+02  0.15870195465E+03  0.12500500232E+03 0.  0.
         25    2    1    2    0    0  0.34474572358E+02  0.88856943537E+02 -0.43508328931E+01  0.15724353162E+03  0.12499018336E+03 0.  0.
          5    1    3    3  502    0 -0.53569692903E+02 -0.10476966781E+03  0.98444151679E+01  0.11817528422E+03  0.47000000000E+01 0.  1.
         -5    1    3    3    0  502  0.19095120545E+02  0.15912724276E+02 -0.31662005511E+02  0.40526670422E+02  0.47000000000E+01 0.  1.
          5    1    4    4  503    0  0.39061240232E+02  0.26370667739E+02 -0.57819203508E+02  0.74741841693E+02  0.47000000000E+01 0. -1.
         -5    1    4    4    0  503 -0.45866678739E+01  0.62486275798E+02  0.53468370615E+02  0.82501689931E+02  0.47000000000E+01 0. -1.
<mgrwt>
<rscale>  0 0.15719217E+03</rscale>
<asrwt>0</asrwt>
<pdfrwt beam="2">  1        5 0.26316455E-01 0.15719511E+03</pdfrwt>
<pdfrwt beam="1">  1       -5 0.22290543E-01 0.15719511E+03</pdfrwt>
<totfact> 0.19771807E+02</totfact>
</mgrwt>
</event>
<event>
 8    1  0.3542708E-007  0.1329411E+03  0.7546771E-02  0.1223160E+00
          5   -1    0    0  501    0  0.00000000000E+00  0.00000000000E+00  0.30577788085E+03  0.30581399970E+03  0.47000000000E+01 0. -1.
         -5   -1    0    0    0  501 -0.00000000000E+00 -0.00000000000E+00 -0.68928386547E+02  0.69088439496E+02  0.47000000000E+01 0. -1.
         25    2    1    2    0    0 -0.10902601107E+02  0.43919115614E+02  0.42739239003E+02  0.13963210902E+03  0.12499091124E+03 0.  0.
         25    2    1    2    0    0  0.10902601107E+02 -0.43919115614E+02  0.19411025530E+03  0.23527033018E+03  0.12500232647E+03 0.  0.
          5    1    4    4  502    0  0.37414905993E+02 -0.77891051710E+02  0.10415358002E+03  0.13541399247E+03  0.47000000000E+01 0. -1.
         -5    1    4    4    0  502 -0.26512304886E+02  0.33971936096E+02  0.89956675275E+02  0.99856337701E+02  0.47000000000E+01 0. -1.
          5    1    3    3  503    0  0.17670744135E+02  0.31295723518E+02  0.81756115815E+02  0.89430587507E+02  0.47000000000E+01 0. -1.
         -5    1    3    3    0  503 -0.28573345242E+02  0.12623392096E+02 -0.39016876812E+02  0.50201521516E+02  0.47000000000E+01 0. -1.
<mgrwt>
<rscale>  0 0.13293842E+03</rscale>
<asrwt>0</asrwt>
<pdfrwt beam="1">  1        5 0.47057841E-01 0.13294110E+03</pdfrwt>
<pdfrwt beam="2">  1       -5 0.10619457E-01 0.13294110E+03</pdfrwt>
<totfact> 0.22387252E+02</totfact>
</mgrwt>
</event>
<event>
 8    1  0.3542708E-007  0.1254695E+03  0.7546771E-02  0.1234339E+00
         -5   -1    0    0    0  501 -0.00000000000E+00  0.00000000000E+00  0.36071375254E+02  0.36376285032E+02  0.47000000000E+01 0.  1.
          5   -1    0    0  501    0  0.00000000000E+00 -0.00000000000E+00 -0.45515757172E+03  0.45518183740E+03  0.47000000000E+01 0.  1.
         25    2    1    2    0    0 -0.10511943880E+02 -0.26926214826E+01 -0.15689959296E+03  0.20089611080E+03  0.12499605548E+03 0.  0.
         25    2    1    2    0    0  0.10511943880E+02  0.26926214826E+01 -0.26218660350E+03  0.29066201163E+03  0.12499935510E+03 0.  0.
          5    1    4    4  502    0 -0.18399210274E+02 -0.15180622128E+02 -0.25429299973E+03  0.25545254341E+03  0.47000000000E+01 0. -1.
         -5    1    4    4    0  502  0.28911154154E+02  0.17873243610E+02 -0.78936037769E+01  0.35209468219E+02  0.47000000000E+01 0. -1.
          5    1    3    3  503    0  0.47492166063E+02  0.32018858332E+02 -0.65891644615E+02  0.87432899736E+02  0.47000000000E+01 0. -1.
         -5    1    3    3    0  503 -0.58004109943E+02 -0.34711479814E+02 -0.91007948350E+02  0.11346321106E+03  0.47000000000E+01 0. -1.
<mgrwt>
<rscale>  0 0.12546866E+03</rscale>
<asrwt>0</asrwt>
<pdfrwt beam="2">  1        5 0.70049559E-01 0.12546948E+03</pdfrwt>
<pdfrwt beam="1">  1       -5 0.55747639E-02 0.12546948E+03</pdfrwt>
<totfact> 0.27823307E+02</totfact>
</mgrwt>
</event>
<event>
 8    1  0.3542708E-007  0.1296090E+03  0.7546771E-02  0.1228038E+00
         -5   -1    0    0    0  501 -0.00000000000E+00  0.00000000000E+00  0.12486802329E+03  0.12495644537E+03  0.47000000000E+01 0.  1.
          5   -1    0    0  501    0  0.00000000000E+00 -0.00000000000E+00 -0.18231864704E+03  0.18237921772E+03  0.47000000000E+01 0.  1.
         25    2    1    2    0    0 -0.33199333861E+02  0.85317844012E+01  0.50062075402E+02  0.13893889918E+03  0.12499127648E+03 0.  0.
         25    2    1    2    0    0  0.33199333861E+02 -0.85317844012E+01 -0.10751269915E+03  0.16839676392E+03  0.12499400988E+03 0.  0.
          5    1    4    4  502    0  0.24531956912E+02  0.29966871266E+02  0.13299132588E+02  0.41216346405E+02  0.47000000000E+01 0. -1.
         -5    1    4    4    0  502  0.86673769494E+01 -0.38498655668E+02 -0.12081183174E+03  0.12718041751E+03  0.47000000000E+01 0. -1.
          5    1    3    3  503    0  0.17340632252E+02  0.56763059830E+02  0.24912391837E+02  0.64540373064E+02  0.47000000000E+01 0. -1.
         -5    1    3    3    0  503 -0.50539966113E+02 -0.48231275429E+02  0.25149683565E+02  0.74398526112E+02  0.47000000000E+01 0. -1.
<mgrwt>
<rscale>  0 0.12960833E+03</rscale>
<asrwt>0</asrwt>
<pdfrwt beam="2">  1        5 0.28060484E-01 0.12960899E+03</pdfrwt>
<pdfrwt beam="1">  1       -5 0.19221926E-01 0.12960899E+03</pdfrwt>
<totfact> 0.21603738E+02</totfact>
</mgrwt>
</event>
<event>
 8    1  0.3542708E-007  0.1291873E+03  0.7546771E-02  0.1228676E+00
          5   -1    0    0  501    0  0.00000000000E+00  0.00000000000E+00  0.80967869116E+02  0.81104166534E+02  0.47000000000E+01 0.  1.
         -5   -1    0    0    0  501 -0.00000000000E+00 -0.00000000000E+00 -0.20958569951E+03  0.20963839209E+03  0.47000000000E+01 0.  1.
         25    2    1    2    0    0 -0.26498971421E+02 -0.18868658804E+02 -0.83975583656E+02  0.15408195249E+03  0.12502450824E+03 0.  0.
         25    2    1    2    0    0  0.26498971421E+02  0.18868658804E+02 -0.44642246735E+02  0.13666060614E+03  0.12499987722E+03 0.  0.
          5    1    3    3  502    0  0.35911957679E+02 -0.89810355608E+01 -0.82673620709E+02  0.90704714680E+02  0.47000000000E+01 0.  1.
         -5    1    3    3    0  502 -0.62410929100E+02 -0.98876232428E+01 -0.13019629470E+01  0.63377237807E+02  0.47000000000E+01 0.  1.
          5    1    4    4  503    0 -0.36052061377E+02 -0.22663708214E+02  0.96116100850E+01  0.43907491935E+02  0.47000000000E+01 0.  1.
         -5    1    4    4    0  503  0.62551032798E+02  0.41532367018E+02 -0.54253856820E+02  0.92753114201E+02  0.47000000000E+01 0.  1.
<mgrwt>
<rscale>  0 0.12918131E+03</rscale>
<asrwt>0</asrwt>
<pdfrwt beam="1">  1        5 0.12471133E-01 0.12918726E+03</pdfrwt>
<pdfrwt beam="2">  1       -5 0.32258491E-01 0.12918726E+03</pdfrwt>
<totfact> 0.35994760E+02</totfact>
</mgrwt>
</event>
<event>
 8    1  0.3542708E-007  0.1379764E+03  0.7546771E-02  0.1216078E+00
          5   -1    0    0  501    0  0.00000000000E+00  0.00000000000E+00  0.16807847003E+04  0.16807912716E+04  0.47000000000E+01 0.  1.
         -5   -1    0    0    0  501 -0.00000000000E+00 -0.00000000000E+00 -0.12703079061E+02  0.13544674881E+02  0.47000000000E+01 0.  1.
         25    2    1    2    0    0 -0.19773697301E+02 -0.54962875627E+02  0.52003158046E+03  0.53802445903E+03  0.12500222812E+03 0.  0.
         25    2    1    2    0    0  0.19773697301E+02  0.54962875627E+02  0.11480500407E+04  0.11563114874E+04  0.12500177253E+03 0.  0.
          5    1    3    3  502    0 -0.17832699281E+02 -0.42682648500E+02  0.52244991544E+03  0.52451484039E+03  0.47000000000E+01 0.  1.
         -5    1    3    3    0  502 -0.19409980197E+01 -0.12280227127E+02 -0.24183349813E+01  0.13509618636E+02  0.47000000000E+01 0.  1.
          5    1    4    4  503    0 -0.32502173899E+02  0.35960948989E+02  0.92850391470E+03  0.92978018411E+03  0.47000000000E+01 0.  1.
         -5    1    4    4    0  503  0.52275871201E+02  0.19001926637E+02  0.21954612604E+03  0.22653130332E+03  0.47000000000E+01 0.  1.
<mgrwt>
<rscale>  0 0.13797625E+03</rscale>
<asrwt>0</asrwt>
<pdfrwt beam="1">  1        5 0.25864748E+00 0.13797635E+03</pdfrwt>
<pdfrwt beam="2">  1       -5 0.20195637E-02 0.13797635E+03</pdfrwt>
<totfact> 0.41727435E+01</totfact>
</mgrwt>
</event>
<event>
 8    1  0.3542708E-007  0.1646741E+03  0.7546771E-02  0.1183520E+00
         -5   -1    0    0    0  501 -0.00000000000E+00  0.00000000000E+00  0.15974363113E+03  0.15981275821E+03  0.47000000000E+01 0. -1.
          5   -1    0    0  501    0  0.00000000000E+00 -0.00000000000E+00 -0.37195355029E+03  0.37198324367E+03  0.47000000000E+01 0. -1.
         25    2    1    2    0    0 -0.45507458117E+02 -0.97063148932E+02  0.89979636235E+02  0.18765361531E+03  0.12500144309E+03 0.  0.
         25    2    1    2    0    0  0.45507458117E+02  0.97063148932E+02 -0.30218955539E+03  0.34414238658E+03  0.12499308471E+03 0.  0.
          5    1    3    3  502    0  0.24606727263E+02  0.16703194781E+02  0.94487717393E+01  0.31557202503E+02  0.47000000000E+01 0. -1.
         -5    1    3    3    0  502 -0.70114185380E+02 -0.11376634371E+03  0.80530864495E+02  0.15609641280E+03  0.47000000000E+01 0. -1.
          5    1    4    4  503    0  0.40133754835E+02  0.12637348017E+03 -0.22412529263E+03  0.26045193715E+03  0.47000000000E+01 0.  1.
         -5    1    4    4    0  503  0.53737032825E+01 -0.29310331242E+02 -0.78064262765E+02  0.83690449428E+02  0.47000000000E+01 0.  1.
<mgrwt>
<rscale>  0 0.16467247E+03</rscale>
<asrwt>0</asrwt>
<pdfrwt beam="2">  1        5 0.57231224E-01 0.16467406E+03</pdfrwt>
<pdfrwt beam="1">  1       -5 0.24583545E-01 0.16467406E+03</pdfrwt>
<totfact> 0.33934659E+01</totfact>
</mgrwt>
</event>
<event>
 8    1  0.3542708E-007  0.1330622E+03  0.7546771E-02  0.1222985E+00
         -5   -1    0    0    0  501 -0.00000000000E+00  0.00000000000E+00  0.79138370508E+01  0.92042825286E+01  0.47000000000E+01 0.  1.
          5   -1    0    0  501    0  0.00000000000E+00 -0.00000000000E+00 -0.20672502719E+04  0.20672556147E+04  0.47000000000E+01 0.  1.
         25    2    1    2    0    0  0.36386136375E+02  0.27465768612E+02 -0.10232176675E+04  0.10318319040E+04  0.12499745439E+03 0.  0.
         25    2    1    2    0    0 -0.36386136375E+02 -0.27465768612E+02 -0.10361187674E+04  0.10446279933E+04  0.12500889952E+03 0.  0.
          5    1    3    3  502    0 -0.13949201336E+01  0.34286622023E+02 -0.72713025095E+02  0.80540624968E+02  0.47000000000E+01 0.  1.
         -5    1    3    3    0  502  0.37781056509E+02 -0.68208534112E+01 -0.95050464240E+03  0.95129127899E+03  0.47000000000E+01 0.  1.
          5    1    4    4  503    0 -0.68927892105E+02  0.74185098093E+01 -0.34964688594E+03  0.35648439439E+03  0.47000000000E+01 0.  1.
         -5    1    4    4    0  503  0.32541755730E+02 -0.34884278421E+02 -0.68647188142E+03  0.68814359892E+03  0.47000000000E+01 0.  1.
<mgrwt>
<rscale>  0 0.13305949E+03</rscale>
<asrwt>0</asrwt>
<pdfrwt beam="2">  1        5 0.31813778E+00 0.13306218E+03</pdfrwt>
<pdfrwt beam="1">  1       -5 0.13171911E-02 0.13306218E+03</pdfrwt>
<totfact> 0.34103495E+01</totfact>
</mgrwt>
</event>
<event>
 8    1  0.3542708E-007  0.2422451E+03  0.7546771E-02  0.1118307E+00
         -5   -1    0    0    0  501 -0.00000000000E+00  0.00000000000E+00  0.24424113693E+03  0.24428635444E+03  0.47000000000E+01 0. -1.
          5   -1    0    0  501    0  0.00000000000E+00 -0.00000000000E+00 -0.24319282905E+03  0.24323824145E+03  0.47000000000E+01 0. -1.
         25    2    1    2    0    0 -0.38198550580E+02  0.20395562668E+03  0.27688759165E+02  0.24382235272E+03  0.12500258150E+03 0.  0.
         25    2    1    2    0    0  0.38198550580E+02 -0.20395562668E+03 -0.26640451291E+02  0.24370224317E+03  0.12499617097E+03 0.  0.
          5    1    3    3  502    0 -0.66911727308E+02  0.20164626168E+03  0.29656364445E+02  0.21456929895E+03  0.47000000000E+01 0.  1.
         -5    1    3    3    0  502  0.28713176728E+02  0.23093650064E+01 -0.19676052801E+01  0.29253053774E+02  0.47000000000E+01 0.  1.
          5    1    4    4  503    0  0.56797291916E+02 -0.59477094982E+02  0.29528250338E+02  0.87506941236E+02  0.47000000000E+01 0. -1.
         -5    1    4    4    0  503 -0.18598741336E+02 -0.14447853170E+03 -0.56168701629E+02  0.15619530193E+03  0.47000000000E+01 0. -1.
<mgrwt>
<rscale>  0 0.24224424E+03</rscale>
<asrwt>0</asrwt>
<pdfrwt beam="2">  1        5 0.37421253E-01 0.24224507E+03</pdfrwt>
<pdfrwt beam="1">  1       -5 0.37582531E-01 0.24224507E+03</pdfrwt>
<totfact> 0.39627487E+01</totfact>
</mgrwt>
</event>
<event>
 8    1  0.3542708E-007  0.1385804E+03  0.7546771E-02  0.1215253E+00
         -5   -1    0    0    0  501 -0.00000000000E+00  0.00000000000E+00  0.37172667591E+02  0.37468616412E+02  0.47000000000E+01 0.  1.
          5   -1    0    0  501    0  0.00000000000E+00 -0.00000000000E+00 -0.52782408409E+03  0.52784500920E+03  0.47000000000E+01 0.  1.
         25    2    1    2    0    0  0.29283917220E+01  0.59730746311E+02 -0.20002593029E+03  0.24333893639E+03  0.12500851027E+03 0.  0.
         25    2    1    2    0    0 -0.29283917220E+01 -0.59730746311E+02 -0.29062548620E+03  0.32197468923E+03  0.12501275831E+03 0.  0.
          5    1    3    3  502    0  0.17591403141E+02  0.74375076263E+02 -0.20721183573E+03  0.22090709427E+03  0.47000000000E+01 0.  1.
         -5    1    3    3    0  502 -0.14663011419E+02 -0.14644329952E+02  0.71859054397E+01  0.22431842114E+02  0.47000000000E+01 0.  1.
          5    1    4    4  503    0 -0.18404039406E+02 -0.88450125931E+02 -0.13242075444E+03  0.16037293927E+03  0.47000000000E+01 0. -1.
         -5    1    4    4    0  503  0.15475647684E+02  0.28719379620E+02 -0.15820473176E+03  0.16160174996E+03  0.47000000000E+01 0. -1.
<mgrwt>
<rscale>  0 0.13857944E+03</rscale>
<asrwt>0</asrwt>
<pdfrwt beam="2">  1        5 0.81228075E-01 0.13858040E+03</pdfrwt>
<pdfrwt beam="1">  1       -5 0.57432472E-02 0.13858040E+03</pdfrwt>
<totfact> 0.19538898E+02</totfact>
</mgrwt>
</event>
<event>
 8    1  0.3542708E-007  0.1256343E+03  0.7546771E-02  0.1234082E+00
          5   -1    0    0  501    0  0.00000000000E+00  0.00000000000E+00  0.57406190418E+03  0.57408114394E+03  0.47000000000E+01 0. -1.
         -5   -1    0    0    0  501 -0.00000000000E+00 -0.00000000000E+00 -0.27418042953E+02  0.27817963250E+02  0.47000000000E+01 0. -1.
         25    2    1    2    0    0  0.11548990702E+02  0.50579715502E+01  0.25169462351E+03  0.28130742166E+03  0.12499887886E+03 0.  0.
         25    2    1    2    0    0 -0.11548990702E+02 -0.50579715502E+01  0.29494923772E+03  0.32059168553E+03  0.12500005496E+03 0.  0.
          5    1    4    4  502    0  0.24323939319E+02 -0.53547973865E+02  0.96332150160E+02  0.11296465236E+03  0.47000000000E+01 0.  1.
         -5    1    4    4    0  502 -0.35872930021E+02  0.48490002315E+02  0.19861708756E+03  0.20762703317E+03  0.47000000000E+01 0.  1.
          5    1    3    3  503    0 -0.47644081040E+01  0.12620558811E+02 -0.10954281133E+02  0.18001787812E+02  0.47000000000E+01 0. -1.
         -5    1    3    3    0  503  0.16313398806E+02 -0.75625872611E+01  0.26264890464E+03  0.26330563385E+03  0.47000000000E+01 0. -1.
<mgrwt>
<rscale>  0 0.12563400E+03</rscale>
<asrwt>0</asrwt>
<pdfrwt beam="1">  1        5 0.88349454E-01 0.12563429E+03</pdfrwt>
<pdfrwt beam="2">  1       -5 0.42504038E-02 0.12563429E+03</pdfrwt>
<totfact> 0.25566722E+02</totfact>
</mgrwt>
</event>
<event>
 8    1  0.3542708E-007  0.1746853E+03  0.7546771E-02  0.1173048E+00
          5   -1    0    0  501    0  0.00000000000E+00  0.00000000000E+00  0.14322148012E+03  0.14329857769E+03  0.47000000000E+01 0. -1.
         -5   -1    0    0    0  501 -0.00000000000E+00 -0.00000000000E+00 -0.30306570616E+03  0.30310214821E+03  0.47000000000E+01 0. -1.
         25    2    1    2    0    0  0.11700627523E+03  0.34627681507E+02 -0.20164182297E+03  0.26678453353E+03  0.12500007117E+03 0.  0.
         25    2    1    2    0    0 -0.11700627523E+03 -0.34627681507E+02  0.41797596938E+02  0.17961619236E+03  0.12500157071E+03 0.  0.
          5    1    3    3  502    0  0.14225794786E+03  0.23818971881E+02 -0.18383719594E+03  0.23371536484E+03  0.47000000000E+01 0. -1.
         -5    1    3    3    0  502 -0.25251672631E+02  0.10808709626E+02 -0.17804627026E+02  0.33069168692E+02  0.47000000000E+01 0. -1.
          5    1    4    4  503    0 -0.44912787041E+02 -0.74009738921E+02 -0.13439183031E+01  0.86709261393E+02  0.47000000000E+01 0. -1.
         -5    1    4    4    0  503 -0.72093488187E+02  0.39382057414E+02  0.43141515241E+02  0.92906930971E+02  0.47000000000E+01 0. -1.
<mgrwt>
<rscale>  0 0.17468498E+03</rscale>
<asrwt>0</asrwt>
<pdfrwt beam="1">  1        5 0.22042808E-01 0.17468525E+03</pdfrwt>
<pdfrwt beam="2">  1       -5 0.46634227E-01 0.17468525E+03</pdfrwt>
<totfact> 0.65836971E+01</totfact>
</mgrwt>
</event>
<event>
 8    1  0.3542708E-007  0.1514855E+03  0.7546771E-02  0.1198661E+00
          5   -1    0    0  501    0  0.00000000000E+00  0.00000000000E+00  0.99445572617E+02  0.99556576444E+02  0.47000000000E+01 0. -1.
         -5   -1    0    0    0  501 -0.00000000000E+00 -0.00000000000E+00 -0.27128477522E+03  0.27132548584E+03  0.47000000000E+01 0. -1.
         25    2    1    2    0    0  0.74700566486E+02  0.41716436727E+02 -0.15781284609E+03  0.21875268448E+03  0.12500962703E+03 0.  0.
         25    2    1    2    0    0 -0.74700566486E+02 -0.41716436727E+02 -0.14026356515E+02  0.15212937780E+03  0.12500469266E+03 0.  0.
          5    1    4    4  502    0  0.16355819550E+02 -0.15337392338E+02  0.37638516702E+02  0.44062414555E+02  0.47000000000E+01 0.  1.
         -5    1    4    4    0  502 -0.91056386037E+02 -0.26379044389E+02 -0.51664873216E+02  0.10806696325E+03  0.47000000000E+01 0.  1.
          5    1    3    3  503    0  0.48973681570E+02 -0.21058367195E+02 -0.13785755647E+03  0.14788060113E+03  0.47000000000E+01 0.  1.
         -5    1    3    3    0  503  0.25726884916E+02  0.62774803922E+02 -0.19955289622E+02  0.70872083353E+02  0.47000000000E+01 0.  1.
<mgrwt>
<rscale>  0 0.15148444E+03</rscale>
<asrwt>0</asrwt>
<pdfrwt beam="1">  1        5 0.15310989E-01 0.15148545E+03</pdfrwt>
<pdfrwt beam="2">  1       -5 0.41747789E-01 0.15148545E+03</pdfrwt>
<totfact> 0.15612497E+02</totfact>
</mgrwt>
</event>
<event>
 8    1  0.3542708E-007  0.1415089E+03  0.7546771E-02  0.1211317E+00
          5   -1    0    0  501    0  0.00000000000E+00  0.00000000000E+00  0.23162799135E+03  0.23167567067E+03  0.47000000000E+01 0.  1.
         -5   -1    0    0    0  501 -0.00000000000E+00 -0.00000000000E+00 -0.89491181700E+02  0.89614516693E+02  0.47000000000E+01 0.  1.
         25    2    1    2    0    0 -0.15175557204E+01  0.66289146259E+02  0.40873707756E+02  0.14728162934E+03  0.12499865787E+03 0.  0.
         25    2    1    2    0    0  0.15175557204E+01 -0.66289146259E+02  0.10126310190E+03  0.17400855802E+03  0.12501283363E+03 0.  0.
          5    1    4    4  502    0 -0.13444842502E+02  0.34692598223E+02  0.40133156143E+02  0.54928138357E+02  0.47000000000E+01 0. -1.
         -5    1    4    4    0  502  0.14962398223E+02 -0.10098174448E+03  0.61129945755E+02  0.11908041966E+03  0.47000000000E+01 0. -1.
          5    1    3    3  503    0  0.21349406237E+02  0.92862328447E+02  0.29834914003E+01  0.95447369855E+02  0.47000000000E+01 0. -1.
         -5    1    3    3    0  503 -0.22866961957E+02 -0.26573182189E+02  0.37890216356E+02  0.51834259484E+02  0.47000000000E+01 0. -1.
<mgrwt>
<rscale>  0 0.14150575E+03</rscale>
<asrwt>0</asrwt>
<pdfrwt beam="1">  1        5 0.35648229E-01 0.14150888E+03</pdfrwt>
<pdfrwt beam="2">  1       -5 0.13781029E-01 0.14150888E+03</pdfrwt>
<totfact> 0.25466621E+02</totfact>
</mgrwt>
</event>
<event>
 8    1  0.3542708E-007  0.1261325E+03  0.7546771E-02  0.1233310E+00
          5   -1    0    0  501    0  0.00000000000E+00  0.00000000000E+00  0.19866729834E+02  0.20415115828E+02  0.47000000000E+01 0. -1.
         -5   -1    0    0    0  501 -0.00000000000E+00 -0.00000000000E+00 -0.94618276032E+03  0.94619443347E+03  0.47000000000E+01 0. -1.
         25    2    1    2    0    0  0.66857045331E+01  0.15446756125E+02 -0.65987184423E+03  0.67181862205E+03  0.12500443674E+03 0.  0.
         25    2    1    2    0    0 -0.66857045331E+01 -0.15446756125E+02 -0.26644418625E+03  0.29479092724E+03  0.12500354186E+03 0.  0.
          5    1    4    4  502    0  0.31793519237E+02  0.19510051150E+02 -0.19429120533E+02  0.42320806775E+02  0.47000000000E+01 0. -1.
         -5    1    4    4    0  502 -0.38479223771E+02 -0.34956807275E+02 -0.24701506572E+03  0.25247012047E+03  0.47000000000E+01 0. -1.
          5    1    3    3  503    0  0.32878668266E+02  0.80443990605E+01 -0.45892508479E+02  0.57218279577E+02  0.47000000000E+01 0. -1.
         -5    1    3    3    0  503 -0.26192963733E+02  0.74023570644E+01 -0.61397933575E+03  0.61460034248E+03  0.47000000000E+01 0. -1.
<mgrwt>
<rscale>  0 0.12613229E+03</rscale>
<asrwt>0</asrwt>
<pdfrwt beam="1">  1        5 0.30995022E-02 0.12613251E+03</pdfrwt>
<pdfrwt beam="2">  1       -5 0.14560963E+00 0.12613251E+03</pdfrwt>
<totfact> 0.12215342E+02</totfact>
</mgrwt>
</event>
<event>
 8    1  0.3542708E-007  0.1266767E+03  0.7546771E-02  0.1232475E+00
          5   -1    0    0  501    0  0.00000000000E+00  0.00000000000E+00  0.96913388899E+02  0.97027289707E+02  0.47000000000E+01 0.  1.
         -5   -1    0    0    0  501 -0.00000000000E+00 -0.00000000000E+00 -0.19082758487E+03  0.19088545557E+03  0.47000000000E+01 0.  1.
         25    2    1    2    0    0  0.12618700265E+02 -0.16202972644E+02 -0.99556307504E+02  0.16111041082E+03  0.12499335259E+03 0.  0.
         25    2    1    2    0    0 -0.12618700265E+02  0.16202972644E+02  0.56421115289E+01  0.12680233446E+03  0.12500092273E+03 0.  0.
          5    1    3    3  502    0  0.56196735899E+02  0.57941872351E+01 -0.96568446987E+02  0.11197857244E+03  0.47000000000E+01 0.  1.
         -5    1    3    3    0  502 -0.43578035634E+02 -0.21997159879E+02 -0.29878605174E+01  0.49131838384E+02  0.47000000000E+01 0.  1.
          5    1    4    4  503    0 -0.31583135149E+02  0.39666373203E+02  0.51036143075E+02  0.72095030959E+02  0.47000000000E+01 0. -1.
         -5    1    4    4    0  503  0.18964434885E+02 -0.23463400559E+02 -0.45394031546E+02  0.54707303500E+02  0.47000000000E+01 0. -1.
<mgrwt>
<rscale>  0 0.12667488E+03</rscale>
<asrwt>0</asrwt>
<pdfrwt beam="1">  1        5 0.14922965E-01 0.12667675E+03</pdfrwt>
<pdfrwt beam="2">  1       -5 0.29371303E-01 0.12667675E+03</pdfrwt>
<totfact> 0.31156025E+02</totfact>
</mgrwt>
</event>
<event>
 8    1  0.3542708E-007  0.1261868E+03  0.7546771E-02  0.1233226E+00
          5   -1    0    0  501    0  0.00000000000E+00  0.00000000000E+00  0.11736322238E+03  0.11745729423E+03  0.47000000000E+01 0.  1.
         -5   -1    0    0    0  501 -0.00000000000E+00 -0.00000000000E+00 -0.13846887431E+03  0.13854861657E+03  0.47000000000E+01 0.  1.
         25    2    1    2    0    0  0.17045561966E+01  0.17164918400E+02 -0.29335860107E+02  0.12955191947E+03  0.12500226884E+03 0.  0.
         25    2    1    2    0    0 -0.17045561966E+01 -0.17164918400E+02  0.82302081731E+01  0.12645399132E+03  0.12500134263E+03 0.  0.
          5    1    4    4  502    0 -0.28526769593E+02 -0.10584087758E+02 -0.51771528148E+02  0.60234380746E+02  0.47000000000E+01 0.  1.
         -5    1    4    4    0  502  0.26822213396E+02 -0.65808306423E+01  0.60001736321E+02  0.66219610577E+02  0.47000000000E+01 0.  1.
          5    1    3    3  503    0  0.39191305324E+01  0.38294371177E+02 -0.71932207329E+02  0.81719954106E+02  0.47000000000E+01 0. -1.
         -5    1    3    3    0  503 -0.22145743358E+01 -0.21129452777E+02  0.42596347221E+02  0.47831965365E+02  0.47000000000E+01 0. -1.
<mgrwt>
<rscale>  0 0.12618657E+03</rscale>
<asrwt>0</asrwt>
<pdfrwt beam="1">  1        5 0.18069251E-01 0.12618679E+03</pdfrwt>
<pdfrwt beam="2">  1       -5 0.21316274E-01 0.12618679E+03</pdfrwt>
<totfact> 0.40533440E+02</totfact>
</mgrwt>
</event>
<event>
 8    1  0.3542708E-007  0.1357807E+03  0.7546771E-02  0.1219122E+00
         -5   -1    0    0    0  501 -0.00000000000E+00  0.00000000000E+00  0.13359475071E+03  0.13367740055E+03  0.47000000000E+01 0. -1.
          5   -1    0    0  501    0  0.00000000000E+00 -0.00000000000E+00 -0.14165019661E+03  0.14172814893E+03  0.47000000000E+01 0. -1.
         25    2    1    2    0    0 -0.52825042973E+02 -0.45331142127E+01  0.18552587631E+02  0.13704229656E+03  0.12500143299E+03 0.  0.
         25    2    1    2    0    0  0.52825042973E+02  0.45331142127E+01 -0.26608033526E+02  0.13836325292E+03  0.12500147207E+03 0.  0.
          5    1    4    4  502    0 -0.28049552250E+02  0.79970920349E+01 -0.46298617438E+02  0.54921606305E+02  0.47000000000E+01 0.  1.
         -5    1    4    4    0  502  0.80874595223E+02 -0.34639778221E+01  0.19690583912E+02  0.83441646614E+02  0.47000000000E+01 0.  1.
          5    1    3    3  503    0 -0.23105418379E+02 -0.39373421232E+02  0.59697951710E+02  0.75299814717E+02  0.47000000000E+01 0. -1.
         -5    1    3    3    0  503 -0.29719624594E+02  0.34840307020E+02 -0.41145364079E+02  0.61742481845E+02  0.47000000000E+01 0. -1.
<mgrwt>
<rscale>  0 0.13578071E+03</rscale>
<asrwt>0</asrwt>
<pdfrwt beam="2">  1        5 0.21804692E-01 0.13578071E+03</pdfrwt>
<pdfrwt beam="1">  1       -5 0.20565393E-01 0.13578071E+03</pdfrwt>
<totfact> 0.31365544E+02</totfact>
</mgrwt>
</event>
<event>
 8    1  0.3542708E-007  0.1275070E+03  0.7546771E-02  0.1231203E+00
          5   -1    0    0  501    0  0.00000000000E+00  0.00000000000E+00  0.12532637103E+03  0.12541446996E+03  0.47000000000E+01 0. -1.
         -5   -1    0    0    0  501 -0.00000000000E+00 -0.00000000000E+00 -0.12982016025E+03  0.12990521163E+03  0.47000000000E+01 0. -1.
         25    2    1    2    0    0 -0.24583524435E+02 -0.53479815979E+01 -0.80789858789E+01  0.12776232362E+03  0.12499996298E+03 0.  0.
         25    2    1    2    0    0  0.24583524435E+02  0.53479815979E+01  0.35851966579E+01  0.12755735796E+03  0.12500030142E+03 0.  0.
          5    1    4    4  502    0 -0.18995583824E+02 -0.38579816537E+02 -0.33987728278E+02  0.55013544899E+02  0.47000000000E+01 0.  1.
         -5    1    4    4    0  502  0.43579108259E+02  0.43927798135E+02  0.37572924936E+02  0.72543813064E+02  0.47000000000E+01 0.  1.
          5    1    3    3  503    0  0.20667548092E+02 -0.14221735618E+02  0.48388066035E+02  0.54707405740E+02  0.47000000000E+01 0. -1.
         -5    1    3    3    0  503 -0.45251072527E+02  0.88737540198E+01 -0.56467051914E+02  0.73054917885E+02  0.47000000000E+01 0. -1.
<mgrwt>
<rscale>  0 0.12750688E+03</rscale>
<asrwt>0</asrwt>
<pdfrwt beam="1">  1        5 0.19294300E-01 0.12750696E+03</pdfrwt>
<pdfrwt beam="2">  1       -5 0.19985651E-01 0.12750696E+03</pdfrwt>
<totfact> 0.40660072E+02</totfact>
</mgrwt>
</event>
<event>
 8    1  0.3542708E-007  0.1688578E+03  0.7546771E-02  0.1179045E+00
          5   -1    0    0  501    0  0.00000000000E+00  0.00000000000E+00  0.38203062559E+02  0.38491089734E+02  0.47000000000E+01 0.  1.
         -5   -1    0    0    0  501 -0.00000000000E+00 -0.00000000000E+00 -0.16938135012E+04  0.16938200220E+04  0.47000000000E+01 0.  1.
         25    2    1    2    0    0 -0.70705638788E+02 -0.88816533103E+02 -0.14766197418E+04  0.14862431870E+04  0.12500113977E+03 0.  0.
         25    2    1    2    0    0  0.70705638788E+02  0.88816533103E+02 -0.17899069681E+03  0.24606792474E+03  0.12499636047E+03 0.  0.
          5    1    3    3  502    0 -0.77451386258E+02 -0.26053346599E+02 -0.11854468119E+04  0.11882692153E+04  0.47000000000E+01 0.  1.
         -5    1    3    3    0  502  0.67457474700E+01 -0.62763186504E+02 -0.29117292988E+03  0.29797397165E+03  0.47000000000E+01 0.  1.
          5    1    4    4  503    0  0.82065998311E+02  0.12210393726E+02 -0.54500609769E+02  0.99379717542E+02  0.47000000000E+01 0. -1.
         -5    1    4    4    0  503 -0.11360359522E+02  0.76606139377E+02 -0.12449008704E+03  0.14668820719E+03  0.47000000000E+01 0. -1.
<mgrwt>
<rscale>  0 0.16885689E+03</rscale>
<asrwt>0</asrwt>
<pdfrwt beam="1">  1        5 0.59000531E-02 0.16885778E+03</pdfrwt>
<pdfrwt beam="2">  1       -5 0.26060929E+00 0.16885778E+03</pdfrwt>
<totfact> 0.73985911E+00</totfact>
</mgrwt>
</event>
<event>
 8    1  0.3542708E-007  0.1393969E+03  0.7546771E-02  0.1214151E+00
         -5   -1    0    0    0  501 -0.00000000000E+00  0.00000000000E+00  0.48390598578E+02  0.48618309625E+02  0.47000000000E+01 0.  1.
          5   -1    0    0  501    0  0.00000000000E+00 -0.00000000000E+00 -0.43312255822E+03  0.43314805833E+03  0.47000000000E+01 0.  1.
         25    2    1    2    0    0 -0.49789016533E+02 -0.36348664593E+02 -0.12606496369E+03  0.18792948268E+03  0.12499977522E+03 0.  0.
         25    2    1    2    0    0  0.49789016533E+02  0.36348664593E+02 -0.25866699595E+03  0.29383688528E+03  0.12502531253E+03 0.  0.
          5    1    4    4  502    0 -0.38575205553E+02 -0.91101008157E+01 -0.73913621091E+02  0.84002105944E+02  0.47000000000E+01 0.  1.
         -5    1    4    4    0  502  0.88364222086E+02  0.45458765409E+02 -0.18475337486E+03  0.20983477933E+03  0.47000000000E+01 0.  1.
          5    1    3    3  503    0 -0.75900910542E+02 -0.16382000470E+02 -0.25248778425E+02  0.81785750424E+02  0.47000000000E+01 0.  1.
         -5    1    3    3    0  503  0.26111894009E+02 -0.19966664124E+02 -0.10081618527E+03  0.10614373225E+03  0.47000000000E+01 0.  1.
<mgrwt>
<rscale>  0 0.13939119E+03</rscale>
<asrwt>0</asrwt>
<pdfrwt beam="2">  1        5 0.66653715E-01 0.13939692E+03</pdfrwt>
<pdfrwt beam="1">  1       -5 0.74641855E-02 0.13939692E+03</pdfrwt>
<totfact> 0.19711996E+02</totfact>
</mgrwt>
</event>
<event>
 8    1  0.3542708E-007  0.1283520E+03  0.7546771E-02  0.1229933E+00
          5   -1    0    0  501    0  0.00000000000E+00  0.00000000000E+00  0.75038069730E+02  0.75185117602E+02  0.47000000000E+01 0.  1.
         -5   -1    0    0    0  501 -0.00000000000E+00 -0.00000000000E+00 -0.22013762964E+03  0.22018779708E+03  0.47000000000E+01 0.  1.
         25    2    1    2    0    0  0.29172414951E+02 -0.24237759388E+00 -0.82632037720E+02  0.15262688532E+03  0.12496329030E+03 0.  0.
         25    2    1    2    0    0 -0.29172414951E+02  0.24237759388E+00 -0.62467522188E+02  0.14274602936E+03  0.12499259590E+03 0.  0.
          5    1    4    4  502    0 -0.31869286346E+02  0.59240154498E+02 -0.21735604444E+02  0.70848950717E+02  0.47000000000E+01 0. -1.
         -5    1    4    4    0  502  0.26968713955E+01 -0.58997776904E+02 -0.40731917744E+02  0.71897078647E+02  0.47000000000E+01 0. -1.
          5    1    3    3  503    0  0.41333854771E+02 -0.96982739912E+01 -0.11159278779E+03  0.11948884615E+03  0.47000000000E+01 0.  1.
         -5    1    3    3    0  503 -0.12161439820E+02  0.94558963974E+01  0.28960750068E+02  0.33138039164E+02  0.47000000000E+01 0.  1.
<mgrwt>
<rscale>  0 0.12834487E+03</rscale>
<asrwt>0</asrwt>
<pdfrwt beam="1">  1        5 0.11559489E-01 0.12835201E+03</pdfrwt>
<pdfrwt beam="2">  1       -5 0.33882498E-01 0.12835201E+03</pdfrwt>
<totfact> 0.37256062E+02</totfact>
</mgrwt>
</event>
<event>
 8    1  0.3542708E-007  0.1853485E+03  0.7546771E-02  0.1162735E+00
          5   -1    0    0  501    0  0.00000000000E+00  0.00000000000E+00  0.44923983424E+02  0.45169174075E+02  0.47000000000E+01 0.  1.
         -5   -1    0    0    0  501 -0.00000000000E+00 -0.00000000000E+00 -0.76370030576E+03  0.76371476810E+03  0.47000000000E+01 0.  1.
         25    2    1    2    0    0 -0.25440033282E+02  0.13447436867E+03 -0.34154049945E+03  0.38859228100E+03  0.12499398771E+03 0.  0.
         25    2    1    2    0    0  0.25440033282E+02 -0.13447436867E+03 -0.37723582288E+03  0.42029166118E+03  0.12493063382E+03 0.  0.
          5    1    4    4  502    0 -0.37223107386E+02 -0.10962925816E+03 -0.26597261448E+03  0.29011662417E+03  0.47000000000E+01 0.  1.
         -5    1    4    4    0  502  0.62663140669E+02 -0.24845110510E+02 -0.11126320840E+03  0.13017503700E+03  0.47000000000E+01 0.  1.
          5    1    3    3  503    0 -0.75390089048E+02  0.65560275491E+02 -0.17845824728E+03  0.20457578369E+03  0.47000000000E+01 0. -1.
         -5    1    3    3    0  503  0.49950055765E+02  0.68914093180E+02 -0.16308225217E+03  0.18401649731E+03  0.47000000000E+01 0. -1.
<mgrwt>
<rscale>  0 0.18533777E+03</rscale>
<asrwt>0</asrwt>
<pdfrwt beam="1">  1        5 0.69313559E-02 0.18534845E+03</pdfrwt>
<pdfrwt beam="2">  1       -5 0.11751232E+00 0.18534845E+03</pdfrwt>
<totfact> 0.63300962E+01</totfact>
</mgrwt>
</event>
<event>
 8    1  0.3542708E-007  0.1333780E+03  0.7546771E-02  0.1222542E+00
          5   -1    0    0  501    0  0.00000000000E+00  0.00000000000E+00  0.35964734646E+03  0.35967805578E+03  0.47000000000E+01 0.  1.
         -5   -1    0    0    0  501 -0.00000000000E+00 -0.00000000000E+00 -0.54331510351E+02  0.54534420479E+02  0.47000000000E+01 0.  1.
         25    2    1    2    0    0  0.40714235540E+02 -0.22292008108E+02  0.89783169373E+02  0.16074841757E+03  0.12499781457E+03 0.  0.
         25    2    1    2    0    0 -0.40714235540E+02  0.22292008108E+02  0.21553266673E+03  0.25346405869E+03  0.12504045753E+03 0.  0.
          5    1    4    4  502    0 -0.63662391969E+02  0.23327716944E+02  0.45423099054E+02  0.81746134200E+02  0.47000000000E+01 0. -1.
         -5    1    4    4    0  502  0.22948156429E+02 -0.10357088359E+01  0.17010956768E+03  0.17171792449E+03  0.47000000000E+01 0. -1.
          5    1    3    3  503    0 -0.12497754612E+02 -0.38783313834E+01 -0.27359829869E+02  0.30690155019E+02  0.47000000000E+01 0.  1.
         -5    1    3    3    0  503  0.53211990152E+02 -0.18413676725E+02  0.11714299924E+03  0.13005826255E+03  0.47000000000E+01 0.  1.
<mgrwt>
<rscale>  0 0.13336803E+03</rscale>
<asrwt>0</asrwt>
<pdfrwt beam="1">  1        5 0.55348331E-01 0.13337803E+03</pdfrwt>
<pdfrwt beam="2">  1       -5 0.83766647E-02 0.13337803E+03</pdfrwt>
<totfact> 0.23962709E+02</totfact>
</mgrwt>
</event>
<event>
 8    1  0.3542708E-007  0.1297270E+03  0.7546771E-02  0.1227863E+00
          5   -1    0    0  501    0  0.00000000000E+00  0.00000000000E+00  0.80097200305E+03  0.80098579243E+03  0.47000000000E+01 0. -1.
         -5   -1    0    0    0  501 -0.00000000000E+00 -0.00000000000E+00 -0.27186846269E+02  0.27590117979E+02  0.47000000000E+01 0. -1.
         25    2    1    2    0    0  0.26893236857E+02  0.21905027528E+02  0.18680000993E+03  0.22742764183E+03  0.12500404850E+03 0.  0.
         25    2    1    2    0    0 -0.26893236857E+02 -0.21905027528E+02  0.58698514686E+03  0.60114826858E+03  0.12499840704E+03 0.  0.
          5    1    4    4  502    0 -0.13977113918E+00  0.39714271888E+02  0.77285921601E+02  0.87019805822E+02  0.47000000000E+01 0. -1.
         -5    1    4    4    0  502 -0.26753465717E+02 -0.61619299416E+02  0.50969922526E+03  0.51412846275E+03  0.47000000000E+01 0. -1.
          5    1    3    3  503    0 -0.17248372512E+02  0.60924958651E+02  0.59227575067E+02  0.86829445405E+02  0.47000000000E+01 0.  1.
         -5    1    3    3    0  503  0.44141609369E+02 -0.39019931123E+02  0.12757243486E+03  0.14059819643E+03  0.47000000000E+01 0.  1.
<mgrwt>
<rscale>  0 0.12972562E+03</rscale>
<asrwt>0</asrwt>
<pdfrwt beam="1">  1        5 0.12325856E+00 0.12972698E+03</pdfrwt>
<pdfrwt beam="2">  1       -5 0.42146727E-02 0.12972698E+03</pdfrwt>
<totfact> 0.11576800E+02</totfact>
</mgrwt>
</event>
<event>
 8    1  0.3542708E-007  0.1266461E+03  0.7546771E-02  0.1232551E+00
          5   -1    0    0  501    0  0.00000000000E+00  0.00000000000E+00  0.54060734171E+03  0.54062777205E+03  0.47000000000E+01 0.  1.
         -5   -1    0    0    0  501 -0.00000000000E+00 -0.00000000000E+00 -0.30451097284E+02  0.30811675154E+02  0.47000000000E+01 0.  1.
         25    2    1    2    0    0 -0.92137345035E+01 -0.18104671588E+02  0.20330224007E+03  0.23947768128E+03  0.12492032252E+03 0.  0.
         25    2    1    2    0    0  0.92137345035E+01  0.18104671588E+02  0.30685400435E+03  0.33196176592E+03  0.12500624787E+03 0.  0.
          5    1    3    3  502    0 -0.26931948125E+02  0.89840171930E+01 -0.44912889433E+01  0.29125660011E+02  0.47000000000E+01 0.  1.
         -5    1    3    3    0  502  0.17718213621E+02 -0.27088688781E+02  0.20779352901E+03  0.21035202127E+03  0.47000000000E+01 0.  1.
          5    1    4    4  503    0  0.41559260769E+02  0.40926079422E+02  0.27436360695E+03  0.28053448086E+03  0.47000000000E+01 0. -1.
         -5    1    4    4    0  503 -0.32345526265E+02 -0.22821407833E+02  0.32490397403E+02  0.51427285056E+02  0.47000000000E+01 0. -1.
<mgrwt>
<rscale>  0 0.12662489E+03</rscale>
<asrwt>0</asrwt>
<pdfrwt beam="1">  1        5 0.83199666E-01 0.12664610E+03</pdfrwt>
<pdfrwt beam="2">  1       -5 0.47140927E-02 0.12664610E+03</pdfrwt>
<totfact> 0.24884035E+02</totfact>
</mgrwt>
</event>
<event>
 8    1  0.3542708E-007  0.1393945E+03  0.7546771E-02  0.1214148E+00
          5   -1    0    0  501    0  0.00000000000E+00  0.00000000000E+00  0.13666841368E+03  0.13674920584E+03  0.47000000000E+01 0. -1.
         -5   -1    0    0    0  501 -0.00000000000E+00 -0.00000000000E+00 -0.18103244005E+03  0.18109344094E+03  0.47000000000E+01 0. -1.
         25    2    1    2    0    0 -0.53199414814E+02 -0.31245760800E+02 -0.95936635317E+02  0.16921371112E+03  0.12499186666E+03 0.  0.
         25    2    1    2    0    0  0.53199414814E+02  0.31245760800E+02  0.51572608949E+02  0.14862893566E+03  0.12499740484E+03 0.  0.
          5    1    4    4  502    0 -0.35524973396E+00  0.19496807837E+02 -0.38307224182E+02  0.43241012276E+02  0.47000000000E+01 0. -1.
         -5    1    4    4    0  502  0.53554664548E+02  0.11748952963E+02  0.89879833131E+02  0.10538792338E+03  0.47000000000E+01 0. -1.
          5    1    3    3  503    0 -0.49739299237E+02  0.26160947108E+01  0.15679047154E+02  0.52428659717E+02  0.47000000000E+01 0.  1.
         -5    1    3    3    0  503 -0.34601155772E+01 -0.33861855510E+02 -0.11161568247E+03  0.11678505141E+03  0.47000000000E+01 0.  1.
<mgrwt>
<rscale>  0 0.13939326E+03</rscale>
<asrwt>0</asrwt>
<pdfrwt beam="1">  1        5 0.21036817E-01 0.13939450E+03</pdfrwt>
<pdfrwt beam="2">  1       -5 0.27862052E-01 0.13939450E+03</pdfrwt>
<totfact> 0.18975599E+02</totfact>
</mgrwt>
</event>
<event>
 8    1  0.3542708E-007  0.1698632E+03  0.7546771E-02  0.1177993E+00
          5   -1    0    0  501    0  0.00000000000E+00  0.00000000000E+00  0.74320120995E+02  0.74468586563E+02  0.47000000000E+01 0. -1.
         -5   -1    0    0    0  501 -0.00000000000E+00 -0.00000000000E+00 -0.49866329261E+03  0.49868544134E+03  0.47000000000E+01 0. -1.
         25    2    1    2    0    0 -0.87466591936E+02 -0.74685417455E+02 -0.34735100405E+03  0.38665655912E+03  0.12498903317E+03 0.  0.
         25    2    1    2    0    0  0.87466591936E+02  0.74685417455E+02 -0.76992167570E+02  0.18649746878E+03  0.12500078283E+03 0.  0.
          5    1    4    4  502    0  0.96214067210E+02  0.97663032484E+02 -0.41976951008E+02  0.14345511165E+03  0.47000000000E+01 0.  1.
         -5    1    4    4    0  502 -0.87474752735E+01 -0.22977615029E+02 -0.35015216562E+02  0.43042357125E+02  0.47000000000E+01 0.  1.
          5    1    3    3  503    0 -0.11736439924E+03 -0.48416053375E+02 -0.29084276302E+03  0.31738008639E+03  0.47000000000E+01 0. -1.
         -5    1    3    3    0  503  0.29897807300E+02 -0.26269364081E+02 -0.56508241028E+02  0.69276472735E+02  0.47000000000E+01 0. -1.
<mgrwt>
<rscale>  0 0.16986105E+03</rscale>
<asrwt>0</asrwt>
<pdfrwt beam="1">  1        5 0.11446989E-01 0.16986322E+03</pdfrwt>
<pdfrwt beam="2">  1       -5 0.76730552E-01 0.16986322E+03</pdfrwt>
<totfact> 0.72460722E+01</totfact>
</mgrwt>
</event>
<event>
 8    1  0.3542708E-007  0.1266641E+03  0.7546771E-02  0.1232491E+00
          5   -1    0    0  501    0  0.00000000000E+00  0.00000000000E+00  0.43223124631E+02  0.43477908217E+02  0.47000000000E+01 0.  1.
         -5   -1    0    0    0  501 -0.00000000000E+00 -0.00000000000E+00 -0.37375616357E+03  0.37378571375E+03  0.47000000000E+01 0.  1.
         25    2    1    2    0    0 -0.78340883057E+01 -0.18924325868E+02 -0.14387409641E+03  0.19168579090E+03  0.12499673503E+03 0.  0.
         25    2    1    2    0    0  0.78340883057E+01  0.18924325868E+02 -0.18665894253E+03  0.22557783106E+03  0.12499717594E+03 0.  0.
          5    1    4    4  502    0  0.99568374457E+01 -0.52391308269E+02 -0.62426752355E+02  0.82238538433E+02  0.47000000000E+01 0. -1.
         -5    1    4    4    0  502 -0.21227491399E+01  0.71315634137E+02 -0.12423219017E+03  0.14333929263E+03  0.47000000000E+01 0. -1.
          5    1    3    3  503    0 -0.40250161676E+02 -0.60775651073E+02 -0.75038570654E+02  0.10472169004E+03  0.47000000000E+01 0.  1.
         -5    1    3    3    0  503  0.32416073371E+02  0.41851325204E+02 -0.68835525752E+02  0.86964100868E+02  0.47000000000E+01 0.  1.
<mgrwt>
<rscale>  0 0.12666400E+03</rscale>
<asrwt>0</asrwt>
<pdfrwt beam="1">  1        5 0.66715836E-02 0.12666411E+03</pdfrwt>
<pdfrwt beam="2">  1       -5 0.57522818E-01 0.12666411E+03</pdfrwt>
<totfact> 0.31899763E+02</totfact>
</mgrwt>
</event>
<event>
 8    1  0.3542708E-007  0.1852868E+03  0.7546771E-02  0.1162786E+00
         -5   -1    0    0    0  501 -0.00000000000E+00  0.00000000000E+00  0.13519822604E+04  0.13519904299E+04  0.47000000000E+01 0.  1.
          5   -1    0    0  501    0  0.00000000000E+00 -0.00000000000E+00 -0.25313379327E+02  0.25746012758E+02  0.47000000000E+01 0.  1.
         25    2    1    2    0    0 -0.13085829032E+03 -0.39766006767E+02  0.71560760456E+03  0.73920596226E+03  0.12500393395E+03 0.  0.
         25    2    1    2    0    0  0.13085829032E+03  0.39766006767E+02  0.61106127654E+03  0.63853048038E+03  0.12498025144E+03 0.  0.
          5    1    3    3  502    0 -0.29269319692E+02 -0.25365221053E+02  0.40151123752E+02  0.55984732319E+02  0.47000000000E+01 0.  1.
         -5    1    3    3    0  502 -0.10158897063E+03 -0.14400785714E+02  0.67545648081E+03  0.68322122994E+03  0.47000000000E+01 0.  1.
          5    1    4    4  503    0  0.69990375297E+02 -0.11145335019E+02  0.48014639962E+03  0.48537153419E+03  0.47000000000E+01 0.  1.
         -5    1    4    4    0  503  0.60867915022E+02  0.50911341786E+02  0.13091487692E+03  0.15315894620E+03  0.47000000000E+01 0.  1.
<mgrwt>
<rscale>  0 0.18528284E+03</rscale>
<asrwt>0</asrwt>
<pdfrwt beam="2">  1        5 0.39282728E-02 0.18528683E+03</pdfrwt>
<pdfrwt beam="1">  1       -5 0.20803124E+00 0.18528683E+03</pdfrwt>
<totfact> 0.32612964E+01</totfact>
</mgrwt>
</event>
<event>
 8    1  0.3542708E-007  0.1738604E+03  0.7546771E-02  0.1173885E+00
         -5   -1    0    0    0  501 -0.00000000000E+00  0.00000000000E+00  0.18196363145E+03  0.18202432027E+03  0.47000000000E+01 0.  1.
          5   -1    0    0  501    0  0.00000000000E+00 -0.00000000000E+00 -0.17519504405E+03  0.17525807673E+03  0.47000000000E+01 0.  1.
         25    2    1    2    0    0 -0.49823458979E+02  0.11009014866E+03  0.44334518615E+02  0.17940983359E+03  0.12498048228E+03 0.  0.
         25    2    1    2    0    0  0.49823458979E+02 -0.11009014866E+03 -0.37565931220E+02  0.17787256341E+03  0.12500092691E+03 0.  0.
          5    1    4    4  502    0 -0.31996304503E+02 -0.10694896654E+02  0.16878687108E+02  0.38014791789E+02  0.47000000000E+01 0. -1.
         -5    1    4    4    0  502  0.81819763482E+02 -0.99395252005E+02 -0.54444618328E+02  0.13985777162E+03  0.47000000000E+01 0. -1.
          5    1    3    3  503    0  0.40905412957E+02  0.42524412878E+02  0.44092646358E+01  0.59355792594E+02  0.47000000000E+01 0. -1.
         -5    1    3    3    0  503 -0.90728871936E+02  0.67565735781E+02  0.39925253980E+02  0.12005404100E+03  0.47000000000E+01 0. -1.
<mgrwt>
<rscale>  0 0.17385676E+03</rscale>
<asrwt>0</asrwt>
<pdfrwt beam="2">  1        5 0.26962601E-01 0.17386043E+03</pdfrwt>
<pdfrwt beam="1">  1       -5 0.28003922E-01 0.17386043E+03</pdfrwt>
<totfact> 0.12546073E+02</totfact>
</mgrwt>
</event>
<event>
 8    1  0.3542708E-007  0.3101373E+03  0.7546771E-02  0.1080280E+00
          5   -1    0    0  501    0  0.00000000000E+00  0.00000000000E+00  0.13887956632E+03  0.13895907290E+03  0.47000000000E+01 0.  1.
         -5   -1    0    0    0  501 -0.00000000000E+00 -0.00000000000E+00 -0.86048400581E+03  0.86049684151E+03  0.47000000000E+01 0.  1.
         25    2    1    2    0    0  0.19787971301E+03  0.20347894784E+03 -0.58172713496E+03  0.65923564439E+03  0.12500044896E+03 0.  0.
         25    2    1    2    0    0 -0.19787971301E+03 -0.20347894784E+03 -0.13987730453E+03  0.34022027002E+03  0.12499643505E+03 0.  0.
          5    1    4    4  502    0 -0.74889319324E+02 -0.12177039095E+03 -0.12811339661E+03  0.19201971423E+03  0.47000000000E+01 0.  1.
         -5    1    4    4    0  502 -0.12299039368E+03 -0.81708556889E+02 -0.11763907920E+02  0.14820055579E+03  0.47000000000E+01 0.  1.
          5    1    3    3  503    0  0.78248596680E+02  0.46682611120E+02 -0.31197584417E+03  0.32504326852E+03  0.47000000000E+01 0.  1.
         -5    1    3    3    0  503  0.11963111633E+03  0.15679633672E+03 -0.26975129079E+03  0.33419237587E+03  0.47000000000E+01 0.  1.
<mgrwt>
<rscale>  0 0.31013694E+03</rscale>
<asrwt>0</asrwt>
<pdfrwt beam="1">  1        5 0.21373191E-01 0.31013735E+03</pdfrwt>
<pdfrwt beam="2">  1       -5 0.13238926E+00 0.31013735E+03</pdfrwt>
<totfact> 0.68690804E+00</totfact>
</mgrwt>
</event>
<event>
 8    1  0.3542708E-007  0.1622616E+03  0.7546771E-02  0.1186170E+00
         -5   -1    0    0    0  501 -0.00000000000E+00  0.00000000000E+00  0.66563684919E+03  0.66565344212E+03  0.47000000000E+01 0. -1.
          5   -1    0    0  501    0  0.00000000000E+00 -0.00000000000E+00 -0.40542274638E+02  0.40813797089E+02  0.47000000000E+01 0. -1.
         25    2    1    2    0    0  0.98423813883E+02 -0.31847451952E+02  0.37177843031E+03  0.40564518131E+03  0.12500921781E+03 0.  0.
         25    2    1    2    0    0 -0.98423813883E+02  0.31847451952E+02  0.25331614424E+03  0.30082205790E+03  0.12499333682E+03 0.  0.
          5    1    4    4  502    0 -0.58374630357E+02  0.47986250502E+01  0.19339955454E+02  0.61860715714E+02  0.47000000000E+01 0.  1.
         -5    1    4    4    0  502 -0.40049183526E+02  0.27048826902E+02  0.23397618879E+03  0.23896134218E+03  0.47000000000E+01 0.  1.
          5    1    3    3  503    0  0.20051628909E+02 -0.69165512128E+02  0.20899977303E+03  0.22110841462E+03  0.47000000000E+01 0.  1.
         -5    1    3    3    0  503  0.78372184974E+02  0.37318060176E+02  0.16277865728E+03  0.18453676669E+03  0.47000000000E+01 0.  1.
<mgrwt>
<rscale>  0 0.16225850E+03</rscale>
<asrwt>0</asrwt>
<pdfrwt beam="2">  1        5 0.62594360E-02 0.16226155E+03</pdfrwt>
<pdfrwt beam="1">  1       -5 0.10242783E+00 0.16226155E+03</pdfrwt>
<totfact> 0.10220247E+02</totfact>
</mgrwt>
</event>
<event>
 8    1  0.3542708E-007  0.1265709E+03  0.7546771E-02  0.1232638E+00
         -5   -1    0    0    0  501 -0.00000000000E+00  0.00000000000E+00  0.76247061959E+02  0.76391782656E+02  0.47000000000E+01 0. -1.
          5   -1    0    0  501    0  0.00000000000E+00 -0.00000000000E+00 -0.21702084994E+03  0.21707173771E+03  0.47000000000E+01 0. -1.
         25    2    1    2    0    0 -0.15575344068E+02 -0.12296342428E+02 -0.43495210090E+02  0.13383584002E+03  0.12500562944E+03 0.  0.
         25    2    1    2    0    0  0.15575344068E+02  0.12296342428E+02 -0.97278577895E+02  0.15962768035E+03  0.12499633289E+03 0.  0.
          5    1    3    3  502    0 -0.46709065541E+01 -0.25172514022E+02  0.40439638864E+02  0.48092901989E+02  0.47000000000E+01 0. -1.
         -5    1    3    3    0  502 -0.10904437514E+02  0.12876171594E+02 -0.83934848954E+02  0.85742938026E+02  0.47000000000E+01 0. -1.
          5    1    4    4  503    0  0.44085654570E+01 -0.54364966505E+02 -0.63755031396E+02  0.84034392131E+02  0.47000000000E+01 0.  1.
         -5    1    4    4    0  503  0.11166778611E+02  0.66661308933E+02 -0.33523546499E+02  0.75593288215E+02  0.47000000000E+01 0.  1.
<mgrwt>
<rscale>  0 0.12656863E+03</rscale>
<asrwt>0</asrwt>
<pdfrwt beam="2">  1        5 0.33402870E-01 0.12657092E+03</pdfrwt>
<pdfrwt beam="1">  1       -5 0.11745364E-01 0.12657092E+03</pdfrwt>
<totfact> 0.37072388E+02</totfact>
</mgrwt>
</event>
<event>
 8    1  0.3542708E-007  0.1491065E+03  0.7546771E-02  0.1201578E+00
          5   -1    0    0  501    0  0.00000000000E+00  0.00000000000E+00  0.43005536669E+02  0.43261601729E+02  0.47000000000E+01 0. -1.
         -5   -1    0    0    0  501 -0.00000000000E+00 -0.00000000000E+00 -0.51530040214E+03  0.51532183579E+03  0.47000000000E+01 0. -1.
         25    2    1    2    0    0  0.32991801350E+02 -0.74281260002E+02 -0.23120161938E+03  0.27510735493E+03  0.12499481346E+03 0.  0.
         25    2    1    2    0    0 -0.32991801350E+02  0.74281260002E+02 -0.24109324609E+03  0.28347608259E+03  0.12500628602E+03 0.  0.
          5    1    3    3  502    0  0.52958308642E+02 -0.17325153946E+02 -0.19865654913E+03  0.20637649558E+03  0.47000000000E+01 0.  1.
         -5    1    3    3    0  502 -0.19966507291E+02 -0.56956106056E+02 -0.32545070244E+02  0.68730859355E+02  0.47000000000E+01 0.  1.
          5    1    4    4  503    0  0.52911039772E+01 -0.17839492114E+02 -0.14022171335E+03  0.14152901524E+03  0.47000000000E+01 0. -1.
         -5    1    4    4    0  503 -0.38282905328E+02  0.92120752116E+02 -0.10087153274E+03  0.14194706734E+03  0.47000000000E+01 0. -1.
<mgrwt>
<rscale>  0 0.14910405E+03</rscale>
<asrwt>0</asrwt>
<pdfrwt beam="1">  1        5 0.66375828E-02 0.14910646E+03</pdfrwt>
<pdfrwt beam="2">  1       -5 0.79298327E-01 0.14910646E+03</pdfrwt>
<totfact> 0.16580161E+02</totfact>
</mgrwt>
</event>
<event>
 8    1  0.3542708E-007  0.1732928E+03  0.7546771E-02  0.1174460E+00
          5   -1    0    0  501    0  0.00000000000E+00  0.00000000000E+00  0.56851113540E+03  0.56853056300E+03  0.47000000000E+01 0. -1.
         -5   -1    0    0    0  501 -0.00000000000E+00 -0.00000000000E+00 -0.76115740993E+02  0.76260710899E+02  0.47000000000E+01 0. -1.
         25    2    1    2    0    0  0.94127924610E+02  0.74446075816E+02  0.67582655756E+02  0.18599254765E+03  0.12499411196E+03 0.  0.
         25    2    1    2    0    0 -0.94127924610E+02 -0.74446075816E+02  0.42481273865E+03  0.45879872626E+03  0.12501249498E+03 0.  0.
          5    1    3    3  502    0 -0.29910698030E+02  0.97065330832E+01  0.22371291762E+02  0.38877131276E+02  0.47000000000E+01 0. -1.
         -5    1    3    3    0  502  0.12403862264E+03  0.64739542733E+02  0.45211363994E+02  0.14711541637E+03  0.47000000000E+01 0. -1.
          5    1    4    4  503    0 -0.66296897318E+02 -0.58193862216E+02  0.41569340742E+03  0.42497635601E+03  0.47000000000E+01 0.  1.
         -5    1    4    4    0  503 -0.27831027293E+02 -0.16252213600E+02  0.91193312273E+01  0.33822370247E+02  0.47000000000E+01 0.  1.
<mgrwt>
<rscale>  0 0.17328952E+03</rscale>
<asrwt>0</asrwt>
<pdfrwt beam="1">  1        5 0.87475895E-01 0.17329284E+03</pdfrwt>
<pdfrwt beam="2">  1       -5 0.11722760E-01 0.17329284E+03</pdfrwt>
<totfact> 0.51433343E+01</totfact>
</mgrwt>
</event>
<event>
 8    1  0.3542708E-007  0.1614623E+03  0.7546771E-02  0.1187064E+00
         -5   -1    0    0    0  501 -0.00000000000E+00  0.00000000000E+00  0.43962625530E+03  0.43965137820E+03  0.47000000000E+01 0. -1.
          5   -1    0    0  501    0  0.00000000000E+00 -0.00000000000E+00 -0.60367430735E+02  0.60550117205E+02  0.47000000000E+01 0. -1.
         25    2    1    2    0    0  0.10185022390E+03  0.78750412203E+01  0.22481326011E+03  0.27678703208E+03  0.12503829345E+03 0.  0.
         25    2    1    2    0    0 -0.10185022390E+03 -0.78750412203E+01  0.15444556446E+03  0.22341446332E+03  0.12500042262E+03 0.  0.
          5    1    3    3  502    0  0.63431118894E+02 -0.41663649782E+02  0.49972420129E+02  0.90987358082E+02  0.47000000000E+01 0.  1.
         -5    1    3    3    0  502  0.38419105003E+02  0.49538691002E+02  0.17484083998E+03  0.18579967400E+03  0.47000000000E+01 0.  1.
          5    1    4    4  503    0 -0.81659457244E+01 -0.28576872578E+02  0.11618111813E+03  0.12001442632E+03  0.47000000000E+01 0.  1.
         -5    1    4    4    0  503 -0.93684278173E+02  0.20701831357E+02  0.38264446340E+02  0.10340003700E+03  0.47000000000E+01 0.  1.
<mgrwt>
<rscale>  0 0.16145492E+03</rscale>
<asrwt>0</asrwt>
<pdfrwt beam="2">  1        5 0.93032827E-02 0.16146225E+03</pdfrwt>
<pdfrwt beam="1">  1       -5 0.67650792E-01 0.16146225E+03</pdfrwt>
<totfact> 0.13681374E+02</totfact>
</mgrwt>
</event>
<event>
 8    1  0.3542708E-007  0.1631833E+03  0.7546771E-02  0.1185150E+00
          5   -1    0    0  501    0  0.00000000000E+00  0.00000000000E+00  0.32876140082E+02  0.33210398774E+02  0.47000000000E+01 0.  1.
         -5   -1    0    0    0  501 -0.00000000000E+00 -0.00000000000E+00 -0.81356837361E+03  0.81358194949E+03  0.47000000000E+01 0.  1.
         25    2    1    2    0    0 -0.84863376068E+02  0.61654626644E+02 -0.43244916585E+03  0.46221323834E+03  0.12500284425E+03 0.  0.
         25    2    1    2    0    0  0.84863376068E+02 -0.61654626644E+02 -0.34824306768E+03  0.38457910993E+03  0.12499908807E+03 0.  0.
          5    1    4    4  502    0  0.73416819788E+02 -0.34311239227E+02 -0.77673812389E+02  0.11235035245E+03  0.47000000000E+01 0.  1.
         -5    1    4    4    0  502  0.11446556280E+02 -0.27343387417E+02 -0.27056925529E+03  0.27222875748E+03  0.47000000000E+01 0.  1.
          5    1    3    3  503    0 -0.33297985096E+02 -0.21536412658E+02 -0.35772117948E+02  0.53612566662E+02  0.47000000000E+01 0.  1.
         -5    1    3    3    0  503 -0.51565390972E+02  0.83191039302E+02 -0.39667704790E+03  0.40860067168E+03  0.47000000000E+01 0.  1.
<mgrwt>
<rscale>  0 0.16318260E+03</rscale>
<asrwt>0</asrwt>
<pdfrwt beam="1">  1        5 0.50846248E-02 0.16318332E+03</pdfrwt>
<pdfrwt beam="2">  1       -5 0.12519111E+00 0.16318332E+03</pdfrwt>
<totfact> 0.87528443E+01</totfact>
</mgrwt>
</event>
<event>
 8    1  0.3542708E-007  0.1745529E+03  0.7546771E-02  0.1173182E+00
         -5   -1    0    0    0  501 -0.00000000000E+00  0.00000000000E+00  0.20033268343E+04  0.20033323476E+04  0.47000000000E+01 0.  1.
          5   -1    0    0  501    0  0.00000000000E+00 -0.00000000000E+00 -0.15726392900E+02  0.16413696526E+02  0.47000000000E+01 0.  1.
         25    2    1    2    0    0 -0.10144505591E+03  0.67462566992E+02  0.12283193822E+04  0.12406599968E+04  0.12500570309E+03 0.  0.
         25    2    1    2    0    0  0.10144505591E+03 -0.67462566992E+02  0.75928105926E+03  0.77908604735E+03  0.12500017964E+03 0.  0.
          5    1    3    3  502    0 -0.73355527749E+02  0.10230718966E+03  0.78258514125E+03  0.79265969231E+03  0.47000000000E+01 0. -1.
         -5    1    3    3    0  502 -0.28089528156E+02 -0.34844622669E+02  0.44573424090E+03  0.44800030450E+03  0.47000000000E+01 0. -1.
          5    1    4    4  503    0  0.91099531557E+02 -0.77039903438E+02  0.35518626717E+03  0.37471808837E+03  0.47000000000E+01 0.  1.
         -5    1    4    4    0  503  0.10345524348E+02  0.95773364466E+01  0.40409479209E+03  0.40436795898E+03  0.47000000000E+01 0.  1.
<mgrwt>
<rscale>  0 0.17455193E+03</rscale>
<asrwt>0</asrwt>
<pdfrwt beam="2">  1        5 0.24727397E-02 0.17455292E+03</pdfrwt>
<pdfrwt beam="1">  1       -5 0.30825729E+00 0.17455292E+03</pdfrwt>
<totfact> 0.15478229E+01</totfact>
</mgrwt>
</event>
<event>
 8    1  0.3542708E-007  0.1421739E+03  0.7546771E-02  0.1210433E+00
          5   -1    0    0  501    0  0.00000000000E+00  0.00000000000E+00  0.19362292843E+03  0.19367996390E+03  0.47000000000E+01 0. -1.
         -5   -1    0    0    0  501 -0.00000000000E+00 -0.00000000000E+00 -0.10429082948E+03  0.10439668153E+03  0.47000000000E+01 0. -1.
         25    2    1    2    0    0 -0.40160456935E+02  0.54544144327E+02  0.42575265396E+02  0.14841181523E+03  0.12500195076E+03 0.  0.
         25    2    1    2    0    0  0.40160456935E+02 -0.54544144327E+02  0.46756833554E+02  0.14966483019E+03  0.12500173571E+03 0.  0.
          5    1    4    4  502    0  0.55709570762E+02  0.20105044954E+02 -0.12706917925E+01  0.59426204360E+02  0.47000000000E+01 0. -1.
         -5    1    4    4    0  502 -0.15549113827E+02 -0.74649189281E+02  0.48027525346E+02  0.90238625831E+02  0.47000000000E+01 0. -1.
          5    1    3    3  503    0 -0.51125922530E+01 -0.40136397177E+02  0.17138529404E+02  0.44191494295E+02  0.47000000000E+01 0. -1.
         -5    1    3    3    0  503 -0.35047864682E+02  0.94680541504E+02  0.25436735992E+02  0.10422032094E+03  0.47000000000E+01 0. -1.
<mgrwt>
<rscale>  0 0.14217384E+03</rscale>
<asrwt>0</asrwt>
<pdfrwt beam="1">  1        5 0.29800672E-01 0.14217389E+03</pdfrwt>
<pdfrwt beam="2">  1       -5 0.16057273E-01 0.14217389E+03</pdfrwt>
<totfact> 0.27608035E+02</totfact>
</mgrwt>
</event>
<event>
 8    1  0.3542708E-007  0.1428050E+03  0.7546771E-02  0.1209606E+00
         -5   -1    0    0    0  501 -0.00000000000E+00  0.00000000000E+00  0.24527785736E+03  0.24532288379E+03  0.47000000000E+01 0. -1.
          5   -1    0    0  501    0  0.00000000000E+00 -0.00000000000E+00 -0.88912375445E+02  0.89036512215E+02  0.47000000000E+01 0. -1.
         25    2    1    2    0    0 -0.63762028802E+02 -0.26480112678E+02  0.12118228842E+03  0.18729232539E+03  0.12500590161E+03 0.  0.
         25    2    1    2    0    0  0.63762028802E+02  0.26480112678E+02  0.35183193494E+02  0.14706707062E+03  0.12499629383E+03 0.  0.
          5    1    3    3  502    0  0.33569656380E+02 -0.30016648626E+02  0.39842805573E+02  0.60311360291E+02  0.47000000000E+01 0. -1.
         -5    1    3    3    0  502 -0.97331685182E+02  0.35365359478E+01  0.81339482847E+02  0.12698096510E+03  0.47000000000E+01 0. -1.
          5    1    4    4  503    0  0.42972990131E+02  0.68706980907E+02 -0.98334655003E+01  0.81768662396E+02  0.47000000000E+01 0.  1.
         -5    1    4    4    0  503  0.20789038671E+02 -0.42226868229E+02  0.45016658994E+02  0.65298408222E+02  0.47000000000E+01 0.  1.
<mgrwt>
<rscale>  0 0.14280290E+03</rscale>
<asrwt>0</asrwt>
<pdfrwt beam="2">  1        5 0.13691840E-01 0.14280500E+03</pdfrwt>
<pdfrwt beam="1">  1       -5 0.37748067E-01 0.14280500E+03</pdfrwt>
<totfact> 0.23023192E+02</totfact>
</mgrwt>
</event>
<event>
 8    1  0.3542708E-007  0.1517197E+03  0.7546771E-02  0.1198380E+00
         -5   -1    0    0    0  501 -0.00000000000E+00  0.00000000000E+00  0.31242687748E+02  0.31594232665E+02  0.47000000000E+01 0. -1.
          5   -1    0    0  501    0  0.00000000000E+00 -0.00000000000E+00 -0.74683253626E+03  0.74684732523E+03  0.47000000000E+01 0. -1.
         25    2    1    2    0    0 -0.82982671578E+02 -0.22539776590E+02 -0.30339031668E+03  0.33921164613E+03  0.12499876519E+03 0.  0.
         25    2    1    2    0    0  0.82982671578E+02  0.22539776590E+02 -0.41219953182E+03  0.43922991177E+03  0.12498118278E+03 0.  0.
          5    1    4    4  502    0 -0.11225588136E+02 -0.22838697850E+01  0.29894098639E+01  0.12737992838E+02  0.47000000000E+01 0. -1.
         -5    1    4    4    0  502  0.94208259714E+02  0.24823646375E+02 -0.41518894169E+03  0.42649191894E+03  0.47000000000E+01 0. -1.
          5    1    3    3  503    0  0.23548644532E+01  0.10591360374E+02  0.82188850943E+01  0.14400082408E+02  0.47000000000E+01 0. -1.
         -5    1    3    3    0  503 -0.85337536031E+02 -0.33131136964E+02 -0.31160920178E+03  0.32481156372E+03  0.47000000000E+01 0. -1.
<mgrwt>
<rscale>  0 0.15171604E+03</rscale>
<asrwt>0</asrwt>
<pdfrwt beam="2">  1        5 0.11492548E+00 0.15171966E+03</pdfrwt>
<pdfrwt beam="1">  1       -5 0.48347474E-02 0.15171966E+03</pdfrwt>
<totfact> 0.11586811E+02</totfact>
</mgrwt>
</event>
<event>
 8    1  0.3542708E-007  0.1419824E+03  0.7546771E-02  0.1210688E+00
         -5   -1    0    0    0  501 -0.00000000000E+00  0.00000000000E+00  0.23691827731E+03  0.23696489218E+03  0.47000000000E+01 0.  1.
          5   -1    0    0  501    0  0.00000000000E+00 -0.00000000000E+00 -0.85945703443E+02  0.86074118876E+02  0.47000000000E+01 0.  1.
         25    2    1    2    0    0  0.42810868859E+02 -0.51964904901E+02  0.58253814721E+02  0.15346378036E+03  0.12499801247E+03 0.  0.
         25    2    1    2    0    0 -0.42810868859E+02  0.51964904901E+02  0.92718759150E+02  0.16957523069E+03  0.12500347488E+03 0.  0.
          5    1    3    3  502    0 -0.30908715955E+02  0.16053647786E+02  0.36597626058E+02  0.50739970066E+02  0.47000000000E+01 0. -1.
         -5    1    3    3    0  502  0.73719584815E+02 -0.68018552687E+02  0.21656188663E+02  0.10272381030E+03  0.47000000000E+01 0. -1.
          5    1    4    4  503    0 -0.79253566752E+01  0.76843447743E+02  0.12344966186E+02  0.78372284193E+02  0.47000000000E+01 0. -1.
         -5    1    4    4    0  503 -0.34885512184E+02 -0.24878542842E+02  0.80373792964E+02  0.91202946496E+02  0.47000000000E+01 0. -1.
<mgrwt>
<rscale>  0 0.14198116E+03</rscale>
<asrwt>0</asrwt>
<pdfrwt beam="2">  1        5 0.13235880E-01 0.14198236E+03</pdfrwt>
<pdfrwt beam="1">  1       -5 0.36462430E-01 0.14198236E+03</pdfrwt>
<totfact> 0.26190049E+02</totfact>
</mgrwt>
</event>
<event>
 8    1  0.3542708E-007  0.1354805E+03  0.7546771E-02  0.1219556E+00
         -5   -1    0    0    0  501 -0.00000000000E+00  0.00000000000E+00  0.20558400318E+02  0.21088808018E+02  0.47000000000E+01 0. -1.
          5   -1    0    0  501    0  0.00000000000E+00 -0.00000000000E+00 -0.88551968338E+03  0.88553215619E+03  0.47000000000E+01 0. -1.
         25    2    1    2    0    0 -0.27744505780E+01  0.52156610116E+02 -0.39890737371E+03  0.42127447567E+03  0.12496832196E+03 0.  0.
         25    2    1    2    0    0  0.27744505780E+01 -0.52156610116E+02 -0.46605390935E+03  0.48534648854E+03  0.12500783162E+03 0.  0.
          5    1    3    3  502    0  0.19316929500E+02 -0.37755473447E+02 -0.13204800272E+03  0.13877097882E+03  0.47000000000E+01 0. -1.
         -5    1    3    3    0  502 -0.22091380078E+02  0.89912083563E+02 -0.26685937099E+03  0.28250349684E+03  0.47000000000E+01 0. -1.
          5    1    4    4  503    0  0.53121178658E+02 -0.63601458141E+02 -0.30920809580E+03  0.32015424659E+03  0.47000000000E+01 0.  1.
         -5    1    4    4    0  503 -0.50346728080E+02  0.11444848024E+02 -0.15684581355E+03  0.16519224196E+03  0.47000000000E+01 0.  1.
<mgrwt>
<rscale>  0 0.13547139E+03</rscale>
<asrwt>0</asrwt>
<pdfrwt beam="2">  1        5 0.13627553E+00 0.13548051E+03</pdfrwt>
<pdfrwt beam="1">  1       -5 0.32045915E-02 0.13548051E+03</pdfrwt>
<totfact> 0.14143862E+02</totfact>
</mgrwt>
</event>
<event>
 8    1  0.3542708E-007  0.1670361E+03  0.7546771E-02  0.1180977E+00
          5   -1    0    0  501    0  0.00000000000E+00  0.00000000000E+00  0.81444223204E+02  0.81579724768E+02  0.47000000000E+01 0.  1.
         -5   -1    0    0    0  501 -0.00000000000E+00 -0.00000000000E+00 -0.40940438930E+03  0.40943136663E+03  0.47000000000E+01 0.  1.
         25    2    1    2    0    0 -0.54424157194E+02  0.96520641162E+02 -0.26348076398E+03  0.31196179795E+03  0.12497930762E+03 0.  0.
         25    2    1    2    0    0  0.54424157194E+02 -0.96520641162E+02 -0.64479402113E+02  0.17904929345E+03  0.12499133222E+03 0.  0.
          5    1    3    3  502    0  0.33812608316E+02  0.62219134013E+02 -0.13211477956E+03  0.14996972393E+03  0.47000000000E+01 0. -1.
         -5    1    3    3    0  502 -0.88236765510E+02  0.34301507148E+02 -0.13136598442E+03  0.16199207401E+03  0.47000000000E+01 0. -1.
          5    1    4    4  503    0  0.47336626437E+02 -0.12099457284E+03 -0.76109660023E+02  0.15064930537E+03  0.47000000000E+01 0.  1.
         -5    1    4    4    0  503  0.70875307577E+01  0.24473931676E+02  0.11630257909E+02  0.28399988080E+02  0.47000000000E+01 0.  1.
<mgrwt>
<rscale>  0 0.16703384E+03</rscale>
<asrwt>0</asrwt>
<pdfrwt beam="1">  1        5 0.12542379E-01 0.16703609E+03</pdfrwt>
<pdfrwt beam="2">  1       -5 0.62997788E-01 0.16703609E+03</pdfrwt>
<totfact> 0.95699224E+01</totfact>
</mgrwt>
</event>
<event>
 8    1  0.3542708E-007  0.1310896E+03  0.7546771E-02  0.1225853E+00
          5   -1    0    0  501    0  0.00000000000E+00  0.00000000000E+00  0.12745911307E+03  0.12754573888E+03  0.47000000000E+01 0.  1.
         -5   -1    0    0    0  501 -0.00000000000E+00 -0.00000000000E+00 -0.16296872679E+03  0.16303648644E+03  0.47000000000E+01 0.  1.
         25    2    1    2    0    0  0.48199922918E+01  0.39193305713E+02 -0.78303315424E+02  0.15268447378E+03  0.12498716649E+03 0.  0.
         25    2    1    2    0    0 -0.48199922918E+01 -0.39193305713E+02  0.42793701708E+02  0.13789775154E+03  0.12500056574E+03 0.  0.
          5    1    3    3  502    0  0.62358109550E+02  0.33325497258E+02 -0.56748236950E+02  0.90783120629E+02  0.47000000000E+01 0.  1.
         -5    1    3    3    0  502 -0.57538117258E+02  0.58678084545E+01 -0.21555078474E+02  0.61901353149E+02  0.47000000000E+01 0.  1.
          5    1    4    4  503    0  0.32306430695E+02  0.37068143509E+01  0.68089239220E+02  0.75602119246E+02  0.47000000000E+01 0.  1.
         -5    1    4    4    0  503 -0.37126422987E+02 -0.42900120064E+02 -0.25295537512E+02  0.62295632297E+02  0.47000000000E+01 0.  1.
<mgrwt>
<rscale>  0 0.13108643E+03</rscale>
<asrwt>0</asrwt>
<pdfrwt beam="1">  1        5 0.19620970E-01 0.13108962E+03</pdfrwt>
<pdfrwt beam="2">  1       -5 0.25083988E-01 0.13108962E+03</pdfrwt>
<totfact> 0.25920339E+02</totfact>
</mgrwt>
</event>
<event>
 8    1  0.3542708E-007  0.1311701E+03  0.7546771E-02  0.1225733E+00
          5   -1    0    0  501    0  0.00000000000E+00  0.00000000000E+00  0.20377881531E+03  0.20383300903E+03  0.47000000000E+01 0. -1.
         -5   -1    0    0    0  501 -0.00000000000E+00 -0.00000000000E+00 -0.84297031115E+02  0.84427954226E+02  0.47000000000E+01 0. -1.
         25    2    1    2    0    0  0.38174776914E+02  0.10975806619E+02  0.60077724852E+02  0.14426637092E+03  0.12500268330E+03 0.  0.
         25    2    1    2    0    0 -0.38174776914E+02 -0.10975806619E+02  0.59404059344E+02  0.14399459234E+03  0.12501127322E+03 0.  0.
          5    1    3    3  502    0 -0.21292477092E+02 -0.44428344760E+02  0.18354326468E+02  0.52784644537E+02  0.47000000000E+01 0. -1.
         -5    1    3    3    0  502  0.59467254006E+02  0.55404151379E+02  0.41723398384E+02  0.91481726381E+02  0.47000000000E+01 0. -1.
          5    1    4    4  503    0  0.26077239260E+02  0.27693518095E+02 -0.12179088061E+02  0.40216582872E+02  0.47000000000E+01 0. -1.
         -5    1    4    4    0  503 -0.64252016174E+02 -0.38669324714E+02  0.71583147405E+02  0.10377800947E+03  0.47000000000E+01 0. -1.
<mgrwt>
<rscale>  0 0.13116807E+03</rscale>
<asrwt>0</asrwt>
<pdfrwt beam="1">  1        5 0.31364826E-01 0.13117012E+03</pdfrwt>
<pdfrwt beam="2">  1       -5 0.12983014E-01 0.13117012E+03</pdfrwt>
<totfact> 0.35619005E+02</totfact>
</mgrwt>
</event>
<event>
 8    1  0.3542708E-007  0.1261007E+03  0.7546771E-02  0.1233361E+00
          5   -1    0    0  501    0  0.00000000000E+00  0.00000000000E+00  0.14679366293E+03  0.14686888533E+03  0.47000000000E+01 0.  1.
         -5   -1    0    0    0  501 -0.00000000000E+00 -0.00000000000E+00 -0.13283618196E+03  0.13291930348E+03  0.47000000000E+01 0.  1.
         25    2    1    2    0    0  0.77001459663E+00 -0.16552048602E+02 -0.53270886159E+02  0.13689107272E+03  0.12500726076E+03 0.  0.
         25    2    1    2    0    0 -0.77001459663E+00  0.16552048602E+02  0.67228367133E+02  0.14289711609E+03  0.12500147681E+03 0.  0.
          5    1    4    4  502    0 -0.60422530059E+02  0.98764176219E+01  0.52800378729E+02  0.80983922835E+02  0.47000000000E+01 0. -1.
         -5    1    4    4    0  502  0.59652515462E+02  0.66756309797E+01  0.14427988404E+02  0.61913193258E+02  0.47000000000E+01 0. -1.
          5    1    3    3  503    0  0.89554063349E+01  0.50578258658E+02 -0.15147855062E+01  0.51601784142E+02  0.47000000000E+01 0.  1.
         -5    1    3    3    0  503 -0.81853917383E+01 -0.67130307259E+02 -0.51756100653E+02  0.85289288574E+02  0.47000000000E+01 0.  1.
<mgrwt>
<rscale>  0 0.12609923E+03</rscale>
<asrwt>0</asrwt>
<pdfrwt beam="1">  1        5 0.22595821E-01 0.12610067E+03</pdfrwt>
<pdfrwt beam="2">  1       -5 0.20448516E-01 0.12610067E+03</pdfrwt>
<totfact> 0.28864785E+02</totfact>
</mgrwt>
</event>
<event>
 8    1  0.3542708E-007  0.1527149E+03  0.7546771E-02  0.1197176E+00
          5   -1    0    0  501    0  0.00000000000E+00  0.00000000000E+00  0.49104613457E+02  0.49329028602E+02  0.47000000000E+01 0. -1.
         -5   -1    0    0    0  501 -0.00000000000E+00 -0.00000000000E+00 -0.51231170148E+03  0.51233326017E+03  0.47000000000E+01 0. -1.
         25    2    1    2    0    0  0.63886701212E+02  0.60127591391E+02 -0.30875905831E+03  0.34446184791E+03  0.12499988293E+03 0.  0.
         25    2    1    2    0    0 -0.63886701212E+02 -0.60127591391E+02 -0.15444802971E+03  0.21720044086E+03  0.12499999917E+03 0.  0.
          5    1    4    4  502    0 -0.45797908304E+02  0.86016063993E+01 -0.13569190602E+03  0.14354727234E+03  0.47000000000E+01 0.  1.
         -5    1    4    4    0  502 -0.18088792908E+02 -0.68729197790E+02 -0.18756123692E+02  0.73653168525E+02  0.47000000000E+01 0.  1.
          5    1    3    3  503    0  0.64838526463E+02  0.31180259934E+02 -0.59496254205E+02  0.93478004835E+02  0.47000000000E+01 0.  1.
         -5    1    3    3    0  503 -0.95182525150E+00  0.28947331457E+02 -0.24926280411E+03  0.25098384307E+03  0.47000000000E+01 0.  1.
<mgrwt>
<rscale>  0 0.15271487E+03</rscale>
<asrwt>0</asrwt>
<pdfrwt beam="1">  1        5 0.75734773E-02 0.15271489E+03</pdfrwt>
<pdfrwt beam="2">  1       -5 0.78836102E-01 0.15271489E+03</pdfrwt>
<totfact> 0.13528774E+02</totfact>
</mgrwt>
</event>
<event>
 8    1  0.3542708E-007  0.1337004E+03  0.7546771E-02  0.1222070E+00
         -5   -1    0    0    0  501 -0.00000000000E+00  0.00000000000E+00  0.12419319541E+04  0.12419408475E+04  0.47000000000E+01 0.  1.
          5   -1    0    0  501    0  0.00000000000E+00 -0.00000000000E+00 -0.16427159653E+02  0.17086297851E+02  0.47000000000E+01 0.  1.
         25    2    1    2    0    0  0.86742311990E+01  0.46581484103E+02  0.84962033634E+03  0.86007587359E+03  0.12502285973E+03 0.  0.
         25    2    1    2    0    0 -0.86742311990E+01 -0.46581484103E+02  0.37588445809E+03  0.39895127172E+03  0.12501165715E+03 0.  0.
          5    1    3    3  502    0  0.67545414538E+01 -0.42842372121E+02  0.31452801553E+03  0.31753906096E+03  0.47000000000E+01 0. -1.
         -5    1    3    3    0  502  0.19196897453E+01  0.89423856224E+02  0.53509232081E+03  0.54253681263E+03  0.47000000000E+01 0. -1.
          5    1    4    4  503    0 -0.23145261751E+01 -0.14883370391E+02 -0.50895564216E+01  0.16579063007E+02  0.47000000000E+01 0.  1.
         -5    1    4    4    0  503 -0.63597050240E+01 -0.31698113712E+02  0.38097401452E+03  0.38237220871E+03  0.47000000000E+01 0.  1.
<mgrwt>
<rscale>  0 0.13369776E+03</rscale>
<asrwt>0</asrwt>
<pdfrwt beam="2">  1        5 0.25786430E-02 0.13370038E+03</pdfrwt>
<pdfrwt beam="1">  1       -5 0.19111780E+00 0.13370038E+03</pdfrwt>
<totfact> 0.77134355E+01</totfact>
</mgrwt>
</event>
<event>
 8    1  0.3542708E-007  0.1347207E+03  0.7546771E-02  0.1220616E+00
         -5   -1    0    0    0  501 -0.00000000000E+00  0.00000000000E+00  0.59998127139E+02  0.60181934666E+02  0.47000000000E+01 0.  1.
          5   -1    0    0  501    0  0.00000000000E+00 -0.00000000000E+00 -0.37296222980E+03  0.37299184288E+03  0.47000000000E+01 0.  1.
         25    2    1    2    0    0 -0.10591480788E+02 -0.49117370988E+02 -0.61923449466E+02  0.14827065754E+03  0.12499991478E+03 0.  0.
         25    2    1    2    0    0  0.10591480788E+02  0.49117370988E+02 -0.25104065319E+03  0.28490312001E+03  0.12499473044E+03 0.  0.
          5    1    3    3  502    0  0.48676388964E+02 -0.33720440554E+02 -0.63343947859E+02  0.86838958332E+02  0.47000000000E+01 0.  1.
         -5    1    3    3    0  502 -0.59267869752E+02 -0.15396930434E+02  0.14204983936E+01  0.61431699207E+02  0.47000000000E+01 0.  1.
          5    1    4    4  503    0 -0.27629414967E+01 -0.22028343859E+02 -0.18629087368E+03  0.18766795516E+03  0.47000000000E+01 0. -1.
         -5    1    4    4    0  503  0.13354422285E+02  0.71145714846E+02 -0.64749779516E+02  0.97235164847E+02  0.47000000000E+01 0. -1.
<mgrwt>
<rscale>  0 0.13471952E+03</rscale>
<asrwt>0</asrwt>
<pdfrwt beam="2">  1        5 0.57395220E-01 0.13472073E+03</pdfrwt>
<pdfrwt beam="1">  1       -5 0.92468983E-02 0.13472073E+03</pdfrwt>
<totfact> 0.18740914E+02</totfact>
</mgrwt>
</event>
<event>
 8    1  0.3542708E-007  0.1455589E+03  0.7546771E-02  0.1206043E+00
          5   -1    0    0  501    0  0.00000000000E+00  0.00000000000E+00  0.38459835531E+02  0.38745953971E+02  0.47000000000E+01 0.  1.
         -5   -1    0    0    0  501 -0.00000000000E+00 -0.00000000000E+00 -0.67438597131E+03  0.67440234897E+03  0.47000000000E+01 0.  1.
         25    2    1    2    0    0 -0.57337498637E+02  0.47653853494E+02 -0.47197023598E+03  0.49390203113E+03  0.12499933679E+03 0.  0.
         25    2    1    2    0    0  0.57337498637E+02 -0.47653853494E+02 -0.16395589979E+03  0.21924627181E+03  0.12501564751E+03 0.  0.
          5    1    3    3  502    0 -0.90387995054E+02  0.43105213833E+01 -0.28086008544E+03  0.29511531279E+03  0.47000000000E+01 0.  1.
         -5    1    3    3    0  502  0.33050496417E+02  0.43343332111E+02 -0.19111015054E+03  0.19878671834E+03  0.47000000000E+01 0.  1.
          5    1    4    4  503    0  0.91038975404E+02 -0.29852987390E+02 -0.15066391859E+03  0.17860851677E+03  0.47000000000E+01 0.  1.
         -5    1    4    4    0  503 -0.33701476767E+02 -0.17800866104E+02 -0.13291981206E+02  0.40637755040E+02  0.47000000000E+01 0.  1.
<mgrwt>
<rscale>  0 0.14555539E+03</rscale>
<asrwt>0</asrwt>
<pdfrwt beam="1">  1        5 0.59401672E-02 0.14555889E+03</pdfrwt>
<pdfrwt beam="2">  1       -5 0.10377495E+00 0.14555889E+03</pdfrwt>
<totfact> 0.10453569E+02</totfact>
</mgrwt>
</event>
<event>
 8    1  0.3542708E-007  0.1573009E+03  0.7546771E-02  0.1191780E+00
          5   -1    0    0  501    0  0.00000000000E+00  0.00000000000E+00  0.44192240057E+03  0.44194739294E+03  0.47000000000E+01 0. -1.
         -5   -1    0    0    0  501 -0.00000000000E+00 -0.00000000000E+00 -0.92527738981E+02  0.92647031690E+02  0.47000000000E+01 0. -1.
         25    2    1    2    0    0  0.93159677047E+02 -0.20926765500E+02  0.66033589210E+01  0.15743472165E+03  0.12500172914E+03 0.  0.
         25    2    1    2    0    0 -0.93159677047E+02  0.20926765500E+02  0.34279130267E+03  0.37715970299E+03  0.12500763748E+03 0.  0.
          5    1    3    3  502    0  0.80654039469E+02  0.35074695062E+02  0.33056749797E+02  0.94075220029E+02  0.47000000000E+01 0. -1.
         -5    1    3    3    0  502  0.12505637578E+02 -0.56001460562E+02 -0.26453390876E+02  0.63359501617E+02  0.47000000000E+01 0. -1.
          5    1    4    4  503    0 -0.40885769627E+02  0.67055253176E+02  0.11853676147E+03  0.14227124430E+03  0.47000000000E+01 0.  1.
         -5    1    4    4    0  503 -0.52273907420E+02 -0.46128487676E+02  0.22425454120E+03  0.23488845868E+03  0.47000000000E+01 0.  1.
<mgrwt>
<rscale>  0 0.15729970E+03</rscale>
<asrwt>0</asrwt>
<pdfrwt beam="1">  1        5 0.67999161E-01 0.15730087E+03</pdfrwt>
<pdfrwt beam="2">  1       -5 0.14246135E-01 0.15730087E+03</pdfrwt>
<totfact> 0.63075878E+01</totfact>
</mgrwt>
</event>
<event>
 8    1  0.3542708E-007  0.1391074E+03  0.7546771E-02  0.1214535E+00
          5   -1    0    0  501    0  0.00000000000E+00  0.00000000000E+00  0.68261652237E+02  0.68423264801E+02  0.47000000000E+01 0.  1.
         -5   -1    0    0    0  501 -0.00000000000E+00 -0.00000000000E+00 -0.32257627035E+03  0.32261050850E+03  0.47000000000E+01 0.  1.
         25    2    1    2    0    0 -0.60336491759E+02 -0.91817588318E+01 -0.19565191684E+03  0.24006298131E+03  0.12500306196E+03 0.  0.
         25    2    1    2    0    0  0.60336491759E+02  0.91817588318E+01 -0.58662701270E+02  0.15097079199E+03  0.12500428225E+03 0.  0.
          5    1    4    4  502    0  0.96569740071E+02 -0.90134415046E+00 -0.58615627834E+02  0.11306816062E+03  0.47000000000E+01 0.  1.
         -5    1    4    4    0  502 -0.36233248313E+02  0.10083102982E+02 -0.47073435885E-01  0.37902631372E+02  0.47000000000E+01 0.  1.
          5    1    3    3  503    0  0.10593877508E+02 -0.53317628991E+02 -0.90592875220E+02  0.10575518353E+03  0.47000000000E+01 0. -1.
         -5    1    3    3    0  503 -0.70930369267E+02  0.44135870159E+02 -0.10505904162E+03  0.13430779779E+03  0.47000000000E+01 0. -1.
<mgrwt>
<rscale>  0 0.13910712E+03</rscale>
<asrwt>0</asrwt>
<pdfrwt beam="1">  1        5 0.10516858E-01 0.13910740E+03</pdfrwt>
<pdfrwt beam="2">  1       -5 0.49642183E-01 0.13910740E+03</pdfrwt>
<totfact> 0.20657990E+02</totfact>
</mgrwt>
</event>
<event>
 8    1  0.3542708E-007  0.2050250E+03  0.7546771E-02  0.1145568E+00
          5   -1    0    0  501    0  0.00000000000E+00  0.00000000000E+00  0.11672703707E+03  0.11682162121E+03  0.47000000000E+01 0. -1.
         -5   -1    0    0    0  501 -0.00000000000E+00 -0.00000000000E+00 -0.44350273423E+03  0.44352763755E+03  0.47000000000E+01 0. -1.
         25    2    1    2    0    0 -0.11148831550E+03  0.11824523889E+03 -0.28504617058E+03  0.35112189454E+03  0.12499473769E+03 0.  0.
         25    2    1    2    0    0  0.11148831550E+03 -0.11824523889E+03 -0.41729526586E+02  0.20922736422E+03  0.12499262193E+03 0.  0.
          5    1    3    3  502    0 -0.34449416718E+02 -0.12494769858E+02 -0.12249732770E+02  0.38923354672E+02  0.47000000000E+01 0. -1.
         -5    1    3    3    0  502 -0.77038898782E+02  0.13074000875E+03 -0.27279643781E+03  0.31219853986E+03  0.47000000000E+01 0. -1.
          5    1    4    4  503    0  0.10388809575E+03 -0.90064887618E+02  0.21673797189E+02  0.13927047032E+03  0.47000000000E+01 0.  1.
         -5    1    4    4    0  503  0.76002197521E+01 -0.28180351274E+02 -0.63403323775E+02  0.69956893899E+02  0.47000000000E+01 0.  1.
<mgrwt>
<rscale>  0 0.20502471E+03</rscale>
<asrwt>0</asrwt>
<pdfrwt beam="1">  1        5 0.17967197E-01 0.20502504E+03</pdfrwt>
<pdfrwt beam="2">  1       -5 0.68240381E-01 0.20502504E+03</pdfrwt>
<totfact> 0.44018844E+01</totfact>
</mgrwt>
</event>
<event>
 8    1  0.3542708E-007  0.2416366E+03  0.7546771E-02  0.1118707E+00
         -5   -1    0    0    0  501 -0.00000000000E+00  0.00000000000E+00  0.60986753544E+02  0.61167590339E+02  0.47000000000E+01 0.  1.
          5   -1    0    0  501    0  0.00000000000E+00 -0.00000000000E+00 -0.96822645719E+03  0.96823786458E+03  0.47000000000E+01 0.  1.
         25    2    1    2    0    0  0.18900403865E+03 -0.83907963464E+02 -0.39528296104E+03  0.46328916600E+03  0.12500063634E+03 0.  0.
         25    2    1    2    0    0 -0.18900403865E+03  0.83907963464E+02 -0.51195674260E+03  0.56611628891E+03  0.12499949329E+03 0.  0.
          5    1    3    3  502    0  0.78273408117E+02  0.26164290711E+02 -0.10486880227E+03  0.13353221415E+03  0.47000000000E+01 0. -1.
         -5    1    3    3    0  502  0.11073063053E+03 -0.11007225418E+03 -0.29041415878E+03  0.32975695185E+03  0.47000000000E+01 0. -1.
          5    1    4    4  503    0 -0.12077771616E+03  0.10402317173E+03 -0.42338657394E+03  0.45242276465E+03  0.47000000000E+01 0. -1.
         -5    1    4    4    0  503 -0.68226322485E+02 -0.20115208271E+02 -0.88570168656E+02  0.11369352426E+03  0.47000000000E+01 0. -1.
<mgrwt>
<rscale>  0 0.24163642E+03</rscale>
<asrwt>0</asrwt>
<pdfrwt beam="2">  1        5 0.14897269E+00 0.24163657E+03</pdfrwt>
<pdfrwt beam="1">  1       -5 0.93973662E-02 0.24163657E+03</pdfrwt>
<totfact> 0.21253022E+01</totfact>
</mgrwt>
</event>
<event>
 8    1  0.3542708E-007  0.1739789E+03  0.7546771E-02  0.1173761E+00
          5   -1    0    0  501    0  0.00000000000E+00  0.00000000000E+00  0.75495422607E+02  0.75641581386E+02  0.47000000000E+01 0. -1.
         -5   -1    0    0    0  501 -0.00000000000E+00 -0.00000000000E+00 -0.40713794504E+03  0.40716507253E+03  0.47000000000E+01 0. -1.
         25    2    1    2    0    0  0.11434270442E+03  0.39606353830E+02 -0.19690782890E+03  0.26275719256E+03  0.12500292732E+03 0.  0.
         25    2    1    2    0    0 -0.11434270442E+03 -0.39606353830E+02 -0.13473469353E+03  0.22004946136E+03  0.12500164193E+03 0.  0.
          5    1    3    3  502    0  0.35984444389E+02  0.78306867736E+02 -0.10324328003E+03  0.13456638006E+03  0.47000000000E+01 0.  1.
         -5    1    3    3    0  502  0.78358260033E+02 -0.38700513907E+02 -0.93664548877E+02  0.12819081250E+03  0.47000000000E+01 0.  1.
          5    1    4    4  503    0 -0.16708334609E+02  0.28004609172E+02 -0.85089607177E+02  0.91245590742E+02  0.47000000000E+01 0.  1.
         -5    1    4    4    0  503 -0.97634369814E+02 -0.67610963001E+02 -0.49645086350E+02  0.12880387062E+03  0.47000000000E+01 0.  1.
<mgrwt>
<rscale>  0 0.17397864E+03</rscale>
<asrwt>0</asrwt>
<pdfrwt beam="1">  1        5 0.11628010E-01 0.17397888E+03</pdfrwt>
<pdfrwt beam="2">  1       -5 0.62649935E-01 0.17397888E+03</pdfrwt>
<totfact> 0.11218545E+02</totfact>
</mgrwt>
</event>
<event>
 8    1  0.3542708E-007  0.1338709E+03  0.7546771E-02  0.1221830E+00
          5   -1    0    0  501    0  0.00000000000E+00  0.00000000000E+00  0.19009650797E+02  0.19582053606E+02  0.47000000000E+01 0. -1.
         -5   -1    0    0    0  501 -0.00000000000E+00 -0.00000000000E+00 -0.10080522877E+04  0.10080632444E+04  0.47000000000E+01 0. -1.
         25    2    1    2    0    0 -0.47385174634E+02  0.68807587038E+01 -0.63919414523E+03  0.65305835262E+03  0.12499342789E+03 0.  0.
         25    2    1    2    0    0  0.47385174634E+02 -0.68807587038E+01 -0.34984849170E+03  0.37458694542E+03  0.12501485081E+03 0.  0.
          5    1    3    3  502    0  0.34531177406E+02  0.93448797277E+01 -0.78596641957E+02  0.86482663680E+02  0.47000000000E+01 0.  1.
         -5    1    3    3    0  502 -0.81916352040E+02 -0.24641210239E+01 -0.56059750327E+03  0.56657568894E+03  0.47000000000E+01 0.  1.
          5    1    4    4  503    0 -0.13276725171E+02 -0.52241053501E+02 -0.10315184160E+03  0.11648086336E+03  0.47000000000E+01 0. -1.
         -5    1    4    4    0  503  0.60661899805E+02  0.45360294798E+02 -0.24669665009E+03  0.25810608206E+03  0.47000000000E+01 0. -1.
<mgrwt>
<rscale>  0 0.13386588E+03</rscale>
<asrwt>0</asrwt>
<pdfrwt beam="1">  1        5 0.29694363E-02 0.13387088E+03</pdfrwt>
<pdfrwt beam="2">  1       -5 0.15512980E+00 0.13387088E+03</pdfrwt>
<totfact> 0.11233998E+02</totfact>
</mgrwt>
</event>
<event>
 8    1  0.3542708E-007  0.1411400E+03  0.7546771E-02  0.1211805E+00
          5   -1    0    0  501    0  0.00000000000E+00  0.00000000000E+00  0.74719810398E+01  0.88272589550E+01  0.47000000000E+01 0. -1.
         -5   -1    0    0    0  501 -0.00000000000E+00 -0.00000000000E+00 -0.27231558530E+04  0.27231599089E+04  0.47000000000E+01 0. -1.
         25    2    1    2    0    0  0.64655783736E+02 -0.10716869615E+02 -0.17959299753E+04  0.18014670272E+04  0.12499501006E+03 0.  0.
         25    2    1    2    0    0 -0.64655783736E+02  0.10716869615E+02 -0.91975389665E+03  0.93052014061E+03  0.12500112008E+03 0.  0.
          5    1    3    3  502    0  0.29909681124E+02  0.26321591555E+02 -0.16746081494E+03  0.17219938951E+03  0.47000000000E+01 0.  1.
         -5    1    3    3    0  502  0.34746102612E+02 -0.37038461170E+02 -0.16284691603E+04  0.16292676377E+04  0.47000000000E+01 0.  1.
          5    1    4    4  503    0 -0.58631984638E+02 -0.51355832819E+02 -0.47090300911E+03  0.47733307572E+03  0.47000000000E+01 0. -1.
         -5    1    4    4    0  503 -0.60237990988E+01  0.62072702434E+02 -0.44885088754E+03  0.45318706489E+03  0.47000000000E+01 0. -1.
<mgrwt>
<rscale>  0 0.14113865E+03</rscale>
<asrwt>0</asrwt>
<pdfrwt beam="1">  1        5 0.12541019E-02 0.14114001E+03</pdfrwt>
<pdfrwt beam="2">  1       -5 0.41905089E+00 0.14114001E+03</pdfrwt>
<totfact> 0.77743753E+00</totfact>
</mgrwt>
</event>
<event>
 8    1  0.3542708E-007  0.1603384E+03  0.7546771E-02  0.1188315E+00
          5   -1    0    0  501    0  0.00000000000E+00  0.00000000000E+00  0.15315556736E+03  0.15322766661E+03  0.47000000000E+01 0. -1.
         -5   -1    0    0    0  501 -0.00000000000E+00 -0.00000000000E+00 -0.19318734561E+03  0.19324450963E+03  0.47000000000E+01 0. -1.
         25    2    1    2    0    0 -0.43828057689E+00 -0.10041386850E+03 -0.82901305379E+02  0.18050168089E+03  0.12500037317E+03 0.  0.
         25    2    1    2    0    0  0.43828057689E+00  0.10041386850E+03  0.42869527132E+02  0.16597049535E+03  0.12500108756E+03 0.  0.
          5    1    3    3  502    0  0.46319042544E+02 -0.51897000881E+02 -0.88571574153E+02  0.11271985695E+03  0.47000000000E+01 0. -1.
         -5    1    3    3    0  502 -0.46757323120E+02 -0.48516867619E+02  0.56702687735E+01  0.67781823942E+02  0.47000000000E+01 0. -1.
          5    1    4    4  503    0  0.38908814206E+02 -0.12200017674E+02  0.74361452380E+01  0.41714775682E+02  0.47000000000E+01 0.  1.
         -5    1    4    4    0  503 -0.38470533629E+02  0.11261388617E+03  0.35433381894E+02  0.12425571967E+03  0.47000000000E+01 0.  1.
<mgrwt>
<rscale>  0 0.16033828E+03</rscale>
<asrwt>0</asrwt>
<pdfrwt beam="1">  1        5 0.23572338E-01 0.16033842E+03</pdfrwt>
<pdfrwt beam="2">  1       -5 0.29731073E-01 0.16033842E+03</pdfrwt>
<totfact> 0.14105056E+02</totfact>
</mgrwt>
</event>
<event>
 8    1  0.3542708E-007  0.1335682E+03  0.7546771E-02  0.1222264E+00
         -5   -1    0    0    0  501 -0.00000000000E+00  0.00000000000E+00  0.30555738823E+03  0.30559353315E+03  0.47000000000E+01 0. -1.
          5   -1    0    0  501    0  0.00000000000E+00 -0.00000000000E+00 -0.58243337298E+02  0.58432665005E+02  0.47000000000E+01 0. -1.
         25    2    1    2    0    0 -0.29769857807E+02  0.36365000931E+02  0.12482490150E+03  0.18281611903E+03  0.12502727549E+03 0.  0.
         25    2    1    2    0    0  0.29769857807E+02 -0.36365000931E+02  0.12248914943E+03  0.18121007913E+03  0.12499937328E+03 0.  0.
          5    1    3    3  502    0 -0.23511253038E+02 -0.34320211962E+02  0.98421417687E+02  0.10695569844E+03  0.47000000000E+01 0.  1.
         -5    1    3    3    0  502 -0.62586047692E+01  0.70685212892E+02  0.26403483816E+02  0.75860420595E+02  0.47000000000E+01 0.  1.
          5    1    4    4  503    0  0.14442032631E+02  0.42413434202E+02  0.16054881303E+02  0.47825944016E+02  0.47000000000E+01 0. -1.
         -5    1    4    4    0  503  0.15327825176E+02 -0.78778435133E+02  0.10643426813E+03  0.13338413511E+03  0.47000000000E+01 0. -1.
<mgrwt>
<rscale>  0 0.13356172E+03</rscale>
<asrwt>0</asrwt>
<pdfrwt beam="2">  1        5 0.89778576E-02 0.13356825E+03</pdfrwt>
<pdfrwt beam="1">  1       -5 0.47026173E-01 0.13356825E+03</pdfrwt>
<totfact> 0.30079389E+02</totfact>
</mgrwt>
</event>
<event>
 8    1  0.3542708E-007  0.1267505E+03  0.7546771E-02  0.1232379E+00
          5   -1    0    0  501    0  0.00000000000E+00  0.00000000000E+00  0.16283048281E+02  0.16947792226E+02  0.47000000000E+01 0.  1.
         -5   -1    0    0    0  501 -0.00000000000E+00 -0.00000000000E+00 -0.10684862048E+04  0.10684965418E+04  0.47000000000E+01 0.  1.
         25    2    1    2    0    0  0.17808052552E+02  0.11123691021E+02 -0.69435568481E+03  0.70582966490E+03  0.12499934232E+03 0.  0.
         25    2    1    2    0    0 -0.17808052552E+02 -0.11123691021E+02 -0.35784747171E+03  0.37961466913E+03  0.12494647165E+03 0.  0.
          5    1    4    4  502    0 -0.15060314133E+02 -0.28794313895E+02 -0.35955014083E+03  0.36104614573E+03  0.47000000000E+01 0. -1.
         -5    1    4    4    0  502 -0.27477384191E+01  0.17670622874E+02  0.17026691271E+01  0.18568523402E+02  0.47000000000E+01 0. -1.
          5    1    3    3  503    0  0.85413340256E+00 -0.45860028177E+02 -0.12279791533E+03  0.13116893588E+03  0.47000000000E+01 0. -1.
         -5    1    3    3    0  503  0.16953919149E+02  0.56983719199E+02 -0.57155776948E+03  0.57466072902E+03  0.47000000000E+01 0. -1.
<mgrwt>
<rscale>  0 0.12673750E+03</rscale>
<asrwt>0</asrwt>
<pdfrwt beam="1">  1        5 0.25570145E-02 0.12675054E+03</pdfrwt>
<pdfrwt beam="2">  1       -5 0.16443437E+00 0.12675054E+03</pdfrwt>
<totfact> 0.11924846E+02</totfact>
</mgrwt>
</event>
<event>
 8    1  0.3542708E-007  0.1371649E+03  0.7546771E-02  0.1217196E+00
         -5   -1    0    0    0  501 -0.00000000000E+00  0.00000000000E+00  0.12436440451E+03  0.12445318441E+03  0.47000000000E+01 0.  1.
          5   -1    0    0  501    0  0.00000000000E+00 -0.00000000000E+00 -0.16748513255E+03  0.16755106573E+03  0.47000000000E+01 0.  1.
         25    2    1    2    0    0  0.45339048357E+02 -0.33661465394E+02  0.24079912280E+02  0.13926257186E+03  0.12500199273E+03 0.  0.
         25    2    1    2    0    0 -0.45339048357E+02  0.33661465394E+02 -0.67200640325E+02  0.15274167828E+03  0.12500148265E+03 0.  0.
          5    1    3    3  502    0  0.63339773155E+02 -0.45743457616E+01 -0.33629164799E+02  0.72012930975E+02  0.47000000000E+01 0.  1.
         -5    1    3    3    0  502 -0.18000724798E+02 -0.29087119632E+02  0.57709077079E+02  0.67249640884E+02  0.47000000000E+01 0.  1.
          5    1    4    4  503    0 -0.92277633213E+01 -0.47270882698E+02 -0.25105073418E+02  0.54516444108E+02  0.47000000000E+01 0. -1.
         -5    1    4    4    0  503 -0.36111285036E+02  0.80932348091E+02 -0.42095566907E+02  0.98225234170E+02  0.47000000000E+01 0. -1.
<mgrwt>
<rscale>  0 0.13716483E+03</rscale>
<asrwt>0</asrwt>
<pdfrwt beam="2">  1        5 0.25778844E-01 0.13716494E+03</pdfrwt>
<pdfrwt beam="1">  1       -5 0.19144886E-01 0.13716494E+03</pdfrwt>
<totfact> 0.26152143E+02</totfact>
</mgrwt>
</event>
<event>
 8    1  0.3542708E-007  0.1251406E+03  0.7546771E-02  0.1234851E+00
          5   -1    0    0  501    0  0.00000000000E+00  0.00000000000E+00  0.79604611990E+02  0.79743239526E+02  0.47000000000E+01 0.  1.
         -5   -1    0    0    0  501 -0.00000000000E+00 -0.00000000000E+00 -0.20204867953E+03  0.20210333718E+03  0.47000000000E+01 0.  1.
         25    2    1    2    0    0  0.57912056416E+01  0.12747688602E+01 -0.84808800351E+02  0.15116912930E+03  0.12499763973E+03 0.  0.
         25    2    1    2    0    0 -0.57912056416E+01 -0.12747688602E+01 -0.37635267189E+02  0.13067744740E+03  0.12500007530E+03 0.  0.
          5    1    4    4  502    0 -0.56468251164E+02 -0.10944256287E+02  0.11985297364E+02  0.58942153745E+02  0.47000000000E+01 0.  1.
         -5    1    4    4    0  502  0.50677045522E+02  0.96694874265E+01 -0.49620564553E+02  0.71735293660E+02  0.47000000000E+01 0.  1.
          5    1    3    3  503    0 -0.40600986522E+02 -0.10618124796E+02  0.11275016399E+02  0.43708130543E+02  0.47000000000E+01 0.  1.
         -5    1    3    3    0  503  0.46392192164E+02  0.11892893656E+02 -0.96083816749E+02  0.10746099876E+03  0.47000000000E+01 0.  1.
<mgrwt>
<rscale>  0 0.12514004E+03</rscale>
<asrwt>0</asrwt>
<pdfrwt beam="1">  1        5 0.12261732E-01 0.12514065E+03</pdfrwt>
<pdfrwt beam="2">  1       -5 0.31099280E-01 0.12514065E+03</pdfrwt>
<totfact> 0.39404873E+02</totfact>
</mgrwt>
</event>
<event>
 8    1  0.3542708E-007  0.1419720E+03  0.7546771E-02  0.1210700E+00
         -5   -1    0    0    0  501 -0.00000000000E+00  0.00000000000E+00  0.27579340937E+02  0.27976955633E+02  0.47000000000E+01 0.  1.
          5   -1    0    0  501    0  0.00000000000E+00 -0.00000000000E+00 -0.11081627722E+04  0.11081727391E+04  0.47000000000E+01 0.  1.
         25    2    1    2    0    0 -0.50860253236E+02 -0.44069855452E+02 -0.20640336747E+03  0.25051623846E+03  0.12500847215E+03 0.  0.
         25    2    1    2    0    0  0.50860253236E+02  0.44069855452E+02 -0.87418006375E+03  0.88563345624E+03  0.12500766947E+03 0.  0.
          5    1    3    3  502    0 -0.15029948522E+02  0.46790752116E+01 -0.18566136424E+03  0.18638676259E+03  0.47000000000E+01 0.  1.
         -5    1    3    3    0  502 -0.35830304713E+02 -0.48748930664E+02 -0.20742003228E+02  0.64129475864E+02  0.47000000000E+01 0.  1.
          5    1    4    4  503    0  0.48150105027E+02  0.72476983391E+02 -0.81622296239E+03  0.82086135253E+03  0.47000000000E+01 0.  1.
         -5    1    4    4    0  503  0.27101482085E+01 -0.28407127939E+02 -0.57957101356E+02  0.64772103707E+02  0.47000000000E+01 0.  1.
<mgrwt>
<rscale>  0 0.14197178E+03</rscale>
<asrwt>0</asrwt>
<pdfrwt beam="2">  1        5 0.17051790E+00 0.14197195E+03</pdfrwt>
<pdfrwt beam="1">  1       -5 0.42743288E-02 0.14197195E+03</pdfrwt>
<totfact> 0.48373082E+01</totfact>
</mgrwt>
</event>
<event>
 8    1  0.3542708E-007  0.1522718E+03  0.7546771E-02  0.1197711E+00
          5   -1    0    0  501    0  0.00000000000E+00  0.00000000000E+00  0.78218739647E+02  0.78359818989E+02  0.47000000000E+01 0.  1.
         -5   -1    0    0    0  501 -0.00000000000E+00 -0.00000000000E+00 -0.29731967516E+03  0.29735682141E+03  0.47000000000E+01 0.  1.
         25    2    1    2    0    0  0.69519222507E+02 -0.52219410679E+02 -0.12209064059E+03  0.19516828273E+03  0.12499897965E+03 0.  0.
         25    2    1    2    0    0 -0.69519222507E+02  0.52219410679E+02 -0.97010294926E+02  0.18054835767E+03  0.12500769171E+03 0.  0.
          5    1    3    3  502    0  0.74567622889E+02  0.18841502423E+02 -0.84950146268E+02  0.11469067071E+03  0.47000000000E+01 0. -1.
         -5    1    3    3    0  502 -0.50484003816E+01 -0.71060913102E+02 -0.37140494322E+02  0.80477612016E+02  0.47000000000E+01 0. -1.
          5    1    4    4  503    0 -0.74616453348E+02  0.10677841233E+02 -0.80397432154E+00  0.75527265132E+02  0.47000000000E+01 0. -1.
         -5    1    4    4    0  503  0.50972308410E+01  0.41541569446E+02 -0.96206320605E+02  0.10502109254E+03  0.47000000000E+01 0. -1.
<mgrwt>
<rscale>  0 0.15227005E+03</rscale>
<asrwt>0</asrwt>
<pdfrwt beam="1">  1        5 0.12047362E-01 0.15227184E+03</pdfrwt>
<pdfrwt beam="2">  1       -5 0.45755198E-01 0.15227184E+03</pdfrwt>
<totfact> 0.19884818E+02</totfact>
</mgrwt>
</event>
<event>
 8    1  0.3542708E-007  0.1259982E+03  0.7546771E-02  0.1233529E+00
          5   -1    0    0  501    0  0.00000000000E+00  0.00000000000E+00  0.35001220617E+03  0.35004376079E+03  0.47000000000E+01 0.  1.
         -5   -1    0    0    0  501 -0.00000000000E+00 -0.00000000000E+00 -0.48079407328E+02  0.48308585251E+02  0.47000000000E+01 0.  1.
         25    2    1    2    0    0 -0.56381895736E+01 -0.14785466044E+02  0.10230082659E+03  0.16229910124E+03  0.12500055982E+03 0.  0.
         25    2    1    2    0    0  0.56381895736E+01  0.14785466044E+02  0.19963197225E+03  0.23605324480E+03  0.12497124008E+03 0.  0.
          5    1    3    3  502    0 -0.28866655709E+02 -0.45818568933E+02  0.16976026391E+01  0.54383792858E+02  0.47000000000E+01 0. -1.
         -5    1    3    3    0  502  0.23228466135E+02  0.31033102889E+02  0.10060322395E+03  0.10791530838E+03  0.47000000000E+01 0. -1.
          5    1    4    4  503    0 -0.23180954463E+02 -0.36540830409E+02  0.15778237949E+03  0.16367638258E+03  0.47000000000E+01 0.  1.
         -5    1    4    4    0  503  0.28819144036E+02  0.51326296454E+02  0.41849592762E+02  0.72376862221E+02  0.47000000000E+01 0.  1.
<mgrwt>
<rscale>  0 0.12599090E+03</rscale>
<asrwt>0</asrwt>
<pdfrwt beam="1">  1        5 0.53868087E-01 0.12599817E+03</pdfrwt>
<pdfrwt beam="2">  1       -5 0.74168884E-02 0.12599817E+03</pdfrwt>
<totfact> 0.30646186E+02</totfact>
</mgrwt>
</event>
<event>
 8    1  0.3542708E-007  0.1678612E+03  0.7546771E-02  0.1180098E+00
          5   -1    0    0  501    0  0.00000000000E+00  0.00000000000E+00  0.45967522469E+02  0.46207176087E+02  0.47000000000E+01 0. -1.
         -5   -1    0    0    0  501 -0.00000000000E+00 -0.00000000000E+00 -0.62176061744E+03  0.62177838126E+03  0.47000000000E+01 0. -1.
         25    2    1    2    0    0  0.10723972910E+03 -0.32427584247E+02 -0.33156639786E+03  0.37163428957E+03  0.12499544503E+03 0.  0.
         25    2    1    2    0    0 -0.10723972910E+03  0.32427584247E+02 -0.24422669712E+03  0.29635126778E+03  0.12500194643E+03 0.  0.
          5    1    4    4  502    0 -0.42189187370E+02  0.51519190019E+02 -0.20981461884E+03  0.22017815230E+03  0.47000000000E+01 0.  1.
         -5    1    4    4    0  502 -0.65050541732E+02 -0.19091605773E+02 -0.34412078281E+02  0.76173115482E+02  0.47000000000E+01 0.  1.
          5    1    3    3  503    0 -0.12889355367E+02 -0.44199350700E+02 -0.10857041426E+03  0.11802263739E+03  0.47000000000E+01 0.  1.
         -5    1    3    3    0  503  0.12012908447E+03  0.11771766453E+02 -0.22299598360E+03  0.25361165218E+03  0.47000000000E+01 0.  1.
<mgrwt>
<rscale>  0 0.16786002E+03</rscale>
<asrwt>0</asrwt>
<pdfrwt beam="1">  1        5 0.70917283E-02 0.16786124E+03</pdfrwt>
<pdfrwt beam="2">  1       -5 0.95675275E-01 0.16786124E+03</pdfrwt>
<totfact> 0.98605300E+01</totfact>
</mgrwt>
</event>
<event>
 8    1  0.3542708E-007  0.1726407E+03  0.7546771E-02  0.1175123E+00
          5   -1    0    0  501    0  0.00000000000E+00  0.00000000000E+00  0.21560700665E+02  0.22067030003E+02  0.47000000000E+01 0.  1.
         -5   -1    0    0    0  501 -0.00000000000E+00 -0.00000000000E+00 -0.17264456328E+04  0.17264520303E+04  0.47000000000E+01 0.  1.
         25    2    1    2    0    0  0.10697376024E+03 -0.52301222378E+02 -0.12519650120E+04  0.12638116746E+04  0.12499901690E+03 0.  0.
         25    2    1    2    0    0 -0.10697376024E+03  0.52301222378E+02 -0.45291992006E+03  0.48470738570E+03  0.12500397002E+03 0.  0.
          5    1    3    3  502    0  0.51385301857E+02 -0.86872499843E+02 -0.91112179826E+03  0.91670731520E+03  0.47000000000E+01 0. -1.
         -5    1    3    3    0  502  0.55588458386E+02  0.34571277465E+02 -0.34084321378E+03  0.34710435940E+03  0.47000000000E+01 0. -1.
          5    1    4    4  503    0 -0.11439679061E+03 -0.76183657734E-01 -0.25030680335E+03  0.27524937295E+03  0.47000000000E+01 0. -1.
         -5    1    4    4    0  503  0.74230303613E+01  0.52377406036E+02 -0.20261311671E+03  0.20945801275E+03  0.47000000000E+01 0. -1.
<mgrwt>
<rscale>  0 0.17263976E+03</rscale>
<asrwt>0</asrwt>
<pdfrwt beam="1">  1        5 0.33564728E-02 0.17264066E+03</pdfrwt>
<pdfrwt beam="2">  1       -5 0.26564635E+00 0.17264066E+03</pdfrwt>
<totfact> 0.17577479E+01</totfact>
</mgrwt>
</event>
<event>
 8    1  0.3542708E-007  0.2495194E+03  0.7546771E-02  0.1113612E+00
          5   -1    0    0  501    0  0.00000000000E+00  0.00000000000E+00  0.90754309698E+02  0.90875930415E+02  0.47000000000E+01 0.  1.
         -5   -1    0    0    0  501 -0.00000000000E+00 -0.00000000000E+00 -0.70231189753E+03  0.70232762399E+03  0.47000000000E+01 0.  1.
         25    2    1    2    0    0 -0.12368121851E+03 -0.17702341511E+03 -0.36734355189E+03  0.44407341520E+03  0.12500231863E+03 0.  0.
         25    2    1    2    0    0  0.12368121851E+03  0.17702341511E+03 -0.24421403595E+03  0.34913013920E+03  0.12496809767E+03 0.  0.
          5    1    4    4  502    0  0.60560920857E+02  0.15486782557E+03 -0.22414257300E+03  0.27913016956E+03  0.47000000000E+01 0. -1.
         -5    1    4    4    0  502  0.63120297658E+02  0.22155589548E+02 -0.20071462950E+02  0.69999969640E+02  0.47000000000E+01 0. -1.
          5    1    3    3  503    0 -0.98387841031E+02 -0.18662483902E+03 -0.26858530738E+03  0.34156866827E+03  0.47000000000E+01 0. -1.
         -5    1    3    3    0  503 -0.25293377484E+02  0.96014239040E+01 -0.98758244508E+02  0.10250474693E+03  0.47000000000E+01 0. -1.
<mgrwt>
<rscale>  0 0.24951508E+03</rscale>
<asrwt>0</asrwt>
<pdfrwt beam="1">  1        5 0.13972767E-01 0.24951936E+03</pdfrwt>
<pdfrwt beam="2">  1       -5 0.10805855E+00 0.24951936E+03</pdfrwt>
<totfact> 0.24532918E+01</totfact>
</mgrwt>
</event>
<event>
 8    1  0.3542708E-007  0.1747567E+03  0.7546771E-02  0.1172978E+00
          5   -1    0    0  501    0  0.00000000000E+00  0.00000000000E+00  0.21347820130E+03  0.21352993333E+03  0.47000000000E+01 0.  1.
         -5   -1    0    0    0  501 -0.00000000000E+00 -0.00000000000E+00 -0.14971848796E+03  0.14979224158E+03  0.47000000000E+01 0.  1.
         25    2    1    2    0    0  0.89278253971E+02  0.83333516786E+02 -0.67423660325E+01  0.17488002469E+03  0.12498992714E+03 0.  0.
         25    2    1    2    0    0 -0.89278253971E+02 -0.83333516786E+02  0.70502079367E+02  0.18844215022E+03  0.12499927652E+03 0.  0.
          5    1    4    4  502    0 -0.32661879635E+02  0.28026976671E+02  0.41789157381E+02  0.60172530919E+02  0.47000000000E+01 0.  1.
         -5    1    4    4    0  502 -0.56616374335E+02 -0.11136049346E+03  0.28712921986E+02  0.12826961930E+03  0.47000000000E+01 0.  1.
          5    1    3    3  503    0  0.72115764342E+02  0.10382766516E+03 -0.39324722509E+02  0.13247411566E+03  0.47000000000E+01 0. -1.
         -5    1    3    3    0  503  0.17162489629E+02 -0.20494148372E+02  0.32582356477E+02  0.42405909038E+02  0.47000000000E+01 0. -1.
<mgrwt>
<rscale>  0 0.17475502E+03</rscale>
<asrwt>0</asrwt>
<pdfrwt beam="1">  1        5 0.32852453E-01 0.17475669E+03</pdfrwt>
<pdfrwt beam="2">  1       -5 0.23043266E-01 0.17475669E+03</pdfrwt>
<totfact> 0.12402395E+02</totfact>
</mgrwt>
</event>
<event>
 8    1  0.3542708E-007  0.1385996E+03  0.7546771E-02  0.1215226E+00
          5   -1    0    0  501    0  0.00000000000E+00  0.00000000000E+00  0.34806454036E+03  0.34809627153E+03  0.47000000000E+01 0.  1.
         -5   -1    0    0    0  501 -0.00000000000E+00 -0.00000000000E+00 -0.72509172373E+02  0.72661338264E+02  0.47000000000E+01 0.  1.
         25    2    1    2    0    0 -0.31106022044E+02  0.51151491174E+02  0.34708056909E+02  0.14287766061E+03  0.12500126812E+03 0.  0.
         25    2    1    2    0    0  0.31106022044E+02 -0.51151491174E+02  0.24084731108E+03  0.27787994918E+03  0.12500311696E+03 0.  0.
          5    1    4    4  502    0  0.63771276108E+02 -0.45176407178E+02  0.74118889925E+02  0.10781179558E+03  0.47000000000E+01 0.  1.
         -5    1    4    4    0  502 -0.32665254064E+02 -0.59750839953E+01  0.16672842115E+03  0.17006815361E+03  0.47000000000E+01 0.  1.
          5    1    3    3  503    0 -0.39800812769E+02 -0.31471296244E+02  0.30867585147E+02  0.59577218777E+02  0.47000000000E+01 0. -1.
         -5    1    3    3    0  503  0.86947907255E+01  0.82622787418E+02  0.38404717622E+01  0.83300441835E+02  0.47000000000E+01 0. -1.
<mgrwt>
<rscale>  0 0.13859915E+03</rscale>
<asrwt>0</asrwt>
<pdfrwt beam="1">  1        5 0.53562537E-01 0.13859956E+03</pdfrwt>
<pdfrwt beam="2">  1       -5 0.11169403E-01 0.13859956E+03</pdfrwt>
<totfact> 0.15786281E+02</totfact>
</mgrwt>
</event>
<event>
 8    1  0.3542708E-007  0.1341877E+03  0.7546771E-02  0.1221374E+00
         -5   -1    0    0    0  501 -0.00000000000E+00  0.00000000000E+00  0.22054050148E+03  0.22059057730E+03  0.47000000000E+01 0.  1.
          5   -1    0    0  501    0  0.00000000000E+00 -0.00000000000E+00 -0.91587458187E+02  0.91707974011E+02  0.47000000000E+01 0.  1.
         25    2    1    2    0    0 -0.48417567697E+02  0.60738279974E+01  0.11621085399E+03  0.17750725877E+03  0.12499084799E+03 0.  0.
         25    2    1    2    0    0  0.48417567697E+02 -0.60738279974E+01  0.12742189297E+02  0.13479129254E+03  0.12500070763E+03 0.  0.
          5    1    3    3  502    0 -0.30403288552E+02 -0.57453845400E+02  0.39611256237E+02  0.76265627426E+02  0.47000000000E+01 0. -1.
         -5    1    3    3    0  502 -0.18014279145E+02  0.63527673398E+02  0.76599597756E+02  0.10124163134E+03  0.47000000000E+01 0. -1.
          5    1    4    4  503    0 -0.25692416343E+02  0.52838100643E+01  0.45585678767E+02  0.52803058765E+02  0.47000000000E+01 0.  1.
         -5    1    4    4    0  503  0.74109984040E+02 -0.11357638062E+02 -0.32843489470E+02  0.81988233773E+02  0.47000000000E+01 0.  1.
<mgrwt>
<rscale>  0 0.13418537E+03</rscale>
<asrwt>0</asrwt>
<pdfrwt beam="2">  1        5 0.14103501E-01 0.13418766E+03</pdfrwt>
<pdfrwt beam="1">  1       -5 0.33942430E-01 0.13418766E+03</pdfrwt>
<totfact> 0.26468799E+02</totfact>
</mgrwt>
</event>
<event>
 8    1  0.3542708E-007  0.1420239E+03  0.7546771E-02  0.1210633E+00
          5   -1    0    0  501    0  0.00000000000E+00  0.00000000000E+00  0.33382826441E+03  0.33386134865E+03  0.47000000000E+01 0. -1.
         -5   -1    0    0    0  501 -0.00000000000E+00 -0.00000000000E+00 -0.77795682010E+02  0.77937527157E+02  0.47000000000E+01 0. -1.
         25    2    1    2    0    0 -0.32377877018E+02 -0.59124284287E+02  0.30476925088E+02  0.14525716946E+03  0.12500717741E+03 0.  0.
         25    2    1    2    0    0  0.32377877018E+02  0.59124284287E+02  0.22555565731E+03  0.26654170634E+03  0.12500047504E+03 0.  0.
          5    1    3    3  502    0  0.48056793863E+02 -0.25793296706E+02  0.92896252132E+01  0.55526000468E+02  0.47000000000E+01 0.  1.
         -5    1    3    3    0  502 -0.80434670881E+02 -0.33330987581E+02  0.21187299875E+02  0.89731168993E+02  0.47000000000E+01 0.  1.
          5    1    4    4  503    0  0.38567201545E+02  0.18830832859E+02  0.22108662688E+03  0.22526299271E+03  0.47000000000E+01 0. -1.
         -5    1    4    4    0  503 -0.61893245266E+01  0.40293451428E+02  0.44690304363E+01  0.41278713632E+02  0.47000000000E+01 0. -1.
<mgrwt>
<rscale>  0 0.14202247E+03</rscale>
<asrwt>0</asrwt>
<pdfrwt beam="1">  1        5 0.51371651E-01 0.14202395E+03</pdfrwt>
<pdfrwt beam="2">  1       -5 0.11982022E-01 0.14202395E+03</pdfrwt>
<totfact> 0.15368312E+02</totfact>
</mgrwt>
</event>
<event>
 8    1  0.3542708E-007  0.1260050E+03  0.7546771E-02  0.1233511E+00
          5   -1    0    0  501    0  0.00000000000E+00  0.00000000000E+00  0.42444229822E+02  0.42703660794E+02  0.47000000000E+01 0. -1.
         -5   -1    0    0    0  501 -0.00000000000E+00 -0.00000000000E+00 -0.38055053458E+03  0.38057955722E+03  0.47000000000E+01 0. -1.
         25    2    1    2    0    0 -0.26042888299E+01  0.15588898884E+02 -0.19958352906E+03  0.23603143005E+03  0.12500981886E+03 0.  0.
         25    2    1    2    0    0  0.26042888299E+01 -0.15588898884E+02 -0.13852277570E+03  0.18725178796E+03  0.12499950647E+03 0.  0.
          5    1    4    4  502    0  0.55752514067E+02 -0.19596492124E+02 -0.11378861820E+03  0.12830551414E+03  0.47000000000E+01 0.  1.
         -5    1    4    4    0  502 -0.53148225238E+02  0.40075932407E+01 -0.24734157504E+02  0.58946273817E+02  0.47000000000E+01 0.  1.
          5    1    3    3  503    0 -0.36055346423E+02  0.95709937010E+01 -0.44005958477E+01  0.37855609491E+02  0.47000000000E+01 0.  1.
         -5    1    3    3    0  503  0.33451057593E+02  0.60179051826E+01 -0.19518293321E+03  0.19817582056E+03  0.47000000000E+01 0.  1.
<mgrwt>
<rscale>  0 0.12600241E+03</rscale>
<asrwt>0</asrwt>
<pdfrwt beam="1">  1        5 0.65520705E-02 0.12600496E+03</pdfrwt>
<pdfrwt beam="2">  1       -5 0.58568422E-01 0.12600496E+03</pdfrwt>
<totfact> 0.31566675E+02</totfact>
</mgrwt>
</event>
<event>
 8    1  0.3542708E-007  0.1358798E+03  0.7546771E-02  0.1218987E+00
         -5   -1    0    0    0  501 -0.00000000000E+00  0.00000000000E+00  0.77896458147E+02  0.78038120120E+02  0.47000000000E+01 0. -1.
          5   -1    0    0  501    0  0.00000000000E+00 -0.00000000000E+00 -0.25159068330E+03  0.25163458014E+03  0.47000000000E+01 0. -1.
         25    2    1    2    0    0 -0.52137489087E+02  0.10936803774E+02 -0.46661454886E+02  0.14366843772E+03  0.12500158871E+03 0.  0.
         25    2    1    2    0    0  0.52137489087E+02 -0.10936803774E+02 -0.12703277027E+03  0.18600426254E+03  0.12498931761E+03 0.  0.
          5    1    4    4  502    0  0.64887579873E+02 -0.52333683624E+02 -0.11245056416E+03  0.14005867286E+03  0.47000000000E+01 0.  1.
         -5    1    4    4    0  502 -0.12750090787E+02  0.41396879850E+02 -0.14582206111E+02  0.45945589685E+02  0.47000000000E+01 0.  1.
          5    1    3    3  503    0 -0.15028055712E+02 -0.56519977048E+02 -0.22507169508E+02  0.62841172357E+02  0.47000000000E+01 0. -1.
         -5    1    3    3    0  503 -0.37109433374E+02  0.67456780821E+02 -0.24154285378E+02  0.80827265364E+02  0.47000000000E+01 0. -1.
<mgrwt>
<rscale>  0 0.13587701E+03</rscale>
<asrwt>0</asrwt>
<pdfrwt beam="2">  1        5 0.38720532E-01 0.13587983E+03</pdfrwt>
<pdfrwt beam="1">  1       -5 0.11998344E-01 0.13587983E+03</pdfrwt>
<totfact> 0.27208401E+02</totfact>
</mgrwt>
</event>
<event>
 8    1  0.3542708E-007  0.1443769E+03  0.7546771E-02  0.1207560E+00
          5   -1    0    0  501    0  0.00000000000E+00  0.00000000000E+00  0.14679248798E+03  0.14686771098E+03  0.47000000000E+01 0. -1.
         -5   -1    0    0    0  501 -0.00000000000E+00 -0.00000000000E+00 -0.14239894691E+03  0.14247648957E+03  0.47000000000E+01 0. -1.
         25    2    1    2    0    0  0.59113655215E+01  0.71989333909E+02  0.11224518317E+02  0.14480579366E+03  0.12500127850E+03 0.  0.
         25    2    1    2    0    0 -0.59113655215E+01 -0.71989333909E+02 -0.68309772431E+01  0.14453840689E+03  0.12500912118E+03 0.  0.
          5    1    3    3  502    0 -0.57170695602E+02  0.21887752406E+02 -0.78225561362E+01  0.61893816537E+02  0.47000000000E+01 0.  1.
         -5    1    3    3    0  502  0.63082061124E+02  0.50101581503E+02  0.19047074453E+02  0.82911977120E+02  0.47000000000E+01 0.  1.
          5    1    4    4  503    0 -0.48300188609E+02 -0.17443133720E+02 -0.42341073326E+02  0.66723516275E+02  0.47000000000E+01 0.  1.
         -5    1    4    4    0  503  0.42388823088E+02 -0.54546200189E+02  0.35510096083E+02  0.77814890616E+02  0.47000000000E+01 0.  1.
<mgrwt>
<rscale>  0 0.14437520E+03</rscale>
<asrwt>0</asrwt>
<pdfrwt beam="1">  1        5 0.22595211E-01 0.14437690E+03</pdfrwt>
<pdfrwt beam="2">  1       -5 0.21919281E-01 0.14437690E+03</pdfrwt>
<totfact> 0.26562370E+02</totfact>
</mgrwt>
</event>
<event>
 8    1  0.3542708E-007  0.1253207E+03  0.7546771E-02  0.1234581E+00
         -5   -1    0    0    0  501 -0.00000000000E+00  0.00000000000E+00  0.22538959099E+03  0.22543858970E+03  0.47000000000E+01 0.  1.
          5   -1    0    0  501    0  0.00000000000E+00 -0.00000000000E+00 -0.70192932902E+02  0.70350108950E+02  0.47000000000E+01 0.  1.
         25    2    1    2    0    0 -0.83072822171E+01 -0.33541871317E+01  0.91963650213E+02  0.15541882684E+03  0.12496974540E+03 0.  0.
         25    2    1    2    0    0  0.83072822171E+01  0.33541871317E+01  0.63233007871E+02  0.14036987181E+03  0.12500010447E+03 0.  0.
          5    1    4    4  502    0 -0.23248603269E+02 -0.21252511062E+02  0.87650906333E+02  0.93257375908E+02  0.47000000000E+01 0. -1.
         -5    1    4    4    0  502  0.31555885486E+02  0.24606698193E+02 -0.24417898462E+02  0.47112495901E+02  0.47000000000E+01 0. -1.
          5    1    3    3  503    0 -0.39323846840E+02  0.47132341234E+02  0.26578516926E+02  0.67054679796E+02  0.47000000000E+01 0.  1.
         -5    1    3    3    0  503  0.31016564623E+02 -0.50486528366E+02  0.65385133287E+02  0.88364147042E+02  0.47000000000E+01 0.  1.
<mgrwt>
<rscale>  0 0.12531317E+03</rscale>
<asrwt>0</asrwt>
<pdfrwt beam="2">  1        5 0.10814772E-01 0.12532074E+03</pdfrwt>
<pdfrwt beam="1">  1       -5 0.34691181E-01 0.12532074E+03</pdfrwt>
<totfact> 0.39607642E+02</totfact>
</mgrwt>
</event>
<event>
 8    1  0.3542708E-007  0.1266287E+03  0.7546771E-02  0.1232548E+00
          5   -1    0    0  501    0  0.00000000000E+00  0.00000000000E+00  0.15346957198E+02  0.16050516977E+02  0.47000000000E+01 0.  1.
         -5   -1    0    0    0  501 -0.00000000000E+00 -0.00000000000E+00 -0.10506803305E+04  0.10506908427E+04  0.47000000000E+01 0.  1.
         25    2    1    2    0    0  0.11950988553E+02 -0.16299059614E+02 -0.60782705427E+03  0.62087725027E+03  0.12500538599E+03 0.  0.
         25    2    1    2    0    0 -0.11950988553E+02  0.16299059614E+02 -0.42750631903E+03  0.44586410939E+03  0.12499866304E+03 0.  0.
          5    1    3    3  502    0 -0.44100330686E+02 -0.36942282247E+02 -0.41389379054E+03  0.41789918789E+03  0.47000000000E+01 0. -1.
         -5    1    3    3    0  502  0.56051319239E+02  0.20643222634E+02 -0.19393326373E+03  0.20297806239E+03  0.47000000000E+01 0. -1.
          5    1    4    4  503    0 -0.15072155176E+02 -0.53746644672E+02 -0.17372128506E+03  0.18252957722E+03  0.47000000000E+01 0. -1.
         -5    1    4    4    0  503  0.31211666228E+01  0.70045704286E+02 -0.25378503397E+03  0.26333453218E+03  0.47000000000E+01 0. -1.
<mgrwt>
<rscale>  0 0.12662706E+03</rscale>
<asrwt>0</asrwt>
<pdfrwt beam="1">  1        5 0.24159998E-02 0.12662872E+03</pdfrwt>
<pdfrwt beam="2">  1       -5 0.16169800E+00 0.12662872E+03</pdfrwt>
<totfact> 0.13683207E+02</totfact>
</mgrwt>
</event>
<event>
 8    1  0.3542708E-007  0.1369990E+03  0.7546771E-02  0.1217427E+00
         -5   -1    0    0    0  501 -0.00000000000E+00  0.00000000000E+00  0.19212130188E+03  0.19217878300E+03  0.47000000000E+01 0. -1.
          5   -1    0    0  501    0  0.00000000000E+00 -0.00000000000E+00 -0.15889939897E+03  0.15896889316E+03  0.47000000000E+01 0. -1.
         25    2    1    2    0    0 -0.52905580853E+02  0.18547300632E+02  0.12564646111E+03  0.18589178589E+03  0.12500288007E+03 0.  0.
         25    2    1    2    0    0  0.52905580853E+02 -0.18547300632E+02 -0.92424558196E+02  0.16525589027E+03  0.12499682982E+03 0.  0.
          5    1    4    4  502    0  0.11135212770E+02 -0.69311294519E+02 -0.56210480441E+02  0.90054187147E+02  0.47000000000E+01 0. -1.
         -5    1    4    4    0  502  0.41770368083E+02  0.50763993887E+02 -0.36214077755E+02  0.75201703124E+02  0.47000000000E+01 0. -1.
          5    1    3    3  503    0 -0.44807489952E+02  0.59114154801E+01 -0.12281620392E+02  0.47069992440E+02  0.47000000000E+01 0. -1.
         -5    1    3    3    0  503 -0.80980909005E+01  0.12635885152E+02  0.13792808150E+03  0.13882179345E+03  0.47000000000E+01 0. -1.
<mgrwt>
<rscale>  0 0.13699761E+03</rscale>
<asrwt>0</asrwt>
<pdfrwt beam="2">  1        5 0.24455829E-01 0.13699899E+03</pdfrwt>
<pdfrwt beam="1">  1       -5 0.29566891E-01 0.13699899E+03</pdfrwt>
<totfact> 0.12633570E+02</totfact>
</mgrwt>
</event>
<event>
 8    1  0.3542708E-007  0.1321586E+03  0.7546771E-02  0.1224294E+00
         -5   -1    0    0    0  501 -0.00000000000E+00  0.00000000000E+00  0.66113932980E+02  0.66280782540E+02  0.47000000000E+01 0.  1.
          5   -1    0    0  501    0  0.00000000000E+00 -0.00000000000E+00 -0.27911831085E+03  0.27915787908E+03  0.47000000000E+01 0.  1.
         25    2    1    2    0    0 -0.34568503065E+02 -0.25372566221E+02 -0.65826867655E+02  0.14764506725E+03  0.12500856313E+03 0.  0.
         25    2    1    2    0    0  0.34568503065E+02  0.25372566221E+02 -0.14717751022E+03  0.19779359437E+03  0.12498935131E+03 0.  0.
          5    1    3    3  502    0  0.29248646046E+02  0.33836485638E+02 -0.21728524691E+02  0.49946069326E+02  0.47000000000E+01 0.  1.
         -5    1    3    3    0  502 -0.63817149111E+02 -0.59209051859E+02 -0.44098342964E+02  0.97698997921E+02  0.47000000000E+01 0.  1.
          5    1    4    4  503    0  0.81662652858E+02  0.20264616183E+02 -0.87932259635E+02  0.12179333243E+03  0.47000000000E+01 0. -1.
         -5    1    4    4    0  503 -0.47094149793E+02  0.51079500371E+01 -0.59245250582E+02  0.76000261939E+02  0.47000000000E+01 0. -1.
<mgrwt>
<rscale>  0 0.13215403E+03</rscale>
<asrwt>0</asrwt>
<pdfrwt beam="2">  1        5 0.42957156E-01 0.13215858E+03</pdfrwt>
<pdfrwt beam="1">  1       -5 0.10187253E-01 0.13215858E+03</pdfrwt>
<totfact> 0.29046604E+02</totfact>
</mgrwt>
</event>
<event>
 8    1  0.3542708E-007  0.1313659E+03  0.7546771E-02  0.1225444E+00
          5   -1    0    0  501    0  0.00000000000E+00  0.00000000000E+00  0.70406205878E+02  0.70562906872E+02  0.47000000000E+01 0. -1.
         -5   -1    0    0    0  501 -0.00000000000E+00 -0.00000000000E+00 -0.25736454332E+03  0.25740745553E+03  0.47000000000E+01 0. -1.
         25    2    1    2    0    0  0.19427411939E+02 -0.35421884050E+02 -0.12991599568E+03  0.18475703972E+03  0.12499945435E+03 0.  0.
         25    2    1    2    0    0 -0.19427411939E+02  0.35421884050E+02 -0.57042341765E+02  0.14321332268E+03  0.12499637129E+03 0.  0.
          5    1    3    3  502    0 -0.27671569214E+01  0.69916331539E+01 -0.13598679771E+03  0.13627560032E+03  0.47000000000E+01 0. -1.
         -5    1    3    3    0  502  0.22194568860E+02 -0.42413517204E+02  0.60708020297E+01  0.48481439395E+02  0.47000000000E+01 0. -1.
          5    1    4    4  503    0 -0.55105822978E+02  0.38736932857E+02 -0.76607855628E+02  0.10211784975E+03  0.47000000000E+01 0. -1.
         -5    1    4    4    0  503  0.35678411039E+02 -0.33150488072E+01  0.19565513863E+02  0.41095472933E+02  0.47000000000E+01 0. -1.
<mgrwt>
<rscale>  0 0.13136516E+03</rscale>
<asrwt>0</asrwt>
<pdfrwt beam="1">  1        5 0.10847079E-01 0.13136589E+03</pdfrwt>
<pdfrwt beam="2">  1       -5 0.39609899E-01 0.13136589E+03</pdfrwt>
<totfact> 0.30673661E+02</totfact>
</mgrwt>
</event>
<event>
 8    1  0.3542708E-007  0.1570968E+03  0.7546771E-02  0.1192014E+00
         -5   -1    0    0    0  501 -0.00000000000E+00  0.00000000000E+00  0.12560287847E+04  0.12560375782E+04  0.47000000000E+01 0.  1.
          5   -1    0    0  501    0  0.00000000000E+00 -0.00000000000E+00 -0.19438461528E+02  0.19998594615E+02  0.47000000000E+01 0.  1.
         25    2    1    2    0    0  0.94771986296E+02  0.85011437604E+01  0.65862318008E+03  0.67709927191E+03  0.12499972741E+03 0.  0.
         25    2    1    2    0    0 -0.94771986296E+02 -0.85011437604E+01  0.57796714305E+03  0.59893690092E+03  0.12500157601E+03 0.  0.
          5    1    4    4  502    0 -0.10791901650E+03  0.31286762114E+02  0.36896138629E+03  0.38572006712E+03  0.47000000000E+01 0. -1.
         -5    1    4    4    0  502  0.13147030201E+02 -0.39787905874E+02  0.20900575676E+03  0.21321683380E+03  0.47000000000E+01 0. -1.
          5    1    3    3  503    0  0.54902914603E+02  0.38026964025E+02  0.58107550041E+03  0.58491982972E+03  0.47000000000E+01 0.  1.
         -5    1    3    3    0  503  0.39869071693E+02 -0.29525820264E+02  0.77547679663E+02  0.92179442182E+02  0.47000000000E+01 0.  1.
<mgrwt>
<rscale>  0 0.15709639E+03</rscale>
<asrwt>0</asrwt>
<pdfrwt beam="2">  1        5 0.30342958E-02 0.15709676E+03</pdfrwt>
<pdfrwt beam="1">  1       -5 0.19327898E+00 0.15709676E+03</pdfrwt>
<totfact> 0.60060472E+01</totfact>
</mgrwt>
</event>
<event>
 8    1  0.3542708E-007  0.1368899E+03  0.7546771E-02  0.1217576E+00
         -5   -1    0    0    0  501 -0.00000000000E+00  0.00000000000E+00  0.22460861793E+03  0.22465778697E+03  0.47000000000E+01 0.  1.
          5   -1    0    0  501    0  0.00000000000E+00 -0.00000000000E+00 -0.85572000605E+02  0.85700976001E+02  0.47000000000E+01 0.  1.
         25    2    1    2    0    0  0.28877469960E+02  0.47746874326E+02  0.94754142589E+02  0.16648455435E+03  0.12500034808E+03 0.  0.
         25    2    1    2    0    0 -0.28877469960E+02 -0.47746874326E+02  0.44282474736E+02  0.14387420862E+03  0.12500071224E+03 0.  0.
          5    1    4    4  502    0  0.32475221367E+02 -0.21134474720E+02 -0.25880368342E+02  0.46831501044E+02  0.47000000000E+01 0.  1.
         -5    1    4    4    0  502 -0.61352691327E+02 -0.26612399606E+02  0.70162843077E+02  0.97042707581E+02  0.47000000000E+01 0.  1.
          5    1    3    3  503    0  0.19663276605E+02 -0.30301698233E+02  0.77862091903E+02  0.85961809650E+02  0.47000000000E+01 0. -1.
         -5    1    3    3    0  503  0.92141933548E+01  0.78048572559E+02  0.16892050686E+02  0.80522744700E+02  0.47000000000E+01 0. -1.
<mgrwt>
<rscale>  0 0.13688984E+03</rscale>
<asrwt>0</asrwt>
<pdfrwt beam="2">  1        5 0.13178627E-01 0.13688992E+03</pdfrwt>
<pdfrwt beam="1">  1       -5 0.34568875E-01 0.13688992E+03</pdfrwt>
<totfact> 0.29016821E+02</totfact>
</mgrwt>
</event>
<event>
 8    1  0.3542708E-007  0.2383551E+03  0.7546771E-02  0.1120894E+00
          5   -1    0    0  501    0  0.00000000000E+00  0.00000000000E+00  0.25090123061E+03  0.25094524806E+03  0.47000000000E+01 0.  1.
         -5   -1    0    0    0  501 -0.00000000000E+00 -0.00000000000E+00 -0.23721882323E+03  0.23726537904E+03  0.47000000000E+01 0.  1.
         25    2    1    2    0    0  0.20293621370E+03 -0.17247959108E+01 -0.45415722575E+02  0.24264325331E+03  0.12500831479E+03 0.  0.
         25    2    1    2    0    0 -0.20293621370E+03  0.17247959108E+01  0.59098129959E+02  0.24556737379E+03  0.12499865741E+03 0.  0.
          5    1    3    3  502    0  0.13845749788E+03  0.56966779807E+02 -0.16675692527E+02  0.15071782058E+03  0.47000000000E+01 0.  1.
         -5    1    3    3    0  502  0.64478715825E+02 -0.58691575718E+02 -0.28740030048E+02  0.91925432726E+02  0.47000000000E+01 0.  1.
          5    1    4    4  503    0 -0.22000491692E+03 -0.22025006860E+01  0.52256972113E+02  0.22618553361E+03  0.47000000000E+01 0.  1.
         -5    1    4    4    0  503  0.17068703223E+02  0.39272965968E+01  0.68411578466E+01  0.19381840185E+02  0.47000000000E+01 0.  1.
<mgrwt>
<rscale>  0 0.23835385E+03</rscale>
<asrwt>0</asrwt>
<pdfrwt beam="1">  1        5 0.38607157E-01 0.23835511E+03</pdfrwt>
<pdfrwt beam="2">  1       -5 0.36502171E-01 0.23835511E+03</pdfrwt>
<totfact> 0.39305184E+01</totfact>
</mgrwt>
</event>
<event>
 8    1  0.3542708E-007  0.1428411E+03  0.7546771E-02  0.1209557E+00
          5   -1    0    0  501    0  0.00000000000E+00  0.00000000000E+00  0.86036922624E+02  0.86165202110E+02  0.47000000000E+01 0. -1.
         -5   -1    0    0    0  501 -0.00000000000E+00 -0.00000000000E+00 -0.23999350865E+03  0.24003952631E+03  0.47000000000E+01 0. -1.
         25    2    1    2    0    0 -0.41380870905E+02 -0.55388101684E+02 -0.95736912903E+02  0.17195677301E+03  0.12499342785E+03 0.  0.
         25    2    1    2    0    0  0.41380870905E+02  0.55388101684E+02 -0.58219673119E+02  0.15424795542E+03  0.12499073217E+03 0.  0.
          5    1    3    3  502    0  0.18811460082E+02  0.85546029170E+01  0.18264175646E+02  0.27977175938E+02  0.47000000000E+01 0.  1.
         -5    1    3    3    0  502 -0.60192330987E+02 -0.63942704601E+02 -0.11400108855E+03  0.14397959707E+03  0.47000000000E+01 0.  1.
          5    1    4    4  503    0  0.39979591176E+02  0.94866488647E+02 -0.41559557795E+02  0.11111842882E+03  0.47000000000E+01 0.  1.
         -5    1    4    4    0  503  0.14012797296E+01 -0.39478386963E+02 -0.16660115324E+02  0.43129526600E+02  0.47000000000E+01 0.  1.
<mgrwt>
<rscale>  0 0.14284049E+03</rscale>
<asrwt>0</asrwt>
<pdfrwt beam="1">  1        5 0.13249857E-01 0.14284108E+03</pdfrwt>
<pdfrwt beam="2">  1       -5 0.36935485E-01 0.14284108E+03</pdfrwt>
<totfact> 0.25520652E+02</totfact>
</mgrwt>
</event>
<event>
 8    1  0.3542708E-007  0.1700611E+03  0.7546771E-02  0.1177784E+00
          5   -1    0    0  501    0  0.00000000000E+00  0.00000000000E+00  0.38557501439E+02  0.38842900474E+02  0.47000000000E+01 0. -1.
         -5   -1    0    0    0  501 -0.00000000000E+00 -0.00000000000E+00 -0.74936375212E+03  0.74937849115E+03  0.47000000000E+01 0. -1.
         25    2    1    2    0    0  0.23508943790E+01 -0.11528205050E+03 -0.37749555059E+03  0.41403318106E+03  0.12500042570E+03 0.  0.
         25    2    1    2    0    0 -0.23508943790E+01  0.11528205050E+03 -0.33331070009E+03  0.37418821056E+03  0.12500126503E+03 0.  0.
          5    1    4    4  502    0  0.48962270996E+02  0.74042654853E+02 -0.26363042696E+03  0.27821342660E+03  0.47000000000E+01 0. -1.
         -5    1    4    4    0  502 -0.51313165375E+02  0.41239395651E+02 -0.69680273126E+02  0.95974783966E+02  0.47000000000E+01 0. -1.
          5    1    3    3  503    0  0.59446700481E+01 -0.14150746600E+03 -0.29508715644E+03  0.32735030462E+03  0.47000000000E+01 0.  1.
         -5    1    3    3    0  503 -0.35937756691E+01  0.26225415493E+02 -0.82408394150E+02  0.86682876439E+02  0.47000000000E+01 0.  1.
<mgrwt>
<rscale>  0 0.17006099E+03</rscale>
<asrwt>0</asrwt>
<pdfrwt beam="1">  1        5 0.59550114E-02 0.17006115E+03</pdfrwt>
<pdfrwt beam="2">  1       -5 0.11530981E+00 0.17006115E+03</pdfrwt>
<totfact> 0.83867644E+01</totfact>
</mgrwt>
</event>
<event>
 8    1  0.3542708E-007  0.1869676E+03  0.7546771E-02  0.1161226E+00
          5   -1    0    0  501    0  0.00000000000E+00  0.00000000000E+00  0.61306607779E+02  0.61486503864E+02  0.47000000000E+01 0. -1.
         -5   -1    0    0    0  501 -0.00000000000E+00 -0.00000000000E+00 -0.60065072749E+03  0.60066911560E+03  0.47000000000E+01 0. -1.
         25    2    1    2    0    0 -0.71922980164E+02  0.11900314221E+03 -0.34545672113E+03  0.39280599679E+03  0.12498616725E+03 0.  0.
         25    2    1    2    0    0  0.71922980164E+02 -0.11900314221E+03 -0.19388739857E+03  0.26934962267E+03  0.12498893142E+03 0.  0.
          5    1    3    3  502    0  0.28688908116E+02 -0.24576473974E+01 -0.54400220922E+02  0.61729794394E+02  0.47000000000E+01 0. -1.
         -5    1    3    3    0  502 -0.10061188828E+03  0.12146078960E+03 -0.29105650021E+03  0.33107620239E+03  0.47000000000E+01 0. -1.
          5    1    4    4  503    0  0.72263163089E+02 -0.59430465527E+02 -0.18705401584E+03  0.20920143358E+03  0.47000000000E+01 0.  1.
         -5    1    4    4    0  503 -0.34018292538E+00 -0.59572676680E+02 -0.68333827373E+01  0.60148189091E+02  0.47000000000E+01 0.  1.
<mgrwt>
<rscale>  0 0.18696717E+03</rscale>
<asrwt>0</asrwt>
<pdfrwt beam="1">  1        5 0.94470388E-02 0.18696763E+03</pdfrwt>
<pdfrwt beam="2">  1       -5 0.92423053E-01 0.18696763E+03</pdfrwt>
<totfact> 0.67371185E+01</totfact>
</mgrwt>
</event>
<event>
 8    1  0.3542708E-007  0.1321022E+03  0.7546771E-02  0.1224370E+00
         -5   -1    0    0    0  501 -0.00000000000E+00  0.00000000000E+00  0.58328586059E+02  0.58517637954E+02  0.47000000000E+01 0.  1.
          5   -1    0    0  501    0  0.00000000000E+00 -0.00000000000E+00 -0.30339174660E+03  0.30342814949E+03  0.47000000000E+01 0.  1.
         25    2    1    2    0    0 -0.33461692025E+02 -0.26581683771E+02 -0.99529072455E+02  0.16539767872E+03  0.12499634041E+03 0.  0.
         25    2    1    2    0    0  0.33461692025E+02  0.26581683771E+02 -0.14553408809E+03  0.19654810873E+03  0.12499887001E+03 0.  0.
          5    1    4    4  502    0  0.81916963134E+01 -0.11064194924E+02 -0.15003881535E+03  0.15074235108E+03  0.47000000000E+01 0.  1.
         -5    1    4    4    0  502  0.25269995711E+02  0.37645878695E+02  0.45047272622E+01  0.45805757648E+02  0.47000000000E+01 0.  1.
          5    1    3    3  503    0 -0.65648467206E+02  0.11454839793E+02 -0.93605150288E+02  0.11499977722E+03  0.47000000000E+01 0. -1.
         -5    1    3    3    0  503  0.32186775181E+02 -0.38036523564E+02 -0.59239221670E+01  0.50397901496E+02  0.47000000000E+01 0. -1.
<mgrwt>
<rscale>  0 0.13210159E+03</rscale>
<asrwt>0</asrwt>
<pdfrwt beam="2">  1        5 0.46692995E-01 0.13210219E+03</pdfrwt>
<pdfrwt beam="1">  1       -5 0.89909715E-02 0.13210219E+03</pdfrwt>
<totfact> 0.30336582E+02</totfact>
</mgrwt>
</event>
<event>
 8    1  0.3542708E-007  0.1310320E+03  0.7546771E-02  0.1225933E+00
          5   -1    0    0  501    0  0.00000000000E+00  0.00000000000E+00  0.97037787418E+01  0.10782083373E+02  0.47000000000E+01 0.  1.
         -5   -1    0    0    0  501 -0.00000000000E+00 -0.00000000000E+00 -0.19597846515E+04  0.19597902873E+04  0.47000000000E+01 0.  1.
         25    2    1    2    0    0  0.18170775193E+02 -0.34841454654E+02 -0.13504471046E+04  0.13567891394E+04  0.12500112921E+03 0.  0.
         25    2    1    2    0    0 -0.18170775193E+02  0.34841454654E+02 -0.59963376815E+03  0.61378323133E+03  0.12500038049E+03 0.  0.
          5    1    4    4  502    0  0.16438696283E+02 -0.28707342858E+02 -0.39989870811E+03  0.40129217413E+03  0.47000000000E+01 0. -1.
         -5    1    4    4    0  502 -0.34609471476E+02  0.63548797512E+02 -0.19973506004E+03  0.21249105720E+03  0.47000000000E+01 0. -1.
          5    1    3    3  503    0  0.30132728201E+02 -0.78917860251E+02 -0.93121313988E+03  0.93504866818E+03  0.47000000000E+01 0. -1.
         -5    1    3    3    0  503 -0.11961953008E+02  0.44076405597E+02 -0.41923396472E+03  0.42174047117E+03  0.47000000000E+01 0. -1.
<mgrwt>
<rscale>  0 0.13103183E+03</rscale>
<asrwt>0</asrwt>
<pdfrwt beam="1">  1        5 0.15762706E-02 0.13103201E+03</pdfrwt>
<pdfrwt beam="2">  1       -5 0.30158841E+00 0.13103201E+03</pdfrwt>
<totfact> 0.32678634E+01</totfact>
</mgrwt>
</event>
<event>
 8    1  0.3542708E-007  0.1270425E+03  0.7546771E-02  0.1231915E+00
         -5   -1    0    0    0  501 -0.00000000000E+00  0.00000000000E+00  0.93027714294E+02  0.93146366685E+02  0.47000000000E+01 0. -1.
          5   -1    0    0  501    0  0.00000000000E+00 -0.00000000000E+00 -0.17972636026E+03  0.17978780429E+03  0.47000000000E+01 0. -1.
         25    2    1    2    0    0  0.21369283284E+02  0.76288927516E+01 -0.17402240361E+02  0.12822882753E+03  0.12499979187E+03 0.  0.
         25    2    1    2    0    0 -0.21369283284E+02 -0.76288927516E+01 -0.69296405606E+02  0.14470534345E+03  0.12499119297E+03 0.  0.
          5    1    3    3  502    0 -0.36579674883E+02  0.37922940431E+02 -0.30946159908E+02  0.61286024822E+02  0.47000000000E+01 0. -1.
         -5    1    3    3    0  502  0.57948958167E+02 -0.30294047680E+02  0.13543919547E+02  0.66942802706E+02  0.47000000000E+01 0. -1.
          5    1    4    4  503    0 -0.69472615351E+02  0.17782622157E+02 -0.46071849894E+02  0.85366101511E+02  0.47000000000E+01 0. -1.
         -5    1    4    4    0  503  0.48103332067E+02 -0.25411514909E+02 -0.23224555712E+02  0.59339241939E+02  0.47000000000E+01 0. -1.
<mgrwt>
<rscale>  0 0.12704037E+03</rscale>
<asrwt>0</asrwt>
<pdfrwt beam="2">  1        5 0.27664063E-01 0.12704249E+03</pdfrwt>
<pdfrwt beam="1">  1       -5 0.14325810E-01 0.12704249E+03</pdfrwt>
<totfact> 0.37722125E+02</totfact>
</mgrwt>
</event>
<event>
 8    1  0.3542708E-007  0.1494793E+03  0.7546771E-02  0.1201115E+00
         -5   -1    0    0    0  501 -0.00000000000E+00  0.00000000000E+00  0.59456412807E+03  0.59458270441E+03  0.47000000000E+01 0. -1.
          5   -1    0    0  501    0  0.00000000000E+00 -0.00000000000E+00 -0.37806907399E+02  0.38097929695E+02  0.47000000000E+01 0. -1.
         25    2    1    2    0    0 -0.78830018832E+02 -0.22462662372E+02  0.31050805872E+03  0.34461345913E+03  0.12499775444E+03 0.  0.
         25    2    1    2    0    0  0.78830018832E+02  0.22462662372E+02  0.24624916195E+03  0.28806717498E+03  0.12500121787E+03 0.  0.
          5    1    4    4  502    0  0.36344828996E+02  0.33851798378E+02  0.14245034812E+02  0.51883541369E+02  0.47000000000E+01 0.  1.
         -5    1    4    4    0  502  0.42485189836E+02 -0.11389136006E+02  0.23200412714E+03  0.23618363361E+03  0.47000000000E+01 0.  1.
          5    1    3    3  503    0  0.19017194377E+02 -0.17947749021E+02  0.17687685211E+03  0.17886108070E+03  0.47000000000E+01 0. -1.
         -5    1    3    3    0  503 -0.97847213208E+02 -0.45149133512E+01  0.13363120660E+03  0.16575237843E+03  0.47000000000E+01 0. -1.
<mgrwt>
<rscale>  0 0.14947853E+03</rscale>
<asrwt>0</asrwt>
<pdfrwt beam="2">  1        5 0.58402624E-02 0.14947925E+03</pdfrwt>
<pdfrwt beam="1">  1       -5 0.91495223E-01 0.14947925E+03</pdfrwt>
<totfact> 0.14715921E+02</totfact>
</mgrwt>
</event>
<event>
 8    1  0.3542708E-007  0.3009817E+03  0.7546771E-02  0.1084752E+00
          5   -1    0    0  501    0  0.00000000000E+00  0.00000000000E+00  0.28054981693E+03  0.28058918329E+03  0.47000000000E+01 0. -1.
         -5   -1    0    0    0  501 -0.00000000000E+00 -0.00000000000E+00 -0.40251153257E+03  0.40253897185E+03  0.47000000000E+01 0. -1.
         25    2    1    2    0    0  0.92627699540E+02  0.25764830648E+03 -0.21295147190E+03  0.36869351965E+03  0.12499616592E+03 0.  0.
         25    2    1    2    0    0 -0.92627699540E+02 -0.25764830648E+03  0.90989756249E+02  0.31443463549E+03  0.12500985441E+03 0.  0.
          5    1    4    4  502    0 -0.59760181637E+01 -0.16138920257E+02 -0.26697171792E+02  0.32109290273E+02  0.47000000000E+01 0. -1.
         -5    1    4    4    0  502 -0.86651681376E+02 -0.24150938622E+03  0.11768692804E+03  0.28232534521E+03  0.47000000000E+01 0. -1.
          5    1    3    3  503    0  0.80012422584E+02  0.10691005293E+03 -0.41302833304E+02  0.13985621625E+03  0.47000000000E+01 0. -1.
         -5    1    3    3    0  503  0.12615276956E+02  0.15073825355E+03 -0.17164863859E+03  0.22883730340E+03  0.47000000000E+01 0. -1.
<mgrwt>
<rscale>  0 0.30098031E+03</rscale>
<asrwt>0</asrwt>
<pdfrwt beam="1">  1        5 0.43166649E-01 0.30098173E+03</pdfrwt>
<pdfrwt beam="2">  1       -5 0.61929990E-01 0.30098173E+03</pdfrwt>
<totfact> 0.10629661E+01</totfact>
</mgrwt>
</event>
<event>
 8    1  0.3542708E-007  0.1311051E+03  0.7546771E-02  0.1225827E+00
         -5   -1    0    0    0  501 -0.00000000000E+00  0.00000000000E+00  0.22735329593E+03  0.22740187152E+03  0.47000000000E+01 0.  1.
          5   -1    0    0  501    0  0.00000000000E+00 -0.00000000000E+00 -0.90579877645E+02  0.90701732256E+02  0.47000000000E+01 0.  1.
         25    2    1    2    0    0  0.28545240325E+02  0.27336645153E+02  0.13327975364E+03  0.18695201270E+03  0.12500175762E+03 0.  0.
         25    2    1    2    0    0 -0.28545240325E+02 -0.27336645153E+02  0.34936646420E+01  0.13115159107E+03  0.12500564481E+03 0.  0.
          5    1    3    3  502    0  0.71421632572E+02  0.42743318761E+02  0.10077024974E+03  0.13078522138E+03  0.47000000000E+01 0. -1.
         -5    1    3    3    0  502 -0.42876392247E+02 -0.15406673608E+02  0.32509503901E+02  0.56166791324E+02  0.47000000000E+01 0. -1.
          5    1    4    4  503    0 -0.30698458648E+02  0.23439003234E+02 -0.45868415310E+02  0.60148015420E+02  0.47000000000E+01 0.  1.
         -5    1    4    4    0  503  0.21532183229E+01 -0.50775648387E+02  0.49362079952E+02  0.71003575652E+02  0.47000000000E+01 0.  1.
<mgrwt>
<rscale>  0 0.13110412E+03</rscale>
<asrwt>0</asrwt>
<pdfrwt beam="2">  1        5 0.13948476E-01 0.13110505E+03</pdfrwt>
<pdfrwt beam="1">  1       -5 0.34990540E-01 0.13110505E+03</pdfrwt>
<totfact> 0.25201303E+02</totfact>
</mgrwt>
</event>
<event>
 8    1  0.3542708E-007  0.1274329E+03  0.7546771E-02  0.1231315E+00
          5   -1    0    0  501    0  0.00000000000E+00  0.00000000000E+00  0.10443709970E+03  0.10454280364E+03  0.47000000000E+01 0.  1.
         -5   -1    0    0    0  501 -0.00000000000E+00 -0.00000000000E+00 -0.16596559578E+03  0.16603213238E+03  0.47000000000E+01 0.  1.
         25    2    1    2    0    0  0.22140785603E+02 -0.11142090157E+02 -0.65086860788E+02  0.14309241171E+03  0.12499911312E+03 0.  0.
         25    2    1    2    0    0 -0.22140785603E+02  0.11142090157E+02  0.35583647057E+01  0.12748252431E+03  0.12499908593E+03 0.  0.
          5    1    4    4  502    0 -0.70050162697E+00  0.26306114841E+02  0.59652069319E+02  0.65367895443E+02  0.47000000000E+01 0. -1.
         -5    1    4    4    0  502 -0.21440283976E+02 -0.15164024684E+02 -0.56093704614E+02  0.62114628864E+02  0.47000000000E+01 0. -1.
          5    1    3    3  503    0  0.22560236083E+02 -0.37954085866E+02  0.23625733266E+02  0.50296542211E+02  0.47000000000E+01 0. -1.
         -5    1    3    3    0  503 -0.41945047971E+00  0.26811995709E+02 -0.88712594053E+02  0.92795869500E+02  0.47000000000E+01 0. -1.
<mgrwt>
<rscale>  0 0.12743287E+03</rscale>
<asrwt>0</asrwt>
<pdfrwt beam="1">  1        5 0.16080495E-01 0.12743288E+03</pdfrwt>
<pdfrwt beam="2">  1       -5 0.25546418E-01 0.12743288E+03</pdfrwt>
<totfact> 0.35723774E+02</totfact>
</mgrwt>
</event>
<event>
 8    1  0.3542708E-007  0.2699342E+03  0.7546771E-02  0.1101317E+00
          5   -1    0    0  501    0  0.00000000000E+00  0.00000000000E+00  0.16579929422E+03  0.16586589754E+03  0.47000000000E+01 0. -1.
         -5   -1    0    0    0  501 -0.00000000000E+00 -0.00000000000E+00 -0.47787684299E+03  0.47789995508E+03  0.47000000000E+01 0. -1.
         25    2    1    2    0    0 -0.21378971813E+03  0.10739511076E+03 -0.24747724237E+03  0.36620924415E+03  0.12499788644E+03 0.  0.
         25    2    1    2    0    0  0.21378971813E+03 -0.10739511076E+03 -0.64600306392E+02  0.27755660847E+03  0.12499887169E+03 0.  0.
          5    1    4    4  502    0  0.21251391146E+03 -0.99567643164E+02 -0.24034912320E+02  0.23595687136E+03  0.47000000000E+01 0.  1.
         -5    1    4    4    0  502  0.12758066709E+01 -0.78274675953E+01 -0.40565394072E+02  0.41599737113E+02  0.47000000000E+01 0.  1.
          5    1    3    3  503    0 -0.10982391563E+03 -0.10512417017E+02 -0.79261594998E+02  0.13592753142E+03  0.47000000000E+01 0.  1.
         -5    1    3    3    0  503 -0.10396580250E+03  0.11790752778E+03 -0.16821564738E+03  0.23028171273E+03  0.47000000000E+01 0.  1.
<mgrwt>
<rscale>  0 0.26993408E+03</rscale>
<asrwt>0</asrwt>
<pdfrwt beam="1">  1        5 0.25514485E-01 0.26993420E+03</pdfrwt>
<pdfrwt beam="2">  1       -5 0.73526415E-01 0.26993420E+03</pdfrwt>
<totfact> 0.20346496E+01</totfact>
</mgrwt>
</event>
<event>
 8    1  0.3542708E-007  0.1303137E+03  0.7546771E-02  0.1226992E+00
         -5   -1    0    0    0  501 -0.00000000000E+00  0.00000000000E+00  0.24531985812E+02  0.24978157015E+02  0.47000000000E+01 0.  1.
          5   -1    0    0  501    0  0.00000000000E+00 -0.00000000000E+00 -0.68777636793E+03  0.68779242674E+03  0.47000000000E+01 0.  1.
         25    2    1    2    0    0 -0.67994158074E+01  0.36191184818E+02 -0.35203632477E+03  0.37538144586E+03  0.12500248806E+03 0.  0.
         25    2    1    2    0    0  0.67994158074E+01 -0.36191184818E+02 -0.31120805735E+03  0.33738913790E+03  0.12499976601E+03 0.  0.
          5    1    4    4  502    0 -0.13150461758E+01  0.13831928875E+02 -0.27388158799E+03  0.27427407067E+03  0.47000000000E+01 0.  1.
         -5    1    4    4    0  502  0.81144619832E+01 -0.50023113693E+02 -0.37326469361E+02  0.63115067233E+02  0.47000000000E+01 0.  1.
          5    1    3    3  503    0  0.50509229565E+01  0.70508973762E+02 -0.11169725529E+03  0.13227015552E+03  0.47000000000E+01 0. -1.
         -5    1    3    3    0  503 -0.11850338764E+02 -0.34317788943E+02 -0.24033906949E+03  0.24311129033E+03  0.47000000000E+01 0. -1.
<mgrwt>
<rscale>  0 0.13031303E+03</rscale>
<asrwt>0</asrwt>
<pdfrwt beam="2">  1        5 0.10584729E+00 0.13031368E+03</pdfrwt>
<pdfrwt beam="1">  1       -5 0.38097083E-02 0.13031368E+03</pdfrwt>
<totfact> 0.20045008E+02</totfact>
</mgrwt>
</event>
<event>
 8    1  0.3542708E-007  0.1722312E+03  0.7546771E-02  0.1175542E+00
         -5   -1    0    0    0  501 -0.00000000000E+00  0.00000000000E+00  0.18290383232E+03  0.18296420928E+03  0.47000000000E+01 0. -1.
          5   -1    0    0  501    0  0.00000000000E+00 -0.00000000000E+00 -0.17417180585E+03  0.17423520870E+03  0.47000000000E+01 0. -1.
         25    2    1    2    0    0  0.36501551402E+02  0.11272043343E+03  0.51452343527E+02  0.17974910354E+03  0.12499654876E+03 0.  0.
         25    2    1    2    0    0 -0.36501551402E+02 -0.11272043343E+03 -0.42720317060E+02  0.17745031444E+03  0.12500131694E+03 0.  0.
          5    1    4    4  502    0 -0.64200146413E+02 -0.70245395483E+02 -0.71345507651E+02  0.11903086091E+03  0.47000000000E+01 0. -1.
         -5    1    4    4    0  502  0.27698595011E+02 -0.42475037948E+02  0.28625190591E+02  0.58419453529E+02  0.47000000000E+01 0. -1.
          5    1    3    3  503    0 -0.54854860825E+01  0.10214362815E+03  0.78017906980E+02  0.12873342666E+03  0.47000000000E+01 0. -1.
         -5    1    3    3    0  503  0.41987037484E+02  0.10576805279E+02 -0.26565563453E+02  0.51015676887E+02  0.47000000000E+01 0. -1.
<mgrwt>
<rscale>  0 0.17223034E+03</rscale>
<asrwt>0</asrwt>
<pdfrwt beam="2">  1        5 0.26805184E-01 0.17223121E+03</pdfrwt>
<pdfrwt beam="1">  1       -5 0.28148573E-01 0.17223121E+03</pdfrwt>
<totfact> 0.12527384E+02</totfact>
</mgrwt>
</event>
<event>
 8    1  0.3542708E-007  0.1898138E+03  0.7546771E-02  0.1158630E+00
          5   -1    0    0  501    0  0.00000000000E+00  0.00000000000E+00  0.25096123826E+02  0.25532438800E+02  0.47000000000E+01 0. -1.
         -5   -1    0    0    0  501 -0.00000000000E+00 -0.00000000000E+00 -0.14743753922E+04  0.14743828835E+04  0.47000000000E+01 0. -1.
         25    2    1    2    0    0 -0.14283941590E+03  0.80825058490E+00 -0.58438842342E+03  0.61444062161E+03  0.12499478414E+03 0.  0.
         25    2    1    2    0    0  0.14283941590E+03 -0.80825058490E+00 -0.86489084494E+03  0.88547470066E+03  0.12500207935E+03 0.  0.
          5    1    3    3  502    0 -0.13075210835E+03  0.35666799915E+02 -0.32144718231E+03  0.34888195062E+03  0.47000000000E+01 0.  1.
         -5    1    3    3    0  502 -0.12087307553E+02 -0.34858549330E+02 -0.26294124110E+03  0.26555867099E+03  0.47000000000E+01 0.  1.
          5    1    4    4  503    0  0.13798368037E+03  0.43685006766E+02 -0.66029579510E+03  0.67598853754E+03  0.47000000000E+01 0.  1.
         -5    1    4    4    0  503  0.48557355285E+01 -0.44493257350E+02 -0.20459504984E+03  0.20948616311E+03  0.47000000000E+01 0.  1.
<mgrwt>
<rscale>  0 0.18981258E+03</rscale>
<asrwt>0</asrwt>
<pdfrwt beam="1">  1        5 0.38950822E-02 0.18981378E+03</pdfrwt>
<pdfrwt beam="2">  1       -5 0.22686106E+00 0.18981378E+03</pdfrwt>
<totfact> 0.24961504E+01</totfact>
</mgrwt>
</event>
<event>
 8    1  0.3542708E-007  0.1268532E+03  0.7546771E-02  0.1232212E+00
          5   -1    0    0  501    0  0.00000000000E+00  0.00000000000E+00  0.59252793802E+02  0.59438906226E+02  0.47000000000E+01 0. -1.
         -5   -1    0    0    0  501 -0.00000000000E+00 -0.00000000000E+00 -0.33769981244E+03  0.33773251742E+03  0.47000000000E+01 0. -1.
         25    2    1    2    0    0  0.61970130861E+01  0.20419857335E+02 -0.22753866786E+03  0.26051022962E+03  0.12504543501E+03 0.  0.
         25    2    1    2    0    0 -0.61970130861E+01 -0.20419857335E+02 -0.50908350773E+02  0.13666119403E+03  0.12501699176E+03 0.  0.
          5    1    4    4  502    0  0.80866783446E+01 -0.70529546661E+02 -0.44586359297E+02  0.83963353639E+02  0.47000000000E+01 0.  1.
         -5    1    4    4    0  502 -0.14283691431E+02  0.50109689326E+02 -0.63219914758E+01  0.52697840387E+02  0.47000000000E+01 0.  1.
          5    1    3    3  503    0  0.19201137959E+02 -0.19548661874E+02 -0.21444112418E+03  0.21623579634E+03  0.47000000000E+01 0. -1.
         -5    1    3    3    0  503 -0.13004124873E+02  0.39968519209E+02 -0.13097543683E+02  0.44274433277E+02  0.47000000000E+01 0. -1.
<mgrwt>
<rscale>  0 0.12684619E+03</rscale>
<asrwt>0</asrwt>
<pdfrwt beam="1">  1        5 0.91326467E-02 0.12685320E+03</pdfrwt>
<pdfrwt beam="2">  1       -5 0.51970648E-01 0.12685320E+03</pdfrwt>
<totfact> 0.23208635E+02</totfact>
</mgrwt>
</event>
<event>
 8    1  0.3542708E-007  0.1600569E+03  0.7546771E-02  0.1188635E+00
         -5   -1    0    0    0  501 -0.00000000000E+00  0.00000000000E+00  0.14295826676E+03  0.14303550621E+03  0.47000000000E+01 0. -1.
          5   -1    0    0  501    0  0.00000000000E+00 -0.00000000000E+00 -0.18029273737E+03  0.18035398845E+03  0.47000000000E+01 0. -1.
         25    2    1    2    0    0 -0.70337937487E+02  0.71020364019E+02 -0.32170319615E+02  0.16324933772E+03  0.12499639693E+03 0.  0.
         25    2    1    2    0    0  0.70337937487E+02 -0.71020364019E+02 -0.51641509954E+01  0.16014015694E+03  0.12500753519E+03 0.  0.
          5    1    4    4  502    0 -0.21545618375E+02 -0.57418601664E+02  0.18393929532E+02  0.64199191053E+02  0.47000000000E+01 0.  1.
         -5    1    4    4    0  502  0.91883555862E+02 -0.13601762355E+02 -0.23558080527E+02  0.95940965886E+02  0.47000000000E+01 0.  1.
          5    1    3    3  503    0  0.35351469736E+02  0.14516924732E+02  0.19489636975E+01  0.38553287482E+02  0.47000000000E+01 0. -1.
         -5    1    3    3    0  503 -0.10568940722E+03  0.56503439287E+02 -0.34119283312E+02  0.12469605024E+03  0.47000000000E+01 0. -1.
<mgrwt>
<rscale>  0 0.16005469E+03</rscale>
<asrwt>0</asrwt>
<pdfrwt beam="2">  1        5 0.27747997E-01 0.16005687E+03</pdfrwt>
<pdfrwt beam="1">  1       -5 0.22004233E-01 0.16005687E+03</pdfrwt>
<totfact> 0.18390416E+02</totfact>
</mgrwt>
</event>
<event>
 8    1  0.3542708E-007  0.1283796E+03  0.7546771E-02  0.1229882E+00
         -5   -1    0    0    0  501 -0.00000000000E+00  0.00000000000E+00  0.45433197061E+03  0.45435628038E+03  0.47000000000E+01 0. -1.
          5   -1    0    0  501    0  0.00000000000E+00 -0.00000000000E+00 -0.39860944797E+02  0.40137076626E+02  0.47000000000E+01 0. -1.
         25    2    1    2    0    0  0.88045742908E+01 -0.27899741690E+02  0.28292170818E+03  0.31068635185E+03  0.12500160058E+03 0.  0.
         25    2    1    2    0    0 -0.88045742908E+01  0.27899741690E+02  0.13154931763E+03  0.18380700516E+03  0.12499550416E+03 0.  0.
          5    1    4    4  502    0 -0.14358308030E+02  0.40481367339E+02 -0.76246043162E+01  0.43876265818E+02  0.47000000000E+01 0.  1.
         -5    1    4    4    0  502  0.55537337395E+01 -0.12581625649E+02  0.13917392194E+03  0.13993073934E+03  0.47000000000E+01 0.  1.
          5    1    3    3  503    0 -0.40626400369E+02 -0.50178864613E+02  0.94378713672E+02  0.11444585818E+03  0.47000000000E+01 0. -1.
         -5    1    3    3    0  503  0.49430974660E+02  0.22279122922E+02  0.18854299451E+03  0.19624049366E+03  0.47000000000E+01 0. -1.
<mgrwt>
<rscale>  0 0.12837809E+03</rscale>
<asrwt>0</asrwt>
<pdfrwt beam="2">  1        5 0.61555639E-02 0.12837958E+03</pdfrwt>
<pdfrwt beam="1">  1       -5 0.69920338E-01 0.12837958E+03</pdfrwt>
<totfact> 0.23861510E+02</totfact>
</mgrwt>
</event>
<event>
 8    1  0.3542708E-007  0.1293649E+03  0.7546771E-02  0.1228417E+00
          5   -1    0    0  501    0  0.00000000000E+00  0.00000000000E+00  0.66515189713E+02  0.66681035255E+02  0.47000000000E+01 0. -1.
         -5   -1    0    0    0  501 -0.00000000000E+00 -0.00000000000E+00 -0.25982513847E+03  0.25986764435E+03  0.47000000000E+01 0. -1.
         25    2    1    2    0    0  0.30888888619E+02  0.12509630036E+02 -0.12671642072E+03  0.18108653180E+03  0.12499866574E+03 0.  0.
         25    2    1    2    0    0 -0.30888888619E+02 -0.12509630036E+02 -0.66593528036E+02  0.14546214780E+03  0.12495568888E+03 0.  0.
          5    1    3    3  502    0 -0.20188545441E+02 -0.12321456878E+02  0.14960534340E+02  0.28377865571E+02  0.47000000000E+01 0. -1.
         -5    1    3    3    0  502  0.51077434060E+02  0.24831086914E+02 -0.14167695506E+03  0.15270866623E+03  0.47000000000E+01 0. -1.
          5    1    4    4  503    0 -0.27436866486E+02  0.13266303878E+02  0.31375126480E+02  0.43991647193E+02  0.47000000000E+01 0. -1.
         -5    1    4    4    0  503 -0.34520221329E+01 -0.25775933915E+02 -0.97968654516E+02  0.10147050061E+03  0.47000000000E+01 0. -1.
<mgrwt>
<rscale>  0 0.12935453E+03</rscale>
<asrwt>0</asrwt>
<pdfrwt beam="1">  1        5 0.10249133E-01 0.12936491E+03</pdfrwt>
<pdfrwt beam="2">  1       -5 0.39989125E-01 0.12936491E+03</pdfrwt>
<totfact> 0.33037573E+02</totfact>
</mgrwt>
</event>
<event>
 8    1  0.3542708E-007  0.1359624E+03  0.7546771E-02  0.1218869E+00
          5   -1    0    0  501    0  0.00000000000E+00  0.00000000000E+00  0.31420450630E+03  0.31423965660E+03  0.47000000000E+01 0. -1.
         -5   -1    0    0    0  501 -0.00000000000E+00 -0.00000000000E+00 -0.63573129145E+02  0.63746629317E+02  0.47000000000E+01 0. -1.
         25    2    1    2    0    0 -0.50619577129E+02  0.17238352347E+02  0.73075616280E+02  0.15435615055E+03  0.12500509244E+03 0.  0.
         25    2    1    2    0    0  0.50619577129E+02 -0.17238352347E+02  0.17755576088E+03  0.22363013537E+03  0.12499954738E+03 0.  0.
          5    1    3    3  502    0 -0.33011648340E+02 -0.52387461135E+02  0.46717832867E+02  0.77710108210E+02  0.47000000000E+01 0. -1.
         -5    1    3    3    0  502 -0.17607928789E+02  0.69625813482E+02  0.26357783413E+02  0.76646042336E+02  0.47000000000E+01 0. -1.
          5    1    4    4  503    0 -0.27523466708E+02  0.10772850069E+02  0.27449700623E+01  0.30053625054E+02  0.47000000000E+01 0. -1.
         -5    1    4    4    0  503  0.78143043837E+02 -0.28011202417E+02  0.17481079082E+03  0.19357651032E+03  0.47000000000E+01 0. -1.
<mgrwt>
<rscale>  0 0.13596113E+03</rscale>
<asrwt>0</asrwt>
<pdfrwt beam="1">  1        5 0.48355205E-01 0.13596240E+03</pdfrwt>
<pdfrwt beam="2">  1       -5 0.97965314E-02 0.13596240E+03</pdfrwt>
<totfact> 0.24529228E+02</totfact>
</mgrwt>
</event>
<event>
 8    1  0.3542708E-007  0.1329904E+03  0.7546771E-02  0.1223094E+00
         -5   -1    0    0    0  501 -0.00000000000E+00  0.00000000000E+00  0.22814732410E+03  0.22819573067E+03  0.47000000000E+01 0.  1.
          5   -1    0    0  501    0  0.00000000000E+00 -0.00000000000E+00 -0.85061953463E+02  0.85191701045E+02  0.47000000000E+01 0.  1.
         25    2    1    2    0    0  0.26388058838E+02 -0.36938331821E+02  0.11857511035E+03  0.17815721469E+03  0.12497666319E+03 0.  0.
         25    2    1    2    0    0 -0.26388058838E+02  0.36938331821E+02  0.24510260285E+02  0.13523021703E+03  0.12500275489E+03 0.  0.
          5    1    3    3  502    0 -0.32981908500E+02  0.28898669801E+02  0.42401597514E+02  0.61179448153E+02  0.47000000000E+01 0.  1.
         -5    1    3    3    0  502  0.59369967338E+02 -0.65837001623E+02  0.76173512841E+02  0.11697776653E+03  0.47000000000E+01 0.  1.
          5    1    4    4  503    0  0.22742976969E+02  0.67676551175E+02  0.28342851744E+02  0.76959507699E+02  0.47000000000E+01 0. -1.
         -5    1    4    4    0  503 -0.49131035806E+02 -0.30738219354E+02 -0.38325914590E+01  0.58270709329E+02  0.47000000000E+01 0. -1.
<mgrwt>
<rscale>  0 0.13298431E+03</rscale>
<asrwt>0</asrwt>
<pdfrwt beam="2">  1        5 0.13100159E-01 0.13299045E+03</pdfrwt>
<pdfrwt beam="1">  1       -5 0.35113292E-01 0.13299045E+03</pdfrwt>
<totfact> 0.28144446E+02</totfact>
</mgrwt>
</event>
<event>
 8    1  0.3542708E-007  0.1507458E+03  0.7546771E-02  0.1199561E+00
          5   -1    0    0  501    0  0.00000000000E+00  0.00000000000E+00  0.20649302238E+03  0.20654650394E+03  0.47000000000E+01 0. -1.
         -5   -1    0    0    0  501 -0.00000000000E+00 -0.00000000000E+00 -0.24454430725E+03  0.24458946872E+03  0.47000000000E+01 0. -1.
         25    2    1    2    0    0  0.81578168646E+02 -0.21048449300E+02 -0.18634216712E+03  0.23968251577E+03  0.12500508110E+03 0.  0.
         25    2    1    2    0    0 -0.81578168646E+02  0.21048449300E+02  0.14829088225E+03  0.21145345689E+03  0.12499737538E+03 0.  0.
          5    1    4    4  502    0 -0.76002289946E+01  0.52825608416E+02  0.14956696173E+02  0.55624645128E+02  0.47000000000E+01 0.  1.
         -5    1    4    4    0  502 -0.73977939652E+02 -0.31777159116E+02  0.13333418608E+03  0.15582881176E+03  0.47000000000E+01 0.  1.
          5    1    3    3  503    0  0.54807359951E+02 -0.73307236444E+02 -0.11926208826E+03  0.15041054922E+03  0.47000000000E+01 0.  1.
         -5    1    3    3    0  503  0.26770808695E+02  0.52258787144E+02 -0.67080078856E+02  0.89271966548E+02  0.47000000000E+01 0.  1.
<mgrwt>
<rscale>  0 0.15074423E+03</rscale>
<asrwt>0</asrwt>
<pdfrwt beam="1">  1        5 0.31775745E-01 0.15074583E+03</pdfrwt>
<pdfrwt beam="2">  1       -5 0.37629789E-01 0.15074583E+03</pdfrwt>
<totfact> 0.48383912E+01</totfact>
</mgrwt>
</event>
<event>
 8    1  0.3542708E-007  0.1813405E+03  0.7546771E-02  0.1166513E+00
         -5   -1    0    0    0  501 -0.00000000000E+00  0.00000000000E+00  0.57864084586E+03  0.57865993337E+03  0.47000000000E+01 0.  1.
          5   -1    0    0  501    0  0.00000000000E+00 -0.00000000000E+00 -0.60220791364E+02  0.60403921334E+02  0.47000000000E+01 0.  1.
         25    2    1    2    0    0  0.10932005797E+03  0.72861876037E+02  0.33620668779E+03  0.38199386339E+03  0.12499858676E+03 0.  0.
         25    2    1    2    0    0 -0.10932005797E+03 -0.72861876037E+02  0.18221336670E+03  0.25706999132E+03  0.12499416538E+03 0.  0.
          5    1    4    4  502    0  0.40509925911E+00  0.99121457938E+01  0.91872592381E+02  0.92526093457E+02  0.47000000000E+01 0. -1.
         -5    1    4    4    0  502 -0.10972515723E+03 -0.82774021830E+02  0.90340774316E+02  0.16454389786E+03  0.47000000000E+01 0. -1.
          5    1    3    3  503    0 -0.28099621245E+02  0.11437874198E+02  0.53821746779E+02  0.61961956930E+02  0.47000000000E+01 0. -1.
         -5    1    3    3    0  503  0.13741967922E+03  0.61424001839E+02  0.28238494102E+03  0.32003190646E+03  0.47000000000E+01 0. -1.
<mgrwt>
<rscale>  0 0.18133973E+03</rscale>
<asrwt>0</asrwt>
<pdfrwt beam="2">  1        5 0.92802925E-02 0.18134049E+03</pdfrwt>
<pdfrwt beam="1">  1       -5 0.89037222E-01 0.18134049E+03</pdfrwt>
<totfact> 0.75338070E+01</totfact>
</mgrwt>
</event>
<event>
 8    1  0.3542708E-007  0.1392138E+03  0.7546771E-02  0.1214392E+00
          5   -1    0    0  501    0  0.00000000000E+00  0.00000000000E+00  0.80354894693E+02  0.80492230067E+02  0.47000000000E+01 0. -1.
         -5   -1    0    0    0  501 -0.00000000000E+00 -0.00000000000E+00 -0.26057952016E+03  0.26062190301E+03  0.47000000000E+01 0. -1.
         25    2    1    2    0    0  0.11740401863E+02  0.60136977288E+02 -0.13707013281E+03  0.19536505511E+03  0.12499996151E+03 0.  0.
         25    2    1    2    0    0 -0.11740401863E+02 -0.60136977288E+02 -0.43154492661E+02  0.14574907797E+03  0.12500476158E+03 0.  0.
          5    1    4    4  502    0  0.42373568482E+02  0.10897691562E+02 -0.34486245626E+02  0.55907692893E+02  0.47000000000E+01 0.  1.
         -5    1    4    4    0  502 -0.54113970345E+02 -0.71034668850E+02 -0.86682470350E+01  0.89841385073E+02  0.47000000000E+01 0.  1.
          5    1    3    3  503    0  0.47188407473E+02  0.55823589743E+02 -0.24598386305E+02  0.77267001886E+02  0.47000000000E+01 0. -1.
         -5    1    3    3    0  503 -0.35448005609E+02  0.43133875455E+01 -0.11247174650E+03  0.11809805322E+03  0.47000000000E+01 0. -1.
<mgrwt>
<rscale>  0 0.13921273E+03</rscale>
<asrwt>0</asrwt>
<pdfrwt beam="1">  1        5 0.12376116E-01 0.13921380E+03</pdfrwt>
<pdfrwt beam="2">  1       -5 0.40102981E-01 0.13921380E+03</pdfrwt>
<totfact> 0.24171118E+02</totfact>
</mgrwt>
</event>
<event>
 8    1  0.3542708E-007  0.1459943E+03  0.7546771E-02  0.1205489E+00
         -5   -1    0    0    0  501 -0.00000000000E+00  0.00000000000E+00  0.15884274923E+03  0.15891226820E+03  0.47000000000E+01 0. -1.
          5   -1    0    0  501    0  0.00000000000E+00 -0.00000000000E+00 -0.13925853049E+03  0.13933782083E+03  0.47000000000E+01 0. -1.
         25    2    1    2    0    0 -0.49341918432E+02 -0.57054931400E+02  0.38676540830E+02  0.15101266823E+03  0.12497624192E+03 0.  0.
         25    2    1    2    0    0  0.49341918432E+02  0.57054931400E+02 -0.19092322085E+02  0.14723742079E+03  0.12499780481E+03 0.  0.
          5    1    4    4  502    0  0.33767039823E+02  0.44403772961E+01 -0.66311046925E+02  0.74693874402E+02  0.47000000000E+01 0. -1.
         -5    1    4    4    0  502  0.15574878609E+02  0.52614554104E+02  0.47218724840E+02  0.72543546389E+02  0.47000000000E+01 0. -1.
          5    1    3    3  503    0  0.40626681532E+02 -0.21920410650E+02 -0.11904642786E+01  0.46417010466E+02  0.47000000000E+01 0.  1.
         -5    1    3    3    0  503 -0.89968599964E+02 -0.35134520750E+02  0.39867005109E+02  0.10459565777E+03  0.47000000000E+01 0.  1.
<mgrwt>
<rscale>  0 0.14598970E+03</rscale>
<asrwt>0</asrwt>
<pdfrwt beam="2">  1        5 0.21435836E-01 0.14599432E+03</pdfrwt>
<pdfrwt beam="1">  1       -5 0.24448793E-01 0.14599432E+03</pdfrwt>
<totfact> 0.23931769E+02</totfact>
</mgrwt>
</event>
<event>
 8    1  0.3542708E-007  0.1285943E+03  0.7546771E-02  0.1229557E+00
          5   -1    0    0  501    0  0.00000000000E+00  0.00000000000E+00  0.94831877199E+03  0.94833041885E+03  0.47000000000E+01 0. -1.
         -5   -1    0    0    0  501 -0.00000000000E+00 -0.00000000000E+00 -0.18036005579E+02  0.18638334079E+02  0.47000000000E+01 0. -1.
         25    2    1    2    0    0 -0.15030849905E+02  0.26172051702E+02  0.35739319796E+03  0.37982400745E+03  0.12500190378E+03 0.  0.
         25    2    1    2    0    0  0.15030849905E+02 -0.26172051702E+02  0.57288956846E+03  0.58714474548E+03  0.12500236702E+03 0.  0.
          5    1    3    3  502    0 -0.61172742306E+01 -0.23342666189E+02  0.30861221552E+03  0.30958987496E+03  0.47000000000E+01 0. -1.
         -5    1    3    3    0  502 -0.89135756740E+01  0.49514717891E+02  0.48780982439E+02  0.70234132491E+02  0.47000000000E+01 0. -1.
          5    1    4    4  503    0 -0.14799224525E+02  0.35173556593E+01  0.51588863517E+03  0.51613424876E+03  0.47000000000E+01 0. -1.
         -5    1    4    4    0  503  0.29830074430E+02 -0.29689407361E+02  0.57000933284E+02  0.71010496725E+02  0.47000000000E+01 0. -1.
<mgrwt>
<rscale>  0 0.12859419E+03</rscale>
<asrwt>0</asrwt>
<pdfrwt beam="1">  1        5 0.14594242E+00 0.12859430E+03</pdfrwt>
<pdfrwt beam="2">  1       -5 0.28219991E-02 0.12859430E+03</pdfrwt>
<totfact> 0.14213420E+02</totfact>
</mgrwt>
</event>
<event>
 8    1  0.3542708E-007  0.1925824E+03  0.7546771E-02  0.1156154E+00
          5   -1    0    0  501    0  0.00000000000E+00  0.00000000000E+00  0.12764448329E+02  0.13602247651E+02  0.47000000000E+01 0.  1.
         -5   -1    0    0    0  501 -0.00000000000E+00 -0.00000000000E+00 -0.28462151021E+04  0.28462189827E+04  0.47000000000E+01 0.  1.
         25    2    1    2    0    0 -0.14649990583E+03  0.60141598386E+00 -0.12606968398E+04  0.12753205076E+04  0.12499316477E+03 0.  0.
         25    2    1    2    0    0  0.14649990583E+03 -0.60141598386E+00 -0.15727538140E+04  0.15845007227E+04  0.12500158695E+03 0.  0.
          5    1    3    3  502    0 -0.12251366193E+03  0.51875296317E+02 -0.97350035002E+03  0.98256076922E+03  0.47000000000E+01 0. -1.
         -5    1    3    3    0  502 -0.23986243899E+02 -0.51273880333E+02 -0.28719648975E+03  0.29275973839E+03  0.47000000000E+01 0. -1.
          5    1    4    4  503    0  0.97513520660E+01  0.46593657206E+02 -0.38448183256E+03  0.38744603151E+03  0.47000000000E+01 0. -1.
         -5    1    4    4    0  503  0.13674855376E+03 -0.47195073190E+02 -0.11882719814E+04  0.11970546912E+04  0.47000000000E+01 0. -1.
<mgrwt>
<rscale>  0 0.19258103E+03</rscale>
<asrwt>0</asrwt>
<pdfrwt beam="1">  1        5 0.20285082E-02 0.19258240E+03</pdfrwt>
<pdfrwt beam="2">  1       -5 0.43794350E+00 0.19258240E+03</pdfrwt>
<totfact> 0.27894299E+00</totfact>
</mgrwt>
</event>
<event>
 8    1  0.3542708E-007  0.1303309E+03  0.7546771E-02  0.1226966E+00
          5   -1    0    0  501    0  0.00000000000E+00  0.00000000000E+00  0.39333067077E+02  0.39612878786E+02  0.47000000000E+01 0.  1.
         -5   -1    0    0    0  501 -0.00000000000E+00 -0.00000000000E+00 -0.43807713771E+03  0.43810234944E+03  0.47000000000E+01 0.  1.
         25    2    1    2    0    0  0.13690240125E+02  0.34253055045E+02 -0.23173497939E+03  0.26587053265E+03  0.12500138001E+03 0.  0.
         25    2    1    2    0    0 -0.13690240125E+02 -0.34253055045E+02 -0.16700909124E+03  0.21184469558E+03  0.12500177611E+03 0.  0.
          5    1    3    3  502    0  0.23291444171E+02 -0.16185374755E+02 -0.20645593504E+03  0.20844807708E+03  0.47000000000E+01 0.  1.
         -5    1    3    3    0  502 -0.96012040461E+01  0.50438429800E+02 -0.25279044351E+02  0.57422455565E+02  0.47000000000E+01 0.  1.
          5    1    4    4  503    0 -0.18885574505E+02 -0.52400380282E+01  0.16423993649E+02  0.25999240187E+02  0.47000000000E+01 0.  1.
         -5    1    4    4    0  503  0.51953343801E+01 -0.29013017017E+02 -0.18343308489E+03  0.18584545539E+03  0.47000000000E+01 0.  1.
<mgrwt>
<rscale>  0 0.13033079E+03</rscale>
<asrwt>0</asrwt>
<pdfrwt beam="1">  1        5 0.60747047E-02 0.13033088E+03</pdfrwt>
<pdfrwt beam="2">  1       -5 0.67419943E-01 0.13033088E+03</pdfrwt>
<totfact> 0.26616215E+02</totfact>
</mgrwt>
</event>
<event>
 8    1  0.3542708E-007  0.1293695E+03  0.7546771E-02  0.1228421E+00
         -5   -1    0    0    0  501 -0.00000000000E+00  0.00000000000E+00  0.47175839032E+03  0.47178180215E+03  0.47000000000E+01 0. -1.
          5   -1    0    0  501    0  0.00000000000E+00 -0.00000000000E+00 -0.37720077396E+02  0.38011764479E+02  0.47000000000E+01 0. -1.
         25    2    1    2    0    0  0.27852415839E+01  0.33227090574E+02  0.28155415106E+03  0.30982384735E+03  0.12492509471E+03 0.  0.
         25    2    1    2    0    0 -0.27852415839E+01 -0.33227090574E+02  0.15248416186E+03  0.19996971928E+03  0.12499868755E+03 0.  0.
          5    1    4    4  502    0 -0.53518129031E+02 -0.77816438966E+01  0.23851299218E+02  0.59293495352E+02  0.47000000000E+01 0.  1.
         -5    1    4    4    0  502  0.50732887447E+02 -0.25445446677E+02  0.12863286265E+03  0.14067622392E+03  0.47000000000E+01 0.  1.
          5    1    3    3  503    0  0.41747142148E+01  0.99476266594E+01 -0.11116469230E+02  0.16187940050E+02  0.47000000000E+01 0. -1.
         -5    1    3    3    0  503 -0.13894726309E+01  0.23279463914E+02  0.29267062029E+03  0.29363590730E+03  0.47000000000E+01 0. -1.
<mgrwt>
<rscale>  0 0.12935173E+03</rscale>
<asrwt>0</asrwt>
<pdfrwt beam="2">  1        5 0.58273277E-02 0.12936951E+03</pdfrwt>
<pdfrwt beam="1">  1       -5 0.72602446E-01 0.12936951E+03</pdfrwt>
<totfact> 0.24094887E+02</totfact>
</mgrwt>
</event>
<event>
 8    1  0.3542708E-007  0.1319448E+03  0.7546771E-02  0.1224618E+00
          5   -1    0    0  501    0  0.00000000000E+00  0.00000000000E+00  0.12925625391E+04  0.12925710841E+04  0.47000000000E+01 0.  1.
         -5   -1    0    0    0  501 -0.00000000000E+00 -0.00000000000E+00 -0.15495443452E+02  0.16192552849E+02  0.47000000000E+01 0.  1.
         25    2    1    2    0    0  0.73274516794E+01  0.41422609086E+02  0.38459720598E+03  0.40660109499E+03  0.12505964780E+03 0.  0.
         25    2    1    2    0    0 -0.73274516794E+01 -0.41422609086E+02  0.89246988965E+03  0.90216254195E+03  0.12500089634E+03 0.  0.
          5    1    3    3  502    0  0.47752006804E+02  0.67850839580E+02  0.22898215165E+03  0.24359578477E+03  0.47000000000E+01 0.  1.
         -5    1    3    3    0  502 -0.40424555124E+02 -0.26428230494E+02  0.15561505434E+03  0.16300531022E+03  0.47000000000E+01 0.  1.
          5    1    4    4  503    0 -0.44705255740E+02  0.20348673232E+02  0.20317770375E+03  0.20908347064E+03  0.47000000000E+01 0.  1.
         -5    1    4    4    0  503  0.37377804060E+02 -0.61771282317E+02  0.68929218589E+03  0.69307907131E+03  0.47000000000E+01 0.  1.
<mgrwt>
<rscale>  0 0.13193091E+03</rscale>
<asrwt>0</asrwt>
<pdfrwt beam="1">  1        5 0.19891008E+00 0.13194484E+03</pdfrwt>
<pdfrwt beam="2">  1       -5 0.24381952E-02 0.13194484E+03</pdfrwt>
<totfact> 0.74344911E+01</totfact>
</mgrwt>
</event>
<event>
 8    1  0.3542708E-007  0.1324010E+03  0.7546771E-02  0.1223937E+00
         -5   -1    0    0    0  501 -0.00000000000E+00  0.00000000000E+00  0.35255846594E+02  0.35567748299E+02  0.47000000000E+01 0.  1.
          5   -1    0    0  501    0  0.00000000000E+00 -0.00000000000E+00 -0.49980175302E+03  0.49982385129E+03  0.47000000000E+01 0.  1.
         25    2    1    2    0    0 -0.15418172958E+02  0.40814578130E+02 -0.25930005840E+03  0.29114695257E+03  0.12500591131E+03 0.  0.
         25    2    1    2    0    0  0.15418172958E+02 -0.40814578130E+02 -0.20524584802E+03  0.24424464702E+03  0.12500415841E+03 0.  0.
          5    1    3    3  502    0 -0.26008911737E+02  0.48387545939E+02 -0.32656005626E+02  0.64080596089E+02  0.47000000000E+01 0.  1.
         -5    1    3    3    0  502  0.10590738779E+02 -0.75729678085E+01 -0.22664405277E+03  0.22706635648E+03  0.47000000000E+01 0.  1.
          5    1    4    4  503    0 -0.15986730060E+02  0.10898770417E+02 -0.17556483119E+03  0.17669029030E+03  0.47000000000E+01 0.  1.
         -5    1    4    4    0  503  0.31404903018E+02 -0.51713348547E+02 -0.29681016834E+02  0.67554356720E+02  0.47000000000E+01 0.  1.
<mgrwt>
<rscale>  0 0.13240060E+03</rscale>
<asrwt>0</asrwt>
<pdfrwt beam="2">  1        5 0.76918264E-01 0.13240101E+03</pdfrwt>
<pdfrwt beam="1">  1       -5 0.54496691E-02 0.13240101E+03</pdfrwt>
<totfact> 0.23823099E+02</totfact>
</mgrwt>
</event>
<event>
 8    1  0.3542708E-007  0.1441920E+03  0.7546771E-02  0.1207799E+00
         -5   -1    0    0    0  501 -0.00000000000E+00  0.00000000000E+00  0.19216933863E+04  0.19216991338E+04  0.47000000000E+01 0.  1.
          5   -1    0    0  501    0  0.00000000000E+00 -0.00000000000E+00 -0.11666380385E+02  0.12577536773E+02  0.47000000000E+01 0.  1.
         25    2    1    2    0    0 -0.29864549798E+02  0.65375340759E+02  0.12727476932E+04  0.12808895418E+04  0.12500200434E+03 0.  0.
         25    2    1    2    0    0  0.29864549798E+02 -0.65375340759E+02  0.63727931269E+03  0.65338712883E+03  0.12499596484E+03 0.  0.
          5    1    4    4  502    0 -0.27323791628E+02 -0.28932677393E+02  0.60196104444E+02  0.72314247561E+02  0.47000000000E+01 0.  1.
         -5    1    4    4    0  502  0.57188341426E+02 -0.36442663366E+02  0.57708320825E+03  0.58107288127E+03  0.47000000000E+01 0.  1.
          5    1    3    3  503    0 -0.71893673658E+01 -0.32893110804E+02  0.16003619947E+03  0.16360720914E+03  0.47000000000E+01 0.  1.
         -5    1    3    3    0  503 -0.22675182433E+02  0.98268451563E+02  0.11127114938E+04  0.11172823327E+04  0.47000000000E+01 0.  1.
<mgrwt>
<rscale>  0 0.14419067E+03</rscale>
<asrwt>0</asrwt>
<pdfrwt beam="2">  1        5 0.18653608E-02 0.14419198E+03</pdfrwt>
<pdfrwt beam="1">  1       -5 0.29571535E+00 0.14419198E+03</pdfrwt>
<totfact> 0.27947391E+01</totfact>
</mgrwt>
</event>
<event>
 8    1  0.3542708E-007  0.1348411E+03  0.7546771E-02  0.1220446E+00
          5   -1    0    0  501    0  0.00000000000E+00  0.00000000000E+00  0.59349093183E+02  0.59534904566E+02  0.47000000000E+01 0. -1.
         -5   -1    0    0    0  501 -0.00000000000E+00 -0.00000000000E+00 -0.30653691144E+03  0.30657294087E+03  0.47000000000E+01 0. -1.
         25    2    1    2    0    0  0.49260523769E+02 -0.11464633226E+02 -0.13336913980E+03  0.18965157127E+03  0.12498941563E+03 0.  0.
         25    2    1    2    0    0 -0.49260523769E+02  0.11464633226E+02 -0.11381867846E+03  0.17645627416E+03  0.12499635238E+03 0.  0.
          5    1    4    4  502    0  0.28928899514E+02 -0.16992311857E+02  0.18074094901E+01  0.33926046312E+02  0.47000000000E+01 0.  1.
         -5    1    4    4    0  502 -0.78189423282E+02  0.28456945083E+02 -0.11562608795E+03  0.14253022785E+03  0.47000000000E+01 0.  1.
          5    1    3    3  503    0  0.57988876953E+02 -0.59301408034E+02 -0.64303159409E+02  0.10505404873E+03  0.47000000000E+01 0.  1.
         -5    1    3    3    0  503 -0.87283531842E+01  0.47836774808E+02 -0.69065980388E+02  0.84597522542E+02  0.47000000000E+01 0.  1.
<mgrwt>
<rscale>  0 0.13483950E+03</rscale>
<asrwt>0</asrwt>
<pdfrwt beam="1">  1        5 0.91476946E-02 0.13484111E+03</pdfrwt>
<pdfrwt beam="2">  1       -5 0.47176588E-01 0.13484111E+03</pdfrwt>
<totfact> 0.29019311E+02</totfact>
</mgrwt>
</event>
<event>
 8    1  0.3542708E-007  0.1266608E+03  0.7546771E-02  0.1232496E+00
         -5   -1    0    0    0  501 -0.00000000000E+00  0.00000000000E+00  0.13853335635E+03  0.13861306151E+03  0.47000000000E+01 0.  1.
          5   -1    0    0  501    0  0.00000000000E+00 -0.00000000000E+00 -0.13796752660E+03  0.13804755846E+03  0.47000000000E+01 0.  1.
         25    2    1    2    0    0 -0.10190458178E+02 -0.17729689515E+02  0.55891261765E+02  0.13844416487E+03  0.12499906527E+03 0.  0.
         25    2    1    2    0    0  0.10190458178E+02  0.17729689515E+02 -0.55325432019E+02  0.13821645509E+03  0.12499879080E+03 0.  0.
          5    1    3    3  502    0  0.17156438851E+02  0.28117726774E+02 -0.24856097950E+02  0.41531500796E+02  0.47000000000E+01 0.  1.
         -5    1    3    3    0  502 -0.27346897029E+02 -0.45847416289E+02  0.80747359715E+02  0.96912664077E+02  0.47000000000E+01 0.  1.
          5    1    4    4  503    0  0.16245953631E+02  0.62381219055E+02 -0.65244765157E+02  0.91838537012E+02  0.47000000000E+01 0.  1.
         -5    1    4    4    0  503 -0.60554954530E+01 -0.44651529541E+02  0.99193331381E+01  0.46377918080E+02  0.47000000000E+01 0.  1.
<mgrwt>
<rscale>  0 0.12666071E+03</rscale>
<asrwt>0</asrwt>
<pdfrwt beam="2">  1        5 0.21238061E-01 0.12666078E+03</pdfrwt>
<pdfrwt beam="1">  1       -5 0.21325111E-01 0.12666078E+03</pdfrwt>
<totfact> 0.30033982E+02</totfact>
</mgrwt>
</event>
<event>
 8    1  0.3542708E-007  0.1266266E+03  0.7546771E-02  0.1232551E+00
          5   -1    0    0  501    0  0.00000000000E+00  0.00000000000E+00  0.89355083132E+02  0.89478605720E+02  0.47000000000E+01 0. -1.
         -5   -1    0    0    0  501 -0.00000000000E+00 -0.00000000000E+00 -0.18413355349E+03  0.18419352736E+03  0.47000000000E+01 0. -1.
         25    2    1    2    0    0  0.15526581756E+02 -0.12941543500E+02 -0.69869648858E+02  0.14461889595E+03  0.12499719575E+03 0.  0.
         25    2    1    2    0    0 -0.15526581756E+02  0.12941543500E+02 -0.24908821504E+02  0.12905323713E+03  0.12500292131E+03 0.  0.
          5    1    4    4  502    0  0.18531086319E+02 -0.49390070975E+02  0.18810742758E+01  0.52994421513E+02  0.47000000000E+01 0.  1.
         -5    1    4    4    0  502 -0.34057668075E+02  0.62331614474E+02 -0.26789895780E+02  0.76058815620E+02  0.47000000000E+01 0.  1.
          5    1    3    3  503    0 -0.41868752684E+02  0.61457198526E+01 -0.72296027100E+02  0.83902132620E+02  0.47000000000E+01 0.  1.
         -5    1    3    3    0  503  0.57395334441E+02 -0.19087263352E+02  0.24263782416E+01  0.60716763329E+02  0.47000000000E+01 0.  1.
<mgrwt>
<rscale>  0 0.12662516E+03</rscale>
<asrwt>0</asrwt>
<pdfrwt beam="1">  1        5 0.13761051E-01 0.12662657E+03</pdfrwt>
<pdfrwt beam="2">  1       -5 0.28342354E-01 0.12662657E+03</pdfrwt>
<totfact> 0.38638233E+02</totfact>
</mgrwt>
</event>
<event>
 8    1  0.3542708E-007  0.1381685E+03  0.7546771E-02  0.1215822E+00
         -5   -1    0    0    0  501 -0.00000000000E+00  0.00000000000E+00  0.39497017971E+02  0.39775676344E+02  0.47000000000E+01 0.  1.
          5   -1    0    0  501    0  0.00000000000E+00 -0.00000000000E+00 -0.58547956842E+03  0.58549843299E+03  0.47000000000E+01 0.  1.
         25    2    1    2    0    0 -0.48792383604E+02 -0.32924337834E+02 -0.14111466160E+03  0.19747914019E+03  0.12497981586E+03 0.  0.
         25    2    1    2    0    0  0.48792383604E+02  0.32924337834E+02 -0.40486788885E+03  0.42779496914E+03  0.12500327790E+03 0.  0.
          5    1    4    4  502    0  0.45874145850E+02 -0.35522375364E+02 -0.10392286968E+03  0.11911477344E+03  0.47000000000E+01 0. -1.
         -5    1    4    4    0  502  0.29182377547E+01  0.68446713198E+02 -0.30094501917E+03  0.30868019571E+03  0.47000000000E+01 0. -1.
          5    1    3    3  503    0 -0.72623196856E+02  0.20808081969E+02 -0.56996783000E+02  0.94751402465E+02  0.47000000000E+01 0.  1.
         -5    1    3    3    0  503  0.23830813251E+02 -0.53732419803E+02 -0.84117878602E+02  0.10272773773E+03  0.47000000000E+01 0.  1.
<mgrwt>
<rscale>  0 0.13816317E+03</rscale>
<asrwt>0</asrwt>
<pdfrwt beam="2">  1        5 0.90096660E-01 0.13816848E+03</pdfrwt>
<pdfrwt beam="1">  1       -5 0.60993511E-02 0.13816848E+03</pdfrwt>
<totfact> 0.13836425E+02</totfact>
</mgrwt>
</event>
<event>
 8    1  0.3542708E-007  0.1702671E+03  0.7546771E-02  0.1177570E+00
          5   -1    0    0  501    0  0.00000000000E+00  0.00000000000E+00  0.98857253756E+02  0.98968917445E+02  0.47000000000E+01 0.  1.
         -5   -1    0    0    0  501 -0.00000000000E+00 -0.00000000000E+00 -0.74619703431E+03  0.74621183589E+03  0.47000000000E+01 0.  1.
         25    2    1    2    0    0 -0.11383821996E+03 -0.20166500403E+02 -0.65298650624E+03  0.67482016020E+03  0.12500017287E+03 0.  0.
         25    2    1    2    0    0  0.11383821996E+03  0.20166500403E+02  0.56467256876E+01  0.17036059313E+03  0.12500007247E+03 0.  0.
          5    1    4    4  502    0  0.55083045127E+02  0.28539187725E+02 -0.56684629728E+02  0.84165695767E+02  0.47000000000E+01 0.  1.
         -5    1    4    4    0  502  0.58755174838E+02 -0.83726873211E+01  0.62331355416E+02  0.86194897362E+02  0.47000000000E+01 0.  1.
          5    1    3    3  503    0 -0.13073968861E+03  0.63637033581E+01 -0.42789150233E+03  0.44748920731E+03  0.47000000000E+01 0.  1.
         -5    1    3    3    0  503  0.16901468641E+02 -0.26530203762E+02 -0.22509500392E+03  0.22733095289E+03  0.47000000000E+01 0.  1.
<mgrwt>
<rscale>  0 0.17026704E+03</rscale>
<asrwt>0</asrwt>
<pdfrwt beam="1">  1        5 0.15218537E-01 0.17026706E+03</pdfrwt>
<pdfrwt beam="2">  1       -5 0.11480927E+00 0.17026706E+03</pdfrwt>
<totfact> 0.16462796E+01</totfact>
</mgrwt>
</event>
<event>
 8    1  0.3542708E-007  0.1308889E+03  0.7546771E-02  0.1226148E+00
          5   -1    0    0  501    0  0.00000000000E+00  0.00000000000E+00  0.64191604868E+03  0.64193325475E+03  0.47000000000E+01 0.  1.
         -5   -1    0    0    0  501 -0.00000000000E+00 -0.00000000000E+00 -0.27465577852E+02  0.27864815929E+02  0.47000000000E+01 0.  1.
         25    2    1    2    0    0  0.28858476869E+02  0.25880196226E+02  0.24367988494E+03  0.27660765162E+03  0.12501724028E+03 0.  0.
         25    2    1    2    0    0 -0.28858476869E+02 -0.25880196226E+02  0.37077058589E+03  0.39319041905E+03  0.12500112812E+03 0.  0.
          5    1    3    3  502    0  0.47795227432E+02  0.66974068611E+02  0.12725229651E+03  0.15160853076E+03  0.47000000000E+01 0. -1.
         -5    1    3    3    0  502 -0.18936750563E+02 -0.41093872385E+02  0.11642758843E+03  0.12499912086E+03  0.47000000000E+01 0. -1.
          5    1    4    4  503    0 -0.55526376209E+02 -0.62965544672E+02  0.26074774115E+03  0.27396954718E+03  0.47000000000E+01 0.  1.
         -5    1    4    4    0  503  0.26667899340E+02  0.37085348446E+02  0.11002284474E+03  0.11922087187E+03  0.47000000000E+01 0.  1.
<mgrwt>
<rscale>  0 0.13088506E+03</rscale>
<asrwt>0</asrwt>
<pdfrwt beam="1">  1        5 0.98788346E-01 0.13088891E+03</pdfrwt>
<pdfrwt beam="2">  1       -5 0.42575078E-02 0.13088891E+03</pdfrwt>
<totfact> 0.19813490E+02</totfact>
</mgrwt>
</event>
<event>
 8    1  0.3542708E-007  0.1274170E+03  0.7546771E-02  0.1231373E+00
          5   -1    0    0  501    0  0.00000000000E+00  0.00000000000E+00  0.62360565760E+02  0.62537430087E+02  0.47000000000E+01 0. -1.
         -5   -1    0    0    0  501 -0.00000000000E+00 -0.00000000000E+00 -0.26507512864E+03  0.26511679280E+03  0.47000000000E+01 0. -1.
         25    2    1    2    0    0 -0.74898572649E+01  0.23051060107E+02 -0.12493138305E+03  0.17844590775E+03  0.12509053597E+03 0.  0.
         25    2    1    2    0    0  0.74898572649E+01 -0.23051060107E+02 -0.77783179825E+02  0.14920831513E+03  0.12500179561E+03 0.  0.
          5    1    4    4  502    0  0.12234715985E+02 -0.55381355094E+02  0.78332236032E+01  0.57447647117E+02  0.47000000000E+01 0. -1.
         -5    1    4    4    0  502 -0.47448587196E+01  0.32330294987E+02 -0.85616403428E+02  0.91760668013E+02  0.47000000000E+01 0. -1.
          5    1    3    3  503    0  0.54223610323E+01 -0.21422299837E+02 -0.12970144379E+03  0.13165436359E+03  0.47000000000E+01 0.  1.
         -5    1    3    3    0  503 -0.12912218297E+02  0.44473359944E+02  0.47700607395E+01  0.46791544167E+02  0.47000000000E+01 0.  1.
<mgrwt>
<rscale>  0 0.12739521E+03</rscale>
<asrwt>0</asrwt>
<pdfrwt beam="1">  1        5 0.96107432E-02 0.12741700E+03</pdfrwt>
<pdfrwt beam="2">  1       -5 0.40797598E-01 0.12741700E+03</pdfrwt>
<totfact> 0.35274432E+02</totfact>
</mgrwt>
</event>
<event>
 8    1  0.3542708E-007  0.1269291E+03  0.7546771E-02  0.1232094E+00
          5   -1    0    0  501    0  0.00000000000E+00  0.00000000000E+00  0.98428976291E+03  0.98430098413E+03  0.47000000000E+01 0. -1.
         -5   -1    0    0    0  501 -0.00000000000E+00 -0.00000000000E+00 -0.19307107257E+02  0.19870943376E+02  0.47000000000E+01 0. -1.
         25    2    1    2    0    0  0.21888069612E+02  0.25718259388E+01  0.27846516528E+03  0.30601917904E+03  0.12497674897E+03 0.  0.
         25    2    1    2    0    0 -0.21888069612E+02 -0.25718259388E+01  0.68651749037E+03  0.69815274847E+03  0.12500117494E+03 0.  0.
          5    1    4    4  502    0 -0.27750529135E+02 -0.60074828859E+02  0.43546252013E+03  0.44048697299E+03  0.47000000000E+01 0.  1.
         -5    1    4    4    0  502  0.58624595223E+01  0.57503002920E+02  0.25105497023E+03  0.25766577548E+03  0.47000000000E+01 0.  1.
          5    1    3    3  503    0  0.26943499796E+02 -0.39710931412E+01  0.28986120234E+03  0.29117576888E+03  0.47000000000E+01 0.  1.
         -5    1    3    3    0  503 -0.50554301834E+01  0.65429190800E+01 -0.11396037058E+02  0.14843410156E+02  0.47000000000E+01 0.  1.
<mgrwt>
<rscale>  0 0.12692308E+03</rscale>
<asrwt>0</asrwt>
<pdfrwt beam="1">  1        5 0.15147339E+00 0.12692910E+03</pdfrwt>
<pdfrwt beam="2">  1       -5 0.30145601E-02 0.12692910E+03</pdfrwt>
<totfact> 0.11502997E+02</totfact>
</mgrwt>
</event>
<event>
 8    1  0.3542708E-007  0.1294197E+03  0.7546771E-02  0.1228323E+00
          5   -1    0    0  501    0  0.00000000000E+00  0.00000000000E+00  0.20938055304E+02  0.21459081060E+02  0.47000000000E+01 0.  1.
         -5   -1    0    0    0  501 -0.00000000000E+00 -0.00000000000E+00 -0.10857817032E+04  0.10857918755E+04  0.47000000000E+01 0.  1.
         25    2    1    2    0    0  0.26965412425E+02  0.19929091951E+02 -0.82152029695E+03  0.83165031084E+03  0.12498935578E+03 0.  0.
         25    2    1    2    0    0 -0.26965412425E+02 -0.19929091951E+02 -0.24332335092E+03  0.27560064573E+03  0.12500064261E+03 0.  0.
          5    1    3    3  502    0 -0.19573179779E+02  0.31297034075E+02 -0.69934112875E+03  0.70033043492E+03  0.47000000000E+01 0.  1.
         -5    1    3    3    0  502  0.46538592204E+02 -0.11367942124E+02 -0.12217916819E+03  0.13131987592E+03  0.47000000000E+01 0.  1.
          5    1    4    4  503    0 -0.74383348137E+02  0.45034979795E+01 -0.12283573132E+03  0.14374933344E+03  0.47000000000E+01 0. -1.
         -5    1    4    4    0  503  0.47417935712E+02 -0.24432589931E+02 -0.12048761960E+03  0.13185131230E+03  0.47000000000E+01 0. -1.
<mgrwt>
<rscale>  0 0.12941699E+03</rscale>
<asrwt>0</asrwt>
<pdfrwt beam="1">  1        5 0.32621015E-02 0.12941972E+03</pdfrwt>
<pdfrwt beam="2">  1       -5 0.16708416E+00 0.12941972E+03</pdfrwt>
<totfact> 0.77528250E+01</totfact>
</mgrwt>
</event>
<event>
 8    1  0.3542708E-007  0.1255992E+03  0.7546771E-02  0.1234138E+00
         -5   -1    0    0    0  501 -0.00000000000E+00  0.00000000000E+00  0.33176715687E+02  0.33507976121E+02  0.47000000000E+01 0.  1.
          5   -1    0    0  501    0  0.00000000000E+00 -0.00000000000E+00 -0.47607412420E+03  0.47609732380E+03  0.47000000000E+01 0.  1.
         25    2    1    2    0    0  0.12102560107E+02 -0.16643060694E+01 -0.24268876543E+03  0.27326092689E+03  0.12499782167E+03 0.  0.
         25    2    1    2    0    0 -0.12102560107E+02  0.16643060694E+01 -0.20020864308E+03  0.23634437303E+03  0.12500368005E+03 0.  0.
          5    1    4    4  502    0  0.36790994167E+02  0.29834521971E+01 -0.17899895701E+03  0.18282558587E+03  0.47000000000E+01 0. -1.
         -5    1    4    4    0  502 -0.48893554274E+02 -0.13191461277E+01 -0.21209686069E+02  0.53518787161E+02  0.47000000000E+01 0. -1.
          5    1    3    3  503    0  0.52750874348E+00 -0.36240646907E+00  0.14761272047E+02  0.15504668857E+02  0.47000000000E+01 0.  1.
         -5    1    3    3    0  503  0.11575051363E+02 -0.13018996004E+01 -0.25745003748E+03  0.25775625803E+03  0.47000000000E+01 0.  1.
<mgrwt>
<rscale>  0 0.12559775E+03</rscale>
<asrwt>0</asrwt>
<pdfrwt beam="2">  1        5 0.73269434E-01 0.12559921E+03</pdfrwt>
<pdfrwt beam="1">  1       -5 0.51313766E-02 0.12559921E+03</pdfrwt>
<totfact> 0.28868781E+02</totfact>
</mgrwt>
</event>
<event>
 8    1  0.3542708E-007  0.1276078E+03  0.7546771E-02  0.1231050E+00
         -5   -1    0    0    0  501 -0.00000000000E+00  0.00000000000E+00  0.99905285536E+02  0.10001577915E+03  0.47000000000E+01 0.  1.
          5   -1    0    0  501    0  0.00000000000E+00 -0.00000000000E+00 -0.16284007631E+03  0.16290788948E+03  0.47000000000E+01 0.  1.
         25    2    1    2    0    0  0.86744841669E+01  0.24147435426E+02 -0.28467256229E+02  0.13074283436E+03  0.12499983499E+03 0.  0.
         25    2    1    2    0    0 -0.86744841669E+01 -0.24147435426E+02 -0.34467534547E+02  0.13218083426E+03  0.12500166677E+03 0.  0.
          5    1    3    3  502    0  0.53671442728E+02  0.49329210304E+02 -0.31740002413E+01  0.73117433155E+02  0.47000000000E+01 0.  1.
         -5    1    3    3    0  502 -0.44996958561E+02 -0.25181774878E+02 -0.25293255988E+02  0.57625401207E+02  0.47000000000E+01 0.  1.
          5    1    4    4  503    0  0.26538540736E+01 -0.61534153281E+02 -0.59320762738E+02  0.85641916450E+02  0.47000000000E+01 0.  1.
         -5    1    4    4    0  503 -0.11328338240E+02  0.37386717855E+02  0.24853228191E+02  0.46538917808E+02  0.47000000000E+01 0.  1.
<mgrwt>
<rscale>  0 0.12760740E+03</rscale>
<asrwt>0</asrwt>
<pdfrwt beam="2">  1        5 0.25066035E-01 0.12760784E+03</pdfrwt>
<pdfrwt beam="1">  1       -5 0.15383760E-01 0.12760784E+03</pdfrwt>
<totfact> 0.40171184E+02</totfact>
</mgrwt>
</event>
<event>
 8    1  0.3542708E-007  0.1330428E+03  0.7546771E-02  0.1223011E+00
          5   -1    0    0  501    0  0.00000000000E+00  0.00000000000E+00  0.71085252666E+03  0.71086806417E+03  0.47000000000E+01 0. -1.
         -5   -1    0    0    0  501 -0.00000000000E+00 -0.00000000000E+00 -0.25130440039E+02  0.25566169376E+02  0.47000000000E+01 0. -1.
         25    2    1    2    0    0  0.62155728818E+01 -0.45121666403E+02  0.29302054676E+03  0.32180802234E+03  0.12499905717E+03 0.  0.
         25    2    1    2    0    0 -0.62155728818E+01  0.45121666403E+02  0.39270153987E+03  0.41462621122E+03  0.12500318991E+03 0.  0.
          5    1    4    4  502    0  0.40073023593E+02  0.68902681546E+02  0.21266999458E+03  0.22716523356E+03  0.47000000000E+01 0. -1.
         -5    1    4    4    0  502 -0.46288596474E+02 -0.23781015143E+02  0.18003154529E+03  0.18746097766E+03  0.47000000000E+01 0. -1.
          5    1    3    3  503    0  0.30991519415E+02 -0.49398060776E+02  0.29024209873E+03  0.29607973345E+03  0.47000000000E+01 0.  1.
         -5    1    3    3    0  503 -0.24775946534E+02  0.42763943737E+01  0.27784480251E+01  0.25728288884E+02  0.47000000000E+01 0.  1.
<mgrwt>
<rscale>  0 0.13304186E+03</rscale>
<asrwt>0</asrwt>
<pdfrwt beam="1">  1        5 0.10939665E+00 0.13304283E+03</pdfrwt>
<pdfrwt beam="2">  1       -5 0.39009341E-02 0.13304283E+03</pdfrwt>
<totfact> 0.17900019E+02</totfact>
</mgrwt>
</event>
<event>
 8    1  0.3542708E-007  0.1260064E+03  0.7546771E-02  0.1233506E+00
          5   -1    0    0  501    0  0.00000000000E+00  0.00000000000E+00  0.12231216170E+03  0.12240243012E+03  0.47000000000E+01 0.  1.
         -5   -1    0    0    0  501 -0.00000000000E+00 -0.00000000000E+00 -0.14574582825E+03  0.14582159118E+03  0.47000000000E+01 0.  1.
         25    2    1    2    0    0 -0.95904296911E+01  0.12656806988E+02 -0.56290068550E+02  0.13800433766E+03  0.12499781714E+03 0.  0.
         25    2    1    2    0    0  0.95904296911E+01 -0.12656806988E+02  0.32856402001E+02  0.13021968364E+03  0.12500180699E+03 0.  0.
          5    1    3    3  502    0 -0.53934828505E+02 -0.19894904120E+02 -0.59284335686E+02  0.82713332623E+02  0.47000000000E+01 0. -1.
         -5    1    3    3    0  502  0.44344398814E+02  0.32551711108E+02  0.29942671360E+01  0.55291005036E+02  0.47000000000E+01 0. -1.
          5    1    4    4  503    0  0.41663292391E+02 -0.15957364652E+02 -0.33704277458E+02  0.56111814607E+02  0.47000000000E+01 0. -1.
         -5    1    4    4    0  503 -0.32072862700E+02  0.33005576640E+01  0.66560679459E+02  0.74107869033E+02  0.47000000000E+01 0. -1.
<mgrwt>
<rscale>  0 0.12600545E+03</rscale>
<asrwt>0</asrwt>
<pdfrwt beam="1">  1        5 0.18830027E-01 0.12600644E+03</pdfrwt>
<pdfrwt beam="2">  1       -5 0.22435207E-01 0.12600644E+03</pdfrwt>
<totfact> 0.34094884E+02</totfact>
</mgrwt>
</event>
<event>
 8    1  0.3542708E-007  0.1361687E+03  0.7546771E-02  0.1218583E+00
         -5   -1    0    0    0  501 -0.00000000000E+00  0.00000000000E+00  0.89364266127E+02  0.89487776039E+02  0.47000000000E+01 0.  1.
          5   -1    0    0  501    0  0.00000000000E+00 -0.00000000000E+00 -0.21344185270E+03  0.21349359354E+03  0.47000000000E+01 0.  1.
         25    2    1    2    0    0  0.53610184575E+02  0.63543915957E+01 -0.36096605613E+02  0.14086241630E+03  0.12499930083E+03 0.  0.
         25    2    1    2    0    0 -0.53610184575E+02 -0.63543915957E+01 -0.87980980958E+02  0.16211895328E+03  0.12500988688E+03 0.  0.
          5    1    4    4  502    0 -0.73818197689E+02 -0.48842803360E+02 -0.52681907195E+02  0.10311265245E+03  0.47000000000E+01 0. -1.
         -5    1    4    4    0  502  0.20208013115E+02  0.42488411764E+02 -0.35299073763E+02  0.59006300823E+02  0.47000000000E+01 0. -1.
          5    1    3    3  503    0  0.25523685968E+01 -0.12175320151E+02 -0.73534110454E+02  0.74726892124E+02  0.47000000000E+01 0. -1.
         -5    1    3    3    0  503  0.51057815978E+02  0.18529711746E+02  0.37437504841E+02  0.66135524180E+02  0.47000000000E+01 0. -1.
<mgrwt>
<rscale>  0 0.13616622E+03</rscale>
<asrwt>0</asrwt>
<pdfrwt beam="2">  1        5 0.32850689E-01 0.13616865E+03</pdfrwt>
<pdfrwt beam="1">  1       -5 0.13761830E-01 0.13616865E+03</pdfrwt>
<totfact> 0.29669876E+02</totfact>
</mgrwt>
</event>
<event>
 8    1  0.3542708E-007  0.1438700E+03  0.7546771E-02  0.1208216E+00
          5   -1    0    0  501    0  0.00000000000E+00  0.00000000000E+00  0.90448130686E+02  0.90570162551E+02  0.47000000000E+01 0.  1.
         -5   -1    0    0    0  501 -0.00000000000E+00 -0.00000000000E+00 -0.23306137661E+03  0.23310876274E+03  0.47000000000E+01 0.  1.
         25    2    1    2    0    0 -0.56988560025E+02  0.42715833475E+02 -0.93851527790E+02  0.17177510743E+03  0.12500495934E+03 0.  0.
         25    2    1    2    0    0  0.56988560025E+02 -0.42715833475E+02 -0.48761718136E+02  0.15190381787E+03  0.12499890529E+03 0.  0.
          5    1    3    3  502    0 -0.57010168513E+02 -0.24278014037E+02 -0.83093637638E+02  0.10376041584E+03  0.47000000000E+01 0.  1.
         -5    1    3    3    0  502  0.21608488567E-01  0.66993847512E+02 -0.10757890152E+02  0.68014691589E+02  0.47000000000E+01 0.  1.
          5    1    4    4  503    0  0.21469053400E+02 -0.70092346206E+02 -0.70528225443E+02  0.10183407011E+03  0.47000000000E+01 0. -1.
         -5    1    4    4    0  503  0.35519506625E+02  0.27376512731E+02  0.21766507307E+02  0.50069747758E+02  0.47000000000E+01 0. -1.
<mgrwt>
<rscale>  0 0.14386869E+03</rscale>
<asrwt>0</asrwt>
<pdfrwt beam="1">  1        5 0.13928129E-01 0.14387000E+03</pdfrwt>
<pdfrwt beam="2">  1       -5 0.35868628E-01 0.14387000E+03</pdfrwt>
<totfact> 0.24815055E+02</totfact>
</mgrwt>
</event>
<event>
 8    1  0.3542708E-007  0.1589253E+03  0.7546771E-02  0.1189917E+00
         -5   -1    0    0    0  501 -0.00000000000E+00  0.00000000000E+00  0.73818271830E+02  0.73967744699E+02  0.47000000000E+01 0.  1.
          5   -1    0    0  501    0  0.00000000000E+00 -0.00000000000E+00 -0.36613853943E+03  0.36616870437E+03  0.47000000000E+01 0.  1.
         25    2    1    2    0    0  0.94299780719E+02 -0.27142943368E+02 -0.89231974969E+02  0.18225639677E+03  0.12500344310E+03 0.  0.
         25    2    1    2    0    0 -0.94299780719E+02  0.27142943368E+02 -0.20308829263E+03  0.25788005230E+03  0.12501231440E+03 0.  0.
          5    1    3    3  502    0  0.49786291947E+02  0.48691410785E+02 -0.29073468320E+02  0.75610084712E+02  0.47000000000E+01 0. -1.
         -5    1    3    3    0  502  0.44513488772E+02 -0.75834354154E+02 -0.60158506649E+02  0.10664631205E+03  0.47000000000E+01 0. -1.
          5    1    4    4  503    0 -0.99711635099E+02 -0.16289930696E+02 -0.85903598498E+02  0.13270000095E+03  0.47000000000E+01 0. -1.
         -5    1    4    4    0  503  0.54118543802E+01  0.43432874064E+02 -0.11718469413E+03  0.12518005135E+03  0.47000000000E+01 0. -1.
<mgrwt>
<rscale>  0 0.15892361E+03</rscale>
<asrwt>0</asrwt>
<pdfrwt beam="2">  1        5 0.56342823E-01 0.15892535E+03</pdfrwt>
<pdfrwt beam="1">  1       -5 0.11370476E-01 0.15892535E+03</pdfrwt>
<totfact> 0.14337007E+02</totfact>
</mgrwt>
</event>
<event>
 8    1  0.3542708E-007  0.1256393E+03  0.7546771E-02  0.1234075E+00
         -5   -1    0    0    0  501 -0.00000000000E+00  0.00000000000E+00  0.64244162970E+03  0.64245882169E+03  0.47000000000E+01 0. -1.
          5   -1    0    0  501    0  0.00000000000E+00 -0.00000000000E+00 -0.24612620346E+02  0.25057355812E+02  0.47000000000E+01 0. -1.
         25    2    1    2    0    0  0.93479427151E+01  0.85032590263E+01  0.34449183654E+03  0.36668658294E+03  0.12499894087E+03 0.  0.
         25    2    1    2    0    0 -0.93479427151E+01 -0.85032590263E+01  0.27333717282E+03  0.30082959457E+03  0.12500218189E+03 0.  0.
          5    1    4    4  502    0 -0.34448718208E+02  0.46735151413E+02  0.86114794338E+02  0.10396507283E+03  0.47000000000E+01 0. -1.
         -5    1    4    4    0  502  0.25100775493E+02 -0.55238410439E+02  0.18722237848E+03  0.19686452174E+03  0.47000000000E+01 0. -1.
          5    1    3    3  503    0  0.38863874162E+02  0.56713394519E+02  0.18962063490E+03  0.20175451671E+03  0.47000000000E+01 0.  1.
         -5    1    3    3    0  503 -0.29515931446E+02 -0.48210135493E+02  0.15487120164E+03  0.16493206623E+03  0.47000000000E+01 0.  1.
<mgrwt>
<rscale>  0 0.12563850E+03</rscale>
<asrwt>0</asrwt>
<pdfrwt beam="2">  1        5 0.38220898E-02 0.12563930E+03</pdfrwt>
<pdfrwt beam="1">  1       -5 0.98872707E-01 0.12563930E+03</pdfrwt>
<totfact> 0.23256821E+02</totfact>
</mgrwt>
</event>
<event>
 8    1  0.3542708E-007  0.1566301E+03  0.7546771E-02  0.1192555E+00
          5   -1    0    0  501    0  0.00000000000E+00  0.00000000000E+00  0.26316760675E+02  0.26733160913E+02  0.47000000000E+01 0.  1.
         -5   -1    0    0    0  501 -0.00000000000E+00 -0.00000000000E+00 -0.10767028770E+04  0.10767131351E+04  0.47000000000E+01 0.  1.
         25    2    1    2    0    0 -0.72469564748E+02  0.60462530774E+02 -0.73260621175E+03  0.74916242900E+03  0.12499971234E+03 0.  0.
         25    2    1    2    0    0  0.72469564748E+02 -0.60462530774E+02 -0.31777990453E+03  0.35428386699E+03  0.12500174096E+03 0.  0.
          5    1    4    4  502    0 -0.49731996708E-01 -0.12864275317E+02  0.88449214103E+01  0.16303824320E+02  0.47000000000E+01 0.  1.
         -5    1    4    4    0  502  0.72519296745E+02 -0.47598255457E+02 -0.32662482594E+03  0.33798004267E+03  0.47000000000E+01 0.  1.
          5    1    3    3  503    0 -0.81697034586E+02  0.78233125154E+02 -0.39428225464E+03  0.41021386331E+03  0.47000000000E+01 0. -1.
         -5    1    3    3    0  503  0.92274698375E+01 -0.17770594381E+02 -0.33832395711E+03  0.33894856569E+03  0.47000000000E+01 0. -1.
<mgrwt>
<rscale>  0 0.15662970E+03</rscale>
<asrwt>0</asrwt>
<pdfrwt beam="1">  1        5 0.40815531E-02 0.15663011E+03</pdfrwt>
<pdfrwt beam="2">  1       -5 0.16567938E+00 0.15663011E+03</pdfrwt>
<totfact> 0.58290102E+01</totfact>
</mgrwt>
</event>
<event>
 8    1  0.3542708E-007  0.1304589E+03  0.7546771E-02  0.1226791E+00
          5   -1    0    0  501    0  0.00000000000E+00  0.00000000000E+00  0.37520200955E+03  0.37523144587E+03  0.47000000000E+01 0.  1.
         -5   -1    0    0    0  501 -0.00000000000E+00 -0.00000000000E+00 -0.45690222573E+02  0.45931323068E+02  0.47000000000E+01 0.  1.
         25    2    1    2    0    0  0.28295395091E+02  0.24147532328E+02  0.14289934322E+03  0.19349355596E+03  0.12504319735E+03 0.  0.
         25    2    1    2    0    0 -0.28295395091E+02 -0.24147532328E+02  0.18661244375E+03  0.22766921297E+03  0.12500133468E+03 0.  0.
          5    1    3    3  502    0  0.12841034680E+02  0.96038470485E-01  0.15951143646E+03  0.16009650139E+03  0.47000000000E+01 0. -1.
         -5    1    3    3    0  502  0.15454360411E+02  0.24051493857E+02 -0.16612093238E+02  0.33397054574E+02  0.47000000000E+01 0. -1.
          5    1    4    4  503    0 -0.19929812129E+02 -0.16888677603E+02 -0.11689392966E+02  0.29002702471E+02  0.47000000000E+01 0. -1.
         -5    1    4    4    0  503 -0.83655829621E+01 -0.72588547245E+01  0.19830183672E+03  0.19866651050E+03  0.47000000000E+01 0. -1.
<mgrwt>
<rscale>  0 0.13044890E+03</rscale>
<asrwt>0</asrwt>
<pdfrwt beam="1">  1        5 0.57744196E-01 0.13045894E+03</pdfrwt>
<pdfrwt beam="2">  1       -5 0.70500756E-02 0.13045894E+03</pdfrwt>
<totfact> 0.29123092E+02</totfact>
</mgrwt>
</event>
<event>
 8    1  0.3542708E-007  0.1255483E+03  0.7546771E-02  0.1234224E+00
         -5   -1    0    0    0  501 -0.00000000000E+00  0.00000000000E+00  0.42630949836E+03  0.42633540597E+03  0.47000000000E+01 0. -1.
          5   -1    0    0  501    0  0.00000000000E+00 -0.00000000000E+00 -0.38185950362E+02  0.38474105643E+02  0.47000000000E+01 0. -1.
         25    2    1    2    0    0  0.63845904488E+01  0.95218358172E+01  0.23828127787E+03  0.26932271433E+03  0.12500131486E+03 0.  0.
         25    2    1    2    0    0 -0.63845904488E+01 -0.95218358172E+01  0.14984227012E+03  0.19548679729E+03  0.12502381232E+03 0.  0.
          5    1    4    4  502    0 -0.57814602243E+02 -0.32393182622E+02  0.10057169060E+03  0.12053464839E+03  0.47000000000E+01 0.  1.
         -5    1    4    4    0  502  0.51430011794E+02  0.22871346805E+02  0.49270579529E+02  0.74952148901E+02  0.47000000000E+01 0.  1.
          5    1    3    3  503    0 -0.36854708184E+02 -0.30604069080E+02  0.40589272346E+02  0.62963938800E+02  0.47000000000E+01 0. -1.
         -5    1    3    3    0  503  0.43239298633E+02  0.40125904897E+02  0.19769200552E+03  0.20635877553E+03  0.47000000000E+01 0. -1.
<mgrwt>
<rscale>  0 0.12554272E+03</rscale>
<asrwt>0</asrwt>
<pdfrwt beam="2">  1        5 0.58989204E-02 0.12554833E+03</pdfrwt>
<pdfrwt beam="1">  1       -5 0.65610233E-01 0.12554833E+03</pdfrwt>
<totfact> 0.29308309E+02</totfact>
</mgrwt>
</event>
<event>
 8    1  0.3542708E-007  0.1566611E+03  0.7546771E-02  0.1192520E+00
         -5   -1    0    0    0  501 -0.00000000000E+00  0.00000000000E+00  0.39572031403E+03  0.39574822418E+03  0.47000000000E+01 0.  1.
          5   -1    0    0  501    0  0.00000000000E+00 -0.00000000000E+00 -0.62710455290E+02  0.62886335580E+02  0.47000000000E+01 0.  1.
         25    2    1    2    0    0  0.91520502020E+02 -0.23238571347E+02  0.14047174396E+03  0.21041361661E+03  0.12500218284E+03 0.  0.
         25    2    1    2    0    0 -0.91520502020E+02  0.23238571347E+02  0.19253811478E+03  0.24822094315E+03  0.12500670976E+03 0.  0.
          5    1    4    4  502    0 -0.78184650595E+02 -0.35081559972E+02  0.15575539058E+03  0.17783528090E+03  0.47000000000E+01 0.  1.
         -5    1    4    4    0  502 -0.13335851425E+02  0.58320131319E+02  0.36782724204E+02  0.70385662248E+02  0.47000000000E+01 0.  1.
          5    1    3    3  503    0 -0.17314344839E+02  0.21220473709E+02  0.81520331845E+00  0.27800172627E+02  0.47000000000E+01 0.  1.
         -5    1    3    3    0  503  0.10883484686E+03 -0.44459045056E+02  0.13965654064E+03  0.18261344398E+03  0.47000000000E+01 0.  1.
<mgrwt>
<rscale>  0 0.15666023E+03</rscale>
<asrwt>0</asrwt>
<pdfrwt beam="2">  1        5 0.96634384E-02 0.15666113E+03</pdfrwt>
<pdfrwt beam="1">  1       -5 0.60895725E-01 0.15666113E+03</pdfrwt>
<totfact> 0.16025246E+02</totfact>
</mgrwt>
</event>
<event>
 8    1  0.3542708E-007  0.1296503E+03  0.7546771E-02  0.1227976E+00
          5   -1    0    0  501    0  0.00000000000E+00  0.00000000000E+00  0.52974029186E+03  0.52976114129E+03  0.47000000000E+01 0. -1.
         -5   -1    0    0    0  501 -0.00000000000E+00 -0.00000000000E+00 -0.31555636493E+02  0.31903733237E+02  0.47000000000E+01 0. -1.
         25    2    1    2    0    0 -0.25336353420E+02 -0.23287035917E+02  0.24196382246E+03  0.27450929417E+03  0.12499857744E+03 0.  0.
         25    2    1    2    0    0  0.25336353420E+02  0.23287035917E+02  0.25622083291E+03  0.28715558035E+03  0.12499998106E+03 0.  0.
          5    1    4    4  502    0 -0.49703074162E+02  0.14972422084E+02  0.81221641002E+02  0.96507066950E+02  0.47000000000E+01 0. -1.
         -5    1    4    4    0  502  0.75039427581E+02  0.83146138330E+01  0.17499919191E+03  0.19064851340E+03  0.47000000000E+01 0. -1.
          5    1    3    3  503    0 -0.70394007798E+02  0.66471789336E+01  0.10039992036E+03  0.12288911803E+03  0.47000000000E+01 0. -1.
         -5    1    3    3    0  503  0.45057654378E+02 -0.29934214851E+02  0.14156390209E+03  0.15162017614E+03  0.47000000000E+01 0. -1.
<mgrwt>
<rscale>  0 0.12965001E+03</rscale>
<asrwt>0</asrwt>
<pdfrwt beam="1">  1        5 0.81526891E-01 0.12965035E+03</pdfrwt>
<pdfrwt beam="2">  1       -5 0.48830935E-02 0.12965035E+03</pdfrwt>
<totfact> 0.24816741E+02</totfact>
</mgrwt>
</event>
<event>
 8    1  0.3542708E-007  0.1261737E+03  0.7546771E-02  0.1233248E+00
          5   -1    0    0  501    0  0.00000000000E+00  0.00000000000E+00  0.51648195443E+02  0.51861605186E+02  0.47000000000E+01 0.  1.
         -5   -1    0    0    0  501 -0.00000000000E+00 -0.00000000000E+00 -0.35160761473E+03  0.35163902618E+03  0.47000000000E+01 0.  1.
         25    2    1    2    0    0 -0.81715812431E+01 -0.15108453913E+02 -0.22152668192E+03  0.25493896397E+03  0.12499905770E+03 0.  0.
         25    2    1    2    0    0  0.81715812431E+01  0.15108453913E+02 -0.78432737363E+02  0.14856166740E+03  0.12499533836E+03 0.  0.
          5    1    3    3  502    0  0.63196308156E+01  0.34166805423E+02 -0.19267854220E+03  0.19584284248E+03  0.47000000000E+01 0.  1.
         -5    1    3    3    0  502 -0.14491212059E+02 -0.49275259336E+02 -0.28848139729E+02  0.59096121492E+02  0.47000000000E+01 0.  1.
          5    1    4    4  503    0 -0.57296883406E+02 -0.23367693153E+01 -0.43892444286E+02  0.72367326912E+02  0.47000000000E+01 0.  1.
         -5    1    4    4    0  503  0.65468464650E+02  0.17445223228E+02 -0.34540293077E+02  0.76194340491E+02  0.47000000000E+01 0.  1.
<mgrwt>
<rscale>  0 0.12617279E+03</rscale>
<asrwt>0</asrwt>
<pdfrwt beam="1">  1        5 0.79647089E-02 0.12617371E+03</pdfrwt>
<pdfrwt beam="2">  1       -5 0.54112310E-01 0.12617371E+03</pdfrwt>
<totfact> 0.26888086E+02</totfact>
</mgrwt>
</event>
<event>
 8    1  0.3542708E-007  0.1279607E+03  0.7546771E-02  0.1230516E+00
         -5   -1    0    0    0  501 -0.00000000000E+00  0.00000000000E+00  0.33664900907E+02  0.33991404106E+02  0.47000000000E+01 0. -1.
          5   -1    0    0  501    0  0.00000000000E+00 -0.00000000000E+00 -0.48561745689E+03  0.48564020060E+03  0.47000000000E+01 0. -1.
         25    2    1    2    0    0 -0.21558615637E+02 -0.16808907280E+02 -0.20954608454E+03  0.24552696756E+03  0.12500646775E+03 0.  0.
         25    2    1    2    0    0  0.21558615637E+02  0.16808907280E+02 -0.24240647144E+03  0.27410463715E+03  0.12500056574E+03 0.  0.
          5    1    3    3  502    0  0.18263706252E+02 -0.48814922826E+02 -0.33448376042E+02  0.62107515781E+02  0.47000000000E+01 0. -1.
         -5    1    3    3    0  502 -0.39822321889E+02  0.32006015546E+02 -0.17609770850E+03  0.18341945178E+03  0.47000000000E+01 0. -1.
          5    1    4    4  503    0  0.13185083484E+02  0.49300012827E+02 -0.23352114118E+03  0.23907854581E+03  0.47000000000E+01 0.  1.
         -5    1    4    4    0  503  0.83735321527E+01 -0.32491105546E+02 -0.88853302678E+01  0.35026091336E+02  0.47000000000E+01 0.  1.
<mgrwt>
<rscale>  0 0.12795922E+03</rscale>
<asrwt>0</asrwt>
<pdfrwt beam="2">  1        5 0.74737238E-01 0.12796066E+03</pdfrwt>
<pdfrwt beam="1">  1       -5 0.52060810E-02 0.12796066E+03</pdfrwt>
<totfact> 0.27122947E+02</totfact>
</mgrwt>
</event>
<event>
 8    1  0.3542708E-007  0.1418278E+03  0.7546771E-02  0.1210891E+00
          5   -1    0    0  501    0  0.00000000000E+00  0.00000000000E+00  0.38605793090E+03  0.38608653954E+03  0.47000000000E+01 0.  1.
         -5   -1    0    0    0  501 -0.00000000000E+00 -0.00000000000E+00 -0.53267864875E+02  0.53474811158E+02  0.47000000000E+01 0.  1.
         25    2    1    2    0    0  0.41791158459E+02 -0.52382521595E+02  0.13211533058E+03  0.19382681602E+03  0.12499577809E+03 0.  0.
         25    2    1    2    0    0 -0.41791158459E+02  0.52382521595E+02  0.20067473545E+03  0.24573453468E+03  0.12499873036E+03 0.  0.
          5    1    3    3  502    0  0.82807323511E+02 -0.18102418926E+02  0.10045396873E+03  0.13152125392E+03  0.47000000000E+01 0.  1.
         -5    1    3    3    0  502 -0.41016165051E+02 -0.34280102669E+02  0.31661361843E+02  0.62305562097E+02  0.47000000000E+01 0.  1.
          5    1    4    4  503    0  0.25805948897E+02 -0.20760322441E+02  0.93730273540E+02  0.99520812719E+02  0.47000000000E+01 0.  1.
         -5    1    4    4    0  503 -0.67597107356E+02  0.73142844037E+02  0.10694446191E+03  0.14621372196E+03  0.47000000000E+01 0.  1.
<mgrwt>
<rscale>  0 0.14182710E+03</rscale>
<asrwt>0</asrwt>
<pdfrwt beam="1">  1        5 0.59411645E-01 0.14182775E+03</pdfrwt>
<pdfrwt beam="2">  1       -5 0.82131761E-02 0.14182775E+03</pdfrwt>
<totfact> 0.21698963E+02</totfact>
</mgrwt>
</event>
<event>
 8    1  0.3542708E-007  0.1304009E+03  0.7546771E-02  0.1226870E+00
         -5   -1    0    0    0  501 -0.00000000000E+00  0.00000000000E+00  0.15604965544E+03  0.15612041815E+03  0.47000000000E+01 0. -1.
          5   -1    0    0  501    0  0.00000000000E+00 -0.00000000000E+00 -0.13351390036E+03  0.13359660022E+03  0.47000000000E+01 0. -1.
         25    2    1    2    0    0 -0.24951814485E+02  0.27459254210E+02  0.73548986627E+02  0.14969295066E+03  0.12498768881E+03 0.  0.
         25    2    1    2    0    0  0.24951814485E+02 -0.27459254210E+02 -0.51013231553E+02  0.14002406771E+03  0.12501114373E+03 0.  0.
          5    1    4    4  502    0 -0.23739560506E+02  0.20279863003E+02  0.23161565601E+02  0.39158494577E+02  0.47000000000E+01 0.  1.
         -5    1    4    4    0  502  0.48691374990E+02 -0.47739117213E+02 -0.74174797154E+02  0.10086557313E+03  0.47000000000E+01 0.  1.
          5    1    3    3  503    0  0.37253739041E+02  0.46670357413E+02  0.14401844745E+02  0.61607357236E+02  0.47000000000E+01 0.  1.
         -5    1    3    3    0  503 -0.62205553525E+02 -0.19211103203E+02  0.59147141881E+02  0.88085593421E+02  0.47000000000E+01 0.  1.
<mgrwt>
<rscale>  0 0.13039526E+03</rscale>
<asrwt>0</asrwt>
<pdfrwt beam="2">  1        5 0.20552405E-01 0.13040088E+03</pdfrwt>
<pdfrwt beam="1">  1       -5 0.24019444E-01 0.13040088E+03</pdfrwt>
<totfact> 0.25775601E+02</totfact>
</mgrwt>
</event>
<event>
 8    1  0.3542708E-007  0.1402530E+03  0.7546771E-02  0.1212991E+00
          5   -1    0    0  501    0  0.00000000000E+00  0.00000000000E+00  0.81061302335E+02  0.81197442916E+02  0.47000000000E+01 0. -1.
         -5   -1    0    0    0  501 -0.00000000000E+00 -0.00000000000E+00 -0.83355010651E+03  0.83356335695E+03  0.47000000000E+01 0. -1.
         25    2    1    2    0    0 -0.27359156463E+02 -0.57410488837E+02 -0.76141575631E+03  0.77422397225E+03  0.12499727028E+03 0.  0.
         25    2    1    2    0    0  0.27359156463E+02  0.57410488837E+02  0.89269521359E+01  0.14053682762E+03  0.12500568696E+03 0.  0.
          5    1    4    4  502    0  0.22727318884E+01  0.88703553777E+02  0.31498882327E+02  0.94274892473E+02  0.47000000000E+01 0.  1.
         -5    1    4    4    0  502  0.25086424575E+02 -0.31293064940E+02 -0.22571930192E+02  0.46261935150E+02  0.47000000000E+01 0.  1.
          5    1    3    3  503    0 -0.14755708574E+02 -0.69880824248E+02 -0.74820132813E+03  0.75161717513E+03  0.47000000000E+01 0.  1.
         -5    1    3    3    0  503 -0.12603447890E+02  0.12470335411E+02 -0.13214428181E+02  0.22606797123E+02  0.47000000000E+01 0.  1.
<mgrwt>
<rscale>  0 0.14025114E+03</rscale>
<asrwt>0</asrwt>
<pdfrwt beam="1">  1        5 0.12482462E-01 0.14025302E+03</pdfrwt>
<pdfrwt beam="2">  1       -5 0.12824996E+00 0.14025302E+03</pdfrwt>
<totfact> 0.16806373E+01</totfact>
</mgrwt>
</event>
<event>
 8    1  0.3542708E-007  0.1274465E+03  0.7546771E-02  0.1231318E+00
          5   -1    0    0  501    0  0.00000000000E+00  0.00000000000E+00  0.15693697744E+03  0.15700734023E+03  0.47000000000E+01 0. -1.
         -5   -1    0    0    0  501 -0.00000000000E+00 -0.00000000000E+00 -0.10333275894E+03  0.10343959141E+03  0.47000000000E+01 0. -1.
         25    2    1    2    0    0  0.21989174984E+02 -0.11622681458E+02  0.24510711130E+02  0.12978202497E+03  0.12499595395E+03 0.  0.
         25    2    1    2    0    0 -0.21989174984E+02  0.11622681458E+02  0.29093507365E+02  0.13066490667E+03  0.12493308259E+03 0.  0.
          5    1    4    4  502    0  0.27756100901E+02  0.18991937716E+02 -0.35196588371E+02  0.48907920303E+02  0.47000000000E+01 0.  1.
         -5    1    4    4    0  502 -0.49745275885E+02 -0.73692562578E+01  0.64290095735E+02  0.81756986370E+02  0.47000000000E+01 0.  1.
          5    1    3    3  503    0  0.37269355007E+02  0.23094390566E+02  0.62107125901E+02  0.76169159021E+02  0.47000000000E+01 0.  1.
         -5    1    3    3    0  503 -0.15280180023E+02 -0.34717072024E+02 -0.37596414771E+02  0.53612865947E+02  0.47000000000E+01 0.  1.
<mgrwt>
<rscale>  0 0.12743104E+03</rscale>
<asrwt>0</asrwt>
<pdfrwt beam="1">  1        5 0.24157781E-01 0.12744646E+03</pdfrwt>
<pdfrwt beam="2">  1       -5 0.15910978E-01 0.12744646E+03</pdfrwt>
<totfact> 0.40527725E+02</totfact>
</mgrwt>
</event>
<event>
 8    1  0.3542708E-007  0.1353150E+03  0.7546771E-02  0.1219776E+00
          5   -1    0    0  501    0  0.00000000000E+00  0.00000000000E+00  0.58555116106E+03  0.58557002333E+03  0.47000000000E+01 0.  1.
         -5   -1    0    0    0  501 -0.00000000000E+00 -0.00000000000E+00 -0.31183665351E+02  0.31535868226E+02  0.47000000000E+01 0.  1.
         25    2    1    2    0    0  0.39348879105E+02 -0.33725239447E+02  0.25895157909E+03  0.29217474486E+03  0.12499774063E+03 0.  0.
         25    2    1    2    0    0 -0.39348879105E+02  0.33725239447E+02  0.29541591662E+03  0.32493114669E+03  0.12499584086E+03 0.  0.
          5    1    3    3  502    0  0.74443550232E+02 -0.52908633110E+02  0.20810588398E+03  0.22731325209E+03  0.47000000000E+01 0.  1.
         -5    1    3    3    0  502 -0.35094671127E+02  0.19183393663E+02  0.50845695112E+02  0.64861492778E+02  0.47000000000E+01 0.  1.
          5    1    4    4  503    0 -0.27843177862E+02 -0.28824922952E+02  0.25842543126E+02  0.47917071821E+02  0.47000000000E+01 0.  1.
         -5    1    4    4    0  503 -0.11505701243E+02  0.62550162399E+02  0.26957337349E+03  0.27701407487E+03  0.47000000000E+01 0.  1.
<mgrwt>
<rscale>  0 0.13531461E+03</rscale>
<asrwt>0</asrwt>
<pdfrwt beam="1">  1        5 0.90113336E-01 0.13531504E+03</pdfrwt>
<pdfrwt beam="2">  1       -5 0.48260305E-02 0.13531504E+03</pdfrwt>
<totfact> 0.20306085E+02</totfact>
</mgrwt>
</event>
<event>
 8    1  0.3542708E-007  0.1532396E+03  0.7546771E-02  0.1196552E+00
          5   -1    0    0  501    0  0.00000000000E+00  0.00000000000E+00  0.24649752540E+02  0.25093829924E+02  0.47000000000E+01 0. -1.
         -5   -1    0    0    0  501 -0.00000000000E+00 -0.00000000000E+00 -0.98310107974E+03  0.98311231453E+03  0.47000000000E+01 0. -1.
         25    2    1    2    0    0  0.88602221515E+02  0.25801872467E+01 -0.58022844909E+03  0.60011923777E+03  0.12498414055E+03 0.  0.
         25    2    1    2    0    0 -0.88602221515E+02 -0.25801872467E+01 -0.37822287812E+03  0.40808690669E+03  0.12500146742E+03 0.  0.
          5    1    3    3  502    0  0.10755606609E+03  0.32189165245E+02 -0.49881767861E+03  0.51131752973E+03  0.47000000000E+01 0.  1.
         -5    1    3    3    0  502 -0.18953844572E+02 -0.29608977998E+02 -0.81410770478E+02  0.88801708046E+02  0.47000000000E+01 0.  1.
          5    1    4    4  503    0 -0.62890123353E+01 -0.49967494930E+02 -0.76304690361E+02  0.91546698449E+02  0.47000000000E+01 0. -1.
         -5    1    4    4    0  503 -0.82313209180E+02  0.47387307684E+02 -0.30191818775E+03  0.31654020824E+03  0.47000000000E+01 0. -1.
<mgrwt>
<rscale>  0 0.15323608E+03</rscale>
<asrwt>0</asrwt>
<pdfrwt beam="1">  1        5 0.38272944E-02 0.15323961E+03</pdfrwt>
<pdfrwt beam="2">  1       -5 0.15128131E+00 0.15323961E+03</pdfrwt>
<totfact> 0.83010701E+01</totfact>
</mgrwt>
</event>
<event>
 8    1  0.3542708E-007  0.1492907E+03  0.7546771E-02  0.1201349E+00
         -5   -1    0    0    0  501 -0.00000000000E+00  0.00000000000E+00  0.10363935670E+04  0.10364042240E+04  0.47000000000E+01 0. -1.
          5   -1    0    0  501    0  0.00000000000E+00 -0.00000000000E+00 -0.22668030435E+02  0.23150153430E+02  0.47000000000E+01 0. -1.
         25    2    1    2    0    0 -0.60583763251E+02  0.54684995708E+02  0.63853369536E+03  0.65575377040E+03  0.12500754442E+03 0.  0.
         25    2    1    2    0    0  0.60583763251E+02 -0.54684995708E+02  0.37519184116E+03  0.40380060708E+03  0.12500068591E+03 0.  0.
          5    1    3    3  502    0  0.19591670772E+02 -0.26437252553E+02  0.10462971037E+03  0.10978264060E+03  0.47000000000E+01 0.  1.
         -5    1    3    3    0  502 -0.80175434022E+02  0.81122248261E+02  0.53390398499E+03  0.54597112980E+03  0.47000000000E+01 0.  1.
          5    1    4    4  503    0  0.71762354272E+02 -0.84488570888E+02  0.33125144704E+03  0.34933904057E+03  0.47000000000E+01 0. -1.
         -5    1    4    4    0  503 -0.11178591021E+02  0.29803575180E+02  0.43940394122E+02  0.54461566506E+02  0.47000000000E+01 0. -1.
<mgrwt>
<rscale>  0 0.14928931E+03</rscale>
<asrwt>0</asrwt>
<pdfrwt beam="2">  1        5 0.35252953E-02 0.14929075E+03</pdfrwt>
<pdfrwt beam="1">  1       -5 0.15948308E+00 0.14929075E+03</pdfrwt>
<totfact> 0.81381311E+01</totfact>
</mgrwt>
</event>
<event>
 8    1  0.3542708E-007  0.1441992E+03  0.7546771E-02  0.1207789E+00
          5   -1    0    0  501    0  0.00000000000E+00  0.00000000000E+00  0.28236774230E+03  0.28240685524E+03  0.47000000000E+01 0.  1.
         -5   -1    0    0    0  501 -0.00000000000E+00 -0.00000000000E+00 -0.84862081710E+02  0.84992134413E+02  0.47000000000E+01 0.  1.
         25    2    1    2    0    0 -0.55840515041E+02  0.45290695905E+02  0.31663249120E+02  0.14763454686E+03  0.12499595124E+03 0.  0.
         25    2    1    2    0    0  0.55840515041E+02 -0.45290695905E+02  0.16584241147E+03  0.21976444280E+03  0.12499317830E+03 0.  0.
          5    1    3    3  502    0 -0.80169194013E+02  0.46586120412E+02  0.59557187927E+02  0.11030192617E+03  0.47000000000E+01 0. -1.
         -5    1    3    3    0  502  0.24328678971E+02 -0.12954245073E+01 -0.27893938807E+02  0.37332620686E+02  0.47000000000E+01 0. -1.
          5    1    4    4  503    0  0.49986096099E+02  0.21784588085E+02  0.18623096539E+02  0.57810793161E+02  0.47000000000E+01 0. -1.
         -5    1    4    4    0  503  0.58544189426E+01 -0.67075283990E+02  0.14721931493E+03  0.16195364964E+03  0.47000000000E+01 0. -1.
<mgrwt>
<rscale>  0 0.14419856E+03</rscale>
<asrwt>0</asrwt>
<pdfrwt beam="1">  1        5 0.43454204E-01 0.14419916E+03</pdfrwt>
<pdfrwt beam="2">  1       -5 0.13068718E-01 0.14419916E+03</pdfrwt>
<totfact> 0.18812220E+02</totfact>
</mgrwt>
</event>
<event>
 8    1  0.3542708E-007  0.1320681E+03  0.7546771E-02  0.1224419E+00
         -5   -1    0    0    0  501 -0.00000000000E+00  0.00000000000E+00  0.10673967470E+03  0.10684310064E+03  0.47000000000E+01 0.  1.
          5   -1    0    0  501    0  0.00000000000E+00 -0.00000000000E+00 -0.17471517101E+03  0.17477837675E+03  0.47000000000E+01 0.  1.
         25    2    1    2    0    0 -0.27341300521E+01  0.42533749208E+02  0.21611553730E+01  0.13208512400E+03  0.12500085640E+03 0.  0.
         25    2    1    2    0    0  0.27341300521E+01 -0.42533749208E+02 -0.70136651681E+02  0.14953635340E+03  0.12500150315E+03 0.  0.
          5    1    3    3  502    0  0.16135274312E+02  0.84314799023E+02  0.65777406784E+00  0.85975898240E+02  0.47000000000E+01 0. -1.
         -5    1    3    3    0  502 -0.18869404364E+02 -0.41781049815E+02  0.15033813052E+01  0.46109225758E+02  0.47000000000E+01 0. -1.
          5    1    4    4  503    0  0.47853276761E+02  0.53576631360E+01 -0.68104083619E+02  0.83539792055E+02  0.47000000000E+01 0.  1.
         -5    1    4    4    0  503 -0.45119146709E+02 -0.47891412344E+02 -0.20325680623E+01  0.65996561342E+02  0.47000000000E+01 0.  1.
<mgrwt>
<rscale>  0 0.13206790E+03</rscale>
<asrwt>0</asrwt>
<pdfrwt beam="2">  1        5 0.26892075E-01 0.13206805E+03</pdfrwt>
<pdfrwt beam="1">  1       -5 0.16434306E-01 0.13206805E+03</pdfrwt>
<totfact> 0.31513234E+02</totfact>
</mgrwt>
</event>
<event>
 8    1  0.3542708E-007  0.1458639E+03  0.7546771E-02  0.1205650E+00
          5   -1    0    0  501    0  0.00000000000E+00  0.00000000000E+00  0.12787476745E+02  0.13623860008E+02  0.47000000000E+01 0. -1.
         -5   -1    0    0    0  501 -0.00000000000E+00 -0.00000000000E+00 -0.18488559309E+04  0.18488619049E+04  0.47000000000E+01 0. -1.
         25    2    1    2    0    0  0.11440255532E+02  0.74304278437E+02 -0.12524734248E+04  0.12609385209E+04  0.12499707288E+03 0.  0.
         25    2    1    2    0    0 -0.11440255532E+02 -0.74304278437E+02 -0.58359502932E+03  0.60154724401E+03  0.12499569305E+03 0.  0.
          5    1    4    4  502    0 -0.47026662865E+02  0.14598221236E+02 -0.17516210144E+03  0.18201227119E+03  0.47000000000E+01 0.  1.
         -5    1    4    4    0  502  0.35586407334E+02 -0.88902499674E+02 -0.40843292788E+03  0.41953497282E+03  0.47000000000E+01 0.  1.
          5    1    3    3  503    0  0.61448440744E+02  0.73100292060E+02 -0.82762667915E+03  0.83313118632E+03  0.47000000000E+01 0.  1.
         -5    1    3    3    0  503 -0.50008185212E+02  0.12039863769E+01 -0.42484674569E+03  0.42780733455E+03  0.47000000000E+01 0.  1.
<mgrwt>
<rscale>  0 0.14586359E+03</rscale>
<asrwt>0</asrwt>
<pdfrwt beam="1">  1        5 0.20321023E-02 0.14586389E+03</pdfrwt>
<pdfrwt beam="2">  1       -5 0.28450397E+00 0.14586389E+03</pdfrwt>
<totfact> 0.28801741E+01</totfact>
</mgrwt>
</event>
<event>
 8    1  0.3542708E-007  0.1254707E+03  0.7546771E-02  0.1234345E+00
          5   -1    0    0  501    0  0.00000000000E+00  0.00000000000E+00  0.92977396219E+01  0.10418155407E+02  0.47000000000E+01 0. -1.
         -5   -1    0    0    0  501 -0.00000000000E+00 -0.00000000000E+00 -0.16739772056E+04  0.16739838037E+04  0.47000000000E+01 0. -1.
         25    2    1    2    0    0  0.78113236137E+01 -0.70744988245E+01 -0.10146816730E+04  0.10224098032E+04  0.12502736900E+03 0.  0.
         25    2    1    2    0    0 -0.78113236137E+01  0.70744988245E+01 -0.64999779304E+03  0.66199215584E+03  0.12500167250E+03 0.  0.
          5    1    3    3  502    0  0.61844987346E+02 -0.10265978036E+02 -0.72170021887E+03  0.72443321893E+03  0.47000000000E+01 0.  1.
         -5    1    3    3    0  502 -0.54033663732E+02  0.31914792120E+01 -0.29298145409E+03  0.29797658431E+03  0.47000000000E+01 0.  1.
          5    1    4    4  503    0  0.56914385468E+02  0.16161626955E+02 -0.34040401112E+03  0.34553932662E+03  0.47000000000E+01 0.  1.
         -5    1    4    4    0  503 -0.64725709082E+02 -0.90871281300E+01 -0.30959378192E+03  0.31645282922E+03  0.47000000000E+01 0.  1.
<mgrwt>
<rscale>  0 0.12546434E+03</rscale>
<asrwt>0</asrwt>
<pdfrwt beam="1">  1        5 0.15171162E-02 0.12547075E+03</pdfrwt>
<pdfrwt beam="2">  1       -5 0.25762142E+00 0.12547075E+03</pdfrwt>
<totfact> 0.64738315E+01</totfact>
</mgrwt>
</event>
<event>
 8    1  0.3542708E-007  0.1519031E+03  0.7546771E-02  0.1198156E+00
         -5   -1    0    0    0  501 -0.00000000000E+00  0.00000000000E+00  0.25517948693E+03  0.25522276652E+03  0.47000000000E+01 0. -1.
          5   -1    0    0  501    0  0.00000000000E+00 -0.00000000000E+00 -0.12621802762E+03  0.12630550462E+03  0.47000000000E+01 0. -1.
         25    2    1    2    0    0  0.84904106991E+02 -0.15449172136E+02  0.16617160210E+03  0.22513407315E+03  0.12499986098E+03 0.  0.
         25    2    1    2    0    0 -0.84904106991E+02  0.15449172136E+02 -0.37210142790E+02  0.15639419799E+03  0.12500866424E+03 0.  0.
          5    1    4    4  502    0 -0.44036458233E+01 -0.35342656590E+02 -0.48577224000E+02  0.60417978806E+02  0.47000000000E+01 0.  1.
         -5    1    4    4    0  502 -0.80500461168E+02  0.50791828726E+02  0.11367081210E+02  0.95976219184E+02  0.47000000000E+01 0.  1.
          5    1    3    3  503    0  0.10107116560E+03  0.25362317186E+02  0.13711373225E+03  0.17228143608E+03  0.47000000000E+01 0.  1.
         -5    1    3    3    0  503 -0.16167058604E+02 -0.40811489321E+02  0.29057869852E+02  0.52852637066E+02  0.47000000000E+01 0.  1.
<mgrwt>
<rscale>  0 0.15190128E+03</rscale>
<asrwt>0</asrwt>
<pdfrwt beam="2">  1        5 0.19428216E-01 0.15190310E+03</pdfrwt>
<pdfrwt beam="1">  1       -5 0.39268440E-01 0.15190310E+03</pdfrwt>
<totfact> 0.11433312E+02</totfact>
</mgrwt>
</event>
<event>
 8    1  0.3542708E-007  0.1560349E+03  0.7546771E-02  0.1193248E+00
          5   -1    0    0  501    0  0.00000000000E+00  0.00000000000E+00  0.23047684924E+03  0.23052476664E+03  0.47000000000E+01 0.  1.
         -5   -1    0    0    0  501 -0.00000000000E+00 -0.00000000000E+00 -0.10656355747E+03  0.10666715417E+03  0.47000000000E+01 0.  1.
         25    2    1    2    0    0 -0.66326532858E+02 -0.65742463120E+02  0.78600216566E+02  0.17471368350E+03  0.12500238693E+03 0.  0.
         25    2    1    2    0    0  0.66326532858E+02  0.65742463120E+02  0.45313075205E+02  0.16247823732E+03  0.12499848959E+03 0.  0.
          5    1    4    4  502    0  0.57341853000E+01 -0.18299233738E+02  0.54880577504E+02  0.58324185581E+02  0.47000000000E+01 0.  1.
         -5    1    4    4    0  502  0.60592347558E+02  0.84041696858E+02 -0.95675022989E+01  0.10415405174E+03  0.47000000000E+01 0.  1.
          5    1    3    3  503    0 -0.31418112213E+02 -0.39641489430E+02 -0.29021440844E+02  0.58505379991E+02  0.47000000000E+01 0.  1.
         -5    1    3    3    0  503 -0.34908420646E+02 -0.26100973690E+02  0.10762165741E+03  0.11620830350E+03  0.47000000000E+01 0.  1.
<mgrwt>
<rscale>  0 0.15603408E+03</rscale>
<asrwt>0</asrwt>
<pdfrwt beam="1">  1        5 0.35469631E-01 0.15603486E+03</pdfrwt>
<pdfrwt beam="2">  1       -5 0.16406049E-01 0.15603486E+03</pdfrwt>
<totfact> 0.19370343E+02</totfact>
</mgrwt>
</event>
<event>
 8    1  0.3542708E-007  0.1328448E+03  0.7546771E-02  0.1223298E+00
          5   -1    0    0  501    0  0.00000000000E+00  0.00000000000E+00  0.15688810004E+03  0.15695848474E+03  0.47000000000E+01 0. -1.
         -5   -1    0    0    0  501 -0.00000000000E+00 -0.00000000000E+00 -0.11848390628E+03  0.11857708905E+03  0.47000000000E+01 0. -1.
         25    2    1    2    0    0  0.27265176005E+02 -0.35693825308E+02 -0.12164658448E+02  0.13339141123E+03  0.12501140223E+03 0.  0.
         25    2    1    2    0    0 -0.27265176005E+02  0.35693825308E+02  0.50568852203E+02  0.14214416256E+03  0.12502125879E+03 0.  0.
          5    1    3    3  502    0 -0.83884814811E+01 -0.89440363201E+01  0.52831981068E+02  0.54439605352E+02  0.47000000000E+01 0. -1.
         -5    1    3    3    0  502  0.35653657487E+02 -0.26749788988E+02 -0.64996639517E+02  0.78951805879E+02  0.47000000000E+01 0. -1.
          5    1    4    4  503    0 -0.15067506664E+02  0.55290207745E+02  0.83666628480E+02  0.10151961166E+03  0.47000000000E+01 0. -1.
         -5    1    4    4    0  503 -0.12197669342E+02 -0.19596382437E+02 -0.33097776277E+02  0.40624550908E+02  0.47000000000E+01 0. -1.
<mgrwt>
<rscale>  0 0.13284253E+03</rscale>
<asrwt>0</asrwt>
<pdfrwt beam="1">  1        5 0.24149213E-01 0.13284485E+03</pdfrwt>
<pdfrwt beam="2">  1       -5 0.18240875E-01 0.13284485E+03</pdfrwt>
<totfact> 0.32057967E+02</totfact>
</mgrwt>
</event>
<event>
 8    1  0.3542708E-007  0.1395676E+03  0.7546771E-02  0.1213913E+00
         -5   -1    0    0    0  501 -0.00000000000E+00  0.00000000000E+00  0.10073221043E+04  0.10073330690E+04  0.47000000000E+01 0. -1.
          5   -1    0    0  501    0  0.00000000000E+00 -0.00000000000E+00 -0.19309668102E+02  0.19873431566E+02  0.47000000000E+01 0. -1.
         25    2    1    2    0    0  0.50454322237E+02 -0.36149392418E+02  0.43421036124E+03  0.45608841966E+03  0.12500236614E+03 0.  0.
         25    2    1    2    0    0 -0.50454322237E+02  0.36149392418E+02  0.55380207501E+03  0.57111808090E+03  0.12500682721E+03 0.  0.
          5    1    3    3  502    0 -0.11824855019E+02 -0.58794747067E+02  0.11232980083E+03  0.12742340300E+03  0.47000000000E+01 0.  1.
         -5    1    3    3    0  502  0.62279177256E+02  0.22645354649E+02  0.32188056041E+03  0.32866501666E+03  0.47000000000E+01 0.  1.
          5    1    4    4  503    0 -0.75871640389E+01  0.25071869104E+02  0.50243923035E+03  0.50314355195E+03  0.47000000000E+01 0.  1.
         -5    1    4    4    0  503 -0.42867158198E+02  0.11077523314E+02  0.51362844660E+02  0.67974528952E+02  0.47000000000E+01 0.  1.
<mgrwt>
<rscale>  0 0.13956663E+03</rscale>
<asrwt>0</asrwt>
<pdfrwt beam="2">  1        5 0.30149273E-02 0.13956763E+03</pdfrwt>
<pdfrwt beam="1">  1       -5 0.15501688E+00 0.13956763E+03</pdfrwt>
<totfact> 0.11125764E+02</totfact>
</mgrwt>
</event>
<event>
 8    1  0.3542708E-007  0.1356054E+03  0.7546771E-02  0.1219369E+00
         -5   -1    0    0    0  501 -0.00000000000E+00  0.00000000000E+00  0.74247200250E+02  0.74395811340E+02  0.47000000000E+01 0.  1.
          5   -1    0    0  501    0  0.00000000000E+00 -0.00000000000E+00 -0.27615085125E+03  0.27619084461E+03  0.47000000000E+01 0.  1.
         25    2    1    2    0    0 -0.44089879489E+01  0.52380540079E+02 -0.44257003189E+02  0.14264468936E+03  0.12500265964E+03 0.  0.
         25    2    1    2    0    0  0.44089879489E+01 -0.52380540079E+02 -0.15764664782E+03  0.20794196660E+03  0.12499694297E+03 0.  0.
          5    1    4    4  502    0 -0.32832110033E+02  0.27421992685E+02 -0.78125433297E+02  0.89194094311E+02  0.47000000000E+01 0.  1.
         -5    1    4    4    0  502  0.37241097982E+02 -0.79802532764E+02 -0.79521214519E+02  0.11874787229E+03  0.47000000000E+01 0.  1.
          5    1    3    3  503    0 -0.25694321465E+02 -0.26919920949E+02  0.15909507252E+02  0.40744112709E+02  0.47000000000E+01 0. -1.
         -5    1    3    3    0  503  0.21285333516E+02  0.79300461028E+02 -0.60166510441E+02  0.10190057665E+03  0.47000000000E+01 0. -1.
<mgrwt>
<rscale>  0 0.13560408E+03</rscale>
<asrwt>0</asrwt>
<pdfrwt beam="2">  1        5 0.42499254E-01 0.13560540E+03</pdfrwt>
<pdfrwt beam="1">  1       -5 0.11437154E-01 0.13560540E+03</pdfrwt>
<totfact> 0.24452480E+02</totfact>
</mgrwt>
</event>
<event>
 8    1  0.3542708E-007  0.1617629E+03  0.7546771E-02  0.1186721E+00
          5   -1    0    0  501    0  0.00000000000E+00  0.00000000000E+00  0.16286789573E+03  0.16293569732E+03  0.47000000000E+01 0. -1.
         -5   -1    0    0    0  501 -0.00000000000E+00 -0.00000000000E+00 -0.17917727719E+03  0.17923890945E+03  0.47000000000E+01 0. -1.
         25    2    1    2    0    0  0.78261504545E+02  0.66462718679E+02 -0.63328575218E+02  0.17371680849E+03  0.12499946018E+03 0.  0.
         25    2    1    2    0    0 -0.78261504545E+02 -0.66462718679E+02  0.47019193763E+02  0.16845779828E+03  0.12500027660E+03 0.  0.
          5    1    4    4  502    0 -0.10114574926E+03 -0.16170780332E+02  0.47492477038E+02  0.11300257566E+03  0.47000000000E+01 0. -1.
         -5    1    4    4    0  502  0.22884244716E+02 -0.50291938347E+02 -0.47328327515E+00  0.55455222621E+02  0.47000000000E+01 0. -1.
          5    1    3    3  503    0  0.40167726279E+02  0.17094194086E+02  0.35705630905E+02  0.56591870301E+02  0.47000000000E+01 0.  1.
         -5    1    3    3    0  503  0.38093778266E+02  0.49368524594E+02 -0.99034206123E+02  0.11712493819E+03  0.47000000000E+01 0.  1.
<mgrwt>
<rscale>  0 0.16176271E+03</rscale>
<asrwt>0</asrwt>
<pdfrwt beam="1">  1        5 0.25066556E-01 0.16176287E+03</pdfrwt>
<pdfrwt beam="2">  1       -5 0.27575691E-01 0.16176287E+03</pdfrwt>
<totfact> 0.14566425E+02</totfact>
</mgrwt>
</event>
<event>
 8    1  0.3542708E-007  0.1693998E+03  0.7546771E-02  0.1178477E+00
          5   -1    0    0  501    0  0.00000000000E+00  0.00000000000E+00  0.13742628375E+04  0.13742708745E+04  0.47000000000E+01 0. -1.
         -5   -1    0    0    0  501 -0.00000000000E+00 -0.00000000000E+00 -0.26240233643E+02  0.26657829275E+02  0.47000000000E+01 0. -1.
         25    2    1    2    0    0 -0.99086364551E+02  0.57026525163E+02  0.35243285286E+03  0.39103095426E+03  0.12500463672E+03 0.  0.
         25    2    1    2    0    0  0.99086364551E+02 -0.57026525163E+02  0.99558975096E+03  0.10098977495E+04  0.12499751998E+03 0.  0.
          5    1    4    4  502    0  0.71634381925E+01 -0.66788194262E+02  0.26296340565E+03  0.27144763851E+03  0.47000000000E+01 0.  1.
         -5    1    4    4    0  502  0.91922926358E+02  0.97616690989E+01  0.73262634531E+03  0.73845011099E+03  0.47000000000E+01 0.  1.
          5    1    3    3  503    0 -0.43041704543E+02 -0.11697239671E+02  0.25615637105E+03  0.26005305262E+03  0.47000000000E+01 0. -1.
         -5    1    3    3    0  503 -0.56044660008E+02  0.68723764834E+02  0.96276481807E+02  0.13097790164E+03  0.47000000000E+01 0. -1.
<mgrwt>
<rscale>  0 0.16939848E+03</rscale>
<asrwt>0</asrwt>
<pdfrwt beam="1">  1        5 0.21145781E+00 0.16939980E+03</pdfrwt>
<pdfrwt beam="2">  1       -5 0.40696997E-02 0.16939980E+03</pdfrwt>
<totfact> 0.28561921E+01</totfact>
</mgrwt>
</event>
<event>
 8    1  0.3542708E-007  0.1308601E+03  0.7546771E-02  0.1226190E+00
         -5   -1    0    0    0  501 -0.00000000000E+00  0.00000000000E+00  0.25013636863E+02  0.25451365958E+02  0.47000000000E+01 0.  1.
          5   -1    0    0  501    0  0.00000000000E+00 -0.00000000000E+00 -0.77659044563E+03  0.77660466793E+03  0.47000000000E+01 0.  1.
         25    2    1    2    0    0 -0.70215651494E+01  0.38071426699E+02 -0.23302743945E+03  0.26724970308E+03  0.12498752078E+03 0.  0.
         25    2    1    2    0    0  0.70215651494E+01 -0.38071426699E+02 -0.51854936932E+03  0.53480633081E+03  0.12500250854E+03 0.  0.
          5    1    4    4  502    0  0.11969942100E+02 -0.75351918406E+02 -0.20171659113E+03  0.21571477524E+03  0.47000000000E+01 0.  1.
         -5    1    4    4    0  502 -0.49483769511E+01  0.37280491707E+02 -0.31683277819E+03  0.31909155557E+03  0.47000000000E+01 0.  1.
          5    1    3    3  503    0  0.23143552470E+02  0.75085153844E+02 -0.11053940555E+03  0.13569986930E+03  0.47000000000E+01 0. -1.
         -5    1    3    3    0  503 -0.30165117620E+02 -0.37013727145E+02 -0.12248803390E+03  0.13154983378E+03  0.47000000000E+01 0. -1.
<mgrwt>
<rscale>  0 0.13085651E+03</rscale>
<asrwt>0</asrwt>
<pdfrwt beam="2">  1        5 0.11951020E+00 0.13086009E+03</pdfrwt>
<pdfrwt beam="1">  1       -5 0.38830179E-02 0.13086009E+03</pdfrwt>
<totfact> 0.14371346E+02</totfact>
</mgrwt>
</event>
<event>
 8    1  0.3542708E-007  0.2126629E+03  0.7546771E-02  0.1139486E+00
         -5   -1    0    0    0  501 -0.00000000000E+00  0.00000000000E+00  0.32501837673E+03  0.32505235765E+03  0.47000000000E+01 0.  1.
          5   -1    0    0  501    0  0.00000000000E+00 -0.00000000000E+00 -0.15597240247E+03  0.15604320022E+03  0.47000000000E+01 0.  1.
         25    2    1    2    0    0  0.17056370905E+03 -0.22058439636E+02  0.52577060687E+01  0.21267029546E+03  0.12498982957E+03 0.  0.
         25    2    1    2    0    0 -0.17056370905E+03  0.22058439636E+02  0.16378826819E+03  0.26842526240E+03  0.12508785351E+03 0.  0.
          5    1    3    3  502    0 -0.62687887273E+01  0.22575670578E+02 -0.16352087863E+02  0.28955817923E+02  0.47000000000E+01 0. -1.
         -5    1    3    3    0  502  0.17683249778E+03 -0.44634110214E+02  0.21609793931E+02  0.18371447754E+03  0.47000000000E+01 0. -1.
          5    1    4    4  503    0 -0.16318620235E+03 -0.24085856945E+02  0.13610371092E+03  0.21390693132E+03  0.47000000000E+01 0.  1.
         -5    1    4    4    0  503 -0.73775066967E+01  0.46144296581E+02  0.27684557268E+02  0.54518331074E+02  0.47000000000E+01 0.  1.
<mgrwt>
<rscale>  0 0.21264852E+03</rscale>
<asrwt>0</asrwt>
<pdfrwt beam="2">  1        5 0.24003814E-01 0.21266294E+03</pdfrwt>
<pdfrwt beam="1">  1       -5 0.50010887E-01 0.21266294E+03</pdfrwt>
<totfact> 0.50880366E+01</totfact>
</mgrwt>
</event>
<event>
 8    1  0.3542708E-007  0.1338947E+03  0.7546771E-02  0.1221795E+00
          5   -1    0    0  501    0  0.00000000000E+00  0.00000000000E+00  0.56019508841E+03  0.56021480441E+03  0.47000000000E+01 0.  1.
         -5   -1    0    0    0  501 -0.00000000000E+00 -0.00000000000E+00 -0.44498762933E+02  0.44746283673E+02  0.47000000000E+01 0.  1.
         25    2    1    2    0    0 -0.11117335662E+02  0.46644148523E+02  0.96880441156E+02  0.16526830555E+03  0.12501408399E+03 0.  0.
         25    2    1    2    0    0  0.11117335662E+02 -0.46644148523E+02  0.41881588432E+03  0.43969278253E+03  0.12499490514E+03 0.  0.
          5    1    3    3  502    0  0.69554063433E+01 -0.41326448085E+02  0.18799713914E+02  0.46171119024E+02  0.47000000000E+01 0.  1.
         -5    1    3    3    0  502 -0.18072742006E+02  0.87970596608E+02  0.78080727242E+02  0.11909718652E+03  0.47000000000E+01 0.  1.
          5    1    4    4  503    0  0.48870744748E+02 -0.64949585140E+02  0.34665975754E+03  0.35609251017E+03  0.47000000000E+01 0. -1.
         -5    1    4    4    0  503 -0.37753409085E+02  0.18305436617E+02  0.72156126780E+02  0.83600272363E+02  0.47000000000E+01 0. -1.
<mgrwt>
<rscale>  0 0.13389023E+03</rscale>
<asrwt>0</asrwt>
<pdfrwt beam="1">  1        5 0.86204416E-01 0.13389471E+03</pdfrwt>
<pdfrwt beam="2">  1       -5 0.68665203E-02 0.13389471E+03</pdfrwt>
<totfact> 0.12444537E+02</totfact>
</mgrwt>
</event>
<event>
 8    1  0.3542708E-007  0.1654722E+03  0.7546771E-02  0.1182656E+00
          5   -1    0    0  501    0  0.00000000000E+00  0.00000000000E+00  0.60498411233E+02  0.60680703372E+02  0.47000000000E+01 0. -1.
         -5   -1    0    0    0  501 -0.00000000000E+00 -0.00000000000E+00 -0.48841860475E+03  0.48844121803E+03  0.47000000000E+01 0. -1.
         25    2    1    2    0    0  0.50166051554E+02 -0.96105871836E+02 -0.28922786369E+03  0.33321308354E+03  0.12500092231E+03 0.  0.
         25    2    1    2    0    0 -0.50166051554E+02  0.96105871836E+02 -0.13869232983E+03  0.21590883785E+03  0.12501236971E+03 0.  0.
          5    1    4    4  502    0 -0.56836994986E+02  0.73176736690E+02 -0.20208674549E+02  0.94951352379E+02  0.47000000000E+01 0. -1.
         -5    1    4    4    0  502  0.66709434320E+01  0.22929135146E+02 -0.11848365528E+03  0.12095748548E+03  0.47000000000E+01 0. -1.
          5    1    3    3  503    0  0.85911100614E+02 -0.34925180063E+02 -0.14066416741E+03  0.16854964670E+03  0.47000000000E+01 0.  1.
         -5    1    3    3    0  503 -0.35745049061E+02 -0.61180691772E+02 -0.14856369629E+03  0.16466343684E+03  0.47000000000E+01 0.  1.
<mgrwt>
<rscale>  0 0.16547008E+03</rscale>
<asrwt>0</asrwt>
<pdfrwt beam="1">  1        5 0.93232101E-02 0.16547225E+03</pdfrwt>
<pdfrwt beam="2">  1       -5 0.75157084E-01 0.16547225E+03</pdfrwt>
<totfact> 0.10814304E+02</totfact>
</mgrwt>
</event>
<event>
 8    1  0.3542708E-007  0.1307119E+03  0.7546771E-02  0.1226427E+00
         -5   -1    0    0    0  501 -0.00000000000E+00  0.00000000000E+00  0.52647023195E+02  0.52856400287E+02  0.47000000000E+01 0. -1.
          5   -1    0    0  501    0  0.00000000000E+00 -0.00000000000E+00 -0.48179183849E+03  0.48181476278E+03  0.47000000000E+01 0. -1.
         25    2    1    2    0    0  0.32032896783E+02  0.20463914269E+02 -0.61339674624E+02  0.14433001030E+03  0.12499487160E+03 0.  0.
         25    2    1    2    0    0 -0.32032896783E+02 -0.20463914269E+02 -0.36780514067E+03  0.39034115277E+03  0.12506284731E+03 0.  0.
          5    1    3    3  502    0  0.47883536233E+02  0.33080486637E+02  0.18952960234E+02  0.61387753990E+02  0.47000000000E+01 0. -1.
         -5    1    3    3    0  502 -0.15850639450E+02 -0.12616572368E+02 -0.80292634858E+02  0.82942256310E+02  0.47000000000E+01 0. -1.
          5    1    4    4  503    0 -0.43991692275E+02 -0.24292175984E+02 -0.37267457935E+03  0.37607686833E+03  0.47000000000E+01 0.  1.
         -5    1    4    4    0  503  0.11958795492E+02  0.38282617149E+01  0.48694386789E+01  0.14264284435E+02  0.47000000000E+01 0.  1.
<mgrwt>
<rscale>  0 0.13069561E+03</rscale>
<asrwt>0</asrwt>
<pdfrwt beam="2">  1        5 0.74139688E-01 0.13071187E+03</pdfrwt>
<pdfrwt beam="1">  1       -5 0.81174117E-02 0.13071187E+03</pdfrwt>
<totfact> 0.13149173E+02</totfact>
</mgrwt>
</event>
<event>
 8    1  0.3542708E-007  0.1285962E+03  0.7546771E-02  0.1229557E+00
          5   -1    0    0  501    0  0.00000000000E+00  0.00000000000E+00  0.18011515695E+03  0.18017646839E+03  0.47000000000E+01 0. -1.
         -5   -1    0    0    0  501 -0.00000000000E+00 -0.00000000000E+00 -0.10472399189E+03  0.10482940655E+03  0.47000000000E+01 0. -1.
         25    2    1    2    0    0 -0.72864305900E+00  0.30171563264E+02 -0.12575702910E+02  0.12920104308E+03  0.12499562824E+03 0.  0.
         25    2    1    2    0    0  0.72864305900E+00 -0.30171563264E+02  0.87966867965E+02  0.15580483187E+03  0.12500448641E+03 0.  0.
          5    1    4    4  502    0 -0.57606424254E+01 -0.53410217043E+02 -0.99623139755E+01  0.54837705873E+02  0.47000000000E+01 0.  1.
         -5    1    4    4    0  502  0.64892854844E+01  0.23238653779E+02  0.97929181940E+02  0.10096712599E+03  0.47000000000E+01 0.  1.
          5    1    3    3  503    0 -0.60240485217E+02  0.12595851565E+02 -0.23450826225E+02  0.66027288196E+02  0.47000000000E+01 0. -1.
         -5    1    3    3    0  503  0.59511842158E+02  0.17575711699E+02  0.10875123315E+02  0.63173754882E+02  0.47000000000E+01 0. -1.
<mgrwt>
<rscale>  0 0.12859402E+03</rscale>
<asrwt>0</asrwt>
<pdfrwt beam="1">  1        5 0.27722849E-01 0.12859617E+03</pdfrwt>
<pdfrwt beam="2">  1       -5 0.16124208E-01 0.12859617E+03</pdfrwt>
<totfact> 0.30463340E+02</totfact>
</mgrwt>
</event>
<event>
 8    1  0.3542708E-007  0.1517677E+03  0.7546771E-02  0.1198325E+00
          5   -1    0    0  501    0  0.00000000000E+00  0.00000000000E+00  0.55437723185E+03  0.55439715475E+03  0.47000000000E+01 0. -1.
         -5   -1    0    0    0  501 -0.00000000000E+00 -0.00000000000E+00 -0.46859696490E+02  0.47094810278E+02  0.47000000000E+01 0. -1.
         25    2    1    2    0    0 -0.13263343099E+02 -0.85028752618E+02  0.15126980658E+03  0.21426349763E+03  0.12498194666E+03 0.  0.
         25    2    1    2    0    0  0.13263343099E+02  0.85028752618E+02  0.35624772878E+03  0.38722846740E+03  0.12501054620E+03 0.  0.
          5    1    4    4  502    0  0.16866739582E+02  0.11746673030E+03  0.27566996553E+03  0.30016485392E+03  0.47000000000E+01 0. -1.
         -5    1    4    4    0  502 -0.36033964826E+01 -0.32437977683E+02  0.80577763253E+02  0.87063613486E+02  0.47000000000E+01 0. -1.
          5    1    3    3  503    0  0.40459316620E+01 -0.35623090907E+02 -0.15548964925E+02  0.39360316043E+02  0.47000000000E+01 0. -1.
         -5    1    3    3    0  503 -0.17309274761E+02 -0.49405661711E+02  0.16681877151E+03  0.17490318159E+03  0.47000000000E+01 0. -1.
<mgrwt>
<rscale>  0 0.15176183E+03</rscale>
<asrwt>0</asrwt>
<pdfrwt beam="1">  1        5 0.85308430E-01 0.15176772E+03</pdfrwt>
<pdfrwt beam="2">  1       -5 0.72288017E-02 0.15176772E+03</pdfrwt>
<totfact> 0.12164530E+02</totfact>
</mgrwt>
</event>
<event>
 8    1  0.3542708E-007  0.1372834E+03  0.7546771E-02  0.1217033E+00
         -5   -1    0    0    0  501 -0.00000000000E+00  0.00000000000E+00  0.17527078438E+02  0.18146307574E+02  0.47000000000E+01 0.  1.
          5   -1    0    0  501    0  0.00000000000E+00 -0.00000000000E+00 -0.11123412856E+04  0.11123512150E+04  0.47000000000E+01 0.  1.
         25    2    1    2    0    0  0.50140325247E+02  0.26601990403E+02 -0.42021620632E+03  0.44207282127E+03  0.12500000457E+03 0.  0.
         25    2    1    2    0    0 -0.50140325247E+02 -0.26601990403E+02 -0.67459800082E+03  0.68842470134E+03  0.12499755438E+03 0.  0.
          5    1    3    3  502    0  0.50958403898E+01 -0.30297371942E+02 -0.24081204058E+02  0.39317842321E+02  0.47000000000E+01 0.  1.
         -5    1    3    3    0  502  0.45044484857E+02  0.56899362345E+02 -0.39613500226E+03  0.40275497894E+03  0.47000000000E+01 0.  1.
          5    1    4    4  503    0 -0.37774238022E+02 -0.42643048055E+02 -0.11482914170E+03  0.12826981090E+03  0.47000000000E+01 0. -1.
         -5    1    4    4    0  503 -0.12366087224E+02  0.16041057652E+02 -0.55976885912E+03  0.56015489044E+03  0.47000000000E+01 0. -1.
<mgrwt>
<rscale>  0 0.13728280E+03</rscale>
<asrwt>0</asrwt>
<pdfrwt beam="2">  1        5 0.17117777E+00 0.13728335E+03</pdfrwt>
<pdfrwt beam="1">  1       -5 0.27448713E-02 0.13728335E+03</pdfrwt>
<totfact> 0.97353623E+01</totfact>
</mgrwt>
</event>
<event>
 8    1  0.3542708E-007  0.1586469E+03  0.7546771E-02  0.1190247E+00
          5   -1    0    0  501    0  0.00000000000E+00  0.00000000000E+00  0.50408877106E+03  0.50411068141E+03  0.47000000000E+01 0.  1.
         -5   -1    0    0    0  501 -0.00000000000E+00 -0.00000000000E+00 -0.51634444792E+02  0.51847911135E+02  0.47000000000E+01 0.  1.
         25    2    1    2    0    0 -0.80737744393E+02  0.54992224222E+02  0.17371000065E+03  0.23525307544E+03  0.12500446825E+03 0.  0.
         25    2    1    2    0    0  0.80737744393E+02 -0.54992224222E+02  0.27874432562E+03  0.32070551710E+03  0.12494359345E+03 0.  0.
          5    1    3    3  502    0 -0.27620313393E+02 -0.37567281117E+02  0.82077851167E+02  0.94514792359E+02  0.47000000000E+01 0. -1.
         -5    1    3    3    0  502 -0.53117431000E+02  0.92559505339E+02  0.91632149483E+02  0.14073828308E+03  0.47000000000E+01 0. -1.
          5    1    4    4  503    0 -0.17094991117E+02 -0.21183525396E+01  0.14767963130E+03  0.14875513316E+03  0.47000000000E+01 0. -1.
         -5    1    4    4    0  503  0.97832735510E+02 -0.52873871682E+02  0.13106469431E+03  0.17195038395E+03  0.47000000000E+01 0. -1.
<mgrwt>
<rscale>  0 0.15863493E+03</rscale>
<asrwt>0</asrwt>
<pdfrwt beam="1">  1        5 0.77570220E-01 0.15864692E+03</pdfrwt>
<pdfrwt beam="2">  1       -5 0.79618671E-02 0.15864692E+03</pdfrwt>
<totfact> 0.13046590E+02</totfact>
</mgrwt>
</event>
<event>
 8    1  0.3542708E-007  0.1250567E+03  0.7546771E-02  0.1234989E+00
          5   -1    0    0  501    0  0.00000000000E+00  0.00000000000E+00  0.12814216429E+03  0.12822832866E+03  0.47000000000E+01 0.  1.
         -5   -1    0    0    0  501 -0.00000000000E+00 -0.00000000000E+00 -0.12222367150E+03  0.12231400523E+03  0.47000000000E+01 0.  1.
         25    2    1    2    0    0 -0.25113013613E+01  0.15428368117E+01 -0.39373810808E+01  0.12509781879E+03  0.12500109726E+03 0.  0.
         25    2    1    2    0    0  0.25113013613E+01 -0.15428368117E+01  0.98558738771E+01  0.12544451509E+03  0.12502200261E+03 0.  0.
          5    1    3    3  502    0  0.45005892617E+02 -0.28588125130E+02 -0.31671250446E+02  0.62193001001E+02  0.47000000000E+01 0. -1.
         -5    1    3    3    0  502 -0.47517193978E+02  0.30130961941E+02  0.27733869366E+02  0.62904817789E+02  0.47000000000E+01 0. -1.
          5    1    4    4  503    0 -0.28212909331E+00  0.58585763600E+02  0.23912918176E+02  0.63453045231E+02  0.47000000000E+01 0.  1.
         -5    1    4    4    0  503  0.27934304546E+01 -0.60128600412E+02 -0.14057044299E+02  0.61991469862E+02  0.47000000000E+01 0.  1.
<mgrwt>
<rscale>  0 0.12505151E+03</rscale>
<asrwt>0</asrwt>
<pdfrwt beam="1">  1        5 0.19727756E-01 0.12505674E+03</pdfrwt>
<pdfrwt beam="2">  1       -5 0.18817219E-01 0.12505674E+03</pdfrwt>
<totfact> 0.43319494E+02</totfact>
</mgrwt>
</event>
<event>
 8    1  0.3542708E-007  0.1579306E+03  0.7546771E-02  0.1191054E+00
          5   -1    0    0  501    0  0.00000000000E+00  0.00000000000E+00  0.16178210775E+03  0.16185036419E+03  0.47000000000E+01 0.  1.
         -5   -1    0    0    0  501 -0.00000000000E+00 -0.00000000000E+00 -0.15410171681E+03  0.15417337359E+03  0.47000000000E+01 0.  1.
         25    2    1    2    0    0  0.96407402065E+02  0.44280871066E+01  0.49144064387E+00  0.15792962512E+03  0.12501011899E+03 0.  0.
         25    2    1    2    0    0 -0.96407402065E+02 -0.44280871066E+01  0.71889502968E+01  0.15809411266E+03  0.12501228868E+03 0.  0.
          5    1    4    4  502    0 -0.62018527244E+02 -0.61963321051E+02 -0.11003655140E+02  0.88481191807E+02  0.47000000000E+01 0. -1.
         -5    1    4    4    0  502 -0.34388874821E+02  0.57535233944E+02  0.18192605437E+02  0.69612920848E+02  0.47000000000E+01 0. -1.
          5    1    3    3  503    0 -0.18416459233E+02 -0.11966297414E+02 -0.30408615593E+02  0.37803864178E+02  0.47000000000E+01 0.  1.
         -5    1    3    3    0  503  0.11482386130E+03  0.16394384521E+02  0.30900056237E+02  0.12012576094E+03  0.47000000000E+01 0.  1.
<mgrwt>
<rscale>  0 0.15793015E+03</rscale>
<asrwt>0</asrwt>
<pdfrwt beam="1">  1        5 0.24900317E-01 0.15793058E+03</pdfrwt>
<pdfrwt beam="2">  1       -5 0.23718719E-01 0.15793058E+03</pdfrwt>
<totfact> 0.19575081E+02</totfact>
</mgrwt>
</event>
<event>
 8    1  0.3542708E-007  0.1875678E+03  0.7546771E-02  0.1160674E+00
          5   -1    0    0  501    0  0.00000000000E+00  0.00000000000E+00  0.19733798570E+03  0.19739394773E+03  0.47000000000E+01 0. -1.
         -5   -1    0    0    0  501 -0.00000000000E+00 -0.00000000000E+00 -0.18127082695E+03  0.18133174764E+03  0.47000000000E+01 0. -1.
         25    2    1    2    0    0 -0.12523824086E+03 -0.62221327159E+02 -0.16742100470E+02  0.18831001751E+03  0.12499701693E+03 0.  0.
         25    2    1    2    0    0  0.12523824086E+03  0.62221327159E+02  0.32809259222E+02  0.19041567786E+03  0.12500228941E+03 0.  0.
          5    1    4    4  502    0  0.10752592904E+02  0.37158900519E+01 -0.40507908148E+02  0.42336824580E+02  0.47000000000E+01 0. -1.
         -5    1    4    4    0  502  0.11448564795E+03  0.58505437107E+02  0.73317167370E+02  0.14807885328E+03  0.47000000000E+01 0. -1.
          5    1    3    3  503    0 -0.96219210058E+02 -0.25807126139E+02  0.46170451659E+02  0.10989970314E+03  0.47000000000E+01 0.  1.
         -5    1    3    3    0  503 -0.29019030798E+02 -0.36414201020E+02 -0.62912552129E+02  0.78410314371E+02  0.47000000000E+01 0.  1.
<mgrwt>
<rscale>  0 0.18756693E+03</rscale>
<asrwt>0</asrwt>
<pdfrwt beam="1">  1        5 0.30368681E-01 0.18756781E+03</pdfrwt>
<pdfrwt beam="2">  1       -5 0.27896810E-01 0.18756781E+03</pdfrwt>
<totfact> 0.10236951E+02</totfact>
</mgrwt>
</event>
<event>
 8    1  0.3542708E-007  0.1393564E+03  0.7546771E-02  0.1214204E+00
          5   -1    0    0  501    0  0.00000000000E+00  0.00000000000E+00  0.16160710783E+03  0.16167543815E+03  0.47000000000E+01 0. -1.
         -5   -1    0    0    0  501 -0.00000000000E+00 -0.00000000000E+00 -0.13053607390E+03  0.13062065912E+03  0.47000000000E+01 0. -1.
         25    2    1    2    0    0  0.24757367476E+01 -0.61557386324E+02 -0.25934510790E+02  0.14174912327E+03  0.12499909605E+03 0.  0.
         25    2    1    2    0    0 -0.24757367476E+01  0.61557386324E+02  0.57005544713E+02  0.15054697400E+03  0.12497727061E+03 0.  0.
          5    1    3    3  502    0  0.15108269901E+02  0.36436646722E+02 -0.99171790532E+00  0.39736161719E+02  0.47000000000E+01 0. -1.
         -5    1    3    3    0  502 -0.12632533154E+02 -0.97994033046E+02 -0.24942792885E+02  0.10201296155E+03  0.47000000000E+01 0. -1.
          5    1    4    4  503    0 -0.21184180447E+01  0.54612989036E+02 -0.30415696747E+02  0.62723766429E+02  0.47000000000E+01 0. -1.
         -5    1    4    4    0  503 -0.35731870290E+00  0.69443972882E+01  0.87421241460E+02  0.87823207575E+02  0.47000000000E+01 0. -1.
<mgrwt>
<rscale>  0 0.13935154E+03</rscale>
<asrwt>0</asrwt>
<pdfrwt beam="1">  1        5 0.24874394E-01 0.13935643E+03</pdfrwt>
<pdfrwt beam="2">  1       -5 0.20094236E-01 0.13935643E+03</pdfrwt>
<totfact> 0.25731532E+02</totfact>
</mgrwt>
</event>
<event>
 8    1  0.3542708E-007  0.1457671E+03  0.7546771E-02  0.1205778E+00
          5   -1    0    0  501    0  0.00000000000E+00  0.00000000000E+00  0.38579703210E+02  0.38864939210E+02  0.47000000000E+01 0.  1.
         -5   -1    0    0    0  501 -0.00000000000E+00 -0.00000000000E+00 -0.58404073519E+03  0.58405964624E+03  0.47000000000E+01 0.  1.
         25    2    1    2    0    0 -0.72417239897E+02  0.19502826387E+02 -0.34966221090E+03  0.37882376141E+03  0.12497665225E+03 0.  0.
         25    2    1    2    0    0  0.72417239897E+02 -0.19502826387E+02 -0.19579882109E+03  0.24410082404E+03  0.12499366819E+03 0.  0.
          5    1    3    3  502    0 -0.56034193127E+02  0.31755116431E+02 -0.35184273605E+03  0.35772002897E+03  0.47000000000E+01 0. -1.
         -5    1    3    3    0  502 -0.16383046770E+02 -0.12252290045E+02  0.21805251498E+01  0.21103732436E+02  0.47000000000E+01 0. -1.
          5    1    4    4  503    0  0.10781411944E+03 -0.97761227322E+01 -0.13780820515E+03  0.17530729686E+03  0.47000000000E+01 0.  1.
         -5    1    4    4    0  503 -0.35396879542E+02 -0.97267036544E+01 -0.57990615936E+02  0.68793527180E+02  0.47000000000E+01 0.  1.
<mgrwt>
<rscale>  0 0.14576341E+03</rscale>
<asrwt>0</asrwt>
<pdfrwt beam="1">  1        5 0.59587353E-02 0.14576705E+03</pdfrwt>
<pdfrwt beam="2">  1       -5 0.89875810E-01 0.14576705E+03</pdfrwt>
<totfact> 0.14726041E+02</totfact>
</mgrwt>
</event>
<event>
 8    1  0.3542708E-007  0.1259550E+03  0.7546771E-02  0.1233585E+00
          5   -1    0    0  501    0  0.00000000000E+00  0.00000000000E+00  0.16375190732E+02  0.17036339734E+02  0.47000000000E+01 0. -1.
         -5   -1    0    0    0  501 -0.00000000000E+00 -0.00000000000E+00 -0.14460877043E+04  0.14460953421E+04  0.47000000000E+01 0. -1.
         25    2    1    2    0    0  0.54908260053E+01 -0.14471942893E+02 -0.11436943829E+04  0.11506091878E+04  0.12500030111E+03 0.  0.
         25    2    1    2    0    0 -0.54908260053E+01  0.14471942893E+02 -0.28601813061E+03  0.31252249401E+03  0.12499740765E+03 0.  0.
          5    1    4    4  502    0 -0.60667058603E+02 -0.86235075388E+01 -0.10322997539E+03  0.12013898077E+03  0.47000000000E+01 0. -1.
         -5    1    4    4    0  502  0.55176232598E+02  0.23095450432E+02 -0.18278815523E+03  0.19238351324E+03  0.47000000000E+01 0. -1.
          5    1    3    3  503    0 -0.87180202282E+01 -0.67183998288E+02 -0.50072428557E+03  0.50530841439E+03  0.47000000000E+01 0.  1.
         -5    1    3    3    0  503  0.14208846234E+02  0.52712055395E+02 -0.64297009737E+03  0.64530077344E+03  0.47000000000E+01 0.  1.
<mgrwt>
<rscale>  0 0.12595428E+03</rscale>
<asrwt>0</asrwt>
<pdfrwt beam="1">  1        5 0.25707064E-02 0.12595500E+03</pdfrwt>
<pdfrwt beam="2">  1       -5 0.22252638E+00 0.12595500E+03</pdfrwt>
<totfact> 0.47037383E+01</totfact>
</mgrwt>
</event>
<event>
 8    1  0.3542708E-007  0.1450770E+03  0.7546771E-02  0.1206661E+00
         -5   -1    0    0    0  501 -0.00000000000E+00  0.00000000000E+00  0.10808563730E+03  0.10818777653E+03  0.47000000000E+01 0. -1.
          5   -1    0    0  501    0  0.00000000000E+00 -0.00000000000E+00 -0.20042700372E+03  0.20048210349E+03  0.47000000000E+01 0. -1.
         25    2    1    2    0    0  0.14773535660E+02  0.72121018061E+02 -0.19612171552E+02  0.14638353278E+03  0.12499521109E+03 0.  0.
         25    2    1    2    0    0 -0.14773535660E+02 -0.72121018061E+02 -0.72729194867E+02  0.16228634724E+03  0.12501049601E+03 0.  0.
          5    1    4    4  502    0  0.50797298454E+02 -0.57837944217E+02 -0.30975722613E+02  0.83109438170E+02  0.47000000000E+01 0. -1.
         -5    1    4    4    0  502 -0.65570834114E+02 -0.14283073844E+02 -0.41753472255E+02  0.79176909072E+02  0.47000000000E+01 0. -1.
          5    1    3    3  503    0  0.11386113129E+02  0.92586262100E+02 -0.52553776228E+02  0.10717205278E+03  0.47000000000E+01 0. -1.
         -5    1    3    3    0  503  0.33874225312E+01 -0.20465244039E+02  0.32941604676E+02  0.39211479998E+02  0.47000000000E+01 0. -1.
<mgrwt>
<rscale>  0 0.14507366E+03</rscale>
<asrwt>0</asrwt>
<pdfrwt beam="2">  1        5 0.30847019E-01 0.14507695E+03</pdfrwt>
<pdfrwt beam="1">  1       -5 0.16640655E-01 0.14507695E+03</pdfrwt>
<totfact> 0.24333126E+02</totfact>
</mgrwt>
</event>
<event>
 8    1  0.3542708E-007  0.1412647E+03  0.7546771E-02  0.1211637E+00
         -5   -1    0    0    0  501 -0.00000000000E+00  0.00000000000E+00  0.39739581697E+02  0.40016550994E+02  0.47000000000E+01 0. -1.
          5   -1    0    0  501    0  0.00000000000E+00 -0.00000000000E+00 -0.56876505094E+03  0.56878446988E+03  0.47000000000E+01 0. -1.
         25    2    1    2    0    0  0.16209029333E+02 -0.63775889539E+02 -0.15879701006E+03  0.21253751525E+03  0.12500243304E+03 0.  0.
         25    2    1    2    0    0 -0.16209029333E+02  0.63775889539E+02 -0.37022845919E+03  0.39626350562E+03  0.12500222869E+03 0.  0.
          5    1    4    4  502    0  0.29352232810E+02  0.59243986639E+01 -0.15695868065E+02  0.34133595544E+02  0.47000000000E+01 0.  1.
         -5    1    4    4    0  502 -0.45561262143E+02  0.57851490875E+02 -0.35453259112E+03  0.36212991008E+03  0.47000000000E+01 0.  1.
          5    1    3    3  503    0  0.55535326115E+02  0.38267096360E+01 -0.34663257774E+02  0.65745323734E+02  0.47000000000E+01 0.  1.
         -5    1    3    3    0  503 -0.39326296782E+02 -0.67602599175E+02 -0.12413375228E+03  0.14679219151E+03  0.47000000000E+01 0.  1.
<mgrwt>
<rscale>  0 0.14126462E+03</rscale>
<asrwt>0</asrwt>
<pdfrwt beam="2">  1        5 0.87525109E-01 0.14126466E+03</pdfrwt>
<pdfrwt beam="1">  1       -5 0.61365813E-02 0.14126466E+03</pdfrwt>
<totfact> 0.14772091E+02</totfact>
</mgrwt>
</event>
<event>
 8    1  0.3542708E-007  0.1385783E+03  0.7546771E-02  0.1215258E+00
          5   -1    0    0  501    0  0.00000000000E+00  0.00000000000E+00  0.37719006138E+02  0.38010701441E+02  0.47000000000E+01 0.  1.
         -5   -1    0    0    0  501 -0.00000000000E+00 -0.00000000000E+00 -0.51573262182E+03  0.51575403751E+03  0.47000000000E+01 0.  1.
         25    2    1    2    0    0 -0.45681874914E+02  0.38604650434E+02 -0.27537594748E+03  0.30827887142E+03  0.12500718931E+03 0.  0.
         25    2    1    2    0    0  0.45681874914E+02 -0.38604650434E+02 -0.20263766820E+03  0.24548586754E+03  0.12499653537E+03 0.  0.
          5    1    3    3  502    0 -0.44805928670E+02  0.58348220863E+01 -0.18133495065E+02  0.48913495438E+02  0.47000000000E+01 0.  1.
         -5    1    3    3    0  502 -0.87594624461E+00  0.32769828347E+02 -0.25724245242E+03  0.25936537598E+03  0.47000000000E+01 0.  1.
          5    1    4    4  503    0 -0.40540388531E+02 -0.17875435466E+02 -0.10177751246E+03  0.11110268375E+03  0.47000000000E+01 0. -1.
         -5    1    4    4    0  503  0.86222263445E+02 -0.20729214968E+02 -0.10086015574E+03  0.13438318378E+03  0.47000000000E+01 0. -1.
<mgrwt>
<rscale>  0 0.13857591E+03</rscale>
<asrwt>0</asrwt>
<pdfrwt beam="1">  1        5 0.58270099E-02 0.13857832E+03</pdfrwt>
<pdfrwt beam="2">  1       -5 0.79367561E-01 0.13857832E+03</pdfrwt>
<totfact> 0.20121412E+02</totfact>
</mgrwt>
</event>
<event>
 8    1  0.3542708E-007  0.1595472E+03  0.7546771E-02  0.1189210E+00
         -5   -1    0    0    0  501 -0.00000000000E+00  0.00000000000E+00  0.74581882350E+02  0.74729827879E+02  0.47000000000E+01 0.  1.
          5   -1    0    0  501    0  0.00000000000E+00 -0.00000000000E+00 -0.40129553622E+03  0.40132305863E+03  0.47000000000E+01 0.  1.
         25    2    1    2    0    0 -0.67428887491E+02  0.72695879058E+02 -0.70957196429E+02  0.17461453371E+03  0.12499586377E+03 0.  0.
         25    2    1    2    0    0  0.67428887491E+02 -0.72695879058E+02 -0.25575645744E+03  0.30143835280E+03  0.12498947681E+03 0.  0.
          5    1    3    3  502    0 -0.25306330857E+02 -0.34749334532E+02 -0.27280186819E+02  0.51129494665E+02  0.47000000000E+01 0.  1.
         -5    1    3    3    0  502 -0.42122556634E+02  0.10744521359E+03 -0.43677009610E+02  0.12348503905E+03  0.47000000000E+01 0.  1.
          5    1    4    4  503    0  0.71213625323E+02 -0.55341235106E+02 -0.68674278601E+02  0.11345606760E+03  0.47000000000E+01 0. -1.
         -5    1    4    4    0  503 -0.37847378324E+01 -0.17354643952E+02 -0.18708217884E+03  0.18798228519E+03  0.47000000000E+01 0. -1.
<mgrwt>
<rscale>  0 0.15954596E+03</rscale>
<asrwt>0</asrwt>
<pdfrwt beam="2">  1        5 0.61751271E-01 0.15954721E+03</pdfrwt>
<pdfrwt beam="1">  1       -5 0.11487634E-01 0.15954721E+03</pdfrwt>
<totfact> 0.11535123E+02</totfact>
</mgrwt>
</event>
<event>
 8    1  0.3542708E-007  0.1272789E+03  0.7546771E-02  0.1231552E+00
          5   -1    0    0  501    0  0.00000000000E+00  0.00000000000E+00  0.95595115400E+02  0.95710585038E+02  0.47000000000E+01 0. -1.
         -5   -1    0    0    0  501 -0.00000000000E+00 -0.00000000000E+00 -0.17826374559E+03  0.17832569358E+03  0.47000000000E+01 0. -1.
         25    2    1    2    0    0  0.10408318542E+02 -0.21630598038E+02 -0.72200558994E+02  0.14632767192E+03  0.12499060359E+03 0.  0.
         25    2    1    2    0    0 -0.10408318542E+02  0.21630598038E+02 -0.10468071193E+02  0.12770860670E+03  0.12499476726E+03 0.  0.
          5    1    3    3  502    0 -0.38872715100E+02 -0.42437441616E+02 -0.17806708159E+01  0.57769241112E+02  0.47000000000E+01 0. -1.
         -5    1    3    3    0  502  0.49281033642E+02  0.20806843578E+02 -0.70419888178E+02  0.88558430809E+02  0.47000000000E+01 0. -1.
          5    1    4    4  503    0 -0.22780304522E+02  0.18131264294E+02 -0.65056875619E+02  0.71429490299E+02  0.47000000000E+01 0. -1.
         -5    1    4    4    0  503  0.12371985980E+02  0.34993337440E+01  0.54588804426E+02  0.56279116397E+02  0.47000000000E+01 0. -1.
<mgrwt>
<rscale>  0 0.12727784E+03</rscale>
<asrwt>0</asrwt>
<pdfrwt beam="1">  1        5 0.14720588E-01 0.12727886E+03</pdfrwt>
<pdfrwt beam="2">  1       -5 0.27438839E-01 0.12727886E+03</pdfrwt>
<totfact> 0.36517326E+02</totfact>
</mgrwt>
</event>
<event>
 8    1  0.3542708E-007  0.1302044E+03  0.7546771E-02  0.1227153E+00
         -5   -1    0    0    0  501 -0.00000000000E+00  0.00000000000E+00  0.25047521322E+03  0.25051930552E+03  0.47000000000E+01 0. -1.
          5   -1    0    0  501    0  0.00000000000E+00 -0.00000000000E+00 -0.67950928282E+02  0.68113278107E+02  0.47000000000E+01 0. -1.
         25    2    1    2    0    0 -0.33551649226E+02  0.14168437047E+02  0.79076217129E+02  0.15233591511E+03  0.12500690038E+03 0.  0.
         25    2    1    2    0    0  0.33551649226E+02 -0.14168437047E+02  0.10344806781E+03  0.16629666851E+03  0.12500648564E+03 0.  0.
          5    1    3    3  502    0 -0.65350934566E+02 -0.14550195266E+02  0.85563087625E+02  0.10874550471E+03  0.47000000000E+01 0.  1.
         -5    1    3    3    0  502  0.31799285340E+02  0.28718632313E+02 -0.64868704967E+01  0.43590410400E+02  0.47000000000E+01 0.  1.
          5    1    4    4  503    0  0.12824036453E+02  0.19303100398E+02  0.12074503448E+03  0.12303868883E+03  0.47000000000E+01 0.  1.
         -5    1    4    4    0  503  0.20727612773E+02 -0.33471537445E+02 -0.17296966676E+02  0.43257979685E+02  0.47000000000E+01 0.  1.
<mgrwt>
<rscale>  0 0.13020429E+03</rscale>
<asrwt>0</asrwt>
<pdfrwt beam="2">  1        5 0.10469869E-01 0.13020439E+03</pdfrwt>
<pdfrwt beam="1">  1       -5 0.38550529E-01 0.13020439E+03</pdfrwt>
<totfact> 0.34376848E+02</totfact>
</mgrwt>
</event>
<event>
 8    1  0.3542708E-007  0.1776846E+03  0.7546771E-02  0.1170064E+00
          5   -1    0    0  501    0  0.00000000000E+00  0.00000000000E+00  0.14266948782E+03  0.14274688352E+03  0.47000000000E+01 0. -1.
         -5   -1    0    0    0  501 -0.00000000000E+00 -0.00000000000E+00 -0.27355350608E+03  0.27359387912E+03  0.47000000000E+01 0. -1.
         25    2    1    2    0    0  0.89966781547E+02 -0.88614123218E+02 -0.15655588960E+03  0.23681125145E+03  0.12499335033E+03 0.  0.
         25    2    1    2    0    0 -0.89966781547E+02  0.88614123218E+02  0.25671871343E+02  0.17952951119E+03  0.12500126317E+03 0.  0.
          5    1    3    3  502    0 -0.16746579401E+01  0.10452094119E+02  0.14704779795E+02  0.18718207700E+02  0.47000000000E+01 0.  1.
         -5    1    3    3    0  502  0.91641439487E+02 -0.99066217337E+02 -0.17126066940E+03  0.21809304375E+03  0.47000000000E+01 0.  1.
          5    1    4    4  503    0 -0.11108134878E+03  0.98778598146E+02  0.64564574430E+01  0.14886253169E+03  0.47000000000E+01 0. -1.
         -5    1    4    4    0  503  0.21114567236E+02 -0.10164474929E+02  0.19215413900E+02  0.30666979497E+02  0.47000000000E+01 0. -1.
<mgrwt>
<rscale>  0 0.17768316E+03</rscale>
<asrwt>0</asrwt>
<pdfrwt beam="1">  1        5 0.21958211E-01 0.17768455E+03</pdfrwt>
<pdfrwt beam="2">  1       -5 0.42094214E-01 0.17768455E+03</pdfrwt>
<totfact> 0.82532762E+01</totfact>
</mgrwt>
</event>
<event>
 8    1  0.3542708E-007  0.1260067E+03  0.7546771E-02  0.1233516E+00
         -5   -1    0    0    0  501 -0.00000000000E+00  0.00000000000E+00  0.61269812770E+02  0.61449816573E+02  0.47000000000E+01 0. -1.
          5   -1    0    0  501    0  0.00000000000E+00 -0.00000000000E+00 -0.25966533993E+03  0.25970787196E+03  0.47000000000E+01 0. -1.
         25    2    1    2    0    0  0.13255422622E+02  0.87663797204E+01 -0.88455800393E+02  0.15395490442E+03  0.12500051332E+03 0.  0.
         25    2    1    2    0    0 -0.13255422622E+02 -0.87663797204E+01 -0.10993972677E+03  0.16720278411E+03  0.12496988378E+03 0.  0.
          5    1    4    4  502    0  0.20138694991E+02  0.50693171984E+02 -0.31527145992E+02  0.63177651556E+02  0.47000000000E+01 0.  1.
         -5    1    4    4    0  502 -0.33394117612E+02 -0.59459551705E+02 -0.78412580774E+02  0.10402513256E+03  0.47000000000E+01 0.  1.
          5    1    3    3  503    0  0.50774853715E+02  0.39931791650E+02 -0.16390380199E+02  0.66808444955E+02  0.47000000000E+01 0.  1.
         -5    1    3    3    0  503 -0.37519431093E+02 -0.31165411930E+02 -0.72065420194E+02  0.87146459470E+02  0.47000000000E+01 0.  1.
<mgrwt>
<rscale>  0 0.12599909E+03</rscale>
<asrwt>0</asrwt>
<pdfrwt beam="2">  1        5 0.39965631E-01 0.12600668E+03</pdfrwt>
<pdfrwt beam="1">  1       -5 0.94432433E-02 0.12600668E+03</pdfrwt>
<totfact> 0.37777041E+02</totfact>
</mgrwt>
</event>
<event>
 8    1  0.3542708E-007  0.1339926E+03  0.7546771E-02  0.1221652E+00
         -5   -1    0    0    0  501 -0.00000000000E+00  0.00000000000E+00  0.16039239869E+03  0.16046124628E+03  0.47000000000E+01 0.  1.
          5   -1    0    0  501    0  0.00000000000E+00 -0.00000000000E+00 -0.12252027535E+03  0.12261039055E+03  0.47000000000E+01 0.  1.
         25    2    1    2    0    0  0.21942594118E+02 -0.42993078865E+02  0.60796953915E+02  0.14714034068E+03  0.12499651188E+03 0.  0.
         25    2    1    2    0    0 -0.21942594118E+02  0.42993078865E+02 -0.22924830576E+02  0.13593129615E+03  0.12498754798E+03 0.  0.
          5    1    4    4  502    0  0.35626660879E+01 -0.29020864211E+02 -0.47122915389E+02  0.55655748167E+02  0.47000000000E+01 0.  1.
         -5    1    4    4    0  502 -0.25505260206E+02  0.72013943076E+02  0.24198084814E+02  0.80275547985E+02  0.47000000000E+01 0.  1.
          5    1    3    3  503    0 -0.52227725503E+02 -0.16044397110E+02  0.22113104703E+02  0.59128989417E+02  0.47000000000E+01 0. -1.
         -5    1    3    3    0  503  0.74170319622E+02 -0.26948681755E+02  0.38683849212E+02  0.88011351262E+02  0.47000000000E+01 0. -1.
<mgrwt>
<rscale>  0 0.13399048E+03</rscale>
<asrwt>0</asrwt>
<pdfrwt beam="2">  1        5 0.18861501E-01 0.13399258E+03</pdfrwt>
<pdfrwt beam="1">  1       -5 0.24687981E-01 0.13399258E+03</pdfrwt>
<totfact> 0.28977220E+02</totfact>
</mgrwt>
</event>
<event>
 8    1  0.3542708E-007  0.1252772E+03  0.7546771E-02  0.1234672E+00
          5   -1    0    0  501    0  0.00000000000E+00  0.00000000000E+00  0.23403420304E+03  0.23408139223E+03  0.47000000000E+01 0.  1.
         -5   -1    0    0    0  501 -0.00000000000E+00 -0.00000000000E+00 -0.15063990464E+03  0.15071320735E+03  0.47000000000E+01 0.  1.
         25    2    1    2    0    0  0.46303444923E+01  0.49555761121E+01 -0.10168644913E+03  0.16135213501E+03  0.12509348388E+03 0.  0.
         25    2    1    2    0    0 -0.46303444923E+01 -0.49555761121E+01  0.18508074752E+03  0.22344246458E+03  0.12500261616E+03 0.  0.
          5    1    4    4  502    0  0.33324948135E+02  0.35629799731E+02  0.14941096992E+03  0.15724427725E+03  0.47000000000E+01 0. -1.
         -5    1    4    4    0  502 -0.37955292627E+02 -0.40585375843E+02  0.35669777609E+02  0.66198187328E+02  0.47000000000E+01 0. -1.
          5    1    3    3  503    0  0.80389654886E+01 -0.13072085823E+02  0.26929317745E+02  0.31349362802E+02  0.47000000000E+01 0.  1.
         -5    1    3    3    0  503 -0.34086209963E+01  0.18027661935E+02 -0.12861576688E+03  0.13000277221E+03  0.47000000000E+01 0.  1.
<mgrwt>
<rscale>  0 0.12525451E+03</rscale>
<asrwt>0</asrwt>
<pdfrwt beam="1">  1        5 0.36014531E-01 0.12527720E+03</pdfrwt>
<pdfrwt beam="2">  1       -5 0.23184639E-01 0.12527720E+03</pdfrwt>
<totfact> 0.91744665E+01</totfact>
</mgrwt>
</event>
<event>
 8    1  0.3542708E-007  0.1593977E+03  0.7546771E-02  0.1189379E+00
         -5   -1    0    0    0  501 -0.00000000000E+00  0.00000000000E+00  0.22757589840E+03  0.22762442648E+03  0.47000000000E+01 0.  1.
          5   -1    0    0  501    0  0.00000000000E+00 -0.00000000000E+00 -0.11614954044E+03  0.11624459448E+03  0.47000000000E+01 0.  1.
         25    2    1    2    0    0 -0.33844967434E+01  0.98846203234E+02  0.89968372067E+02  0.18303349112E+03  0.12499969675E+03 0.  0.
         25    2    1    2    0    0  0.33844967434E+01 -0.98846203234E+02  0.21457985889E+02  0.16083552984E+03  0.12500238313E+03 0.  0.
          5    1    4    4  502    0 -0.59073627160E+02 -0.60700508440E+02  0.21442799858E+02  0.87499307520E+02  0.47000000000E+01 0.  1.
         -5    1    4    4    0  502  0.62458123903E+02 -0.38145694793E+02  0.15186030334E-01  0.73336222315E+02  0.47000000000E+01 0.  1.
          5    1    3    3  503    0  0.67336929930E+01  0.80470874794E+02 -0.93389346136E+01  0.81426101535E+02  0.47000000000E+01 0.  1.
         -5    1    3    3    0  503 -0.10118189736E+02  0.18375328440E+02  0.99307306681E+02  0.10160738959E+03  0.47000000000E+01 0.  1.
<mgrwt>
<rscale>  0 0.15939716E+03</rscale>
<asrwt>0</asrwt>
<pdfrwt beam="2">  1        5 0.17880205E-01 0.15939769E+03</pdfrwt>
<pdfrwt beam="1">  1       -5 0.35022721E-01 0.15939769E+03</pdfrwt>
<totfact> 0.17080347E+02</totfact>
</mgrwt>
</event>
<event>
 8    1  0.3542708E-007  0.1421243E+03  0.7546771E-02  0.1210501E+00
         -5   -1    0    0    0  501 -0.00000000000E+00  0.00000000000E+00  0.50770266072E+02  0.50987350559E+02  0.47000000000E+01 0.  1.
          5   -1    0    0  501    0  0.00000000000E+00 -0.00000000000E+00 -0.43561739738E+03  0.43564275146E+03  0.47000000000E+01 0.  1.
         25    2    1    2    0    0 -0.29854412933E+02 -0.60686531582E+02 -0.11976544330E+03  0.18585173037E+03  0.12499185248E+03 0.  0.
         25    2    1    2    0    0  0.29854412933E+02  0.60686531582E+02 -0.26508168801E+03  0.30077837165E+03  0.12500074578E+03 0.  0.
          5    1    4    4  502    0 -0.39073522672E+02  0.61269875037E+02 -0.12777942703E+03  0.14707280419E+03  0.47000000000E+01 0. -1.
         -5    1    4    4    0  502  0.68927935605E+02 -0.58334345444E+00 -0.13730226098E+03  0.15370556746E+03  0.47000000000E+01 0. -1.
          5    1    3    3  503    0 -0.21831835747E+02  0.21072852185E+02 -0.95121300956E+02  0.99954219755E+02  0.47000000000E+01 0. -1.
         -5    1    3    3    0  503 -0.80225771865E+01 -0.81759383767E+02 -0.24644142344E+02  0.85897510619E+02  0.47000000000E+01 0. -1.
<mgrwt>
<rscale>  0 0.14212238E+03</rscale>
<asrwt>0</asrwt>
<pdfrwt beam="2">  1        5 0.67036708E-01 0.14212434E+03</pdfrwt>
<pdfrwt beam="1">  1       -5 0.78294596E-02 0.14212434E+03</pdfrwt>
<totfact> 0.18050106E+02</totfact>
</mgrwt>
</event>
<event>
 8    1  0.3542708E-007  0.1481346E+03  0.7546771E-02  0.1202785E+00
         -5   -1    0    0    0  501 -0.00000000000E+00  0.00000000000E+00  0.63418358915E+02  0.63592281351E+02  0.47000000000E+01 0.  1.
          5   -1    0    0  501    0  0.00000000000E+00 -0.00000000000E+00 -0.37888541744E+03  0.37891456761E+03  0.47000000000E+01 0.  1.
         25    2    1    2    0    0 -0.68251243922E+02  0.40736233209E+02 -0.91917986315E+02  0.17433141883E+03  0.12499941756E+03 0.  0.
         25    2    1    2    0    0  0.68251243922E+02 -0.40736233209E+02 -0.22354907221E+03  0.26817543013E+03  0.12500480250E+03 0.  0.
          5    1    4    4  502    0  0.10223730668E+03 -0.31814077358E+02 -0.13218754061E+03  0.17017707921E+03  0.47000000000E+01 0. -1.
         -5    1    4    4    0  502 -0.33986062762E+02 -0.89221558515E+01 -0.91361531599E+02  0.97998350921E+02  0.47000000000E+01 0. -1.
          5    1    3    3  503    0 -0.28915106807E+02  0.12107443667E+02 -0.11570821060E+03  0.11997146992E+03  0.47000000000E+01 0.  1.
         -5    1    3    3    0  503 -0.39336137115E+02  0.28628789542E+02  0.23790224290E+02  0.54359948910E+02  0.47000000000E+01 0.  1.
<mgrwt>
<rscale>  0 0.14813351E+03</rscale>
<asrwt>0</asrwt>
<pdfrwt beam="2">  1        5 0.58305684E-01 0.14813465E+03</pdfrwt>
<pdfrwt beam="1">  1       -5 0.97722918E-02 0.14813465E+03</pdfrwt>
<totfact> 0.16974244E+02</totfact>
</mgrwt>
</event>
<event>
 8    1  0.3542708E-007  0.1349049E+03  0.7546771E-02  0.1220355E+00
          5   -1    0    0  501    0  0.00000000000E+00  0.00000000000E+00  0.45596280429E+03  0.45598702712E+03  0.47000000000E+01 0. -1.
         -5   -1    0    0    0  501 -0.00000000000E+00 -0.00000000000E+00 -0.40512511079E+02  0.40784231682E+02  0.47000000000E+01 0. -1.
         25    2    1    2    0    0 -0.42743116647E+02 -0.27359108618E+02  0.17376171098E+03  0.21998124330E+03  0.12499248119E+03 0.  0.
         25    2    1    2    0    0  0.42743116647E+02  0.27359108618E+02  0.24168858223E+03  0.27679001550E+03  0.12499538813E+03 0.  0.
          5    1    3    3  502    0  0.13810936525E+02 -0.47857579148E+02  0.18389371678E+02  0.53304304145E+02  0.47000000000E+01 0.  1.
         -5    1    3    3    0  502 -0.56554053172E+02  0.20498470531E+02  0.15537233931E+03  0.16667693915E+03  0.47000000000E+01 0.  1.
          5    1    4    4  503    0 -0.55394249736E+01  0.54533751199E+02  0.19962826207E+03  0.20707039447E+03  0.47000000000E+01 0.  1.
         -5    1    4    4    0  503  0.48282541621E+02 -0.27174642581E+02  0.42060320164E+02  0.69719621034E+02  0.47000000000E+01 0.  1.
<mgrwt>
<rscale>  0 0.13490426E+03</rscale>
<asrwt>0</asrwt>
<pdfrwt beam="1">  1        5 0.70170893E-01 0.13490494E+03</pdfrwt>
<pdfrwt beam="2">  1       -5 0.62554585E-02 0.13490494E+03</pdfrwt>
<totfact> 0.23440777E+02</totfact>
</mgrwt>
</event>
<event>
 8    1  0.3542708E-007  0.1474130E+03  0.7546771E-02  0.1203690E+00
          5   -1    0    0  501    0  0.00000000000E+00  0.00000000000E+00  0.65473359400E+02  0.65641837201E+02  0.47000000000E+01 0.  1.
         -5   -1    0    0    0  501 -0.00000000000E+00 -0.00000000000E+00 -0.37662933144E+03  0.37665865621E+03  0.47000000000E+01 0.  1.
         25    2    1    2    0    0  0.68574965090E+02  0.37441207058E+02 -0.23230422180E+03  0.27512879418E+03  0.12500492830E+03 0.  0.
         25    2    1    2    0    0 -0.68574965090E+02 -0.37441207058E+02 -0.78851750236E+02  0.16717169923E+03  0.12499763472E+03 0.  0.
          5    1    3    3  502    0  0.79255214770E+02  0.93479056030E+01 -0.23126326491E+03  0.24469074380E+03  0.47000000000E+01 0. -1.
         -5    1    3    3    0  502 -0.10680249679E+02  0.28093301455E+02 -0.10409568961E+01  0.30438050383E+02  0.47000000000E+01 0. -1.
          5    1    4    4  503    0  0.14175297022E+02 -0.13617626745E+02  0.25021687119E+02  0.32164477768E+02  0.47000000000E+01 0. -1.
         -5    1    4    4    0  503 -0.82750262112E+02 -0.23823580313E+02 -0.10387343735E+03  0.13500722146E+03  0.47000000000E+01 0. -1.
<mgrwt>
<rscale>  0 0.14741149E+03</rscale>
<asrwt>0</asrwt>
<pdfrwt beam="1">  1        5 0.10088040E-01 0.14741303E+03</pdfrwt>
<pdfrwt beam="2">  1       -5 0.57958189E-01 0.14741303E+03</pdfrwt>
<totfact> 0.16241959E+02</totfact>
</mgrwt>
</event>
<event>
 8    1  0.3542708E-007  0.1298143E+03  0.7546771E-02  0.1227735E+00
          5   -1    0    0  501    0  0.00000000000E+00  0.00000000000E+00  0.20083603363E+03  0.20089102122E+03  0.47000000000E+01 0. -1.
         -5   -1    0    0    0  501 -0.00000000000E+00 -0.00000000000E+00 -0.84197299787E+02  0.84328377735E+02  0.47000000000E+01 0. -1.
         25    2    1    2    0    0 -0.15559950244E+02 -0.31320223897E+02  0.48161917630E+02  0.13845144862E+03  0.12500465927E+03 0.  0.
         25    2    1    2    0    0  0.15559950244E+02  0.31320223897E+02  0.68476816218E+02  0.14676795033E+03  0.12501475276E+03 0.  0.
          5    1    4    4  502    0  0.29674321872E+02  0.52705948374E+02  0.92968266111E+02  0.11101203032E+03  0.47000000000E+01 0. -1.
         -5    1    4    4    0  502 -0.14114371628E+02 -0.21385724478E+02 -0.24491449893E+02  0.35755920010E+02  0.47000000000E+01 0. -1.
          5    1    3    3  503    0 -0.10156279911E+01 -0.76511156004E+02  0.48553013554E+02  0.90744000454E+02  0.47000000000E+01 0. -1.
         -5    1    3    3    0  503 -0.14544322253E+02  0.45190932107E+02 -0.39109592477E+00  0.47707448166E+02  0.47000000000E+01 0. -1.
<mgrwt>
<rscale>  0 0.12981189E+03</rscale>
<asrwt>0</asrwt>
<pdfrwt beam="1">  1        5 0.30912164E-01 0.12981432E+03</pdfrwt>
<pdfrwt beam="2">  1       -5 0.12967744E-01 0.12981432E+03</pdfrwt>
<totfact> 0.36591129E+02</totfact>
</mgrwt>
</event>
<event>
 8    1  0.3542708E-007  0.1276574E+03  0.7546771E-02  0.1230974E+00
          5   -1    0    0  501    0  0.00000000000E+00  0.00000000000E+00  0.26201431052E+02  0.26619635407E+02  0.47000000000E+01 0. -1.
         -5   -1    0    0    0  501 -0.00000000000E+00 -0.00000000000E+00 -0.61662459787E+03  0.61664250964E+03  0.47000000000E+01 0. -1.
         25    2    1    2    0    0 -0.57843363183E+01  0.25261161563E+02 -0.29685802038E+03  0.32314251582E+03  0.12499926576E+03 0.  0.
         25    2    1    2    0    0  0.57843363183E+01 -0.25261161563E+02 -0.29356514644E+03  0.32011962923E+03  0.12499798790E+03 0.  0.
          5    1    3    3  502    0  0.38866061700E+02 -0.33750538462E+02 -0.95932565482E+02  0.10897163263E+03  0.47000000000E+01 0.  1.
         -5    1    3    3    0  502 -0.44650398018E+02  0.59011700025E+02 -0.20092545489E+03  0.21417088319E+03  0.47000000000E+01 0.  1.
          5    1    4    4  503    0  0.17681167413E+02 -0.63763424117E+02 -0.85921618600E+02  0.10854958535E+03  0.47000000000E+01 0. -1.
         -5    1    4    4    0  503 -0.11896831094E+02  0.38502262554E+02 -0.20764352784E+03  0.21157004388E+03  0.47000000000E+01 0. -1.
<mgrwt>
<rscale>  0 0.12765705E+03</rscale>
<asrwt>0</asrwt>
<pdfrwt beam="1">  1        5 0.40645373E-02 0.12765736E+03</pdfrwt>
<pdfrwt beam="2">  1       -5 0.94898859E-01 0.12765736E+03</pdfrwt>
<totfact> 0.23345470E+02</totfact>
</mgrwt>
</event>
<event>
 8    1  0.3542708E-007  0.1320621E+03  0.7546771E-02  0.1224443E+00
          5   -1    0    0  501    0  0.00000000000E+00  0.00000000000E+00  0.22388074812E+03  0.22393007698E+03  0.47000000000E+01 0.  1.
         -5   -1    0    0    0  501 -0.00000000000E+00 -0.00000000000E+00 -0.78197618586E+02  0.78338735965E+02  0.47000000000E+01 0.  1.
         25    2    1    2    0    0  0.35249617840E+02  0.23688466357E+02  0.84322079349E+02  0.15668637944E+03  0.12504690896E+03 0.  0.
         25    2    1    2    0    0 -0.35249617840E+02 -0.23688466357E+02  0.61361050182E+02  0.14558243351E+03  0.12500154987E+03 0.  0.
          5    1    3    3  502    0  0.37310311519E+01  0.51425927556E+02  0.99197459217E+02  0.11189625791E+03  0.47000000000E+01 0. -1.
         -5    1    3    3    0  502  0.31518586688E+02 -0.27737461198E+02 -0.14875379868E+02  0.44790121531E+02  0.47000000000E+01 0. -1.
          5    1    4    4  503    0 -0.42135513109E+02 -0.48777635043E+02 -0.13645699476E+02  0.66052662774E+02  0.47000000000E+01 0. -1.
         -5    1    4    4    0  503  0.68858952690E+01  0.25089168686E+02  0.75006749659E+02  0.79529770736E+02  0.47000000000E+01 0. -1.
<mgrwt>
<rscale>  0 0.13205140E+03</rscale>
<asrwt>0</asrwt>
<pdfrwt beam="1">  1        5 0.34457842E-01 0.13206214E+03</pdfrwt>
<pdfrwt beam="2">  1       -5 0.12045053E-01 0.13206214E+03</pdfrwt>
<totfact> 0.33849352E+02</totfact>
</mgrwt>
</event>
<event>
 8    1  0.3542708E-007  0.1279907E+03  0.7546771E-02  0.1230469E+00
          5   -1    0    0  501    0  0.00000000000E+00  0.00000000000E+00  0.37899963601E+02  0.38190276786E+02  0.47000000000E+01 0.  1.
         -5   -1    0    0    0  501 -0.00000000000E+00 -0.00000000000E+00 -0.45390680440E+03  0.45393113693E+03  0.47000000000E+01 0.  1.
         25    2    1    2    0    0 -0.27095952070E+02  0.46955979310E+01 -0.26413199198E+03  0.29350865544E+03  0.12500152948E+03 0.  0.
         25    2    1    2    0    0  0.27095952070E+02 -0.46955979310E+01 -0.15187484882E+03  0.19861275828E+03  0.12499927516E+03 0.  0.
          5    1    4    4  502    0  0.36202112107E+02 -0.49907244838E+02 -0.31033985851E+02  0.69184711361E+02  0.47000000000E+01 0.  1.
         -5    1    4    4    0  502 -0.91061600369E+01  0.45211646907E+02 -0.12084086297E+03  0.12942804692E+03  0.47000000000E+01 0.  1.
          5    1    3    3  503    0  0.31869451796E+02 -0.74361795830E+01 -0.20945579350E+03  0.21204899942E+03  0.47000000000E+01 0.  1.
         -5    1    3    3    0  503 -0.58965403867E+02  0.12131777514E+02 -0.54676198480E+02  0.81459656021E+02  0.47000000000E+01 0.  1.
<mgrwt>
<rscale>  0 0.12799016E+03</rscale>
<asrwt>0</asrwt>
<pdfrwt beam="1">  1        5 0.58549675E-02 0.12799071E+03</pdfrwt>
<pdfrwt beam="2">  1       -5 0.69856016E-01 0.12799071E+03</pdfrwt>
<totfact> 0.25978402E+02</totfact>
</mgrwt>
</event>
<event>
 8    1  0.3542708E-007  0.1299173E+03  0.7546771E-02  0.1227582E+00
         -5   -1    0    0    0  501 -0.00000000000E+00  0.00000000000E+00  0.73284799668E+03  0.73286306787E+03  0.47000000000E+01 0.  1.
          5   -1    0    0  501    0  0.00000000000E+00 -0.00000000000E+00 -0.23156786507E+02  0.23628939065E+02  0.47000000000E+01 0.  1.
         25    2    1    2    0    0 -0.26604833278E+02  0.23362183679E+02  0.40294558558E+03  0.42337177120E+03  0.12499961170E+03 0.  0.
         25    2    1    2    0    0  0.26604833278E+02 -0.23362183679E+02  0.30674562459E+03  0.33312023573E+03  0.12499041751E+03 0.  0.
          5    1    4    4  502    0 -0.27473121010E+02 -0.42946663674E+02  0.56240846169E+02  0.76054658481E+02  0.47000000000E+01 0.  1.
         -5    1    4    4    0  502  0.54077954289E+02  0.19584479995E+02  0.25050477842E+03  0.25706557725E+03  0.47000000000E+01 0.  1.
          5    1    3    3  503    0 -0.71490594242E+02  0.92754283344E+01  0.31851619176E+03  0.32660617424E+03  0.47000000000E+01 0. -1.
         -5    1    3    3    0  503  0.44885760964E+02  0.14086755344E+02  0.84429393822E+02  0.96765596958E+02  0.47000000000E+01 0. -1.
<mgrwt>
<rscale>  0 0.12991511E+03</rscale>
<asrwt>0</asrwt>
<pdfrwt beam="2">  1        5 0.36000622E-02 0.12991733E+03</pdfrwt>
<pdfrwt beam="1">  1       -5 0.11278330E+00 0.12991733E+03</pdfrwt>
<totfact> 0.18760967E+02</totfact>
</mgrwt>
</event>
<event>
 8    1  0.3542708E-007  0.2283810E+03  0.7546771E-02  0.1127788E+00
          5   -1    0    0  501    0  0.00000000000E+00  0.00000000000E+00  0.57173654212E+03  0.57175586013E+03  0.47000000000E+01 0.  1.
         -5   -1    0    0    0  501 -0.00000000000E+00 -0.00000000000E+00 -0.10345692056E+03  0.10356362494E+03  0.47000000000E+01 0.  1.
         25    2    1    2    0    0 -0.25186084809E+02 -0.18944181847E+03  0.11770547572E+03  0.25692889719E+03  0.12504134413E+03 0.  0.
         25    2    1    2    0    0  0.25186084809E+02  0.18944181847E+03  0.35057414585E+03  0.41839058789E+03  0.12500364332E+03 0.  0.
          5    1    3    3  502    0  0.32833034731E+02 -0.68011286969E+02 -0.35068361930E+01  0.75749133493E+02  0.47000000000E+01 0. -1.
         -5    1    3    3    0  502 -0.58019119540E+02 -0.12143053150E+03  0.12121231191E+03  0.18117976370E+03  0.47000000000E+01 0. -1.
          5    1    4    4  503    0 -0.13977256391E+02  0.14688114803E+03  0.15355624721E+03  0.21300480371E+03  0.47000000000E+01 0.  1.
         -5    1    4    4    0  503  0.39163341200E+02  0.42560670442E+02  0.19701789863E+03  0.20538578418E+03  0.47000000000E+01 0.  1.
<mgrwt>
<rscale>  0 0.22837584E+03</rscale>
<asrwt>0</asrwt>
<pdfrwt beam="1">  1        5 0.87969161E-01 0.22838100E+03</pdfrwt>
<pdfrwt beam="2">  1       -5 0.15926143E-01 0.22838100E+03</pdfrwt>
<totfact> 0.31336252E+01</totfact>
</mgrwt>
</event>
<event>
 8    1  0.3542708E-007  0.1409115E+03  0.7546771E-02  0.1212111E+00
          5   -1    0    0  501    0  0.00000000000E+00  0.00000000000E+00  0.17529416912E+03  0.17535716617E+03  0.47000000000E+01 0. -1.
         -5   -1    0    0    0  501 -0.00000000000E+00 -0.00000000000E+00 -0.15345165786E+03  0.15352361805E+03  0.47000000000E+01 0. -1.
         25    2    1    2    0    0  0.62462925785E+02  0.18127806613E+02 -0.73327530201E+02  0.15884889739E+03  0.12500324414E+03 0.  0.
         25    2    1    2    0    0 -0.62462925785E+02 -0.18127806613E+02  0.95170041462E+02  0.17003188683E+03  0.12499308492E+03 0.  0.
          5    1    3    3  502    0  0.13585961300E+02 -0.17456838591E+02  0.30883758282E+02  0.38278141068E+02  0.47000000000E+01 0. -1.
         -5    1    3    3    0  502  0.48876964485E+02  0.35584645204E+02 -0.10421128848E+03  0.12057075632E+03  0.47000000000E+01 0. -1.
          5    1    4    4  503    0 -0.78205171508E+02  0.33778392464E+02  0.68460292268E+02  0.10938889462E+03  0.47000000000E+01 0.  1.
         -5    1    4    4    0  503  0.15742245723E+02 -0.51906199078E+02  0.26709749194E+02  0.60642992218E+02  0.47000000000E+01 0.  1.
<mgrwt>
<rscale>  0 0.14090923E+03</rscale>
<asrwt>0</asrwt>
<pdfrwt beam="1">  1        5 0.26978715E-01 0.14091148E+03</pdfrwt>
<pdfrwt beam="2">  1       -5 0.23618329E-01 0.14091148E+03</pdfrwt>
<totfact> 0.16287801E+02</totfact>
</mgrwt>
</event>
<event>
 8    1  0.3542708E-007  0.1280657E+03  0.7546771E-02  0.1230361E+00
         -5   -1    0    0    0  501 -0.00000000000E+00  0.00000000000E+00  0.17182296717E+03  0.17188723643E+03  0.47000000000E+01 0.  1.
          5   -1    0    0  501    0  0.00000000000E+00 -0.00000000000E+00 -0.97728810641E+02  0.97841762194E+02  0.47000000000E+01 0.  1.
         25    2    1    2    0    0  0.19938314291E+02  0.19335633907E+02  0.58293085266E+02  0.14069217318E+03  0.12499920276E+03 0.  0.
         25    2    1    2    0    0 -0.19938314291E+02 -0.19335633907E+02  0.15801071264E+02  0.12903682544E+03  0.12501770015E+03 0.  0.
          5    1    4    4  502    0 -0.71170854804E+02 -0.97815711288E+01 -0.62264657540E+01  0.72262220995E+02  0.47000000000E+01 0.  1.
         -5    1    4    4    0  502  0.51232540513E+02 -0.95540627781E+01  0.22027537018E+02  0.56774604447E+02  0.47000000000E+01 0.  1.
          5    1    3    3  503    0  0.62205649103E+01  0.72143891752E+02  0.40556752567E+02  0.83128675700E+02  0.47000000000E+01 0.  1.
         -5    1    3    3    0  503  0.13717749381E+02 -0.52808257845E+02  0.17736332699E+02  0.57563497482E+02  0.47000000000E+01 0.  1.
<mgrwt>
<rscale>  0 0.12806120E+03</rscale>
<asrwt>0</asrwt>
<pdfrwt beam="2">  1        5 0.15048834E-01 0.12806572E+03</pdfrwt>
<pdfrwt beam="1">  1       -5 0.26447935E-01 0.12806572E+03</pdfrwt>
<totfact> 0.37760753E+02</totfact>
</mgrwt>
</event>
<event>
 8    1  0.3542708E-007  0.1264874E+03  0.7546771E-02  0.1232768E+00
         -5   -1    0    0    0  501 -0.00000000000E+00  0.00000000000E+00  0.11261850291E+04  0.11261948365E+04  0.47000000000E+01 0. -1.
          5   -1    0    0  501    0  0.00000000000E+00 -0.00000000000E+00 -0.14567113899E+02  0.15306560925E+02  0.47000000000E+01 0. -1.
         25    2    1    2    0    0 -0.88261450505E+01  0.17235079843E+02  0.68292060044E+03  0.69453333346E+03  0.12498422291E+03 0.  0.
         25    2    1    2    0    0  0.88261450505E+01 -0.17235079843E+02  0.42869731476E+03  0.44696806396E+03  0.12499645477E+03 0.  0.
          5    1    4    4  502    0 -0.23006569362E+02  0.39584485589E+02  0.29046549345E+03  0.29408931741E+03  0.47000000000E+01 0.  1.
         -5    1    4    4    0  502  0.31832714412E+02 -0.56819565432E+02  0.13823182132E+03  0.15287874655E+03  0.47000000000E+01 0.  1.
          5    1    3    3  503    0  0.12549128539E+02  0.66700616665E+02  0.28805519100E+03  0.29598029656E+03  0.47000000000E+01 0. -1.
         -5    1    3    3    0  503 -0.21375273589E+02 -0.49465536822E+02  0.39486540944E+03  0.39855303691E+03  0.47000000000E+01 0. -1.
<mgrwt>
<rscale>  0 0.12648438E+03</rscale>
<asrwt>0</asrwt>
<pdfrwt beam="2">  1        5 0.22987289E-02 0.12648740E+03</pdfrwt>
<pdfrwt beam="1">  1       -5 0.17331691E+00 0.12648740E+03</pdfrwt>
<totfact> 0.12157894E+02</totfact>
</mgrwt>
</event>
<event>
 8    1  0.3542708E-007  0.1323499E+03  0.7546771E-02  0.1224036E+00
         -5   -1    0    0    0  501 -0.00000000000E+00  0.00000000000E+00  0.48298328150E+02  0.48526472178E+02  0.47000000000E+01 0. -1.
          5   -1    0    0  501    0  0.00000000000E+00 -0.00000000000E+00 -0.40632725663E+03  0.40635443824E+03  0.47000000000E+01 0. -1.
         25    2    1    2    0    0  0.38212782848E+02  0.20756665534E+02 -0.10343662059E+03  0.16797512602E+03  0.12500181017E+03 0.  0.
         25    2    1    2    0    0 -0.38212782848E+02 -0.20756665534E+02 -0.25459230789E+03  0.28690578440E+03  0.12492649819E+03 0.  0.
          5    1    3    3  502    0 -0.42684640888E+02  0.17408719381E+02 -0.16768839061E+02  0.49278048274E+02  0.47000000000E+01 0.  1.
         -5    1    3    3    0  502  0.80897423735E+02  0.33479461534E+01 -0.86667781532E+02  0.11869707775E+03  0.47000000000E+01 0.  1.
          5    1    4    4  503    0  0.33432262895E+02 -0.42585643762E+01 -0.17569908948E+03  0.17896399531E+03  0.47000000000E+01 0. -1.
         -5    1    4    4    0  503 -0.71645045743E+02 -0.16498101158E+02 -0.78893218407E+02  0.10794178909E+03  0.47000000000E+01 0. -1.
<mgrwt>
<rscale>  0 0.13233216E+03</rscale>
<asrwt>0</asrwt>
<pdfrwt beam="2">  1        5 0.62531524E-01 0.13234995E+03</pdfrwt>
<pdfrwt beam="1">  1       -5 0.74501527E-02 0.13234995E+03</pdfrwt>
<totfact> 0.22389891E+02</totfact>
</mgrwt>
</event>
<event>
 8    1  0.3542708E-007  0.1264217E+03  0.7546771E-02  0.1232865E+00
         -5   -1    0    0    0  501 -0.00000000000E+00  0.00000000000E+00  0.25399163032E+03  0.25403511228E+03  0.47000000000E+01 0.  1.
          5   -1    0    0  501    0  0.00000000000E+00 -0.00000000000E+00 -0.65272977407E+02  0.65441971086E+02  0.47000000000E+01 0.  1.
         25    2    1    2    0    0  0.17766540932E+02  0.64051413716E+01  0.12548226118E+03  0.17812421121E+03  0.12500304371E+03 0.  0.
         25    2    1    2    0    0 -0.17766540932E+02 -0.64051413716E+01  0.63236391731E+02  0.14135287216E+03  0.12500046966E+03 0.  0.
          5    1    4    4  502    0  0.40541177333E+02 -0.40045691865E+02  0.17361294696E+02  0.59755744912E+02  0.47000000000E+01 0. -1.
         -5    1    4    4    0  502 -0.58307718265E+02  0.33640550493E+02  0.45875097035E+02  0.81597127245E+02  0.47000000000E+01 0. -1.
          5    1    3    3  503    0  0.60153249169E+01 -0.32971915279E+01 -0.25232878940E+02  0.26567720742E+02  0.47000000000E+01 0. -1.
         -5    1    3    3    0  503  0.11751216015E+02  0.97023328995E+01  0.15071514012E+03  0.15155649047E+03  0.47000000000E+01 0. -1.
<mgrwt>
<rscale>  0 0.12642103E+03</rscale>
<asrwt>0</asrwt>
<pdfrwt beam="2">  1        5 0.10058341E-01 0.12642166E+03</pdfrwt>
<pdfrwt beam="1">  1       -5 0.39091979E-01 0.12642166E+03</pdfrwt>
<totfact> 0.35454040E+02</totfact>
</mgrwt>
</event>
<event>
 8    1  0.3542708E-007  0.1439669E+03  0.7546771E-02  0.1208090E+00
         -5   -1    0    0    0  501 -0.00000000000E+00  0.00000000000E+00  0.20966410970E+04  0.20966463649E+04  0.47000000000E+01 0. -1.
          5   -1    0    0  501    0  0.00000000000E+00 -0.00000000000E+00 -0.10458449187E+02  0.11466000148E+02  0.47000000000E+01 0. -1.
         25    2    1    2    0    0 -0.53809617470E+02  0.46959654901E+02  0.13741774832E+04  0.13816980043E+04  0.12499974231E+03 0.  0.
         25    2    1    2    0    0  0.53809617470E+02 -0.46959654901E+02  0.71200516456E+03  0.72641436076E+03  0.12500314009E+03 0.  0.
          5    1    3    3  502    0 -0.79410247028E+02 -0.91856104518E+01  0.88657244614E+03  0.89018152926E+03  0.47000000000E+01 0. -1.
         -5    1    3    3    0  502  0.25600629558E+02  0.56145265352E+02  0.48760503706E+03  0.49151647503E+03  0.47000000000E+01 0. -1.
          5    1    4    4  503    0  0.55529800873E+02 -0.80127788361E+02  0.63448533556E+03  0.64194840314E+03  0.47000000000E+01 0.  1.
         -5    1    4    4    0  503 -0.17201834026E+01  0.33168133460E+02  0.77519829008E+02  0.84465957626E+02  0.47000000000E+01 0.  1.
<mgrwt>
<rscale>  0 0.14396617E+03</rscale>
<asrwt>0</asrwt>
<pdfrwt beam="2">  1        5 0.16869015E-02 0.14396690E+03</pdfrwt>
<pdfrwt beam="1">  1       -5 0.32263804E+00 0.14396690E+03</pdfrwt>
<totfact> 0.22063458E+01</totfact>
</mgrwt>
</event>
<event>
 8    1  0.3542708E-007  0.1272987E+03  0.7546771E-02  0.1231520E+00
         -5   -1    0    0    0  501 -0.00000000000E+00  0.00000000000E+00  0.44149261535E+03  0.44151763205E+03  0.47000000000E+01 0. -1.
          5   -1    0    0  501    0  0.00000000000E+00 -0.00000000000E+00 -0.37657642334E+02  0.37949809303E+02  0.47000000000E+01 0. -1.
         25    2    1    2    0    0 -0.18232376998E+02 -0.15706398469E+02  0.24325906811E+03  0.27455385393E+03  0.12500293583E+03 0.  0.
         25    2    1    2    0    0  0.18232376998E+02  0.15706398469E+02  0.16057590491E+03  0.20491358743E+03  0.12500338615E+03 0.  0.
          5    1    4    4  502    0  0.49912183755E+02 -0.39055073221E+02  0.87497970663E+02  0.10814115637E+03  0.47000000000E+01 0. -1.
         -5    1    4    4    0  502 -0.31679806757E+02  0.54761471690E+02  0.73077934252E+02  0.96772431055E+02  0.47000000000E+01 0. -1.
          5    1    3    3  503    0  0.10205361189E+02 -0.52564025219E+02  0.42809702657E+02  0.68715986392E+02  0.47000000000E+01 0. -1.
         -5    1    3    3    0  503 -0.28437738187E+02  0.36857626750E+02  0.20044936545E+03  0.20583786754E+03  0.47000000000E+01 0. -1.
<mgrwt>
<rscale>  0 0.12729858E+03</rscale>
<asrwt>0</asrwt>
<pdfrwt beam="2">  1        5 0.58178818E-02 0.12729869E+03</pdfrwt>
<pdfrwt beam="1">  1       -5 0.67946344E-01 0.12729869E+03</pdfrwt>
<totfact> 0.27885354E+02</totfact>
</mgrwt>
</event>
<event>
 8    1  0.3542708E-007  0.1313036E+03  0.7546771E-02  0.1225538E+00
         -5   -1    0    0    0  501 -0.00000000000E+00  0.00000000000E+00  0.60380996308E+03  0.60382825498E+03  0.47000000000E+01 0.  1.
          5   -1    0    0  501    0  0.00000000000E+00 -0.00000000000E+00 -0.53501062929E+02  0.53707110651E+02  0.47000000000E+01 0.  1.
         25    2    1    2    0    0  0.39868361697E+02  0.47818809842E+01  0.49996932689E+03  0.51692355445E+03  0.12501312196E+03 0.  0.
         25    2    1    2    0    0 -0.39868361697E+02 -0.47818809842E+01  0.50339573263E+02  0.14061181119E+03  0.12500102463E+03 0.  0.
          5    1    4    4  502    0  0.42802530677E+02 -0.52670558422E+01 -0.61369451814E+00  0.43385079584E+02  0.47000000000E+01 0. -1.
         -5    1    4    4    0  502 -0.82670892373E+02  0.48517485806E+00  0.50953267781E+02  0.97226731602E+02  0.47000000000E+01 0. -1.
          5    1    3    3  503    0  0.20972525730E+02 -0.21728573495E+02  0.21600642446E+02  0.37425332273E+02  0.47000000000E+01 0.  1.
         -5    1    3    3    0  503  0.18895835966E+02  0.26510454479E+02  0.47836868444E+03  0.47949822218E+03  0.47000000000E+01 0.  1.
<mgrwt>
<rscale>  0 0.13130071E+03</rscale>
<asrwt>0</asrwt>
<pdfrwt beam="2">  1        5 0.82481892E-02 0.13130359E+03</pdfrwt>
<pdfrwt beam="1">  1       -5 0.92911102E-01 0.13130359E+03</pdfrwt>
<totfact> 0.75743377E+01</totfact>
</mgrwt>
</event>
<event>
 8    1  0.3542708E-007  0.1328089E+03  0.7546771E-02  0.1223347E+00
          5   -1    0    0  501    0  0.00000000000E+00  0.00000000000E+00  0.12932217201E+03  0.12940755068E+03  0.47000000000E+01 0. -1.
         -5   -1    0    0    0  501 -0.00000000000E+00 -0.00000000000E+00 -0.14137944594E+03  0.14145754747E+03  0.47000000000E+01 0. -1.
         25    2    1    2    0    0 -0.32158832190E+02  0.31278768687E+02 -0.31889712680E+02  0.13658384306E+03  0.12500256218E+03 0.  0.
         25    2    1    2    0    0  0.32158832190E+02 -0.31278768687E+02  0.19832438749E+02  0.13428125509E+03  0.12500231191E+03 0.  0.
          5    1    3    3  502    0 -0.42316821070E+02  0.75403542727E+02 -0.14225282210E+02  0.87754522705E+02  0.47000000000E+01 0. -1.
         -5    1    3    3    0  502  0.10157988880E+02 -0.44124774039E+02 -0.17664430469E+02  0.48829320351E+02  0.47000000000E+01 0. -1.
          5    1    4    4  503    0  0.33079753357E+01 -0.36759845228E+02 -0.47697299584E+02  0.60492572351E+02  0.47000000000E+01 0. -1.
         -5    1    4    4    0  503  0.28850856854E+02  0.54810765403E+01  0.67529738333E+02  0.73788682741E+02  0.47000000000E+01 0. -1.
<mgrwt>
<rscale>  0 0.13280880E+03</rscale>
<asrwt>0</asrwt>
<pdfrwt beam="1">  1        5 0.19908294E-01 0.13280886E+03</pdfrwt>
<pdfrwt beam="2">  1       -5 0.21763259E-01 0.13280886E+03</pdfrwt>
<totfact> 0.33191897E+02</totfact>
</mgrwt>
</event>
<event>
 8    1  0.3542708E-007  0.1869224E+03  0.7546771E-02  0.1161267E+00
         -5   -1    0    0    0  501 -0.00000000000E+00  0.00000000000E+00  0.99626164743E+03  0.99627273382E+03  0.47000000000E+01 0.  1.
          5   -1    0    0  501    0  0.00000000000E+00 -0.00000000000E+00 -0.39168837479E+02  0.39449814061E+02  0.47000000000E+01 0.  1.
         25    2    1    2    0    0  0.10147956344E+03 -0.94955731746E+02  0.64880175353E+03  0.67519160799E+03  0.12500119727E+03 0.  0.
         25    2    1    2    0    0 -0.10147956344E+03  0.94955731746E+02  0.30829105642E+03  0.36053093989E+03  0.12499796144E+03 0.  0.
          5    1    4    4  502    0 -0.30372524954E+02  0.10351149944E+03  0.13434928470E+03  0.17236281817E+03  0.47000000000E+01 0. -1.
         -5    1    4    4    0  502 -0.71107038482E+02 -0.85557676941E+01  0.17394177172E+03  0.18816812172E+03  0.47000000000E+01 0. -1.
          5    1    3    3  503    0  0.45025322805E+02 -0.71755663467E+01  0.52010282231E+02  0.69324800064E+02  0.47000000000E+01 0.  1.
         -5    1    3    3    0  503  0.56454240630E+02 -0.87780165399E+02  0.59679147130E+03  0.60586680792E+03  0.47000000000E+01 0.  1.
<mgrwt>
<rscale>  0 0.18692188E+03</rscale>
<asrwt>0</asrwt>
<pdfrwt beam="2">  1        5 0.60484416E-02 0.18692242E+03</pdfrwt>
<pdfrwt beam="1">  1       -5 0.15329348E+00 0.18692242E+03</pdfrwt>
<totfact> 0.39469319E+01</totfact>
</mgrwt>
</event>
<event>
 8    1  0.3542708E-007  0.1343700E+03  0.7546771E-02  0.1221113E+00
         -5   -1    0    0    0  501 -0.00000000000E+00  0.00000000000E+00  0.14821490452E+04  0.14821564972E+04  0.47000000000E+01 0. -1.
          5   -1    0    0  501    0  0.00000000000E+00 -0.00000000000E+00 -0.11721067826E+02  0.12628279019E+02  0.47000000000E+01 0. -1.
         25    2    1    2    0    0  0.44745523259E+02 -0.20660121877E+02  0.72950765275E+03  0.74177865313E+03  0.12500060930E+03 0.  0.
         25    2    1    2    0    0 -0.44745523259E+02  0.20660121877E+02  0.74092032462E+03  0.75300612309E+03  0.12500516583E+03 0.  0.
          5    1    4    4  502    0 -0.75766432880E+02  0.41256262715E+02  0.35917743685E+03  0.36942272901E+03  0.47000000000E+01 0.  1.
         -5    1    4    4    0  502  0.31020909621E+02 -0.20596140839E+02  0.38174288777E+03  0.38358339408E+03  0.47000000000E+01 0.  1.
          5    1    3    3  503    0 -0.29716234696E+02 -0.14976253084E+02  0.48292332986E+03  0.48409128817E+03  0.47000000000E+01 0. -1.
         -5    1    3    3    0  503  0.74461757955E+02 -0.56838687928E+01  0.24658432289E+03  0.25768736496E+03  0.47000000000E+01 0. -1.
<mgrwt>
<rscale>  0 0.13436893E+03</rscale>
<asrwt>0</asrwt>
<pdfrwt beam="2">  1        5 0.18735999E-02 0.13436999E+03</pdfrwt>
<pdfrwt beam="1">  1       -5 0.22809329E+00 0.13436999E+03</pdfrwt>
<totfact> 0.72979125E+01</totfact>
</mgrwt>
</event>
<event>
 8    1  0.3542708E-007  0.1592424E+03  0.7546771E-02  0.1189555E+00
         -5   -1    0    0    0  501 -0.00000000000E+00  0.00000000000E+00  0.47094378953E+02  0.47328326920E+02  0.47000000000E+01 0. -1.
          5   -1    0    0  501    0  0.00000000000E+00 -0.00000000000E+00 -0.55111114789E+03  0.55113118886E+03  0.47000000000E+01 0. -1.
         25    2    1    2    0    0 -0.83078385651E+02  0.53216279313E+02 -0.20391498214E+03  0.25872659123E+03  0.12499655406E+03 0.  0.
         25    2    1    2    0    0  0.83078385651E+02 -0.53216279313E+02 -0.30010178680E+03  0.33973292454E+03  0.12499354795E+03 0.  0.
          5    1    4    4  502    0 -0.91357100839E+01 -0.14710964419E+02  0.50175642388E+01  0.18631683331E+02  0.47000000000E+01 0.  1.
         -5    1    4    4    0  502  0.92214095735E+02 -0.38505314895E+02 -0.30511935104E+03  0.32110124121E+03  0.47000000000E+01 0.  1.
          5    1    3    3  503    0 -0.62182917003E+02 -0.60917430686E+01 -0.22350609802E+02  0.66524162972E+02  0.47000000000E+01 0. -1.
         -5    1    3    3    0  503 -0.20895468648E+02  0.59308022382E+02 -0.18156437233E+03  0.19220242826E+03  0.47000000000E+01 0. -1.
<mgrwt>
<rscale>  0 0.15924177E+03</rscale>
<asrwt>0</asrwt>
<pdfrwt beam="2">  1        5 0.84805864E-01 0.15924236E+03</pdfrwt>
<pdfrwt beam="1">  1       -5 0.72648270E-02 0.15924236E+03</pdfrwt>
<totfact> 0.12417010E+02</totfact>
</mgrwt>
</event>
<event>
 8    1  0.3542708E-007  0.1261692E+03  0.7546771E-02  0.1233256E+00
         -5   -1    0    0    0  501 -0.00000000000E+00  0.00000000000E+00  0.45318368939E+02  0.45561437239E+02  0.47000000000E+01 0.  1.
          5   -1    0    0  501    0  0.00000000000E+00 -0.00000000000E+00 -0.36713103092E+03  0.36716111432E+03  0.47000000000E+01 0.  1.
         25    2    1    2    0    0  0.73995023578E+01  0.15381719959E+02 -0.11640304590E+03  0.17165872535E+03  0.12500279577E+03 0.  0.
         25    2    1    2    0    0 -0.73995023578E+01 -0.15381719959E+02 -0.20540961608E+03  0.24106382620E+03  0.12500923158E+03 0.  0.
          5    1    3    3  502    0 -0.42488834214E+02 -0.34414345544E+02 -0.42403121110E+02  0.69352454117E+02  0.47000000000E+01 0. -1.
         -5    1    3    3    0  502  0.49888336572E+02  0.49796065503E+02 -0.73999924789E+02  0.10230627124E+03  0.47000000000E+01 0. -1.
          5    1    4    4  503    0  0.51200718056E+02 -0.17871279779E+02 -0.15253426245E+03  0.16195581926E+03  0.47000000000E+01 0. -1.
         -5    1    4    4    0  503 -0.58600220413E+02  0.24895598201E+01 -0.52875353631E+02  0.79108006941E+02  0.47000000000E+01 0. -1.
<mgrwt>
<rscale>  0 0.12616757E+03</rscale>
<asrwt>0</asrwt>
<pdfrwt beam="2">  1        5 0.56502707E-01 0.12616916E+03</pdfrwt>
<pdfrwt beam="1">  1       -5 0.69930687E-02 0.12616916E+03</pdfrwt>
<totfact> 0.30576391E+02</totfact>
</mgrwt>
</event>
<event>
 8    1  0.3542708E-007  0.1698260E+03  0.7546771E-02  0.1178030E+00
         -5   -1    0    0    0  501 -0.00000000000E+00  0.00000000000E+00  0.24191753115E+03  0.24196318290E+03  0.47000000000E+01 0. -1.
          5   -1    0    0  501    0  0.00000000000E+00 -0.00000000000E+00 -0.11917315544E+03  0.11926579970E+03  0.47000000000E+01 0. -1.
         25    2    1    2    0    0 -0.76472788734E+02 -0.85828698553E+02  0.57281379216E+02  0.17922272569E+03  0.12499990435E+03 0.  0.
         25    2    1    2    0    0  0.76472788734E+02  0.85828698553E+02  0.65462996500E+02  0.18200625690E+03  0.12500488282E+03 0.  0.
          5    1    3    3  502    0 -0.10213875277E+03 -0.96138940910E+02  0.56095740229E+02  0.15114179716E+03  0.47000000000E+01 0.  1.
         -5    1    3    3    0  502  0.25665964038E+02  0.10310242357E+02  0.11856389867E+01  0.28080928533E+02  0.47000000000E+01 0.  1.
          5    1    4    4  503    0  0.42488262320E+02  0.66270623958E+02  0.10150571400E+03  0.12854006383E+03  0.47000000000E+01 0.  1.
         -5    1    4    4    0  503  0.33984526415E+02  0.19558074594E+02 -0.36042717497E+02  0.53466193076E+02  0.47000000000E+01 0.  1.
<mgrwt>
<rscale>  0 0.16982509E+03</rscale>
<asrwt>0</asrwt>
<pdfrwt beam="2">  1        5 0.18344970E-01 0.16982601E+03</pdfrwt>
<pdfrwt beam="1">  1       -5 0.37228720E-01 0.16982601E+03</pdfrwt>
<totfact> 0.14677249E+02</totfact>
</mgrwt>
</event>
<event>
 8    1  0.3542708E-007  0.1927875E+03  0.7546771E-02  0.1155973E+00
          5   -1    0    0  501    0  0.00000000000E+00  0.00000000000E+00  0.18790373378E+04  0.18790432158E+04  0.47000000000E+01 0. -1.
         -5   -1    0    0    0  501 -0.00000000000E+00 -0.00000000000E+00 -0.21310762379E+02  0.21822891495E+02  0.47000000000E+01 0. -1.
         25    2    1    2    0    0 -0.14663689427E+03 -0.63083598445E+01  0.65478250245E+03  0.68257161145E+03  0.12498681961E+03 0.  0.
         25    2    1    2    0    0  0.14663689427E+03  0.63083598445E+01  0.12029440729E+04  0.12182944958E+04  0.12499944701E+03 0.  0.
          5    1    3    3  502    0 -0.99137453362E+02  0.16008610183E+02  0.59260077601E+03  0.60106761681E+03  0.47000000000E+01 0. -1.
         -5    1    3    3    0  502 -0.47499440908E+02 -0.22316970027E+02  0.62181726442E+02  0.81503994632E+02  0.47000000000E+01 0. -1.
          5    1    4    4  503    0  0.92970644639E+02  0.59689594737E+02  0.85897665618E+03  0.86606545615E+03  0.47000000000E+01 0.  1.
         -5    1    4    4    0  503  0.53666249630E+02 -0.53381234893E+02  0.34396741677E+03  0.35222903967E+03  0.47000000000E+01 0.  1.
<mgrwt>
<rscale>  0 0.19278549E+03</rscale>
<asrwt>0</asrwt>
<pdfrwt beam="1">  1        5 0.28912242E+00 0.19278754E+03</pdfrwt>
<pdfrwt beam="2">  1       -5 0.33184266E-02 0.19278754E+03</pdfrwt>
<totfact> 0.12994888E+01</totfact>
</mgrwt>
</event>
<event>
 8    1  0.3542708E-007  0.1309689E+03  0.7546771E-02  0.1226028E+00
          5   -1    0    0  501    0  0.00000000000E+00  0.00000000000E+00  0.63387584506E+02  0.63561591150E+02  0.47000000000E+01 0.  1.
         -5   -1    0    0    0  501 -0.00000000000E+00 -0.00000000000E+00 -0.27386766298E+03  0.27390798971E+03  0.47000000000E+01 0.  1.
         25    2    1    2    0    0  0.31331236337E+02  0.23363264408E+02 -0.12522540906E+03  0.18120227634E+03  0.12500149352E+03 0.  0.
         25    2    1    2    0    0 -0.31331236337E+02 -0.23363264408E+02 -0.85254669412E+02  0.15626730452E+03  0.12499449312E+03 0.  0.
          5    1    3    3  502    0  0.23377288064E+02  0.32146936160E+02 -0.14896934389E+03  0.15425264510E+03  0.47000000000E+01 0. -1.
         -5    1    3    3    0  502  0.79539482732E+01 -0.87836717511E+01  0.23743934829E+02  0.26949631236E+02  0.47000000000E+01 0. -1.
          5    1    4    4  503    0 -0.19992808810E+02  0.38729996309E+02 -0.81886769618E+02  0.92883034277E+02  0.47000000000E+01 0. -1.
         -5    1    4    4    0  503 -0.11338427527E+02 -0.62093260717E+02 -0.33678997948E+01  0.63384270244E+02  0.47000000000E+01 0. -1.
<mgrwt>
<rscale>  0 0.13096726E+03</rscale>
<asrwt>0</asrwt>
<pdfrwt beam="1">  1        5 0.97684234E-02 0.13096893E+03</pdfrwt>
<pdfrwt beam="2">  1       -5 0.42149973E-01 0.13096893E+03</pdfrwt>
<totfact> 0.32393097E+02</totfact>
</mgrwt>
</event>
<event>
 8    1  0.3542708E-007  0.1284798E+03  0.7546771E-02  0.1229729E+00
          5   -1    0    0  501    0  0.00000000000E+00  0.00000000000E+00  0.51497779758E+02  0.51711810256E+02  0.47000000000E+01 0. -1.
         -5   -1    0    0    0  501 -0.00000000000E+00 -0.00000000000E+00 -0.32373335838E+03  0.32376747416E+03  0.47000000000E+01 0. -1.
         25    2    1    2    0    0  0.25458837627E+02  0.15306442505E+02 -0.15721897710E+03  0.20303908051E+03  0.12499848742E+03 0.  0.
         25    2    1    2    0    0 -0.25458837627E+02 -0.15306442505E+02 -0.11501660152E+03  0.17244020391E+03  0.12499746279E+03 0.  0.
          5    1    3    3  502    0  0.65694475874E+02  0.20351575107E+02 -0.41810569881E+02  0.80623597808E+02  0.47000000000E+01 0. -1.
         -5    1    3    3    0  502 -0.40235638247E+02 -0.50451326024E+01 -0.11540840722E+03  0.12241548270E+03  0.47000000000E+01 0. -1.
          5    1    4    4  503    0 -0.17935148304E+02  0.16502951403E+02  0.20974646836E+02  0.32496811530E+02  0.47000000000E+01 0. -1.
         -5    1    4    4    0  503 -0.75236893229E+01 -0.31809393908E+02 -0.13599124836E+03  0.13994339238E+03  0.47000000000E+01 0. -1.
<mgrwt>
<rscale>  0 0.12847956E+03</rscale>
<asrwt>0</asrwt>
<pdfrwt beam="1">  1        5 0.79418237E-02 0.12847981E+03</pdfrwt>
<pdfrwt beam="2">  1       -5 0.49824219E-01 0.12847981E+03</pdfrwt>
<totfact> 0.32428699E+02</totfact>
</mgrwt>
</event>
<event>
 8    1  0.3542708E-007  0.1497533E+03  0.7546771E-02  0.1200777E+00
         -5   -1    0    0    0  501 -0.00000000000E+00  0.00000000000E+00  0.10168961373E+03  0.10179817061E+03  0.47000000000E+01 0. -1.
          5   -1    0    0  501    0  0.00000000000E+00 -0.00000000000E+00 -0.22062890138E+03  0.22067895714E+03  0.47000000000E+01 0. -1.
         25    2    1    2    0    0 -0.81733411804E+02  0.10991215684E+02 -0.65868879709E+02  0.16359938602E+03  0.12499956945E+03 0.  0.
         25    2    1    2    0    0  0.81733411804E+02 -0.10991215684E+02 -0.53070407939E+02  0.15887774174E+03  0.12499804476E+03 0.  0.
          5    1    3    3  502    0 -0.10387595920E+03  0.29686346174E+02 -0.21275892471E+02  0.11021001610E+03  0.47000000000E+01 0.  1.
         -5    1    3    3    0  502  0.22142547394E+02 -0.18695130490E+02 -0.44592987239E+02  0.53389369916E+02  0.47000000000E+01 0.  1.
          5    1    4    4  503    0 -0.21620615954E+02 -0.39654142174E+01  0.21535729922E+02  0.31129619455E+02  0.47000000000E+01 0. -1.
         -5    1    4    4    0  503  0.10335402776E+03 -0.70258014665E+01 -0.74606137860E+02  0.12774812228E+03  0.47000000000E+01 0. -1.
<mgrwt>
<rscale>  0 0.14975298E+03</rscale>
<asrwt>0</asrwt>
<pdfrwt beam="2">  1        5 0.33955109E-01 0.14975330E+03</pdfrwt>
<pdfrwt beam="1">  1       -5 0.15656757E-01 0.14975330E+03</pdfrwt>
<totfact> 0.22716872E+02</totfact>
</mgrwt>
</event>
<event>
 8    1  0.3542708E-007  0.1472434E+03  0.7546771E-02  0.1203904E+00
          5   -1    0    0  501    0  0.00000000000E+00  0.00000000000E+00  0.42344669541E+02  0.42604706765E+02  0.47000000000E+01 0.  1.
         -5   -1    0    0    0  501 -0.00000000000E+00 -0.00000000000E+00 -0.78186745068E+03  0.78188157699E+03  0.47000000000E+01 0.  1.
         25    2    1    2    0    0  0.13766325194E+02 -0.76587311312E+02 -0.61273769825E+03  0.63017959589E+03  0.12499483296E+03 0.  0.
         25    2    1    2    0    0 -0.13766325194E+02  0.76587311312E+02 -0.12678508289E+03  0.19430668786E+03  0.12500201494E+03 0.  0.
          5    1    3    3  502    0  0.34292393350E+02  0.68173915615E+01 -0.51723602918E+02  0.62608834586E+02  0.47000000000E+01 0. -1.
         -5    1    3    3    0  502 -0.20526068156E+02 -0.83404702873E+02 -0.56101409533E+03  0.56757076131E+03  0.47000000000E+01 0. -1.
          5    1    4    4  503    0  0.57769348437E+00  0.10128551225E+03 -0.51659164622E+02  0.11379739897E+03  0.47000000000E+01 0.  1.
         -5    1    4    4    0  503 -0.14344018678E+02 -0.24698200942E+02 -0.75125918271E+02  0.80509288891E+02  0.47000000000E+01 0.  1.
<mgrwt>
<rscale>  0 0.14724192E+03</rscale>
<asrwt>0</asrwt>
<pdfrwt beam="1">  1        5 0.65356546E-02 0.14724344E+03</pdfrwt>
<pdfrwt beam="2">  1       -5 0.12030838E+00 0.14724344E+03</pdfrwt>
<totfact> 0.61694237E+01</totfact>
</mgrwt>
</event>
<event>
 8    1  0.3542708E-007  0.1659389E+03  0.7546771E-02  0.1182151E+00
          5   -1    0    0  501    0  0.00000000000E+00  0.00000000000E+00  0.91957593924E+03  0.91958795013E+03  0.47000000000E+01 0.  1.
         -5   -1    0    0    0  501 -0.00000000000E+00 -0.00000000000E+00 -0.33106365319E+02  0.33438322695E+02  0.47000000000E+01 0.  1.
         25    2    1    2    0    0 -0.10747079776E+03  0.18984764511E+02  0.29226593891E+03  0.33608791711E+03  0.12500126129E+03 0.  0.
         25    2    1    2    0    0  0.10747079776E+03 -0.18984764511E+02  0.59420363502E+03  0.61693835572E+03  0.12499832495E+03 0.  0.
          5    1    4    4  502    0  0.17580210636E+02 -0.62814415436E+02  0.21359137974E+03  0.22337878613E+03  0.47000000000E+01 0.  1.
         -5    1    4    4    0  502  0.89890587127E+02  0.43829650925E+02  0.38061225528E+03  0.39355956960E+03  0.47000000000E+01 0.  1.
          5    1    3    3  503    0  0.15383937964E+02 -0.29490086062E+02  0.65917216491E+02  0.73983107215E+02  0.47000000000E+01 0.  1.
         -5    1    3    3    0  503 -0.12285473573E+03  0.48474850574E+02  0.22634872241E+03  0.26210480989E+03  0.47000000000E+01 0.  1.
<mgrwt>
<rscale>  0 0.16593832E+03</rscale>
<asrwt>0</asrwt>
<pdfrwt beam="1">  1        5 0.14149970E+00 0.16593887E+03</pdfrwt>
<pdfrwt beam="2">  1       -5 0.51197453E-02 0.16593887E+03</pdfrwt>
<totfact> 0.62953435E+01</totfact>
</mgrwt>
</event>
<event>
 8    1  0.3542708E-007  0.1349285E+03  0.7546771E-02  0.1220322E+00
         -5   -1    0    0    0  501 -0.00000000000E+00  0.00000000000E+00  0.27689132573E+03  0.27693121215E+03  0.47000000000E+01 0. -1.
          5   -1    0    0  501    0  0.00000000000E+00 -0.00000000000E+00 -0.67783267320E+02  0.67946017753E+02  0.47000000000E+01 0. -1.
         25    2    1    2    0    0 -0.10848856662E+02 -0.49622429511E+02  0.13531471582E+03  0.19108793043E+03  0.12499776654E+03 0.  0.
         25    2    1    2    0    0  0.10848856662E+02  0.49622429511E+02  0.73793342590E+02  0.15378929947E+03  0.12500243205E+03 0.  0.
          5    1    3    3  502    0 -0.51965519880E+02  0.18360568542E+01  0.10735504645E+03  0.11937747844E+03  0.47000000000E+01 0.  1.
         -5    1    3    3    0  502  0.41116663218E+02 -0.51458486365E+02  0.27959669364E+02  0.71710451987E+02  0.47000000000E+01 0.  1.
          5    1    4    4  503    0 -0.41553776493E+02  0.67374930955E+02  0.40433400033E+02  0.89011502067E+02  0.47000000000E+01 0.  1.
         -5    1    4    4    0  503  0.52402633154E+02 -0.17752501444E+02  0.33359942557E+02  0.64777797404E+02  0.47000000000E+01 0.  1.
<mgrwt>
<rscale>  0 0.13492739E+03</rscale>
<asrwt>0</asrwt>
<pdfrwt beam="2">  1        5 0.10443782E-01 0.13492847E+03</pdfrwt>
<pdfrwt beam="1">  1       -5 0.42614254E-01 0.13492847E+03</pdfrwt>
<totfact> 0.28478243E+02</totfact>
</mgrwt>
</event>
<event>
 8    1  0.3542708E-007  0.1277076E+03  0.7546771E-02  0.1230900E+00
         -5   -1    0    0    0  501 -0.00000000000E+00  0.00000000000E+00  0.23557834841E+03  0.23562522836E+03  0.47000000000E+01 0. -1.
          5   -1    0    0  501    0  0.00000000000E+00 -0.00000000000E+00 -0.71817959019E+02  0.71971586322E+02  0.47000000000E+01 0. -1.
         25    2    1    2    0    0  0.14796962138E+02 -0.21567512122E+02  0.11179072231E+03  0.16971975137E+03  0.12499408284E+03 0.  0.
         25    2    1    2    0    0 -0.14796962138E+02  0.21567512122E+02  0.51969667088E+02  0.13787706331E+03  0.12500052249E+03 0.  0.
          5    1    3    3  502    0 -0.25379205003E+02  0.43296996391E+02  0.34998850771E+02  0.61365654061E+02  0.47000000000E+01 0. -1.
         -5    1    3    3    0  502  0.40176167141E+02 -0.64864508512E+02  0.76791871537E+02  0.10835409731E+03  0.47000000000E+01 0. -1.
          5    1    4    4  503    0  0.51095004121E+02 -0.12267547665E+02  0.14384265940E+02  0.54682623186E+02  0.47000000000E+01 0.  1.
         -5    1    4    4    0  503 -0.65891966259E+02  0.33835059786E+02  0.37585401148E+02  0.83194440125E+02  0.47000000000E+01 0.  1.
<mgrwt>
<rscale>  0 0.12770605E+03</rscale>
<asrwt>0</asrwt>
<pdfrwt beam="2">  1        5 0.11064340E-01 0.12770763E+03</pdfrwt>
<pdfrwt beam="1">  1       -5 0.36258246E-01 0.12770763E+03</pdfrwt>
<totfact> 0.35070169E+02</totfact>
</mgrwt>
</event>
<event>
 8    1  0.3542708E-007  0.1687429E+03  0.7546771E-02  0.1179167E+00
          5   -1    0    0  501    0  0.00000000000E+00  0.00000000000E+00  0.25439626636E+03  0.25443967918E+03  0.47000000000E+01 0.  1.
         -5   -1    0    0    0  501 -0.00000000000E+00 -0.00000000000E+00 -0.13974798652E+03  0.13982699931E+03  0.47000000000E+01 0.  1.
         25    2    1    2    0    0  0.80708396209E+02  0.79589615982E+02 -0.30757055249E+02  0.17152302583E+03  0.12500319896E+03 0.  0.
         25    2    1    2    0    0 -0.80708396209E+02 -0.79589615982E+02  0.14540533510E+03  0.22274365265E+03  0.12499468442E+03 0.  0.
          5    1    4    4  502    0  0.29457803541E+02  0.22160442808E+01  0.38377974502E+02  0.48658318596E+02  0.47000000000E+01 0. -1.
         -5    1    4    4    0  502 -0.11016619975E+03 -0.81805660263E+02  0.10702736060E+03  0.17408533406E+03  0.47000000000E+01 0. -1.
          5    1    3    3  503    0 -0.16864612841E+02 -0.20807538387E+02 -0.13577913965E+02  0.30394383818E+02  0.47000000000E+01 0.  1.
         -5    1    3    3    0  503  0.97573009051E+02  0.10039715437E+03 -0.17179141284E+02  0.14112864201E+03  0.47000000000E+01 0.  1.
<mgrwt>
<rscale>  0 0.16874128E+03</rscale>
<asrwt>0</asrwt>
<pdfrwt beam="1">  1        5 0.39147304E-01 0.16874286E+03</pdfrwt>
<pdfrwt beam="2">  1       -5 0.21509108E-01 0.16874286E+03</pdfrwt>
<totfact> 0.98169523E+01</totfact>
</mgrwt>
</event>
<event>
 8    1  0.3542708E-007  0.1325593E+03  0.7546771E-02  0.1223708E+00
         -5   -1    0    0    0  501 -0.00000000000E+00  0.00000000000E+00  0.90250643413E+03  0.90251867218E+03  0.47000000000E+01 0. -1.
          5   -1    0    0  501    0  0.00000000000E+00 -0.00000000000E+00 -0.22174981441E+02  0.22667593651E+02  0.47000000000E+01 0. -1.
         25    2    1    2    0    0  0.34261766944E+02 -0.27787510242E+02  0.60830913781E+03  0.62258403410E+03  0.12499943189E+03 0.  0.
         25    2    1    2    0    0 -0.34261766944E+02  0.27787510242E+02  0.27202231487E+03  0.30260223173E+03  0.12500382579E+03 0.  0.
          5    1    3    3  502    0 -0.32573032625E+02  0.19322808720E+02  0.33775271397E+03  0.33990198467E+03  0.47000000000E+01 0. -1.
         -5    1    3    3    0  502  0.66834799569E+02 -0.47110318962E+02  0.27055642385E+03  0.28268204943E+03  0.47000000000E+01 0. -1.
          5    1    4    4  503    0 -0.75985497109E+02  0.41744366945E+02  0.15779593136E+03  0.18010561872E+03  0.47000000000E+01 0.  1.
         -5    1    4    4    0  503  0.41723730165E+02 -0.13956856704E+02  0.11422638352E+03  0.12249661301E+03  0.47000000000E+01 0.  1.
<mgrwt>
<rscale>  0 0.13255827E+03</rscale>
<asrwt>0</asrwt>
<pdfrwt beam="2">  1        5 0.34503705E-02 0.13255931E+03</pdfrwt>
<pdfrwt beam="1">  1       -5 0.13888597E+00 0.13255931E+03</pdfrwt>
<totfact> 0.11847861E+02</totfact>
</mgrwt>
</event>
<event>
 8    1  0.3542708E-007  0.1256737E+03  0.7546771E-02  0.1234020E+00
          5   -1    0    0  501    0  0.00000000000E+00  0.00000000000E+00  0.21314618028E+03  0.21319799288E+03  0.47000000000E+01 0. -1.
         -5   -1    0    0    0  501 -0.00000000000E+00 -0.00000000000E+00 -0.76754754937E+02  0.76898520177E+02  0.47000000000E+01 0. -1.
         25    2    1    2    0    0 -0.12960846326E+02 -0.29832075198E+00  0.40568027101E+02  0.13205927212E+03  0.12500325594E+03 0.  0.
         25    2    1    2    0    0  0.12960846326E+02  0.29832075198E+00  0.95823398246E+02  0.15803724094E+03  0.12500229334E+03 0.  0.
          5    1    3    3  502    0 -0.46589550845E+02 -0.31439652916E+01  0.71839134705E+02  0.85810384225E+02  0.47000000000E+01 0.  1.
         -5    1    3    3    0  502  0.33628704519E+02  0.28456445396E+01 -0.31271107605E+02  0.46248887892E+02  0.47000000000E+01 0.  1.
          5    1    4    4  503    0 -0.30734139823E+02 -0.45293690991E+02  0.71576210724E+02  0.90229428325E+02  0.47000000000E+01 0.  1.
         -5    1    4    4    0  503  0.43694986149E+02  0.45592011743E+02  0.24247187522E+02  0.67807812619E+02  0.47000000000E+01 0.  1.
<mgrwt>
<rscale>  0 0.12567349E+03</rscale>
<asrwt>0</asrwt>
<pdfrwt beam="1">  1        5 0.32806764E-01 0.12567373E+03</pdfrwt>
<pdfrwt beam="2">  1       -5 0.11823468E-01 0.12567373E+03</pdfrwt>
<totfact> 0.37874775E+02</totfact>
</mgrwt>
</event>
<event>
 8    1  0.3542708E-007  0.1487672E+03  0.7546771E-02  0.1201996E+00
          5   -1    0    0  501    0  0.00000000000E+00  0.00000000000E+00  0.46299322813E+03  0.46301708316E+03  0.47000000000E+01 0. -1.
         -5   -1    0    0    0  501 -0.00000000000E+00 -0.00000000000E+00 -0.11141021309E+03  0.11150930714E+03  0.47000000000E+01 0. -1.
         25    2    1    2    0    0  0.59838542568E+02 -0.54091110845E+02 -0.41322657304E+02  0.15439960879E+03  0.12500071096E+03 0.  0.
         25    2    1    2    0    0 -0.59838542568E+02  0.54091110845E+02  0.39290567235E+03  0.42012678151E+03  0.12500058291E+03 0.  0.
          5    1    3    3  502    0  0.88797833753E+02 -0.11457307467E+02 -0.48850746742E+02  0.10210196193E+03  0.47000000000E+01 0. -1.
         -5    1    3    3    0  502 -0.28959291185E+02 -0.42633803378E+02  0.75280894384E+01  0.52297646859E+02  0.47000000000E+01 0. -1.
          5    1    4    4  503    0 -0.96163930163E+02  0.34522008901E+02  0.32309755260E+03  0.33890026418E+03  0.47000000000E+01 0.  1.
         -5    1    4    4    0  503  0.36325387595E+02  0.19569101944E+02  0.69808119751E+02  0.81226517332E+02  0.47000000000E+01 0.  1.
<mgrwt>
<rscale>  0 0.14876716E+03</rscale>
<asrwt>0</asrwt>
<pdfrwt beam="1">  1        5 0.71239184E-01 0.14876719E+03</pdfrwt>
<pdfrwt beam="2">  1       -5 0.17149491E-01 0.14876719E+03</pdfrwt>
<totfact> 0.39833972E+01</totfact>
</mgrwt>
</event>
<event>
 8    1  0.3542708E-007  0.1416392E+03  0.7546771E-02  0.1211141E+00
          5   -1    0    0  501    0  0.00000000000E+00  0.00000000000E+00  0.13695664287E+04  0.13695744933E+04  0.47000000000E+01 0.  1.
         -5   -1    0    0    0  501 -0.00000000000E+00 -0.00000000000E+00 -0.15302878633E+02  0.16008375760E+02  0.47000000000E+01 0.  1.
         25    2    1    2    0    0 -0.62140876267E+02  0.23972236142E+02  0.50069878674E+03  0.52034621267E+03  0.12499899755E+03 0.  0.
         25    2    1    2    0    0  0.62140876267E+02 -0.23972236142E+02  0.85356476333E+03  0.86523665637E+03  0.12500203883E+03 0.  0.
          5    1    3    3  502    0  0.85223497405E+01 -0.42988232555E+02  0.16497184007E+03  0.17075835733E+03  0.47000000000E+01 0. -1.
         -5    1    3    3    0  502 -0.70663226008E+02  0.66960468697E+02  0.33572694667E+03  0.34958785534E+03  0.47000000000E+01 0. -1.
          5    1    4    4  503    0  0.54415354153E+02  0.33820876521E+02  0.65751949936E+03  0.66065033452E+03  0.47000000000E+01 0.  1.
         -5    1    4    4    0  503  0.77255221144E+01 -0.57793112663E+02  0.19604526397E+03  0.20458632185E+03  0.47000000000E+01 0.  1.
<mgrwt>
<rscale>  0 0.14163854E+03</rscale>
<asrwt>0</asrwt>
<pdfrwt beam="1">  1        5 0.21075743E+00 0.14163921E+03</pdfrwt>
<pdfrwt beam="2">  1       -5 0.24091783E-02 0.14163921E+03</pdfrwt>
<totfact> 0.64450690E+01</totfact>
</mgrwt>
</event>
<event>
 8    1  0.3542708E-007  0.1704067E+03  0.7546771E-02  0.1177427E+00
          5   -1    0    0  501    0  0.00000000000E+00  0.00000000000E+00  0.21498539970E+03  0.21503676914E+03  0.47000000000E+01 0. -1.
         -5   -1    0    0    0  501 -0.00000000000E+00 -0.00000000000E+00 -0.14450686958E+03  0.14458328173E+03  0.47000000000E+01 0. -1.
         25    2    1    2    0    0  0.11581617334E+03 -0.26627389429E+00 -0.10968151715E+02  0.17075928078E+03  0.12499989885E+03 0.  0.
         25    2    1    2    0    0 -0.11581617334E+03  0.26627389429E+00  0.81446681836E+02  0.18886077009E+03  0.12498548551E+03 0.  0.
          5    1    3    3  502    0  0.25966562105E+02  0.39290163521E+02  0.38237868451E+02  0.60845738394E+02  0.47000000000E+01 0. -1.
         -5    1    3    3    0  502  0.89849611230E+02 -0.39556437415E+02 -0.49206020166E+02  0.10991354239E+03  0.47000000000E+01 0. -1.
          5    1    4    4  503    0 -0.10676799700E+03  0.29528804418E+02  0.10282291735E+03  0.15121507136E+03  0.47000000000E+01 0.  1.
         -5    1    4    4    0  503 -0.90481763316E+01 -0.29262530524E+02 -0.21376235518E+02  0.37645698726E+02  0.47000000000E+01 0.  1.
<mgrwt>
<rscale>  0 0.17040402E+03</rscale>
<asrwt>0</asrwt>
<pdfrwt beam="1">  1        5 0.33084506E-01 0.17040667E+03</pdfrwt>
<pdfrwt beam="2">  1       -5 0.22241655E-01 0.17040667E+03</pdfrwt>
<totfact> 0.12983166E+02</totfact>
</mgrwt>
</event>
<event>
 8    1  0.3542708E-007  0.1503350E+03  0.7546771E-02  0.1200065E+00
         -5   -1    0    0    0  501 -0.00000000000E+00  0.00000000000E+00  0.96688512810E+02  0.96802678214E+02  0.47000000000E+01 0. -1.
          5   -1    0    0  501    0  0.00000000000E+00 -0.00000000000E+00 -0.31179066912E+03  0.31182609151E+03  0.47000000000E+01 0. -1.
         25    2    1    2    0    0  0.57691177487E+02 -0.60378834456E+02 -0.51641066102E+01  0.15041449676E+03  0.12499590885E+03 0.  0.
         25    2    1    2    0    0 -0.57691177487E+02  0.60378834456E+02 -0.20993804970E+03  0.25821427296E+03  0.12500700157E+03 0.  0.
          5    1    3    3  502    0  0.58908370778E+01 -0.67399653306E+02 -0.47652702595E+02  0.82887184123E+02  0.47000000000E+01 0.  1.
         -5    1    3    3    0  502  0.51800340409E+02  0.70208188495E+01  0.42488595985E+02  0.67527312642E+02  0.47000000000E+01 0.  1.
          5    1    4    4  503    0  0.23502506700E+02  0.49213921497E+02 -0.35001576544E+02  0.64973673521E+02  0.47000000000E+01 0.  1.
         -5    1    4    4    0  503 -0.81193684187E+02  0.11164912959E+02 -0.17493647315E+03  0.19324059944E+03  0.47000000000E+01 0.  1.
<mgrwt>
<rscale>  0 0.15033274E+03</rscale>
<asrwt>0</asrwt>
<pdfrwt beam="2">  1        5 0.47979302E-01 0.15033505E+03</pdfrwt>
<pdfrwt beam="1">  1       -5 0.14886663E-01 0.15033505E+03</pdfrwt>
<totfact> 0.12261916E+02</totfact>
</mgrwt>
</event>
<event>
 8    1  0.3542708E-007  0.1269180E+03  0.7546771E-02  0.1232109E+00
          5   -1    0    0  501    0  0.00000000000E+00  0.00000000000E+00  0.60660928895E+03  0.60662749644E+03  0.47000000000E+01 0.  1.
         -5   -1    0    0    0  501 -0.00000000000E+00 -0.00000000000E+00 -0.27089759564E+02  0.27494455318E+02  0.47000000000E+01 0.  1.
         25    2    1    2    0    0  0.20224468297E+02 -0.85096124200E+01  0.23683404541E+03  0.26868862137E+03  0.12498706960E+03 0.  0.
         25    2    1    2    0    0 -0.20224468297E+02  0.85096124200E+01  0.34268548398E+03  0.36543333039E+03  0.12500694145E+03 0.  0.
          5    1    3    3  502    0  0.70791206064E+02 -0.84608275189E+01  0.17259777566E+03  0.18680220186E+03  0.47000000000E+01 0.  1.
         -5    1    3    3    0  502 -0.50566737768E+02 -0.48784901050E-01  0.64236269752E+02  0.81886419509E+02  0.47000000000E+01 0.  1.
          5    1    4    4  503    0 -0.56778495949E+02  0.43316255586E+02  0.24685827028E+03  0.25702371721E+03  0.47000000000E+01 0. -1.
         -5    1    4    4    0  503  0.36554027652E+02 -0.34806643166E+02  0.95827213696E+02  0.10840961318E+03  0.47000000000E+01 0. -1.
<mgrwt>
<rscale>  0 0.12691310E+03</rscale>
<asrwt>0</asrwt>
<pdfrwt beam="1">  1        5 0.93357023E-01 0.12691800E+03</pdfrwt>
<pdfrwt beam="2">  1       -5 0.42001870E-02 0.12691800E+03</pdfrwt>
<totfact> 0.22958083E+02</totfact>
</mgrwt>
</event>
<event>
 8    1  0.3542708E-007  0.1622120E+03  0.7546771E-02  0.1186223E+00
          5   -1    0    0  501    0  0.00000000000E+00  0.00000000000E+00  0.99575622329E+02  0.99686481341E+02  0.47000000000E+01 0. -1.
         -5   -1    0    0    0  501 -0.00000000000E+00 -0.00000000000E+00 -0.26530867969E+03  0.26535030717E+03  0.47000000000E+01 0. -1.
         25    2    1    2    0    0 -0.82616109178E+02  0.62147031604E+02 -0.95861354916E+02  0.18842009518E+03  0.12500023147E+03 0.  0.
         25    2    1    2    0    0  0.82616109178E+02 -0.62147031604E+02 -0.69871702440E+02  0.17661669333E+03  0.12499490601E+03 0.  0.
          5    1    3    3  502    0 -0.81882843951E+02  0.87468121890E+02 -0.39158720442E+02  0.12613868505E+03  0.47000000000E+01 0.  1.
         -5    1    3    3    0  502 -0.73326522777E+00 -0.25321090285E+02 -0.56702634474E+02  0.62281410127E+02  0.47000000000E+01 0.  1.
          5    1    4    4  503    0 -0.30696295158E+02 -0.52173541327E+01  0.54028747038E+00  0.31493891965E+02  0.47000000000E+01 0. -1.
         -5    1    4    4    0  503  0.11331240434E+03 -0.56929677472E+02 -0.70411989911E+02  0.14512280137E+03  0.47000000000E+01 0. -1.
<mgrwt>
<rscale>  0 0.16221097E+03</rscale>
<asrwt>0</asrwt>
<pdfrwt beam="1">  1        5 0.15331056E-01 0.16221200E+03</pdfrwt>
<pdfrwt beam="2">  1       -5 0.40828449E-01 0.16221200E+03</pdfrwt>
<totfact> 0.16666961E+02</totfact>
</mgrwt>
</event>
<event>
 8    1  0.3542708E-007  0.1526352E+03  0.7546771E-02  0.1197276E+00
          5   -1    0    0  501    0  0.00000000000E+00  0.00000000000E+00  0.39560064334E+03  0.39562856193E+03  0.47000000000E+01 0. -1.
         -5   -1    0    0    0  501 -0.00000000000E+00 -0.00000000000E+00 -0.66179704235E+02  0.66346388392E+02  0.47000000000E+01 0. -1.
         25    2    1    2    0    0 -0.86643204676E+02  0.12748271727E+02  0.87496218026E+02  0.17592411941E+03  0.12499657704E+03 0.  0.
         25    2    1    2    0    0  0.86643204676E+02 -0.12748271727E+02  0.24192472108E+03  0.28605083091E+03  0.12501177483E+03 0.  0.
          5    1    4    4  502    0  0.83225526356E+02 -0.10779229424E+02  0.25666890214E+03  0.27008090519E+03  0.47000000000E+01 0.  1.
         -5    1    4    4    0  502  0.34176783198E+01 -0.19690423028E+01 -0.14744181054E+02  0.15969925724E+02  0.47000000000E+01 0.  1.
          5    1    3    3  503    0 -0.43390110962E+02  0.64447384929E+02  0.73221320234E+02  0.10686261690E+03  0.47000000000E+01 0.  1.
         -5    1    3    3    0  503 -0.43253093714E+02 -0.51699113202E+02  0.14274897792E+02  0.69061502508E+02  0.47000000000E+01 0.  1.
<mgrwt>
<rscale>  0 0.15263210E+03</rscale>
<asrwt>0</asrwt>
<pdfrwt beam="1">  1        5 0.60876607E-01 0.15263521E+03</pdfrwt>
<pdfrwt beam="2">  1       -5 0.10196462E-01 0.15263521E+03</pdfrwt>
<totfact> 0.14478297E+02</totfact>
</mgrwt>
</event>
<event>
 8    1  0.3542708E-007  0.1297405E+03  0.7546771E-02  0.1227848E+00
         -5   -1    0    0    0  501 -0.00000000000E+00  0.00000000000E+00  0.16247748248E+03  0.16254544691E+03  0.47000000000E+01 0.  1.
          5   -1    0    0  501    0  0.00000000000E+00 -0.00000000000E+00 -0.11590266149E+03  0.11599791783E+03  0.47000000000E+01 0.  1.
         25    2    1    2    0    0 -0.13879224058E+02  0.31851605984E+02  0.68916790097E+02  0.14689318417E+03  0.12498370267E+03 0.  0.
         25    2    1    2    0    0  0.13879224058E+02 -0.31851605984E+02 -0.22341969110E+02  0.13165018058E+03  0.12500179518E+03 0.  0.
          5    1    3    3  502    0 -0.14671941514E+02 -0.43121436599E+02  0.12828723503E+01  0.45808950257E+02  0.47000000000E+01 0. -1.
         -5    1    3    3    0  502  0.79271745663E+00  0.74973042583E+02  0.67633917746E+02  0.10108423391E+03  0.47000000000E+01 0. -1.
          5    1    4    4  503    0  0.64910403973E+02 -0.41745086925E+02 -0.94957950762E+01  0.77899120345E+02  0.47000000000E+01 0. -1.
         -5    1    4    4    0  503 -0.51031179916E+02  0.98934809414E+01 -0.12846174034E+02  0.53751060232E+02  0.47000000000E+01 0. -1.
<mgrwt>
<rscale>  0 0.12973618E+03</rscale>
<asrwt>0</asrwt>
<pdfrwt beam="2">  1        5 0.17843734E-01 0.12974054E+03</pdfrwt>
<pdfrwt beam="1">  1       -5 0.25009091E-01 0.12974054E+03</pdfrwt>
<totfact> 0.30960108E+02</totfact>
</mgrwt>
</event>
<event>
 8    1  0.3542708E-007  0.1815139E+03  0.7546771E-02  0.1166346E+00
         -5   -1    0    0    0  501 -0.00000000000E+00  0.00000000000E+00  0.81890922915E+02  0.82025686562E+02  0.47000000000E+01 0.  1.
          5   -1    0    0  501    0  0.00000000000E+00 -0.00000000000E+00 -0.45813332967E+03  0.45815743774E+03  0.47000000000E+01 0.  1.
         25    2    1    2    0    0 -0.38079833879E+02 -0.12598466391E+03 -0.93467984721E+02  0.20416552874E+03  0.12500035868E+03 0.  0.
         25    2    1    2    0    0  0.38079833879E+02  0.12598466391E+03 -0.28277442204E+03  0.33601759556E+03  0.12499696589E+03 0.  0.
          5    1    4    4  502    0  0.81283448898E+02  0.10601846615E+03 -0.20988030973E+03  0.24883478182E+03  0.47000000000E+01 0. -1.
         -5    1    4    4    0  502 -0.43203615019E+02  0.19966197762E+02 -0.72894112302E+02  0.87182813743E+02  0.47000000000E+01 0. -1.
          5    1    3    3  503    0 -0.50824906778E+02 -0.64195208949E+02 -0.11146899942E+03  0.13838939205E+03  0.47000000000E+01 0.  1.
         -5    1    3    3    0  503  0.12745072899E+02 -0.61789454960E+02  0.18001014698E+02  0.65776136688E+02  0.47000000000E+01 0.  1.
<mgrwt>
<rscale>  0 0.18151332E+03</rscale>
<asrwt>0</asrwt>
<pdfrwt beam="2">  1        5 0.70494270E-01 0.18151391E+03</pdfrwt>
<pdfrwt beam="1">  1       -5 0.12610825E-01 0.18151391E+03</pdfrwt>
<totfact> 0.75439979E+01</totfact>
</mgrwt>
</event>
<event>
 8    1  0.3542708E-007  0.1259590E+03  0.7546771E-02  0.1233579E+00
          5   -1    0    0  501    0  0.00000000000E+00  0.00000000000E+00  0.27975441412E+02  0.28367504687E+02  0.47000000000E+01 0.  1.
         -5   -1    0    0    0  501 -0.00000000000E+00 -0.00000000000E+00 -0.56719918758E+03  0.56721866012E+03  0.47000000000E+01 0.  1.
         25    2    1    2    0    0  0.12037165868E+02 -0.97871188821E+01 -0.29590797325E+03  0.32160032598E+03  0.12499823991E+03 0.  0.
         25    2    1    2    0    0 -0.12037165868E+02  0.97871188821E+01 -0.24331577291E+03  0.27398583882E+03  0.12499997388E+03 0.  0.
          5    1    3    3  502    0  0.51230573700E+02 -0.44407789396E+02 -0.21192247060E+03  0.22255302062E+03  0.47000000000E+01 0. -1.
         -5    1    3    3    0  502 -0.39193407832E+02  0.34620670514E+02 -0.83985502653E+02  0.99047305365E+02  0.47000000000E+01 0. -1.
          5    1    4    4  503    0 -0.32519952611E+02  0.60384744113E+02 -0.16146709604E+03  0.17549238657E+03  0.47000000000E+01 0. -1.
         -5    1    4    4    0  503  0.20482786743E+02 -0.50597625231E+02 -0.81848676869E+02  0.98493452254E+02  0.47000000000E+01 0. -1.
<mgrwt>
<rscale>  0 0.12595859E+03</rscale>
<asrwt>0</asrwt>
<pdfrwt beam="1">  1        5 0.43355711E-02 0.12595902E+03</pdfrwt>
<pdfrwt beam="2">  1       -5 0.87293061E-01 0.12595902E+03</pdfrwt>
<totfact> 0.25480845E+02</totfact>
</mgrwt>
</event>
<event>
 8    1  0.3542708E-007  0.1671571E+03  0.7546771E-02  0.1180846E+00
         -5   -1    0    0    0  501 -0.00000000000E+00  0.00000000000E+00  0.44294520916E+03  0.44297014382E+03  0.47000000000E+01 0.  1.
          5   -1    0    0  501    0  0.00000000000E+00 -0.00000000000E+00 -0.74067263239E+02  0.74216234637E+02  0.47000000000E+01 0.  1.
         25    2    1    2    0    0  0.30204574761E+02 -0.10678916714E+03  0.28442524139E+03  0.32990652159E+03  0.12499740995E+03 0.  0.
         25    2    1    2    0    0 -0.30204574761E+02  0.10678916714E+03  0.84452704527E+02  0.18727985687E+03  0.12500097172E+03 0.  0.
          5    1    4    4  502    0  0.82006747122E+01  0.59865884701E+02 -0.22166760890E+02  0.64533948470E+02  0.47000000000E+01 0. -1.
         -5    1    4    4    0  502 -0.38405249473E+02  0.46923282437E+02  0.10661946542E+03  0.12274590839E+03  0.47000000000E+01 0. -1.
          5    1    3    3  503    0 -0.88401000349E+01 -0.12330775475E+03  0.22482502667E+03  0.25661514446E+03  0.47000000000E+01 0. -1.
         -5    1    3    3    0  503  0.39044674796E+02  0.16518587612E+02  0.59600214720E+02  0.73291377128E+02  0.47000000000E+01 0. -1.
<mgrwt>
<rscale>  0 0.16715640E+03</rscale>
<asrwt>0</asrwt>
<pdfrwt beam="2">  1        5 0.11408341E-01 0.16715707E+03</pdfrwt>
<pdfrwt beam="1">  1       -5 0.68158794E-01 0.16715707E+03</pdfrwt>
<totfact> 0.95019385E+01</totfact>
</mgrwt>
</event>
<event>
 8    1  0.3542708E-007  0.1277638E+03  0.7546771E-02  0.1230813E+00
         -5   -1    0    0    0  501 -0.00000000000E+00  0.00000000000E+00  0.21308372982E+03  0.21313555760E+03  0.47000000000E+01 0. -1.
          5   -1    0    0  501    0  0.00000000000E+00 -0.00000000000E+00 -0.87321437457E+02  0.87447832675E+02  0.47000000000E+01 0. -1.
         25    2    1    2    0    0 -0.25063889918E+02 -0.83975068028E+01  0.11580025198E+03  0.17243339533E+03  0.12499944308E+03 0.  0.
         25    2    1    2    0    0  0.25063889918E+02  0.83975068028E+01  0.99620403790E+01  0.12814999494E+03  0.12499784901E+03 0.  0.
          5    1    3    3  502    0  0.16844286572E+02  0.47256390933E+02  0.78468319099E+02  0.93253759047E+02  0.47000000000E+01 0.  1.
         -5    1    3    3    0  502 -0.41908176489E+02 -0.55653897735E+02  0.37331932881E+02  0.79179636286E+02  0.47000000000E+01 0.  1.
          5    1    4    4  503    0  0.24658648636E+02 -0.12911239480E+02 -0.53800201368E+02  0.60756075620E+02  0.47000000000E+01 0. -1.
         -5    1    4    4    0  503  0.40524128132E+00  0.21308746283E+02  0.63762241747E+02  0.67393919320E+02  0.47000000000E+01 0. -1.
<mgrwt>
<rscale>  0 0.12776337E+03</rscale>
<asrwt>0</asrwt>
<pdfrwt beam="2">  1        5 0.13447777E-01 0.12776376E+03</pdfrwt>
<pdfrwt beam="1">  1       -5 0.32795821E-01 0.12776376E+03</pdfrwt>
<totfact> 0.30330855E+02</totfact>
</mgrwt>
</event>
<event>
 8    1  0.3542708E-007  0.1263368E+03  0.7546771E-02  0.1232996E+00
          5   -1    0    0  501    0  0.00000000000E+00  0.00000000000E+00  0.19224626931E+03  0.19230371308E+03  0.47000000000E+01 0. -1.
         -5   -1    0    0    0  501 -0.00000000000E+00 -0.00000000000E+00 -0.88595639868E+02  0.88720219813E+02  0.47000000000E+01 0. -1.
         25    2    1    2    0    0 -0.12559120153E+02  0.13347086692E+02  0.16186838947E+02  0.12736555298E+03  0.12499637638E+03 0.  0.
         25    2    1    2    0    0  0.12559120153E+02 -0.13347086692E+02  0.87463790493E+02  0.15365837991E+03  0.12500042739E+03 0.  0.
          5    1    3    3  502    0 -0.12203291959E+02  0.64041191637E+02 -0.15791142554E+02  0.67243176189E+02  0.47000000000E+01 0. -1.
         -5    1    3    3    0  502 -0.35582819478E+00 -0.50694104944E+02  0.31977981501E+02  0.60122376788E+02  0.47000000000E+01 0. -1.
          5    1    4    4  503    0  0.42899719519E+02 -0.54382453811E+02  0.27237009479E+02  0.74577355159E+02  0.47000000000E+01 0. -1.
         -5    1    4    4    0  503 -0.30340599365E+02  0.41035367118E+02  0.60226781014E+02  0.79081024751E+02  0.47000000000E+01 0. -1.
<mgrwt>
<rscale>  0 0.12633578E+03</rscale>
<asrwt>0</asrwt>
<pdfrwt beam="1">  1        5 0.29590351E-01 0.12633678E+03</pdfrwt>
<pdfrwt beam="2">  1       -5 0.13644100E-01 0.12633678E+03</pdfrwt>
<totfact> 0.36041025E+02</totfact>
</mgrwt>
</event>
<event>
 8    1  0.3542708E-007  0.1291068E+03  0.7546771E-02  0.1228789E+00
         -5   -1    0    0    0  501 -0.00000000000E+00  0.00000000000E+00  0.13722349711E+03  0.13730396265E+03  0.47000000000E+01 0.  1.
          5   -1    0    0  501    0  0.00000000000E+00 -0.00000000000E+00 -0.16266257768E+03  0.16273046481E+03  0.47000000000E+01 0.  1.
         25    2    1    2    0    0 -0.13915839943E+02 -0.29141744453E+02  0.62888212408E+02  0.14360462501E+03  0.12499787676E+03 0.  0.
         25    2    1    2    0    0  0.13915839943E+02  0.29141744453E+02 -0.88327292985E+02  0.15642980245E+03  0.12500272212E+03 0.  0.
          5    1    4    4  502    0 -0.32300203812E+02 -0.24465364193E+02  0.28711196113E+01  0.40892426429E+02  0.47000000000E+01 0.  1.
         -5    1    4    4    0  502  0.46216043755E+02  0.53607108646E+02 -0.91198412597E+02  0.11553737602E+03  0.47000000000E+01 0.  1.
          5    1    3    3  503    0  0.32727523914E+02  0.16471507859E+02 -0.16741158084E+02  0.40555613257E+02  0.47000000000E+01 0. -1.
         -5    1    3    3    0  503 -0.46643363856E+02 -0.45613252312E+02  0.79629370492E+02  0.10304901175E+03  0.47000000000E+01 0. -1.
<mgrwt>
<rscale>  0 0.12910565E+03</rscale>
<asrwt>0</asrwt>
<pdfrwt beam="2">  1        5 0.25036424E-01 0.12910683E+03</pdfrwt>
<pdfrwt beam="1">  1       -5 0.21122719E-01 0.12910683E+03</pdfrwt>
<totfact> 0.22542202E+02</totfact>
</mgrwt>
</event>
<event>
 8    1  0.3542708E-007  0.1393417E+03  0.7546771E-02  0.1214221E+00
          5   -1    0    0  501    0  0.00000000000E+00  0.00000000000E+00  0.66662218295E+02  0.66827698958E+02  0.47000000000E+01 0. -1.
         -5   -1    0    0    0  501 -0.00000000000E+00 -0.00000000000E+00 -0.34600188959E+03  0.34603380990E+03  0.47000000000E+01 0. -1.
         25    2    1    2    0    0  0.48051251017E+02  0.38510300122E+02 -0.22217324762E+03  0.26224909221E+03  0.12498667315E+03 0.  0.
         25    2    1    2    0    0 -0.48051251017E+02 -0.38510300122E+02 -0.57166423668E+02  0.15061241665E+03  0.12499653641E+03 0.  0.
          5    1    4    4  502    0  0.60260913538E+01 -0.64792026843E+02 -0.62139846580E+02  0.90098673977E+02  0.47000000000E+01 0. -1.
         -5    1    4    4    0  502 -0.54077342371E+02  0.26281726721E+02  0.49734229121E+01  0.60513742678E+02  0.47000000000E+01 0. -1.
          5    1    3    3  503    0  0.11950716785E+02 -0.18249002803E+02  0.69799185437E+01  0.23380654350E+02  0.47000000000E+01 0. -1.
         -5    1    3    3    0  503  0.36100534233E+02  0.56759302925E+02 -0.22915316617E+03  0.23886843786E+03  0.47000000000E+01 0. -1.
<mgrwt>
<rscale>  0 0.13933945E+03</rscale>
<asrwt>0</asrwt>
<pdfrwt beam="1">  1        5 0.10270911E-01 0.13934167E+03</pdfrwt>
<pdfrwt beam="2">  1       -5 0.53246243E-01 0.13934167E+03</pdfrwt>
<totfact> 0.18556440E+02</totfact>
</mgrwt>
</event>
<event>
 8    1  0.3542708E-007  0.1267302E+03  0.7546771E-02  0.1232390E+00
          5   -1    0    0  501    0  0.00000000000E+00  0.00000000000E+00  0.11405265820E+03  0.11414945835E+03  0.47000000000E+01 0. -1.
         -5   -1    0    0    0  501 -0.00000000000E+00 -0.00000000000E+00 -0.17859684231E+03  0.17865867481E+03  0.47000000000E+01 0. -1.
         25    2    1    2    0    0 -0.56819913530E+01  0.20085991455E+02 -0.99751711110E+02  0.16127907230E+03  0.12499921285E+03 0.  0.
         25    2    1    2    0    0  0.56819913530E+01 -0.20085991455E+02  0.35207526992E+02  0.13152906086E+03  0.12499836725E+03 0.  0.
          5    1    3    3  502    0  0.24157298799E+02 -0.16137114109E+02  0.17955221390E+02  0.34474070143E+02  0.47000000000E+01 0. -1.
         -5    1    3    3    0  502 -0.29839290152E+02  0.36223105564E+02 -0.11770693250E+03  0.12680500216E+03  0.47000000000E+01 0. -1.
          5    1    4    4  503    0  0.19939754032E+02 -0.27823539951E+02  0.78116041805E+02  0.85416328378E+02  0.47000000000E+01 0. -1.
         -5    1    4    4    0  503 -0.14257762679E+02  0.77375484963E+01 -0.42908514814E+02  0.46112732481E+02  0.47000000000E+01 0. -1.
<mgrwt>
<rscale>  0 0.12672996E+03</rscale>
<asrwt>0</asrwt>
<pdfrwt beam="1">  1        5 0.17558765E-01 0.12673017E+03</pdfrwt>
<pdfrwt beam="2">  1       -5 0.27488640E-01 0.12673017E+03</pdfrwt>
<totfact> 0.26357884E+02</totfact>
</mgrwt>
</event>
<event>
 8    1  0.3542708E-007  0.1268192E+03  0.7546771E-02  0.1232254E+00
          5   -1    0    0  501    0  0.00000000000E+00  0.00000000000E+00  0.18933777437E+02  0.19508406599E+02  0.47000000000E+01 0. -1.
         -5   -1    0    0    0  501 -0.00000000000E+00 -0.00000000000E+00 -0.89603048033E+03  0.89604280684E+03  0.47000000000E+01 0. -1.
         25    2    1    2    0    0  0.84199501049E+01 -0.19649265493E+02 -0.55684927639E+03  0.57110742932E+03  0.12500236006E+03 0.  0.
         25    2    1    2    0    0 -0.84199501049E+01  0.19649265493E+02 -0.32024742651E+03  0.34444378411E+03  0.12500446806E+03 0.  0.
          5    1    3    3  502    0 -0.43314223945E+02  0.91420812714E+01 -0.41423514740E+03  0.41662038714E+03  0.47000000000E+01 0. -1.
         -5    1    3    3    0  502  0.51734174050E+02 -0.28791346764E+02 -0.14261412899E+03  0.15448704218E+03  0.47000000000E+01 0. -1.
          5    1    4    4  503    0  0.19680610708E+02  0.13620588409E+02 -0.15735410240E+01  0.24442031376E+02  0.47000000000E+01 0.  1.
         -5    1    4    4    0  503 -0.28100560812E+02  0.60286770838E+01 -0.31867388549E+03  0.32000175274E+03  0.47000000000E+01 0.  1.
<mgrwt>
<rscale>  0 0.12681867E+03</rscale>
<asrwt>0</asrwt>
<pdfrwt beam="1">  1        5 0.29580400E-02 0.12681919E+03</pdfrwt>
<pdfrwt beam="2">  1       -5 0.13789596E+00 0.12681919E+03</pdfrwt>
<totfact> 0.15263220E+02</totfact>
</mgrwt>
</event>
<event>
 8    1  0.3542708E-007  0.1315833E+03  0.7546771E-02  0.1225137E+00
          5   -1    0    0  501    0  0.00000000000E+00  0.00000000000E+00  0.24497935786E+03  0.24502443914E+03  0.47000000000E+01 0. -1.
         -5   -1    0    0    0  501 -0.00000000000E+00 -0.00000000000E+00 -0.73425159254E+02  0.73575430759E+02  0.47000000000E+01 0. -1.
         25    2    1    2    0    0 -0.21787250097E+02  0.34769210874E+02  0.11737949012E+03  0.17632953895E+03  0.12502231526E+03 0.  0.
         25    2    1    2    0    0  0.21787250097E+02 -0.34769210874E+02  0.54174708485E+02  0.14227033095E+03  0.12498946251E+03 0.  0.
          5    1    4    4  502    0  0.39555739457E+02 -0.48873621648E+02 -0.18729376684E+02  0.65773603885E+02  0.47000000000E+01 0.  1.
         -5    1    4    4    0  502 -0.17768489361E+02  0.14104410774E+02  0.72904085170E+02  0.76496727066E+02  0.47000000000E+01 0.  1.
          5    1    3    3  503    0  0.32697704153E+02  0.25552421188E+02 -0.49115537813E+01  0.42050914925E+02  0.47000000000E+01 0. -1.
         -5    1    3    3    0  503 -0.54484954250E+02  0.92167896856E+01  0.12229104390E+03  0.13427862402E+03  0.47000000000E+01 0. -1.
<mgrwt>
<rscale>  0 0.13157548E+03</rscale>
<asrwt>0</asrwt>
<pdfrwt beam="1">  1        5 0.37704159E-01 0.13158329E+03</pdfrwt>
<pdfrwt beam="2">  1       -5 0.11311205E-01 0.13158329E+03</pdfrwt>
<totfact> 0.31517194E+02</totfact>
</mgrwt>
</event>
<event>
 8    1  0.3542708E-007  0.1669431E+03  0.7546771E-02  0.1181076E+00
         -5   -1    0    0    0  501 -0.00000000000E+00  0.00000000000E+00  0.74809276792E+02  0.74956773504E+02  0.47000000000E+01 0.  1.
          5   -1    0    0  501    0  0.00000000000E+00 -0.00000000000E+00 -0.37866169484E+03  0.37869086223E+03  0.47000000000E+01 0.  1.
         25    2    1    2    0    0  0.69288832705E+02  0.86268082149E+02 -0.12183988620E+03  0.20666875090E+03  0.12499556150E+03 0.  0.
         25    2    1    2    0    0 -0.69288832705E+02 -0.86268082149E+02 -0.18201253185E+03  0.24697888483E+03  0.12500753365E+03 0.  0.
          5    1    3    3  502    0  0.93449435178E+02  0.92578573686E+02 -0.70342830913E+02  0.14924407225E+03  0.47000000000E+01 0.  1.
         -5    1    3    3    0  502 -0.24160602473E+02 -0.63104915377E+01 -0.51497055286E+02  0.57424678653E+02  0.47000000000E+01 0.  1.
          5    1    4    4  503    0 -0.18663999680E+02  0.32481250561E+02 -0.42415145836E+02  0.56784778932E+02  0.47000000000E+01 0. -1.
         -5    1    4    4    0  503 -0.50624833025E+02 -0.11874933271E+03 -0.13959738601E+03  0.19019410590E+03  0.47000000000E+01 0. -1.
<mgrwt>
<rscale>  0 0.16694089E+03</rscale>
<asrwt>0</asrwt>
<pdfrwt beam="2">  1        5 0.58269234E-01 0.16694313E+03</pdfrwt>
<pdfrwt beam="1">  1       -5 0.11522709E-01 0.16694313E+03</pdfrwt>
<totfact> 0.13210356E+02</totfact>
</mgrwt>
</event>
<event>
 8    1  0.3542708E-007  0.1357854E+03  0.7546771E-02  0.1219118E+00
         -5   -1    0    0    0  501 -0.00000000000E+00  0.00000000000E+00  0.36442040693E+03  0.36445071408E+03  0.47000000000E+01 0.  1.
          5   -1    0    0  501    0  0.00000000000E+00 -0.00000000000E+00 -0.53848448878E+02  0.54053172400E+02  0.47000000000E+01 0.  1.
         25    2    1    2    0    0  0.36389665162E+02  0.38558875496E+02  0.20773983079E+03  0.24818039398E+03  0.12500670401E+03 0.  0.
         25    2    1    2    0    0 -0.36389665162E+02 -0.38558875496E+02  0.10283212727E+03  0.17032349250E+03  0.12499860435E+03 0.  0.
          5    1    3    3  502    0  0.58296794116E+02 -0.15305785218E+02  0.16538365276E+03  0.17608698381E+03  0.47000000000E+01 0.  1.
         -5    1    3    3    0  502 -0.21907128954E+02  0.53864660714E+02  0.42356178028E+02  0.72093410170E+02  0.47000000000E+01 0.  1.
          5    1    4    4  503    0 -0.70413264105E+02  0.60164869372E+00  0.21561340848E+02  0.73792758197E+02  0.47000000000E+01 0. -1.
         -5    1    4    4    0  503  0.34023598943E+02 -0.39160524189E+02  0.81270786419E+02  0.96530734302E+02  0.47000000000E+01 0. -1.
<mgrwt>
<rscale>  0 0.13578352E+03</rscale>
<asrwt>0</asrwt>
<pdfrwt beam="2">  1        5 0.83024563E-02 0.13578538E+03</pdfrwt>
<pdfrwt beam="1">  1       -5 0.56082755E-01 0.13578538E+03</pdfrwt>
<totfact> 0.23793265E+02</totfact>
</mgrwt>
</event>
<event>
 8    1  0.3542708E-007  0.1347160E+03  0.7546771E-02  0.1220623E+00
          5   -1    0    0  501    0  0.00000000000E+00  0.00000000000E+00  0.51518945929E+03  0.51521089755E+03  0.47000000000E+01 0. -1.
         -5   -1    0    0    0  501 -0.00000000000E+00 -0.00000000000E+00 -0.42667789591E+02  0.42925869456E+02  0.47000000000E+01 0. -1.
         25    2    1    2    0    0  0.50217702992E+02 -0.47180056503E+00  0.11873486685E+03  0.17956907431E+03  0.12500017421E+03 0.  0.
         25    2    1    2    0    0 -0.50217702992E+02  0.47180056503E+00  0.35378680284E+03  0.37856769270E+03  0.12500542308E+03 0.  0.
          5    1    4    4  502    0  0.31693711704E+01 -0.18536051092E+02 -0.84874745429E+00  0.19402074012E+02  0.47000000000E+01 0.  1.
         -5    1    4    4    0  502 -0.53387074163E+02  0.19007851657E+02  0.35463555030E+03  0.35916561869E+03  0.47000000000E+01 0.  1.
          5    1    3    3  503    0 -0.28434680437E+01  0.60607659820E+01 -0.24913905830E+02  0.26222335871E+02  0.47000000000E+01 0.  1.
         -5    1    3    3    0  503  0.53061171036E+02 -0.65325665471E+01  0.14364877268E+03  0.15334673844E+03  0.47000000000E+01 0.  1.
<mgrwt>
<rscale>  0 0.13471477E+03</rscale>
<asrwt>0</asrwt>
<pdfrwt beam="1">  1        5 0.79281418E-01 0.13471598E+03</pdfrwt>
<pdfrwt beam="2">  1       -5 0.65857767E-02 0.13471598E+03</pdfrwt>
<totfact> 0.16262131E+02</totfact>
</mgrwt>
</event>
<event>
 8    1  0.3542708E-007  0.1455966E+03  0.7546771E-02  0.1205991E+00
         -5   -1    0    0    0  501 -0.00000000000E+00  0.00000000000E+00  0.16583607228E+03  0.16590266083E+03  0.47000000000E+01 0.  1.
          5   -1    0    0  501    0  0.00000000000E+00 -0.00000000000E+00 -0.12993885197E+03  0.13002382570E+03  0.47000000000E+01 0.  1.
         25    2    1    2    0    0  0.74140858614E+02  0.87624370988E+01 -0.15042415382E+01  0.14560270674E+03  0.12499695296E+03 0.  0.
         25    2    1    2    0    0 -0.74140858614E+02 -0.87624370988E+01  0.37401461855E+02  0.15032377979E+03  0.12499888880E+03 0.  0.
          5    1    3    3  502    0  0.53197724158E+02  0.65661716633E+02 -0.40694996759E+01  0.84735528053E+02  0.47000000000E+01 0. -1.
         -5    1    3    3    0  502  0.20943134457E+02 -0.56899279534E+02  0.25652581378E+01  0.60867178690E+02  0.47000000000E+01 0. -1.
          5    1    4    4  503    0 -0.38260423166E+02  0.20988423391E+02  0.77232395330E+02  0.88833027561E+02  0.47000000000E+01 0. -1.
         -5    1    4    4    0  503 -0.35880435448E+02 -0.29750860490E+02 -0.39830933475E+02  0.61490752226E+02  0.47000000000E+01 0. -1.
<mgrwt>
<rscale>  0 0.14559618E+03</rscale>
<asrwt>0</asrwt>
<pdfrwt beam="2">  1        5 0.20002251E-01 0.14559660E+03</pdfrwt>
<pdfrwt beam="1">  1       -5 0.25524901E-01 0.14559660E+03</pdfrwt>
<totfact> 0.25066230E+02</totfact>
</mgrwt>
</event>
<event>
 8    1  0.3542708E-007  0.1297268E+03  0.7546771E-02  0.1227868E+00
         -5   -1    0    0    0  501 -0.00000000000E+00  0.00000000000E+00  0.68735853414E+02  0.68896353638E+02  0.47000000000E+01 0.  1.
          5   -1    0    0  501    0  0.00000000000E+00 -0.00000000000E+00 -0.27894144634E+03  0.27898103965E+03  0.47000000000E+01 0.  1.
         25    2    1    2    0    0 -0.30411646379E+02  0.16698632367E+02 -0.43856382546E+02  0.13692452857E+03  0.12498492580E+03 0.  0.
         25    2    1    2    0    0  0.30411646379E+02 -0.16698632367E+02 -0.16634921038E+03  0.21095286472E+03  0.12500135512E+03 0.  0.
          5    1    3    3  502    0 -0.12255985972E+02 -0.49961521473E+02 -0.43722233437E+02  0.67676336461E+02  0.47000000000E+01 0.  1.
         -5    1    3    3    0  502 -0.18155660407E+02  0.66660153839E+02 -0.13414910897E+00  0.69248192111E+02  0.47000000000E+01 0.  1.
          5    1    4    4  503    0  0.48653482887E+02 -0.41999843792E+01 -0.64718692324E+01  0.49485112481E+02  0.47000000000E+01 0. -1.
         -5    1    4    4    0  503 -0.18241836508E+02 -0.12498647987E+02 -0.15987734115E+03  0.16146775224E+03  0.47000000000E+01 0. -1.
<mgrwt>
<rscale>  0 0.12972288E+03</rscale>
<asrwt>0</asrwt>
<pdfrwt beam="2">  1        5 0.42929460E-01 0.12972683E+03</pdfrwt>
<pdfrwt beam="1">  1       -5 0.10590139E-01 0.12972683E+03</pdfrwt>
<totfact> 0.26995695E+02</totfact>
</mgrwt>
</event>
<event>
 8    1  0.3542708E-007  0.1473049E+03  0.7546771E-02  0.1203827E+00
          5   -1    0    0  501    0  0.00000000000E+00  0.00000000000E+00  0.32420760360E+03  0.32424166949E+03  0.47000000000E+01 0. -1.
         -5   -1    0    0    0  501 -0.00000000000E+00 -0.00000000000E+00 -0.70910799821E+02  0.71066388196E+02  0.47000000000E+01 0. -1.
         25    2    1    2    0    0  0.76153607701E+02 -0.16548796784E+02  0.79153571541E+02  0.16722447525E+03  0.12500201036E+03 0.  0.
         25    2    1    2    0    0 -0.76153607701E+02  0.16548796784E+02  0.17414323224E+03  0.22808358243E+03  0.12499208215E+03 0.  0.
          5    1    3    3  502    0  0.37668045640E+02 -0.13700172142E+01 -0.31277377380E+02  0.49204907736E+02  0.47000000000E+01 0.  1.
         -5    1    3    3    0  502  0.38485562061E+02 -0.15178779570E+02  0.11043094892E+03  0.11801956751E+03  0.47000000000E+01 0.  1.
          5    1    4    4  503    0 -0.10387443927E+02  0.64377525126E+02  0.86574952956E+02  0.10848814319E+03  0.47000000000E+01 0. -1.
         -5    1    4    4    0  503 -0.65766163774E+02 -0.47828728342E+02  0.87568279281E+02  0.11959543925E+03  0.47000000000E+01 0. -1.
<mgrwt>
<rscale>  0 0.14730281E+03</rscale>
<asrwt>0</asrwt>
<pdfrwt beam="1">  1        5 0.49892682E-01 0.14730491E+03</pdfrwt>
<pdfrwt beam="2">  1       -5 0.10923943E-01 0.14730491E+03</pdfrwt>
<totfact> 0.19486521E+02</totfact>
</mgrwt>
</event>
<event>
 8    1  0.3542708E-007  0.1553459E+03  0.7546771E-02  0.1194057E+00
         -5   -1    0    0    0  501 -0.00000000000E+00  0.00000000000E+00  0.10295592499E+04  0.10295699777E+04  0.47000000000E+01 0. -1.
          5   -1    0    0  501    0  0.00000000000E+00 -0.00000000000E+00 -0.25994036738E+02  0.26415524714E+02  0.47000000000E+01 0. -1.
         25    2    1    2    0    0 -0.47541610914E+02  0.79039867857E+02  0.67363230150E+03  0.69131018514E+03  0.12498715522E+03 0.  0.
         25    2    1    2    0    0  0.47541610914E+02 -0.79039867857E+02  0.32993291162E+03  0.36467531727E+03  0.12499942151E+03 0.  0.
          5    1    3    3  502    0 -0.25700161557E+02 -0.28720538392E+02  0.10114613519E+03  0.10834204305E+03  0.47000000000E+01 0.  1.
         -5    1    3    3    0  502 -0.21841449357E+02  0.10776040625E+03  0.57248616631E+03  0.58296814208E+03  0.47000000000E+01 0.  1.
          5    1    4    4  503    0  0.52357519731E+02  0.16448081895E+02  0.80832083078E+02  0.97814952462E+02  0.47000000000E+01 0. -1.
         -5    1    4    4    0  503 -0.48159088171E+01 -0.95487949753E+02  0.24910082854E+03  0.26686036481E+03  0.47000000000E+01 0. -1.
<mgrwt>
<rscale>  0 0.15534347E+03</rscale>
<asrwt>0</asrwt>
<pdfrwt beam="2">  1        5 0.40323297E-02 0.15534594E+03</pdfrwt>
<pdfrwt beam="1">  1       -5 0.15842699E+00 0.15534594E+03</pdfrwt>
<totfact> 0.67320801E+01</totfact>
</mgrwt>
</event>
<event>
 8    1  0.3542708E-007  0.1308110E+03  0.7546771E-02  0.1226290E+00
          5   -1    0    0  501    0  0.00000000000E+00  0.00000000000E+00  0.91306869832E+02  0.91427755515E+02  0.47000000000E+01 0. -1.
         -5   -1    0    0    0  501 -0.00000000000E+00 -0.00000000000E+00 -0.19041982821E+03  0.19047782279E+03  0.47000000000E+01 0. -1.
         25    2    1    2    0    0  0.11646073858E+02  0.36605736015E+02 -0.68439970346E+02  0.14763313766E+03  0.12504360379E+03 0.  0.
         25    2    1    2    0    0 -0.11646073858E+02 -0.36605736015E+02 -0.30672988033E+02  0.13427244065E+03  0.12495057094E+03 0.  0.
          5    1    3    3  502    0  0.48743740475E+02  0.12820110807E+02  0.15306052776E+02  0.52883577112E+02  0.47000000000E+01 0.  1.
         -5    1    3    3    0  502 -0.37097666617E+02  0.23785625208E+02 -0.83746023122E+02  0.94749560546E+02  0.47000000000E+01 0.  1.
          5    1    4    4  503    0  0.50255515487E+02 -0.21423109559E+02  0.13639009093E+02  0.56503796590E+02  0.47000000000E+01 0. -1.
         -5    1    4    4    0  503 -0.61901589345E+02 -0.15182626456E+02 -0.44311997126E+02  0.77768644059E+02  0.47000000000E+01 0. -1.
<mgrwt>
<rscale>  0 0.13078875E+03</rscale>
<asrwt>0</asrwt>
<pdfrwt beam="1">  1        5 0.14060971E-01 0.13081098E+03</pdfrwt>
<pdfrwt beam="2">  1       -5 0.29309118E-01 0.13081098E+03</pdfrwt>
<totfact> 0.35238581E+02</totfact>
</mgrwt>
</event>
<event>
 8    1  0.3542708E-007  0.1339732E+03  0.7546771E-02  0.1221678E+00
          5   -1    0    0  501    0  0.00000000000E+00  0.00000000000E+00  0.95470794113E+02  0.95586413933E+02  0.47000000000E+01 0. -1.
         -5   -1    0    0    0  501 -0.00000000000E+00 -0.00000000000E+00 -0.20264558599E+03  0.20270008269E+03  0.47000000000E+01 0. -1.
         25    2    1    2    0    0  0.28864460946E+02  0.38613785979E+02 -0.94021635293E+02  0.16366914530E+03  0.12499335841E+03 0.  0.
         25    2    1    2    0    0 -0.28864460946E+02 -0.38613785979E+02 -0.13153156588E+02  0.13461735133E+03  0.12499857670E+03 0.  0.
          5    1    4    4  502    0  0.44158039450E+02  0.77007611727E+00  0.15000009147E+02  0.46878734408E+02  0.47000000000E+01 0. -1.
         -5    1    4    4    0  502 -0.73022500396E+02 -0.39383862096E+02 -0.28153165735E+02  0.87738616917E+02  0.47000000000E+01 0. -1.
          5    1    3    3  503    0  0.31164759381E+02  0.41277946404E+02 -0.12330869973E+03  0.13379923959E+03  0.47000000000E+01 0.  1.
         -5    1    3    3    0  503 -0.23002984348E+01 -0.26641604257E+01  0.29287064436E+02  0.29869905706E+02  0.47000000000E+01 0.  1.
<mgrwt>
<rscale>  0 0.13397201E+03</rscale>
<asrwt>0</asrwt>
<pdfrwt beam="1">  1        5 0.14700900E-01 0.13397323E+03</pdfrwt>
<pdfrwt beam="2">  1       -5 0.31189330E-01 0.13397323E+03</pdfrwt>
<totfact> 0.29032471E+02</totfact>
</mgrwt>
</event>
<event>
 8    1  0.3542708E-007  0.1478659E+03  0.7546771E-02  0.1203121E+00
          5   -1    0    0  501    0  0.00000000000E+00  0.00000000000E+00  0.63213380882E+02  0.63387865736E+02  0.47000000000E+01 0. -1.
         -5   -1    0    0    0  501 -0.00000000000E+00 -0.00000000000E+00 -0.34662394167E+03  0.34665580471E+03  0.47000000000E+01 0. -1.
         25    2    1    2    0    0  0.52019000076E+02  0.59438676209E+02 -0.12860906916E+03  0.19596933071E+03  0.12499901324E+03 0.  0.
         25    2    1    2    0    0 -0.52019000076E+02 -0.59438676209E+02 -0.15480149162E+03  0.21407433973E+03  0.12500155409E+03 0.  0.
          5    1    3    3  502    0 -0.91383501700E+01  0.25616727728E+02  0.18368588097E+02  0.33154505154E+02  0.47000000000E+01 0.  1.
         -5    1    3    3    0  502  0.61157350247E+02  0.33821948481E+02 -0.14697765726E+03  0.16281482556E+03  0.47000000000E+01 0.  1.
          5    1    4    4  503    0 -0.43267088068E+02 -0.30043833994E+01  0.53765011113E+01  0.43955249899E+02  0.47000000000E+01 0. -1.
         -5    1    4    4    0  503 -0.87519120089E+01 -0.56434292809E+02 -0.16017799274E+03  0.17011908983E+03  0.47000000000E+01 0. -1.
<mgrwt>
<rscale>  0 0.14786535E+03</rscale>
<asrwt>0</asrwt>
<pdfrwt beam="1">  1        5 0.97410086E-02 0.14786589E+03</pdfrwt>
<pdfrwt beam="2">  1       -5 0.53342632E-01 0.14786589E+03</pdfrwt>
<totfact> 0.20678652E+02</totfact>
</mgrwt>
</event>
<event>
 8    1  0.3542708E-007  0.1368034E+03  0.7546771E-02  0.1217705E+00
          5   -1    0    0  501    0  0.00000000000E+00  0.00000000000E+00  0.89229835297E+03  0.89231073103E+03  0.47000000000E+01 0. -1.
         -5   -1    0    0    0  501 -0.00000000000E+00 -0.00000000000E+00 -0.23087492699E+02  0.23561033914E+02  0.47000000000E+01 0. -1.
         25    2    1    2    0    0  0.55393441674E+02  0.39301570166E+01  0.28874368084E+03  0.31950164965E+03  0.12499804554E+03 0.  0.
         25    2    1    2    0    0 -0.55393441674E+02 -0.39301570166E+01  0.58046717943E+03  0.59637011529E+03  0.12502515149E+03 0.  0.
          5    1    4    4  502    0 -0.41741204672E+02 -0.90870239917E+01  0.57941016249E+03  0.58100183182E+03  0.47000000000E+01 0.  1.
         -5    1    4    4    0  502 -0.13652237002E+02  0.51568669750E+01  0.10570169328E+01  0.15368283475E+02  0.47000000000E+01 0.  1.
          5    1    3    3  503    0 -0.24129041420E+02 -0.18603358579E+02  0.16535828900E+02  0.34983127757E+02  0.47000000000E+01 0.  1.
         -5    1    3    3    0  503  0.79522483094E+02  0.22533515596E+02  0.27220785194E+03  0.28451852190E+03  0.47000000000E+01 0.  1.
<mgrwt>
<rscale>  0 0.13679720E+03</rscale>
<asrwt>0</asrwt>
<pdfrwt beam="1">  1        5 0.13731405E+00 0.13680339E+03</pdfrwt>
<pdfrwt beam="2">  1       -5 0.35893003E-02 0.13680339E+03</pdfrwt>
<totfact> 0.11565936E+02</totfact>
</mgrwt>
</event>
<event>
 8    1  0.3542708E-007  0.1413846E+03  0.7546771E-02  0.1211479E+00
         -5   -1    0    0    0  501 -0.00000000000E+00  0.00000000000E+00  0.52020604348E+03  0.52022727502E+03  0.47000000000E+01 0. -1.
          5   -1    0    0  501    0  0.00000000000E+00 -0.00000000000E+00 -0.43243309722E+02  0.43497975076E+02  0.47000000000E+01 0. -1.
         25    2    1    2    0    0  0.11126124724E+02 -0.65118151310E+02  0.33384853790E+03  0.36255268732E+03  0.12500176217E+03 0.  0.
         25    2    1    2    0    0 -0.11126124724E+02  0.65118151310E+02  0.14311419586E+03  0.20117256277E+03  0.12499825069E+03 0.  0.
          5    1    4    4  502    0  0.39093410441E+02  0.48674266368E+02  0.13323164109E+03  0.14720814901E+03  0.47000000000E+01 0. -1.
         -5    1    4    4    0  502 -0.50219535165E+02  0.16443884943E+02  0.98825547655E+01  0.53964413764E+02  0.47000000000E+01 0. -1.
          5    1    3    3  503    0  0.65423092751E+02 -0.24866488836E+02  0.12968857189E+03  0.14744401993E+03  0.47000000000E+01 0.  1.
         -5    1    3    3    0  503 -0.54296968027E+02 -0.40251662474E+02  0.20415996600E+03  0.21510866739E+03  0.47000000000E+01 0.  1.
<mgrwt>
<rscale>  0 0.14138382E+03</rscale>
<asrwt>0</asrwt>
<pdfrwt beam="2">  1        5 0.66740396E-02 0.14138460E+03</pdfrwt>
<pdfrwt beam="1">  1       -5 0.80052923E-01 0.14138460E+03</pdfrwt>
<totfact> 0.15795937E+02</totfact>
</mgrwt>
</event>
<event>
 8    1  0.3542708E-007  0.1283444E+03  0.7546771E-02  0.1229935E+00
         -5   -1    0    0    0  501 -0.00000000000E+00  0.00000000000E+00  0.21775541536E+02  0.22276988333E+02  0.47000000000E+01 0. -1.
          5   -1    0    0  501    0  0.00000000000E+00 -0.00000000000E+00 -0.74785529144E+03  0.74787006019E+03  0.47000000000E+01 0. -1.
         25    2    1    2    0    0  0.26409399269E+02 -0.12181101938E+02 -0.37346415734E+03  0.39490220597E+03  0.12500575925E+03 0.  0.
         25    2    1    2    0    0 -0.26409399269E+02  0.12181101938E+02 -0.35261559256E+03  0.37524484256E+03  0.12500040054E+03 0.  0.
          5    1    3    3  502    0  0.39887035056E+01  0.44770956704E+01  0.87716731165E+01  0.11618364367E+02  0.47000000000E+01 0. -1.
         -5    1    3    3    0  502  0.22420695764E+02 -0.16658197609E+02 -0.38223583046E+03  0.38328384160E+03  0.47000000000E+01 0. -1.
          5    1    4    4  503    0 -0.65878088463E+02 -0.13641941461E+02 -0.11820631807E+03  0.13609132499E+03  0.47000000000E+01 0.  1.
         -5    1    4    4    0  503  0.39468689193E+02  0.25823043399E+02 -0.23440927449E+03  0.23915351757E+03  0.47000000000E+01 0.  1.
<mgrwt>
<rscale>  0 0.12834306E+03</rscale>
<asrwt>0</asrwt>
<pdfrwt beam="2">  1        5 0.11509435E+00 0.12834436E+03</pdfrwt>
<pdfrwt beam="1">  1       -5 0.33897928E-02 0.12834436E+03</pdfrwt>
<totfact> 0.19583752E+02</totfact>
</mgrwt>
</event>
<event>
 8    1  0.3542708E-007  0.1394718E+03  0.7546771E-02  0.1214043E+00
          5   -1    0    0  501    0  0.00000000000E+00  0.00000000000E+00  0.74102981981E+03  0.74104472460E+03  0.47000000000E+01 0.  1.
         -5   -1    0    0    0  501 -0.00000000000E+00 -0.00000000000E+00 -0.31054868336E+02  0.31408515523E+02  0.47000000000E+01 0.  1.
         25    2    1    2    0    0  0.37934000420E+02 -0.48869088590E+02  0.20053624952E+03  0.24426865328E+03  0.12500084559E+03 0.  0.
         25    2    1    2    0    0 -0.37934000420E+02  0.48869088590E+02  0.50943870196E+03  0.52818458684E+03  0.12499596198E+03 0.  0.
          5    1    4    4  502    0 -0.20245220160E+02 -0.24012452454E+02  0.35517597125E+03  0.35659294352E+03  0.47000000000E+01 0. -1.
         -5    1    4    4    0  502 -0.17688780260E+02  0.72881541044E+02  0.15426273071E+03  0.17159164332E+03  0.47000000000E+01 0. -1.
          5    1    3    3  503    0 -0.23771086514E+02 -0.12414498104E+02  0.15897060134E+03  0.16128523307E+03  0.47000000000E+01 0. -1.
         -5    1    3    3    0  503  0.61705086934E+02 -0.36454590487E+02  0.41565648182E+02  0.82983420210E+02  0.47000000000E+01 0. -1.
<mgrwt>
<rscale>  0 0.13947072E+03</rscale>
<asrwt>0</asrwt>
<pdfrwt beam="1">  1        5 0.11403294E+00 0.13947182E+03</pdfrwt>
<pdfrwt beam="2">  1       -5 0.48060220E-02 0.13947182E+03</pdfrwt>
<totfact> 0.11622129E+02</totfact>
</mgrwt>
</event>
<event>
 8    1  0.3542708E-007  0.1324684E+03  0.7546771E-02  0.1223843E+00
          5   -1    0    0  501    0  0.00000000000E+00  0.00000000000E+00  0.36288976500E+02  0.36592073123E+02  0.47000000000E+01 0. -1.
         -5   -1    0    0    0  501 -0.00000000000E+00 -0.00000000000E+00 -0.48120340913E+03  0.48122636145E+03  0.47000000000E+01 0. -1.
         25    2    1    2    0    0  0.10703739049E+02 -0.42488569012E+02 -0.22111811054E+03  0.25776167977E+03  0.12501206431E+03 0.  0.
         25    2    1    2    0    0 -0.10703739049E+02  0.42488569012E+02 -0.22379632209E+03  0.26005675480E+03  0.12499949365E+03 0.  0.
          5    1    3    3  502    0 -0.41825595984E+02  0.50642838393E+01 -0.15514722468E+03  0.16083463177E+03  0.47000000000E+01 0. -1.
         -5    1    3    3    0  502  0.52529335034E+02 -0.47552852851E+02 -0.65970885860E+02  0.96927048003E+02  0.47000000000E+01 0. -1.
          5    1    4    4  503    0 -0.27623528059E+02 -0.17143668786E+02 -0.18248418001E+03  0.18541717999E+03  0.47000000000E+01 0.  1.
         -5    1    4    4    0  503  0.16919789009E+02  0.59632237799E+02 -0.41312142075E+02  0.74639574810E+02  0.47000000000E+01 0.  1.
<mgrwt>
<rscale>  0 0.13246539E+03</rscale>
<asrwt>0</asrwt>
<pdfrwt beam="1">  1        5 0.56080005E-02 0.13246835E+03</pdfrwt>
<pdfrwt beam="2">  1       -5 0.74056370E-01 0.13246835E+03</pdfrwt>
<totfact> 0.24769693E+02</totfact>
</mgrwt>
</event>
<event>
 8    1  0.3542708E-007  0.1533753E+03  0.7546771E-02  0.1196386E+00
          5   -1    0    0  501    0  0.00000000000E+00  0.00000000000E+00  0.28897456288E+03  0.28901278171E+03  0.47000000000E+01 0.  1.
         -5   -1    0    0    0  501 -0.00000000000E+00 -0.00000000000E+00 -0.81591244250E+02  0.81726502055E+02  0.47000000000E+01 0.  1.
         25    2    1    2    0    0 -0.71535699472E+02  0.52737986279E+02  0.92500289387E+02  0.17910921620E+03  0.12500062517E+03 0.  0.
         25    2    1    2    0    0  0.71535699472E+02 -0.52737986279E+02  0.11488302924E+03  0.19163006757E+03  0.12500128356E+03 0.  0.
          5    1    4    4  502    0  0.62601574562E+02 -0.91892520535E+02  0.96127357318E+02  0.14705696615E+03  0.47000000000E+01 0.  1.
         -5    1    4    4    0  502  0.89341249104E+01  0.39154534257E+02  0.18755671925E+02  0.44573101419E+02  0.47000000000E+01 0.  1.
          5    1    3    3  503    0 -0.15537895610E+02 -0.40686531149E+02  0.33490284877E+02  0.55140812454E+02  0.47000000000E+01 0.  1.
         -5    1    3    3    0  503 -0.55997803862E+02  0.93424517428E+02  0.59010004510E+02  0.12396840374E+03  0.47000000000E+01 0.  1.
<mgrwt>
<rscale>  0 0.15337513E+03</rscale>
<asrwt>0</asrwt>
<pdfrwt beam="1">  1        5 0.44470970E-01 0.15337527E+03</pdfrwt>
<pdfrwt beam="2">  1       -5 0.12565843E-01 0.15337527E+03</pdfrwt>
<totfact> 0.19624639E+02</totfact>
</mgrwt>
</event>
<event>
 8    1  0.3542708E-007  0.1371270E+03  0.7546771E-02  0.1217250E+00
          5   -1    0    0  501    0  0.00000000000E+00  0.00000000000E+00  0.11926795864E+04  0.11926888470E+04  0.47000000000E+01 0. -1.
         -5   -1    0    0    0  501 -0.00000000000E+00 -0.00000000000E+00 -0.15750542293E+02  0.16436836147E+02  0.47000000000E+01 0. -1.
         25    2    1    2    0    0 -0.35030408864E+02  0.44185782511E+02  0.50093387046E+03  0.51936360042E+03  0.12499717576E+03 0.  0.
         25    2    1    2    0    0  0.35030408864E+02 -0.44185782511E+02  0.67599517362E+03  0.68976208272E+03  0.12499097200E+03 0.  0.
          5    1    4    4  502    0 -0.42926221205E+02  0.66555182874E+01  0.23521899139E+03  0.23924259717E+03  0.47000000000E+01 0.  1.
         -5    1    4    4    0  502  0.77956630069E+02 -0.50841300798E+02  0.44077618223E+03  0.45051948555E+03  0.47000000000E+01 0.  1.
          5    1    3    3  503    0 -0.50599785959E+02  0.31925981318E+02  0.49432038386E+03  0.49795013659E+03  0.47000000000E+01 0.  1.
         -5    1    3    3    0  503  0.15569377095E+02  0.12259801193E+02  0.66134865921E+01  0.21413463833E+02  0.47000000000E+01 0.  1.
<mgrwt>
<rscale>  0 0.13712556E+03</rscale>
<asrwt>0</asrwt>
<pdfrwt beam="1">  1        5 0.18354269E+00 0.13712697E+03</pdfrwt>
<pdfrwt beam="2">  1       -5 0.24766643E-02 0.13712697E+03</pdfrwt>
<totfact> 0.93589717E+01</totfact>
</mgrwt>
</event>
<event>
 8    1  0.3542708E-007  0.1387533E+03  0.7546771E-02  0.1215041E+00
          5   -1    0    0  501    0  0.00000000000E+00  0.00000000000E+00  0.69396360258E+02  0.69555336366E+02  0.47000000000E+01 0.  1.
         -5   -1    0    0    0  501 -0.00000000000E+00 -0.00000000000E+00 -0.31857249058E+03  0.31860715898E+03  0.47000000000E+01 0.  1.
         25    2    1    2    0    0  0.60229629866E+02  0.83475733700E+00 -0.19488649189E+03  0.23923468286E+03  0.12499673447E+03 0.  0.
         25    2    1    2    0    0 -0.60229629866E+02 -0.83475733700E+00 -0.54289638431E+02  0.14892781249E+03  0.12491526471E+03 0.  0.
          5    1    4    4  502    0 -0.35494267318E+02  0.58237787185E+02 -0.60856603750E+01  0.68633870143E+02  0.47000000000E+01 0. -1.
         -5    1    4    4    0  502 -0.24735362548E+02 -0.59072544522E+02 -0.48203978056E+02  0.80293942343E+02  0.47000000000E+01 0. -1.
          5    1    3    3  503    0 -0.21702798320E+02  0.29179951962E+02 -0.11694320542E+03  0.12255726965E+03  0.47000000000E+01 0.  1.
         -5    1    3    3    0  503  0.81932428185E+02 -0.28345194625E+02 -0.77943286473E+02  0.11667741321E+03  0.47000000000E+01 0.  1.
<mgrwt>
<rscale>  0 0.13873499E+03</rscale>
<asrwt>0</asrwt>
<pdfrwt beam="1">  1        5 0.10691259E-01 0.13875334E+03</pdfrwt>
<pdfrwt beam="2">  1       -5 0.49026048E-01 0.13875334E+03</pdfrwt>
<totfact> 0.20590309E+02</totfact>
</mgrwt>
</event>
<event>
 8    1  0.3542708E-007  0.1752100E+03  0.7546771E-02  0.1172522E+00
         -5   -1    0    0    0  501 -0.00000000000E+00  0.00000000000E+00  0.16750168763E+03  0.16756761429E+03  0.47000000000E+01 0. -1.
          5   -1    0    0  501    0  0.00000000000E+00 -0.00000000000E+00 -0.20867924578E+03  0.20873216719E+03  0.47000000000E+01 0. -1.
         25    2    1    2    0    0 -0.28444925861E+02 -0.11942814017E+03  0.45216850236E+02  0.18094745948E+03  0.12500090030E+03 0.  0.
         25    2    1    2    0    0  0.28444925861E+02  0.11942814017E+03 -0.86394408390E+02  0.19535232200E+03  0.12500536563E+03 0.  0.
          5    1    4    4  502    0  0.60873966682E+02  0.12584130603E+03 -0.57617125150E+02  0.15127292300E+03  0.47000000000E+01 0.  1.
         -5    1    4    4    0  502 -0.32429040821E+02 -0.64131658624E+01 -0.28777283240E+02  0.44079398994E+02  0.47000000000E+01 0.  1.
          5    1    3    3  503    0 -0.31942823089E+02 -0.13811537061E+02  0.64485966548E+02  0.73427735799E+02  0.47000000000E+01 0. -1.
         -5    1    3    3    0  503  0.34978972285E+01 -0.10561660311E+03 -0.19269116313E+02  0.10751972368E+03  0.47000000000E+01 0. -1.
<mgrwt>
<rscale>  0 0.17520918E+03</rscale>
<asrwt>0</asrwt>
<pdfrwt beam="2">  1        5 0.32113641E-01 0.17520998E+03</pdfrwt>
<pdfrwt beam="1">  1       -5 0.25778633E-01 0.17520998E+03</pdfrwt>
<totfact> 0.10472819E+02</totfact>
</mgrwt>
</event>
<event>
 8    1  0.3542708E-007  0.1341723E+03  0.7546771E-02  0.1221407E+00
         -5   -1    0    0    0  501 -0.00000000000E+00  0.00000000000E+00  0.44274741791E+02  0.44523507956E+02  0.47000000000E+01 0.  1.
          5   -1    0    0  501    0  0.00000000000E+00 -0.00000000000E+00 -0.50995473036E+03  0.50997638868E+03  0.47000000000E+01 0.  1.
         25    2    1    2    0    0  0.11507209609E+02  0.47378145013E+02 -0.10711744989E+03  0.17165621086E+03  0.12495840171E+03 0.  0.
         25    2    1    2    0    0 -0.11507209609E+02 -0.47378145013E+02 -0.35856253868E+03  0.38284368578E+03  0.12500035640E+03 0.  0.
          5    1    4    4  502    0  0.36022880206E+01  0.30457976367E+02 -0.24689133501E+02  0.39652340617E+02  0.47000000000E+01 0. -1.
         -5    1    4    4    0  502 -0.15109497630E+02 -0.77836121380E+02 -0.33387340517E+03  0.34319134516E+03  0.47000000000E+01 0. -1.
          5    1    3    3  503    0  0.62069517710E+01  0.76535850742E+02 -0.11703351888E+03  0.14005426534E+03  0.47000000000E+01 0. -1.
         -5    1    3    3    0  503  0.53002578383E+01 -0.29157705729E+02  0.99160689873E+01  0.31601945521E+02  0.47000000000E+01 0. -1.
<mgrwt>
<rscale>  0 0.13416248E+03</rscale>
<asrwt>0</asrwt>
<pdfrwt beam="2">  1        5 0.78475372E-01 0.13417225E+03</pdfrwt>
<pdfrwt beam="1">  1       -5 0.68323010E-02 0.13417225E+03</pdfrwt>
<totfact> 0.15624943E+02</totfact>
</mgrwt>
</event>
<event>
 8    1  0.3542708E-007  0.1343135E+03  0.7546771E-02  0.1221192E+00
          5   -1    0    0  501    0  0.00000000000E+00  0.00000000000E+00  0.18155417660E+03  0.18161500224E+03  0.47000000000E+01 0.  1.
         -5   -1    0    0    0  501 -0.00000000000E+00 -0.00000000000E+00 -0.12397114501E+03  0.12406020633E+03  0.47000000000E+01 0.  1.
         25    2    1    2    0    0 -0.31286588400E+02  0.37894210863E+02 -0.39440459565E+02  0.13998447399E+03  0.12500112510E+03 0.  0.
         25    2    1    2    0    0  0.31286588400E+02 -0.37894210863E+02  0.97023491153E+02  0.16569073459E+03  0.12500015945E+03 0.  0.
          5    1    4    4  502    0  0.35364995489E+02  0.41455602832E+02  0.37919180420E+02  0.66552266346E+02  0.47000000000E+01 0.  1.
         -5    1    4    4    0  502 -0.40784070892E+01 -0.79349813694E+02  0.59104310733E+02  0.99138468240E+02  0.47000000000E+01 0.  1.
          5    1    3    3  503    0  0.90159729067E+01  0.58728181582E+02 -0.64598947511E+02  0.87894260898E+02  0.47000000000E+01 0.  1.
         -5    1    3    3    0  503 -0.40302561307E+02 -0.20833970719E+02  0.25158487946E+02  0.52090213088E+02  0.47000000000E+01 0.  1.
<mgrwt>
<rscale>  0 0.13431323E+03</rscale>
<asrwt>0</asrwt>
<pdfrwt beam="1">  1        5 0.27942941E-01 0.13431345E+03</pdfrwt>
<pdfrwt beam="2">  1       -5 0.19084014E-01 0.13431345E+03</pdfrwt>
<totfact> 0.22351630E+02</totfact>
</mgrwt>
</event>
<event>
 8    1  0.3542708E-007  0.1537994E+03  0.7546771E-02  0.1195883E+00
          5   -1    0    0  501    0  0.00000000000E+00  0.00000000000E+00  0.12409107643E+02  0.13269361420E+02  0.47000000000E+01 0.  1.
         -5   -1    0    0    0  501 -0.00000000000E+00 -0.00000000000E+00 -0.21732244779E+04  0.21732295602E+04  0.47000000000E+01 0.  1.
         25    2    1    2    0    0 -0.83364767511E+02  0.32803079906E+02 -0.15075007149E+04  0.15153251012E+04  0.12500412182E+03 0.  0.
         25    2    1    2    0    0  0.83364767511E+02 -0.32803079906E+02 -0.65331465535E+03  0.67117382039E+03  0.12501412627E+03 0.  0.
          5    1    4    4  502    0  0.13939210617E+02 -0.27969042648E+01 -0.49931748829E+03  0.49954195858E+03  0.47000000000E+01 0. -1.
         -5    1    4    4    0  502  0.69425556894E+02 -0.30006175641E+02 -0.15399716706E+03  0.17163186181E+03  0.47000000000E+01 0. -1.
          5    1    3    3  503    0 -0.36805963459E+02  0.56028962208E+02 -0.33568844449E+03  0.34234886493E+03  0.47000000000E+01 0. -1.
         -5    1    3    3    0  503 -0.46558804052E+02 -0.23225882301E+02 -0.11718122704E+04  0.11729762363E+04  0.47000000000E+01 0. -1.
<mgrwt>
<rscale>  0 0.15379738E+03</rscale>
<asrwt>0</asrwt>
<pdfrwt beam="1">  1        5 0.19756595E-02 0.15379941E+03</pdfrwt>
<pdfrwt beam="2">  1       -5 0.33440850E+00 0.15379941E+03</pdfrwt>
<totfact> 0.14634911E+01</totfact>
</mgrwt>
</event>
<event>
 8    1  0.3542708E-007  0.2254920E+03  0.7546771E-02  0.1129855E+00
         -5   -1    0    0    0  501 -0.00000000000E+00  0.00000000000E+00  0.57906531697E+02  0.58096957005E+02  0.47000000000E+01 0.  1.
          5   -1    0    0  501    0  0.00000000000E+00 -0.00000000000E+00 -0.11141698427E+04  0.11141797559E+04  0.47000000000E+01 0.  1.
         25    2    1    2    0    0  0.74865210645E+02  0.17208568532E+03 -0.25740027316E+03  0.34220102317E+03  0.12501342640E+03 0.  0.
         25    2    1    2    0    0 -0.74865210645E+02 -0.17208568532E+03 -0.79886303784E+03  0.83007568970E+03  0.12500085819E+03 0.  0.
          5    1    3    3  502    0  0.34529511831E+02  0.93778691950E+02 -0.40284441262E+02  0.10785015744E+03  0.47000000000E+01 0. -1.
         -5    1    3    3    0  502  0.40335698814E+02  0.78306993366E+02 -0.21711583190E+03  0.23435086574E+03  0.47000000000E+01 0. -1.
          5    1    4    4  503    0 -0.33230502024E+02 -0.10871598655E+02 -0.40839955172E+02  0.53967118327E+02  0.47000000000E+01 0.  1.
         -5    1    4    4    0  503 -0.41634708621E+02 -0.16121408666E+03 -0.75802308266E+03  0.77610857137E+03  0.47000000000E+01 0.  1.
<mgrwt>
<rscale>  0 0.22549025E+03</rscale>
<asrwt>0</asrwt>
<pdfrwt beam="2">  1        5 0.17142614E+00 0.22549199E+03</pdfrwt>
<pdfrwt beam="1">  1       -5 0.89241087E-02 0.22549199E+03</pdfrwt>
<totfact> 0.15380755E+01</totfact>
</mgrwt>
</event>
<event>
 8    1  0.3542708E-007  0.1322324E+03  0.7546771E-02  0.1224182E+00
          5   -1    0    0  501    0  0.00000000000E+00  0.00000000000E+00  0.40309974373E+03  0.40312714296E+03  0.47000000000E+01 0. -1.
         -5   -1    0    0    0  501 -0.00000000000E+00 -0.00000000000E+00 -0.48284012737E+02  0.48512224088E+02  0.47000000000E+01 0. -1.
         25    2    1    2    0    0 -0.40659130397E+02 -0.14349525707E+02  0.10447316636E+03  0.16851959235E+03  0.12500054698E+03 0.  0.
         25    2    1    2    0    0  0.40659130397E+02  0.14349525707E+02  0.25034256463E+03  0.28311977470E+03  0.12500533344E+03 0.  0.
          5    1    3    3  502    0 -0.26458759827E+02 -0.60021635493E+02  0.15759799463E+02  0.67624876916E+02  0.47000000000E+01 0.  1.
         -5    1    3    3    0  502 -0.14200370571E+02  0.45672109786E+02  0.88713366900E+02  0.10089471544E+03  0.47000000000E+01 0.  1.
          5    1    4    4  503    0 -0.97820453573E+01  0.44596291049E+02  0.29568998947E+02  0.54597923819E+02  0.47000000000E+01 0. -1.
         -5    1    4    4    0  503  0.50441175755E+02 -0.30246765342E+02  0.22077356568E+03  0.22852185088E+03  0.47000000000E+01 0. -1.
<mgrwt>
<rscale>  0 0.13223127E+03</rscale>
<asrwt>0</asrwt>
<pdfrwt beam="1">  1        5 0.62035010E-01 0.13223240E+03</pdfrwt>
<pdfrwt beam="2">  1       -5 0.74479717E-02 0.13223240E+03</pdfrwt>
<totfact> 0.22790504E+02</totfact>
</mgrwt>
</event>
<event>
 8    1  0.3542708E-007  0.1389243E+03  0.7546771E-02  0.1214788E+00
         -5   -1    0    0    0  501 -0.00000000000E+00  0.00000000000E+00  0.62666170073E+03  0.62667932562E+03  0.47000000000E+01 0. -1.
          5   -1    0    0  501    0  0.00000000000E+00 -0.00000000000E+00 -0.33344409605E+02  0.33674020430E+02  0.47000000000E+01 0. -1.
         25    2    1    2    0    0  0.28184634969E+02  0.53673889014E+02  0.39089513427E+03  0.41484432039E+03  0.12498617585E+03 0.  0.
         25    2    1    2    0    0 -0.28184634969E+02 -0.53673889014E+02  0.20242215685E+03  0.24550902566E+03  0.12499876834E+03 0.  0.
          5    1    4    4  502    0 -0.20930913621E+02  0.33411337954E+02  0.11562339002E+03  0.12225088535E+03  0.47000000000E+01 0. -1.
         -5    1    4    4    0  502 -0.72537213484E+01 -0.87085226968E+02  0.86798766834E+02  0.12325814031E+03  0.47000000000E+01 0. -1.
          5    1    3    3  503    0  0.41772274901E+02 -0.28917856216E+02  0.19898541551E+03  0.20542261546E+03  0.47000000000E+01 0. -1.
         -5    1    3    3    0  503 -0.13587639931E+02  0.82591745230E+02  0.19190971876E+03  0.20942170493E+03  0.47000000000E+01 0. -1.
<mgrwt>
<rscale>  0 0.13892143E+03</rscale>
<asrwt>0</asrwt>
<pdfrwt beam="2">  1        5 0.51566196E-02 0.13892427E+03</pdfrwt>
<pdfrwt beam="1">  1       -5 0.96436203E-01 0.13892427E+03</pdfrwt>
<totfact> 0.15602272E+02</totfact>
</mgrwt>
</event>
<event>
 8    1  0.3542708E-007  0.2165431E+03  0.7546771E-02  0.1136487E+00
         -5   -1    0    0    0  501 -0.00000000000E+00  0.00000000000E+00  0.37212355439E+02  0.37507991112E+02  0.47000000000E+01 0.  1.
          5   -1    0    0  501    0  0.00000000000E+00 -0.00000000000E+00 -0.13704040889E+04  0.13704121486E+04  0.47000000000E+01 0.  1.
         25    2    1    2    0    0 -0.16508490095E+03 -0.63345100856E+02 -0.46215641604E+03  0.51037188149E+03  0.12500111283E+03 0.  0.
         25    2    1    2    0    0  0.16508490095E+03  0.63345100856E+02 -0.87103531745E+03  0.89754825819E+03  0.12499890082E+03 0.  0.
          5    1    4    4  502    0  0.13537088614E+02 -0.30709427550E+02 -0.84773650345E+02  0.91296130813E+02  0.47000000000E+01 0.  1.
         -5    1    4    4    0  502  0.15154781234E+03  0.94054528406E+02 -0.78626166710E+03  0.80625212737E+03  0.47000000000E+01 0.  1.
          5    1    3    3  503    0 -0.17222063582E+03 -0.24000537217E+02 -0.34281328702E+03  0.38442035970E+03  0.47000000000E+01 0.  1.
         -5    1    3    3    0  503  0.71357348681E+01 -0.39344563639E+02 -0.11934312901E+03  0.12595152179E+03  0.47000000000E+01 0.  1.
<mgrwt>
<rscale>  0 0.21654276E+03</rscale>
<asrwt>0</asrwt>
<pdfrwt beam="2">  1        5 0.21085472E+00 0.21654308E+03</pdfrwt>
<pdfrwt beam="1">  1       -5 0.57483400E-02 0.21654308E+03</pdfrwt>
<totfact> 0.17133556E+01</totfact>
</mgrwt>
</event>
<event>
 8    1  0.3542708E-007  0.1937082E+03  0.7546771E-02  0.1155160E+00
         -5   -1    0    0    0  501 -0.00000000000E+00  0.00000000000E+00  0.25514593003E+03  0.25518921531E+03  0.47000000000E+01 0.  1.
          5   -1    0    0  501    0  0.00000000000E+00 -0.00000000000E+00 -0.14697282415E+03  0.14704795489E+03  0.47000000000E+01 0.  1.
         25    2    1    2    0    0  0.12455857830E+03  0.79896916289E+02  0.52929005494E+02  0.20080534472E+03  0.12499180047E+03 0.  0.
         25    2    1    2    0    0 -0.12455857830E+03 -0.79896916289E+02  0.55244100391E+02  0.20143182548E+03  0.12499805209E+03 0.  0.
          5    1    4    4  502    0 -0.11504122656E+03 -0.39325918691E+02 -0.11919919414E+02  0.12225050580E+03  0.47000000000E+01 0. -1.
         -5    1    4    4    0  502 -0.95173517466E+01 -0.40570997598E+02  0.67164019805E+02  0.79181319684E+02  0.47000000000E+01 0. -1.
          5    1    3    3  503    0 -0.47249597075E+00 -0.27914700302E+02  0.11262820373E+02  0.30469572825E+02  0.47000000000E+01 0. -1.
         -5    1    3    3    0  503  0.12503107427E+03  0.10781161659E+03  0.41666185122E+02  0.17033577190E+03  0.47000000000E+01 0. -1.
<mgrwt>
<rscale>  0 0.19370720E+03</rscale>
<asrwt>0</asrwt>
<pdfrwt beam="2">  1        5 0.22620313E-01 0.19370821E+03</pdfrwt>
<pdfrwt beam="1">  1       -5 0.39262329E-01 0.19370821E+03</pdfrwt>
<totfact> 0.92303203E+01</totfact>
</mgrwt>
</event>
<event>
 8    1  0.3542708E-007  0.1608057E+03  0.7546771E-02  0.1187791E+00
          5   -1    0    0  501    0  0.00000000000E+00  0.00000000000E+00  0.18583291534E+02  0.19168430406E+02  0.47000000000E+01 0. -1.
         -5   -1    0    0    0  501 -0.00000000000E+00 -0.00000000000E+00 -0.15605892954E+04  0.15605963729E+04  0.47000000000E+01 0. -1.
         25    2    1    2    0    0 -0.91580162742E+02  0.42985239228E+02 -0.10475084966E+04  0.10597794694E+04  0.12499526547E+03 0.  0.
         25    2    1    2    0    0  0.91580162742E+02 -0.42985239228E+02 -0.49449750731E+03  0.51998533386E+03  0.12498922229E+03 0.  0.
          5    1    3    3  502    0 -0.69606003201E+02  0.78109041322E+02 -0.50919487749E+03  0.51985337479E+03  0.47000000000E+01 0.  1.
         -5    1    3    3    0  502 -0.21974159541E+02 -0.35123802094E+02 -0.53831361909E+03  0.53992609463E+03  0.47000000000E+01 0.  1.
          5    1    4    4  503    0  0.77548553920E+02 -0.38302454255E+01 -0.45766881698E+03  0.46423193022E+03  0.47000000000E+01 0.  1.
         -5    1    4    4    0  503  0.14031608822E+02 -0.39154993803E+02 -0.36828690329E+02  0.55753403638E+02  0.47000000000E+01 0.  1.
<mgrwt>
<rscale>  0 0.16080453E+03</rscale>
<asrwt>0</asrwt>
<pdfrwt beam="1">  1        5 0.29045242E-02 0.16080570E+03</pdfrwt>
<pdfrwt beam="2">  1       -5 0.24013612E+00 0.16080570E+03</pdfrwt>
<totfact> 0.31796763E+01</totfact>
</mgrwt>
</event>
<event>
 8    1  0.3542708E-007  0.1294155E+03  0.7546771E-02  0.1228326E+00
          5   -1    0    0  501    0  0.00000000000E+00  0.00000000000E+00  0.17156453377E+03  0.17162889980E+03  0.47000000000E+01 0. -1.
         -5   -1    0    0    0  501 -0.00000000000E+00 -0.00000000000E+00 -0.11605412521E+03  0.11614925733E+03  0.47000000000E+01 0. -1.
         25    2    1    2    0    0 -0.30310424694E+02 -0.14258560630E+02 -0.29764396010E+02  0.13279417291E+03  0.12500537866E+03 0.  0.
         25    2    1    2    0    0  0.30310424694E+02  0.14258560630E+02  0.85274804566E+02  0.15498398422E+03  0.12500485861E+03 0.  0.
          5    1    3    3  502    0 -0.49545870638E+02 -0.60745343406E+02 -0.13277090823E+02  0.79643965142E+02  0.47000000000E+01 0. -1.
         -5    1    3    3    0  502  0.19235445945E+02  0.46486782776E+02 -0.16487305187E+02  0.53150207769E+02  0.47000000000E+01 0. -1.
          5    1    4    4  503    0  0.34904304014E+02 -0.48212287954E+02  0.16721331162E+02  0.62003452035E+02  0.47000000000E+01 0. -1.
         -5    1    4    4    0  503 -0.45938793202E+01  0.62470848584E+02  0.68553473404E+02  0.92980532187E+02  0.47000000000E+01 0. -1.
<mgrwt>
<rscale>  0 0.12941538E+03</rscale>
<asrwt>0</asrwt>
<pdfrwt beam="1">  1        5 0.26406813E-01 0.12941551E+03</pdfrwt>
<pdfrwt beam="2">  1       -5 0.17866750E-01 0.12941551E+03</pdfrwt>
<totfact> 0.27798356E+02</totfact>
</mgrwt>
</event>
<event>
 8    1  0.3542708E-007  0.1265922E+03  0.7546771E-02  0.1232615E+00
          5   -1    0    0  501    0  0.00000000000E+00  0.00000000000E+00  0.38930963542E+02  0.39213644594E+02  0.47000000000E+01 0.  1.
         -5   -1    0    0    0  501 -0.00000000000E+00 -0.00000000000E+00 -0.58262386068E+03  0.58264281772E+03  0.47000000000E+01 0.  1.
         25    2    1    2    0    0  0.17176279979E+02 -0.97962749902E+01 -0.44120092715E+03  0.45900309114E+03  0.12503834593E+03 0.  0.
         25    2    1    2    0    0 -0.17176279979E+02  0.97962749902E+01 -0.10249196999E+03  0.16285337118E+03  0.12500249995E+03 0.  0.
          5    1    4    4  502    0 -0.39229799767E+02 -0.47878369857E+02 -0.35026013633E+02  0.71275711999E+02  0.47000000000E+01 0. -1.
         -5    1    4    4    0  502  0.22053519788E+02  0.57674644847E+02 -0.67465956355E+02  0.91577659176E+02  0.47000000000E+01 0. -1.
          5    1    3    3  503    0  0.36141262456E+02  0.13661696974E+02 -0.37166911863E+02  0.53817303478E+02  0.47000000000E+01 0.  1.
         -5    1    3    3    0  503 -0.18964982478E+02 -0.23457971964E+02 -0.40403401529E+03  0.40518578766E+03  0.47000000000E+01 0.  1.
<mgrwt>
<rscale>  0 0.12658333E+03</rscale>
<asrwt>0</asrwt>
<pdfrwt beam="1">  1        5 0.60125823E-02 0.12659218E+03</pdfrwt>
<pdfrwt beam="2">  1       -5 0.89657637E-01 0.12659218E+03</pdfrwt>
<totfact> 0.13923173E+02</totfact>
</mgrwt>
</event>
<event>
 8    1  0.3542708E-007  0.1371319E+03  0.7546771E-02  0.1217241E+00
          5   -1    0    0  501    0  0.00000000000E+00  0.00000000000E+00  0.17497769776E+04  0.17497832898E+04  0.47000000000E+01 0.  1.
         -5   -1    0    0    0  501 -0.00000000000E+00 -0.00000000000E+00 -0.12603067975E+02  0.13450922733E+02  0.47000000000E+01 0.  1.
         25    2    1    2    0    0 -0.22827058364E+01 -0.56341313196E+02  0.49934503029E+03  0.51783247391E+03  0.12500182977E+03 0.  0.
         25    2    1    2    0    0  0.22827058364E+01  0.56341313196E+02  0.12378288793E+04  0.12454017386E+04  0.12500240709E+03 0.  0.
          5    1    3    3  502    0  0.12417086289E+02  0.11057999725E+02  0.37625669532E+03  0.37665322800E+03  0.47000000000E+01 0.  1.
         -5    1    3    3    0  502 -0.14699792125E+02 -0.67399312921E+02  0.12308833497E+03  0.14117924591E+03  0.47000000000E+01 0.  1.
          5    1    4    4  503    0  0.43090620491E+01  0.11443304795E+01  0.14783409616E+00  0.64799199770E+01  0.47000000000E+01 0.  1.
         -5    1    4    4    0  503 -0.20263562126E+01  0.55196982716E+02  0.12376810452E+04  0.12389218186E+04  0.47000000000E+01 0.  1.
<mgrwt>
<rscale>  0 0.13713176E+03</rscale>
<asrwt>0</asrwt>
<pdfrwt beam="1">  1        5 0.26926191E+00 0.13713189E+03</pdfrwt>
<pdfrwt beam="2">  1       -5 0.20046406E-02 0.13713189E+03</pdfrwt>
<totfact> 0.36144804E+01</totfact>
</mgrwt>
</event>
<event>
 8    1  0.3542708E-007  0.1582416E+03  0.7546771E-02  0.1190703E+00
          5   -1    0    0  501    0  0.00000000000E+00  0.00000000000E+00  0.12994611589E+04  0.12994696585E+04  0.47000000000E+01 0.  1.
         -5   -1    0    0    0  501 -0.00000000000E+00 -0.00000000000E+00 -0.19983056309E+02  0.20528335039E+02  0.47000000000E+01 0.  1.
         25    2    1    2    0    0  0.82616709499E+02 -0.50882456502E+02  0.49326280438E+03  0.51801612677E+03  0.12497187020E+03 0.  0.
         25    2    1    2    0    0 -0.82616709499E+02  0.50882456502E+02  0.78621529818E+03  0.80198186679E+03  0.12500349793E+03 0.  0.
          5    1    4    4  502    0 -0.18909591473E+02 -0.22266417971E+01  0.57029076654E+03  0.57062788136E+03  0.47000000000E+01 0.  1.
         -5    1    4    4    0  502 -0.63707118026E+02  0.53109098299E+02  0.21592453164E+03  0.23135398543E+03  0.47000000000E+01 0.  1.
          5    1    3    3  503    0  0.16791043703E+02 -0.21909399285E+02  0.39585149998E+03  0.39684059893E+03  0.47000000000E+01 0. -1.
         -5    1    3    3    0  503  0.65825665796E+02 -0.28973057217E+02  0.97411304406E+02  0.12117552784E+03  0.47000000000E+01 0. -1.
<mgrwt>
<rscale>  0 0.15823540E+03</rscale>
<asrwt>0</asrwt>
<pdfrwt beam="1">  1        5 0.19995972E+00 0.15824165E+03</pdfrwt>
<pdfrwt beam="2">  1       -5 0.31169143E-02 0.15824165E+03</pdfrwt>
<totfact> 0.51859535E+01</totfact>
</mgrwt>
</event>
<event>
 8    1  0.3542708E-007  0.1441736E+03  0.7546771E-02  0.1207823E+00
         -5   -1    0    0    0  501 -0.00000000000E+00  0.00000000000E+00  0.44526357731E+03  0.44528838215E+03  0.47000000000E+01 0. -1.
          5   -1    0    0  501    0  0.00000000000E+00 -0.00000000000E+00 -0.52290742510E+02  0.52501540475E+02  0.47000000000E+01 0. -1.
         25    2    1    2    0    0  0.47209196605E+02 -0.54143610284E+02  0.27885803507E+03  0.31391981777E+03  0.12499443782E+03 0.  0.
         25    2    1    2    0    0 -0.47209196605E+02  0.54143610284E+02  0.11411479973E+03  0.18387010486E+03  0.12500315662E+03 0.  0.
          5    1    3    3  502    0  0.20617693697E+02 -0.31902851089E+02  0.27619565503E+03  0.27883509654E+03  0.47000000000E+01 0.  1.
         -5    1    3    3    0  502  0.26591502908E+02 -0.22240759195E+02  0.26623800366E+01  0.35084721232E+02  0.47000000000E+01 0.  1.
          5    1    4    4  503    0 -0.37718177341E+01  0.76668960084E+02  0.11043791101E+03  0.13457703458E+03  0.47000000000E+01 0.  1.
         -5    1    4    4    0  503 -0.43437378871E+02 -0.22525349801E+02  0.36768887277E+01  0.49293070279E+02  0.47000000000E+01 0.  1.
<mgrwt>
<rscale>  0 0.14417171E+03</rscale>
<asrwt>0</asrwt>
<pdfrwt beam="2">  1        5 0.80628526E-02 0.14417360E+03</pdfrwt>
<pdfrwt beam="1">  1       -5 0.68520215E-01 0.14417360E+03</pdfrwt>
<totfact> 0.16418814E+02</totfact>
</mgrwt>
</event>
<event>
 8    1  0.3542708E-007  0.1294478E+03  0.7546771E-02  0.1228278E+00
          5   -1    0    0  501    0  0.00000000000E+00  0.00000000000E+00  0.15159479692E+02  0.15871352322E+02  0.47000000000E+01 0.  1.
         -5   -1    0    0    0  501 -0.00000000000E+00 -0.00000000000E+00 -0.10996931620E+04  0.10997032057E+04  0.47000000000E+01 0.  1.
         25    2    1    2    0    0 -0.13661138330E+02  0.30738849385E+02 -0.61822943359E+03  0.63163625918E+03  0.12500091113E+03 0.  0.
         25    2    1    2    0    0  0.13661138330E+02 -0.30738849385E+02 -0.46630424870E+03  0.48393829880E+03  0.12500048450E+03 0.  0.
          5    1    4    4  502    0  0.46556365058E+02 -0.97178926951E+01 -0.64821879409E+02  0.80535076928E+02  0.47000000000E+01 0.  1.
         -5    1    4    4    0  502 -0.32895226727E+02 -0.21020956689E+02 -0.40148236929E+03  0.40340322187E+03  0.47000000000E+01 0.  1.
          5    1    3    3  503    0  0.39541975279E+02  0.52231426562E+01 -0.47448337998E+03  0.47618002573E+03  0.47000000000E+01 0. -1.
         -5    1    3    3    0  503 -0.53203113609E+02  0.25515706728E+02 -0.14374605361E+03  0.15545623345E+03  0.47000000000E+01 0. -1.
<mgrwt>
<rscale>  0 0.12944769E+03</rscale>
<asrwt>0</asrwt>
<pdfrwt beam="1">  1        5 0.23877605E-02 0.12944779E+03</pdfrwt>
<pdfrwt beam="2">  1       -5 0.16923903E+00 0.12944779E+03</pdfrwt>
<totfact> 0.12344796E+02</totfact>
</mgrwt>
</event>
<event>
 8    1  0.3542708E-007  0.1675409E+03  0.7546771E-02  0.1180439E+00
         -5   -1    0    0    0  501 -0.00000000000E+00  0.00000000000E+00  0.84259388391E+02  0.84390369901E+02  0.47000000000E+01 0.  1.
          5   -1    0    0  501    0  0.00000000000E+00 -0.00000000000E+00 -0.33449282236E+03  0.33452584087E+03  0.47000000000E+01 0.  1.
         25    2    1    2    0    0  0.57912185146E+02 -0.95354693966E+02 -0.14039375984E+03  0.21858721273E+03  0.12499449155E+03 0.  0.
         25    2    1    2    0    0 -0.57912185146E+02  0.95354693966E+02 -0.10983967413E+03  0.20032899804E+03  0.12498245715E+03 0.  0.
          5    1    4    4  502    0  0.14693427686E+02  0.11163045389E+02  0.21148170115E+02  0.28457784501E+02  0.47000000000E+01 0. -1.
         -5    1    4    4    0  502 -0.72605612832E+02  0.84191648577E+02 -0.13098784424E+03  0.17187121354E+03  0.47000000000E+01 0. -1.
          5    1    3    3  503    0 -0.28327273467E+02 -0.72408330506E+02 -0.59063065870E+02  0.97754470480E+02  0.47000000000E+01 0.  1.
         -5    1    3    3    0  503  0.86239458613E+02 -0.22946363461E+02 -0.81330693971E+02  0.12083274225E+03  0.47000000000E+01 0.  1.
<mgrwt>
<rscale>  0 0.16753868E+03</rscale>
<asrwt>0</asrwt>
<pdfrwt beam="2">  1        5 0.51473049E-01 0.16754093E+03</pdfrwt>
<pdfrwt beam="1">  1       -5 0.12975598E-01 0.16754093E+03</pdfrwt>
<totfact> 0.13992386E+02</totfact>
</mgrwt>
</event>
<event>
 8    1  0.3542708E-007  0.1332185E+03  0.7546771E-02  0.1222757E+00
          5   -1    0    0  501    0  0.00000000000E+00  0.00000000000E+00  0.18771180943E+02  0.19350639111E+02  0.47000000000E+01 0. -1.
         -5   -1    0    0    0  501 -0.00000000000E+00 -0.00000000000E+00 -0.95842600705E+03  0.95843753108E+03  0.47000000000E+01 0. -1.
         25    2    1    2    0    0 -0.30424854817E+02 -0.34587075352E+02 -0.55327878959E+03  0.56909071436E+03  0.12499953837E+03 0.  0.
         25    2    1    2    0    0  0.30424854817E+02  0.34587075352E+02 -0.38637603652E+03  0.40869745583E+03  0.12500092494E+03 0.  0.
          5    1    3    3  502    0  0.43715949952E+02  0.28115756410E+01 -0.11843560027E+03  0.12636483153E+03  0.47000000000E+01 0. -1.
         -5    1    3    3    0  502 -0.74140804769E+02 -0.37398650993E+02 -0.43484318932E+03  0.44272588283E+03  0.47000000000E+01 0. -1.
          5    1    4    4  503    0 -0.37546142218E+02 -0.18210684502E+02 -0.79039387627E+02  0.89502271602E+02  0.47000000000E+01 0. -1.
         -5    1    4    4    0  503  0.67970997034E+02  0.52797759855E+02 -0.30733664889E+03  0.31919518423E+03  0.47000000000E+01 0. -1.
<mgrwt>
<rscale>  0 0.13321817E+03</rscale>
<asrwt>0</asrwt>
<pdfrwt beam="1">  1        5 0.29333349E-02 0.13321850E+03</pdfrwt>
<pdfrwt beam="2">  1       -5 0.14749558E+00 0.13321850E+03</pdfrwt>
<totfact> 0.13130985E+02</totfact>
</mgrwt>
</event>
<event>
 8    1  0.3542708E-007  0.1946862E+03  0.7546771E-02  0.1154302E+00
         -5   -1    0    0    0  501 -0.00000000000E+00  0.00000000000E+00  0.12611468424E+02  0.13458793996E+02  0.47000000000E+01 0.  1.
          5   -1    0    0  501    0  0.00000000000E+00 -0.00000000000E+00 -0.29249114871E+04  0.29249152633E+04  0.47000000000E+01 0.  1.
         25    2    1    2    0    0 -0.99004810442E+02  0.11169382673E+03 -0.13407771243E+04  0.13548380063E+04  0.12500105205E+03 0.  0.
         25    2    1    2    0    0  0.99004810442E+02 -0.11169382673E+03 -0.15715228945E+04  0.15835360510E+04  0.12499901432E+03 0.  0.
          5    1    4    4  502    0  0.54124427735E+02 -0.47865245530E+02 -0.26610368889E+03  0.27577853188E+03  0.47000000000E+01 0.  1.
         -5    1    4    4    0  502  0.44880382708E+02 -0.63828581202E+02 -0.13054192056E+04  0.13077575191E+04  0.47000000000E+01 0.  1.
          5    1    3    3  503    0 -0.72388061754E+02  0.11642815753E+03 -0.12886402925E+04  0.12959210781E+04  0.47000000000E+01 0.  1.
         -5    1    3    3    0  503 -0.26616748688E+02 -0.47343307998E+01 -0.52136831778E+02  0.58916928184E+02  0.47000000000E+01 0.  1.
<mgrwt>
<rscale>  0 0.19468590E+03</rscale>
<asrwt>0</asrwt>
<pdfrwt beam="2">  1        5 0.45005133E+00 0.19468623E+03</pdfrwt>
<pdfrwt beam="1">  1       -5 0.20056976E-02 0.19468623E+03</pdfrwt>
<totfact> 0.23079047E+00</totfact>
</mgrwt>
</event>
<event>
 8    1  0.3542708E-007  0.1280327E+03  0.7546771E-02  0.1230407E+00
         -5   -1    0    0    0  501 -0.00000000000E+00  0.00000000000E+00  0.19387153359E+03  0.19392849594E+03  0.47000000000E+01 0.  1.
          5   -1    0    0  501    0  0.00000000000E+00 -0.00000000000E+00 -0.85038018688E+02  0.85167802733E+02  0.47000000000E+01 0.  1.
         25    2    1    2    0    0  0.25764308367E+02 -0.10209689818E+02  0.42476358428E+02  0.13488934897E+03  0.12499143206E+03 0.  0.
         25    2    1    2    0    0 -0.25764308367E+02  0.10209689818E+02  0.66357156476E+02  0.14420694970E+03  0.12499733907E+03 0.  0.
          5    1    3    3  502    0  0.21832301546E+02 -0.50669625130E+02 -0.21120890379E+02  0.59264173933E+02  0.47000000000E+01 0. -1.
         -5    1    3    3    0  502  0.39320068208E+01  0.40459935312E+02  0.63597248807E+02  0.75625175034E+02  0.47000000000E+01 0. -1.
          5    1    4    4  503    0 -0.70832453192E+02  0.27171583256E+02  0.23468565456E+02  0.79551209460E+02  0.47000000000E+01 0. -1.
         -5    1    4    4    0  503  0.45068144825E+02 -0.16961893438E+02  0.42888591020E+02  0.64655740245E+02  0.47000000000E+01 0. -1.
<mgrwt>
<rscale>  0 0.12803126E+03</rscale>
<asrwt>0</asrwt>
<pdfrwt beam="2">  1        5 0.13097137E-01 0.12803270E+03</pdfrwt>
<pdfrwt beam="1">  1       -5 0.29840755E-01 0.12803270E+03</pdfrwt>
<totfact> 0.38330516E+02</totfact>
</mgrwt>
</event>
<event>
 8    1  0.3542708E-007  0.1303933E+03  0.7546771E-02  0.1226875E+00
         -5   -1    0    0    0  501 -0.00000000000E+00  0.00000000000E+00  0.71983018646E+02  0.72136294425E+02  0.47000000000E+01 0.  1.
          5   -1    0    0  501    0  0.00000000000E+00 -0.00000000000E+00 -0.25467040000E+03  0.25471376609E+03  0.47000000000E+01 0.  1.
         25    2    1    2    0    0 -0.12038092812E+02  0.35101275572E+02 -0.46835846441E+02  0.13854962868E+03  0.12500155148E+03 0.  0.
         25    2    1    2    0    0  0.12038092812E+02 -0.35101275572E+02 -0.13585153492E+03  0.18830043183E+03  0.12499759144E+03 0.  0.
          5    1    3    3  502    0  0.44593547758E+02 -0.21711008138E+02 -0.14045811812E+02  0.51762217934E+02  0.47000000000E+01 0. -1.
         -5    1    3    3    0  502 -0.56631640570E+02  0.56812283709E+02 -0.32790034629E+02  0.86787410751E+02  0.47000000000E+01 0. -1.
          5    1    4    4  503    0 -0.54478953913E+02 -0.10554814429E+02 -0.82085657573E+02  0.99194282630E+02  0.47000000000E+01 0.  1.
         -5    1    4    4    0  503  0.66517046726E+02 -0.24546461143E+02 -0.53765877342E+02  0.89106149205E+02  0.47000000000E+01 0.  1.
<mgrwt>
<rscale>  0 0.13039231E+03</rscale>
<asrwt>0</asrwt>
<pdfrwt beam="2">  1        5 0.39195187E-01 0.13039326E+03</pdfrwt>
<pdfrwt beam="1">  1       -5 0.11089437E-01 0.13039326E+03</pdfrwt>
<totfact> 0.30064086E+02</totfact>
</mgrwt>
</event>
<event>
 8    1  0.3542708E-007  0.1253104E+03  0.7546771E-02  0.1234587E+00
         -5   -1    0    0    0  501 -0.00000000000E+00  0.00000000000E+00  0.48173596333E+03  0.48175889028E+03  0.47000000000E+01 0.  1.
          5   -1    0    0  501    0  0.00000000000E+00 -0.00000000000E+00 -0.32410105029E+02  0.32749120721E+02  0.47000000000E+01 0.  1.
         25    2    1    2    0    0  0.76449113257E+01 -0.43205407119E+01  0.22054949788E+03  0.25366072400E+03  0.12499828056E+03 0.  0.
         25    2    1    2    0    0 -0.76449113257E+01  0.43205407119E+01  0.22877636042E+03  0.26084728700E+03  0.12500228921E+03 0.  0.
          5    1    3    3  502    0 -0.38816545050E+02 -0.13544409093E+02  0.17196014982E+02  0.44810357269E+02  0.47000000000E+01 0. -1.
         -5    1    3    3    0  502  0.46461456376E+02  0.92238683814E+01  0.20335348290E+03  0.20885036673E+03  0.47000000000E+01 0. -1.
          5    1    4    4  503    0 -0.27828232816E+02  0.58098906411E+02  0.91859267942E+02  0.11229473975E+03  0.47000000000E+01 0. -1.
         -5    1    4    4    0  503  0.20183321490E+02 -0.53778365699E+02  0.13691709247E+03  0.14855254725E+03  0.47000000000E+01 0. -1.
<mgrwt>
<rscale>  0 0.12530935E+03</rscale>
<asrwt>0</asrwt>
<pdfrwt beam="2">  1        5 0.50140120E-02 0.12531035E+03</pdfrwt>
<pdfrwt beam="1">  1       -5 0.74141063E-01 0.12531035E+03</pdfrwt>
<totfact> 0.29179654E+02</totfact>
</mgrwt>
</event>
<event>
 8    1  0.3542708E-007  0.2185383E+03  0.7546771E-02  0.1134982E+00
         -5   -1    0    0    0  501 -0.00000000000E+00  0.00000000000E+00  0.73242236935E+02  0.73392882974E+02  0.47000000000E+01 0. -1.
          5   -1    0    0  501    0  0.00000000000E+00 -0.00000000000E+00 -0.65379792425E+03  0.65381481763E+03  0.47000000000E+01 0. -1.
         25    2    1    2    0    0 -0.43643806605E+02 -0.17383785931E+03 -0.31329768893E+03  0.38197470480E+03  0.12499940013E+03 0.  0.
         25    2    1    2    0    0  0.43643806605E+02  0.17383785931E+03 -0.26725799838E+03  0.34523299580E+03  0.12503839613E+03 0.  0.
          5    1    3    3  502    0  0.19317760168E+02 -0.11286337312E+02  0.62418543226E+00  0.22869999460E+02  0.47000000000E+01 0.  1.
         -5    1    3    3    0  502 -0.62961566774E+02 -0.16255152200E+03 -0.31392187437E+03  0.35910470534E+03  0.47000000000E+01 0.  1.
          5    1    4    4  503    0 -0.15798404891E+02  0.11134183969E+03 -0.21914253046E+03  0.24635773485E+03  0.47000000000E+01 0.  1.
         -5    1    4    4    0  503  0.59442211496E+02  0.62496019619E+02 -0.48115467924E+02  0.98875260957E+02  0.47000000000E+01 0.  1.
<mgrwt>
<rscale>  0 0.21853271E+03</rscale>
<asrwt>0</asrwt>
<pdfrwt beam="2">  1        5 0.10059718E+00 0.21853829E+03</pdfrwt>
<pdfrwt beam="1">  1       -5 0.11280925E-01 0.21853829E+03</pdfrwt>
<totfact> 0.41759651E+01</totfact>
</mgrwt>
</event>
<event>
 8    1  0.3542708E-007  0.1341298E+03  0.7546771E-02  0.1221474E+00
          5   -1    0    0  501    0  0.00000000000E+00  0.00000000000E+00  0.29032063206E+03  0.29035867371E+03  0.47000000000E+01 0.  1.
         -5   -1    0    0    0  501 -0.00000000000E+00 -0.00000000000E+00 -0.64543204953E+02  0.64714104379E+02  0.47000000000E+01 0.  1.
         25    2    1    2    0    0  0.18334872411E+02 -0.44917773362E+02  0.76439851180E+02  0.15438218239E+03  0.12504812466E+03 0.  0.
         25    2    1    2    0    0 -0.18334872411E+02  0.44917773362E+02  0.14933757592E+03  0.20069059569E+03  0.12498491792E+03 0.  0.
          5    1    3    3  502    0 -0.24682807403E+01 -0.66320906780E+02  0.97151403465E+02  0.11774990565E+03  0.47000000000E+01 0. -1.
         -5    1    3    3    0  502  0.20803153151E+02  0.21403133418E+02 -0.20711552285E+02  0.36632276740E+02  0.47000000000E+01 0. -1.
          5    1    4    4  503    0 -0.25915325879E+02 -0.40429217420E+02  0.54771553500E+02  0.72994101196E+02  0.47000000000E+01 0. -1.
         -5    1    4    4    0  503  0.75804534677E+01  0.85346990782E+02  0.94566022423E+02  0.12769649450E+03  0.47000000000E+01 0. -1.
<mgrwt>
<rscale>  0 0.13411508E+03</rscale>
<asrwt>0</asrwt>
<pdfrwt beam="1">  1        5 0.44680784E-01 0.13412982E+03</pdfrwt>
<pdfrwt beam="2">  1       -5 0.99457963E-02 0.13412982E+03</pdfrwt>
<totfact> 0.28059840E+02</totfact>
</mgrwt>
</event>
<event>
 8    1  0.3542708E-007  0.1361418E+03  0.7546771E-02  0.1218621E+00
          5   -1    0    0  501    0  0.00000000000E+00  0.00000000000E+00  0.15309942367E+03  0.15317154934E+03  0.47000000000E+01 0.  1.
         -5   -1    0    0    0  501 -0.00000000000E+00 -0.00000000000E+00 -0.12852517288E+03  0.12861108064E+03  0.47000000000E+01 0.  1.
         25    2    1    2    0    0 -0.42994520926E+02 -0.32593612010E+02 -0.21994690019E+02  0.13789639472E+03  0.12498310651E+03 0.  0.
         25    2    1    2    0    0  0.42994520926E+02  0.32593612010E+02  0.46568940810E+02  0.14388623526E+03  0.12499484020E+03 0.  0.
          5    1    4    4  502    0 -0.28091528091E+02 -0.28250339453E+02  0.26485180399E+02  0.48070473374E+02  0.47000000000E+01 0.  1.
         -5    1    4    4    0  502  0.71086049017E+02  0.60843951462E+02  0.20083760411E+02  0.95815761891E+02  0.47000000000E+01 0.  1.
          5    1    3    3  503    0 -0.57089484540E+01 -0.60647989908E+02  0.29840317874E+02  0.67994892038E+02  0.47000000000E+01 0.  1.
         -5    1    3    3    0  503 -0.37285572472E+02  0.28054377899E+02 -0.51835007893E+02  0.69901502682E+02  0.47000000000E+01 0.  1.
<mgrwt>
<rscale>  0 0.13613908E+03</rscale>
<asrwt>0</asrwt>
<pdfrwt beam="1">  1        5 0.23565914E-01 0.13614177E+03</pdfrwt>
<pdfrwt beam="2">  1       -5 0.19785260E-01 0.13614177E+03</pdfrwt>
<totfact> 0.29131111E+02</totfact>
</mgrwt>
</event>
<event>
 8    1  0.3542708E-007  0.1400502E+03  0.7546771E-02  0.1213262E+00
          5   -1    0    0  501    0  0.00000000000E+00  0.00000000000E+00  0.33727743906E+02  0.34053644577E+02  0.47000000000E+01 0.  1.
         -5   -1    0    0    0  501 -0.00000000000E+00 -0.00000000000E+00 -0.79522074981E+03  0.79523463891E+03  0.47000000000E+01 0.  1.
         25    2    1    2    0    0  0.14797043164E+02  0.61396896840E+02 -0.59721073176E+03  0.61341165469E+03  0.12499867418E+03 0.  0.
         25    2    1    2    0    0 -0.14797043164E+02 -0.61396896840E+02 -0.16428227414E+03  0.21587662880E+03  0.12500208733E+03 0.  0.
          5    1    4    4  502    0 -0.58747050117E+02  0.44835384135E+01 -0.86565705406E+02  0.10481903151E+03  0.47000000000E+01 0. -1.
         -5    1    4    4    0  502  0.43950006952E+02 -0.65880435254E+02 -0.77716568735E+02  0.11105759729E+03  0.47000000000E+01 0. -1.
          5    1    3    3  503    0  0.11153762672E+02  0.66061068669E+02 -0.60114932193E+03  0.60488930266E+03  0.47000000000E+01 0. -1.
         -5    1    3    3    0  503  0.36432804923E+01 -0.46641718291E+01  0.39385901671E+01  0.85223520287E+01  0.47000000000E+01 0. -1.
<mgrwt>
<rscale>  0 0.14004942E+03</rscale>
<asrwt>0</asrwt>
<pdfrwt beam="1">  1        5 0.52150220E-02 0.14005018E+03</pdfrwt>
<pdfrwt beam="2">  1       -5 0.12236778E+00 0.14005018E+03</pdfrwt>
<totfact> 0.84973667E+01</totfact>
</mgrwt>
</event>
<event>
 8    1  0.3542708E-007  0.1476884E+03  0.7546771E-02  0.1203345E+00
         -5   -1    0    0    0  501 -0.00000000000E+00  0.00000000000E+00  0.55283185732E+02  0.55482615518E+02  0.47000000000E+01 0.  1.
          5   -1    0    0  501    0  0.00000000000E+00 -0.00000000000E+00 -0.39676897323E+03  0.39679680961E+03  0.47000000000E+01 0.  1.
         25    2    1    2    0    0  0.63779715377E+02  0.46016161773E+02 -0.19093853759E+03  0.24139053561E+03  0.12500610508E+03 0.  0.
         25    2    1    2    0    0 -0.63779715377E+02 -0.46016161773E+02 -0.15054724991E+03  0.21088888952E+03  0.12499724009E+03 0.  0.
          5    1    3    3  502    0  0.31967409540E+02  0.88514787156E+02 -0.11639201396E+03  0.14975304248E+03  0.47000000000E+01 0.  1.
         -5    1    3    3    0  502  0.31812305837E+02 -0.42498625383E+02 -0.74546523627E+02  0.91637493129E+02  0.47000000000E+01 0.  1.
          5    1    4    4  503    0 -0.50313191260E+02  0.30345228396E+02 -0.26731697869E+02  0.64721895616E+02  0.47000000000E+01 0.  1.
         -5    1    4    4    0  503 -0.13466524117E+02 -0.76361390168E+02 -0.12381555204E+03  0.14616699391E+03  0.47000000000E+01 0.  1.
<mgrwt>
<rscale>  0 0.14768653E+03</rscale>
<asrwt>0</asrwt>
<pdfrwt beam="2">  1        5 0.61058861E-01 0.14768841E+03</pdfrwt>
<pdfrwt beam="1">  1       -5 0.85225878E-02 0.14768841E+03</pdfrwt>
<totfact> 0.19434118E+02</totfact>
</mgrwt>
</event>
<event>
 8    1  0.3542708E-007  0.1286463E+03  0.7546771E-02  0.1229480E+00
         -5   -1    0    0    0  501 -0.00000000000E+00  0.00000000000E+00  0.24790436916E+02  0.25232038413E+02  0.47000000000E+01 0.  1.
          5   -1    0    0  501    0  0.00000000000E+00 -0.00000000000E+00 -0.83232826930E+03  0.83234153920E+03  0.47000000000E+01 0.  1.
         25    2    1    2    0    0  0.13048381350E+02 -0.27464900867E+02 -0.20940343172E+03  0.24576099174E+03  0.12499634719E+03 0.  0.
         25    2    1    2    0    0 -0.13048381350E+02  0.27464900867E+02 -0.59813440066E+03  0.61181258587E+03  0.12500119172E+03 0.  0.
          5    1    4    4  502    0 -0.40265555175E+02  0.64946661401E+02 -0.27955891438E+03  0.28985282536E+03  0.47000000000E+01 0.  1.
         -5    1    4    4    0  502  0.27217173825E+02 -0.37481760534E+02 -0.31857548629E+03  0.32195976051E+03  0.47000000000E+01 0.  1.
          5    1    3    3  503    0 -0.30821855484E+02 -0.60937399157E+02 -0.81825656905E+02  0.10668121446E+03  0.47000000000E+01 0. -1.
         -5    1    3    3    0  503  0.43870236834E+02  0.33472498290E+02 -0.12757777481E+03  0.13907977728E+03  0.47000000000E+01 0. -1.
<mgrwt>
<rscale>  0 0.12864516E+03</rscale>
<asrwt>0</asrwt>
<pdfrwt beam="2">  1        5 0.12808547E+00 0.12864633E+03</pdfrwt>
<pdfrwt beam="1">  1       -5 0.38489041E-02 0.12864633E+03</pdfrwt>
<totfact> 0.12132770E+02</totfact>
</mgrwt>
</event>
<event>
 8    1  0.3542708E-007  0.1313761E+03  0.7546771E-02  0.1225431E+00
         -5   -1    0    0    0  501 -0.00000000000E+00  0.00000000000E+00  0.73829517891E+02  0.73978968038E+02  0.47000000000E+01 0.  1.
          5   -1    0    0  501    0  0.00000000000E+00 -0.00000000000E+00 -0.24973519960E+03  0.24977942253E+03  0.47000000000E+01 0.  1.
         25    2    1    2    0    0  0.89882098006E+00 -0.40406263190E+02 -0.46509136512E+02  0.13935897585E+03  0.12499740152E+03 0.  0.
         25    2    1    2    0    0 -0.89882098006E+00  0.40406263190E+02 -0.12939654520E+03  0.18439941472E+03  0.12500481693E+03 0.  0.
          5    1    3    3  502    0  0.56484186874E+02 -0.48989362604E+02 -0.27464230134E+02  0.79792198566E+02  0.47000000000E+01 0. -1.
         -5    1    3    3    0  502 -0.55585365894E+02  0.85830994144E+01 -0.19044906378E+02  0.59566777285E+02  0.47000000000E+01 0. -1.
          5    1    4    4  503    0 -0.22769813276E+02  0.63090914472E+02 -0.13613547941E+03  0.15183506393E+03  0.47000000000E+01 0.  1.
         -5    1    4    4    0  503  0.21870992296E+02 -0.22684651282E+02  0.67389342096E+01  0.32564350786E+02  0.47000000000E+01 0.  1.
<mgrwt>
<rscale>  0 0.13137433E+03</rscale>
<asrwt>0</asrwt>
<pdfrwt beam="2">  1        5 0.38435697E-01 0.13137609E+03</pdfrwt>
<pdfrwt beam="1">  1       -5 0.11373285E-01 0.13137609E+03</pdfrwt>
<totfact> 0.30004609E+02</totfact>
</mgrwt>
</event>
<event>
 8    1  0.3542708E-007  0.1286580E+03  0.7546771E-02  0.1229466E+00
          5   -1    0    0  501    0  0.00000000000E+00  0.00000000000E+00  0.22329824504E+03  0.22334770256E+03  0.47000000000E+01 0. -1.
         -5   -1    0    0    0  501 -0.00000000000E+00 -0.00000000000E+00 -0.47763653726E+03  0.47765966098E+03  0.47000000000E+01 0. -1.
         25    2    1    2    0    0  0.15978616090E+02  0.25954522345E+02 -0.44933702177E+03  0.46738934303E+03  0.12498034023E+03 0.  0.
         25    2    1    2    0    0 -0.15978616090E+02 -0.25954522345E+02  0.19499872955E+03  0.23361802051E+03  0.12499568624E+03 0.  0.
          5    1    4    4  502    0  0.20732654629E+02  0.41853198823E+02  0.45683118866E+02  0.65502447046E+02  0.47000000000E+01 0.  1.
         -5    1    4    4    0  502 -0.36711270719E+02 -0.67807721169E+02  0.14931561068E+03  0.16811557346E+03  0.47000000000E+01 0.  1.
          5    1    3    3  503    0 -0.34208246175E+02 -0.35122919283E+02 -0.15985337012E+03  0.16726928440E+03  0.47000000000E+01 0.  1.
         -5    1    3    3    0  503  0.50186862265E+02  0.61077441628E+02 -0.28948365165E+03  0.30012005863E+03  0.47000000000E+01 0.  1.
<mgrwt>
<rscale>  0 0.12865425E+03</rscale>
<asrwt>0</asrwt>
<pdfrwt beam="1">  1        5 0.34359159E-01 0.12865798E+03</pdfrwt>
<pdfrwt beam="2">  1       -5 0.73488127E-01 0.12865798E+03</pdfrwt>
<totfact> 0.94207139E+00</totfact>
</mgrwt>
</event>
<event>
 8    1  0.3542708E-007  0.1261324E+03  0.7546771E-02  0.1233317E+00
         -5   -1    0    0    0  501 -0.00000000000E+00  0.00000000000E+00  0.14401099939E+04  0.14401176635E+04  0.47000000000E+01 0.  1.
          5   -1    0    0  501    0  0.00000000000E+00 -0.00000000000E+00 -0.12115828432E+02  0.12995510709E+02  0.47000000000E+01 0.  1.
         25    2    1    2    0    0  0.42434015198E+00 -0.16750998054E+02  0.96655949211E+03  0.97475464854E+03  0.12501438748E+03 0.  0.
         25    2    1    2    0    0 -0.42434015198E+00  0.16750998054E+02  0.46143467340E+03  0.47835852563E+03  0.12499658088E+03 0.  0.
          5    1    4    4  502    0 -0.18107151783E+02  0.59331144014E+01  0.45599609690E+03  0.45641823055E+03  0.47000000000E+01 0. -1.
         -5    1    4    4    0  502  0.17682811631E+02  0.10817883652E+02  0.54385764964E+01  0.21940295080E+02  0.47000000000E+01 0. -1.
          5    1    3    3  503    0  0.64064341736E+01  0.34895073269E+01  0.75798753178E+00  0.87111196355E+01  0.47000000000E+01 0. -1.
         -5    1    3    3    0  503 -0.59820940216E+01 -0.20240505380E+02  0.96580150457E+03  0.96604352891E+03  0.47000000000E+01 0. -1.
<mgrwt>
<rscale>  0 0.12612795E+03</rscale>
<asrwt>0</asrwt>
<pdfrwt beam="2">  1        5 0.19322323E-02 0.12613236E+03</pdfrwt>
<pdfrwt beam="1">  1       -5 0.22162354E+00 0.12613236E+03</pdfrwt>
<totfact> 0.75101418E+01</totfact>
</mgrwt>
</event>
<event>
 8    1  0.3542708E-007  0.1437076E+03  0.7546771E-02  0.1208426E+00
          5   -1    0    0  501    0  0.00000000000E+00  0.00000000000E+00  0.64794564876E+03  0.64796269471E+03  0.47000000000E+01 0.  1.
         -5   -1    0    0    0  501 -0.00000000000E+00 -0.00000000000E+00 -0.36635622822E+02  0.36935874967E+02  0.47000000000E+01 0.  1.
         25    2    1    2    0    0  0.69030407546E+02 -0.16164600894E+02  0.18031084944E+03  0.23057250050E+03  0.12500073629E+03 0.  0.
         25    2    1    2    0    0 -0.69030407546E+02  0.16164600894E+02  0.43099917649E+03  0.45432606918E+03  0.12500158204E+03 0.  0.
          5    1    3    3  502    0 -0.30250979645E+02  0.62011771281E+01  0.11273076098E+02  0.33207658936E+02  0.47000000000E+01 0. -1.
         -5    1    3    3    0  502  0.99281387192E+02 -0.22365778022E+02  0.16903777334E+03  0.19736484157E+03  0.47000000000E+01 0. -1.
          5    1    4    4  503    0 -0.32609786600E+02  0.91056351584E+01  0.41003166426E+03  0.41145396640E+03  0.47000000000E+01 0. -1.
         -5    1    4    4    0  503 -0.36420620946E+02  0.70589657359E+01  0.20967512234E+02  0.42872102778E+02  0.47000000000E+01 0. -1.
<mgrwt>
<rscale>  0 0.14370746E+03</rscale>
<asrwt>0</asrwt>
<pdfrwt beam="1">  1        5 0.99708354E-01 0.14370764E+03</pdfrwt>
<pdfrwt beam="2">  1       -5 0.56606572E-02 0.14370764E+03</pdfrwt>
<totfact> 0.12451144E+02</totfact>
</mgrwt>
</event>
<event>
 8    1  0.3542708E-007  0.1667666E+03  0.7546771E-02  0.1181264E+00
          5   -1    0    0  501    0  0.00000000000E+00  0.00000000000E+00  0.77236350652E+03  0.77237780665E+03  0.47000000000E+01 0.  1.
         -5   -1    0    0    0  501 -0.00000000000E+00 -0.00000000000E+00 -0.37908849239E+02  0.38199094892E+02  0.47000000000E+01 0.  1.
         25    2    1    2    0    0 -0.38585804286E+02  0.10342522559E+03  0.27290572837E+03  0.31982593636E+03  0.12500180562E+03 0.  0.
         25    2    1    2    0    0  0.38585804286E+02 -0.10342522559E+03  0.46154892891E+03  0.49075096518E+03  0.12499381772E+03 0.  0.
          5    1    4    4  502    0  0.51869827437E+02 -0.90170309208E+02  0.45966702973E+03  0.47131415413E+03  0.47000000000E+01 0.  1.
         -5    1    4    4    0  502 -0.13284023151E+02 -0.13254916383E+02  0.18818991803E+01  0.19436811053E+02  0.47000000000E+01 0.  1.
          5    1    3    3  503    0 -0.71872923723E+02  0.91736163456E+02  0.13990250051E+03  0.18214291229E+03  0.47000000000E+01 0. -1.
         -5    1    3    3    0  503  0.33287119437E+02  0.11689062135E+02  0.13300322786E+03  0.13768302406E+03  0.47000000000E+01 0. -1.
<mgrwt>
<rscale>  0 0.16676509E+03</rscale>
<asrwt>0</asrwt>
<pdfrwt beam="1">  1        5 0.11884858E+00 0.16676658E+03</pdfrwt>
<pdfrwt beam="2">  1       -5 0.58555573E-02 0.16676658E+03</pdfrwt>
<totfact> 0.79482909E+01</totfact>
</mgrwt>
</event>
<event>
 8    1  0.3542708E-007  0.1567289E+03  0.7546771E-02  0.1192441E+00
          5   -1    0    0  501    0  0.00000000000E+00  0.00000000000E+00  0.17681453746E+03  0.17687699301E+03  0.47000000000E+01 0. -1.
         -5   -1    0    0    0  501 -0.00000000000E+00 -0.00000000000E+00 -0.25923010655E+03  0.25927270998E+03  0.47000000000E+01 0. -1.
         25    2    1    2    0    0 -0.79023605241E+02 -0.51907566432E+02 -0.18981408773E+03  0.24615713011E+03  0.12499927664E+03 0.  0.
         25    2    1    2    0    0  0.79023605241E+02  0.51907566432E+02  0.10739851864E+03  0.18999257289E+03  0.12499444111E+03 0.  0.
          5    1    4    4  502    0  0.42227686452E+02 -0.26103640455E+02 -0.28330974069E+01  0.49946911706E+02  0.47000000000E+01 0. -1.
         -5    1    4    4    0  502  0.36795918789E+02  0.78011206888E+02  0.11023161604E+03  0.14004566118E+03  0.47000000000E+01 0. -1.
          5    1    3    3  503    0 -0.57417941818E+02 -0.90213572286E+02 -0.16112131847E+03  0.19343597890E+03  0.47000000000E+01 0.  1.
         -5    1    3    3    0  503 -0.21605663423E+02  0.38306005854E+02 -0.28692769261E+02  0.52721151205E+02  0.47000000000E+01 0.  1.
<mgrwt>
<rscale>  0 0.15672793E+03</rscale>
<asrwt>0</asrwt>
<pdfrwt beam="1">  1        5 0.27210318E-01 0.15672889E+03</pdfrwt>
<pdfrwt beam="2">  1       -5 0.39889637E-01 0.15672889E+03</pdfrwt>
<totfact> 0.58926450E+01</totfact>
</mgrwt>
</event>
<event>
 8    1  0.3542708E-007  0.1674814E+03  0.7546771E-02  0.1180501E+00
         -5   -1    0    0    0  501 -0.00000000000E+00  0.00000000000E+00  0.40108559359E+03  0.40111313041E+03  0.47000000000E+01 0.  1.
          5   -1    0    0  501    0  0.00000000000E+00 -0.00000000000E+00 -0.71314692645E+02  0.71469401754E+02  0.47000000000E+01 0.  1.
         25    2    1    2    0    0 -0.43200716634E+02  0.10275618281E+03  0.19898851522E+03  0.26008932586E+03  0.12499957286E+03 0.  0.
         25    2    1    2    0    0  0.43200716634E+02 -0.10275618281E+03  0.13078238572E+03  0.21249320630E+03  0.12499678109E+03 0.  0.
          5    1    3    3  502    0  0.29920940478E+02  0.80534567090E+02  0.13604606633E+03  0.16097111958E+03  0.47000000000E+01 0.  1.
         -5    1    3    3    0  502 -0.73121657111E+02  0.22221615724E+02  0.62942448887E+02  0.99118206279E+02  0.47000000000E+01 0.  1.
          5    1    4    4  503    0  0.62327997406E+02 -0.12039566428E+03  0.12692318996E+03  0.18577266050E+03  0.47000000000E+01 0.  1.
         -5    1    4    4    0  503 -0.19127280772E+02  0.17639481463E+02  0.38591957612E+01  0.26720545802E+02  0.47000000000E+01 0.  1.
<mgrwt>
<rscale>  0 0.16748091E+03</rscale>
<asrwt>0</asrwt>
<pdfrwt beam="2">  1        5 0.10985510E-01 0.16748143E+03</pdfrwt>
<pdfrwt beam="1">  1       -5 0.61719495E-01 0.16748143E+03</pdfrwt>
<totfact> 0.12680032E+02</totfact>
</mgrwt>
</event>
<event>
 8    1  0.3542708E-007  0.1416367E+03  0.7546771E-02  0.1211145E+00
          5   -1    0    0  501    0  0.00000000000E+00  0.00000000000E+00  0.16908327190E+03  0.16914858213E+03  0.47000000000E+01 0.  1.
         -5   -1    0    0    0  501 -0.00000000000E+00 -0.00000000000E+00 -0.12006787916E+03  0.12015983358E+03  0.47000000000E+01 0.  1.
         25    2    1    2    0    0 -0.42483620007E+02  0.51289509455E+02  0.80293050578E+01  0.14186073375E+03  0.12499810515E+03 0.  0.
         25    2    1    2    0    0  0.42483620007E+02 -0.51289509455E+02  0.40986087680E+02  0.14744768196E+03  0.12500195112E+03 0.  0.
          5    1    4    4  502    0 -0.21266772663E+02 -0.14798787666E+02  0.64913298467E+02  0.70050739138E+02  0.47000000000E+01 0.  1.
         -5    1    4    4    0  502  0.63750392670E+02 -0.36490721789E+02 -0.23927210787E+02  0.77396942822E+02  0.47000000000E+01 0.  1.
          5    1    3    3  503    0 -0.83374896632E+02  0.38757986385E+02 -0.14653108277E+02  0.93222092227E+02  0.47000000000E+01 0.  1.
         -5    1    3    3    0  503  0.40891276625E+02  0.12531523070E+02  0.22682413335E+02  0.48638641523E+02  0.47000000000E+01 0.  1.
<mgrwt>
<rscale>  0 0.14163587E+03</rscale>
<asrwt>0</asrwt>
<pdfrwt beam="1">  1        5 0.26024908E-01 0.14163672E+03</pdfrwt>
<pdfrwt beam="2">  1       -5 0.18484079E-01 0.14163672E+03</pdfrwt>
<totfact> 0.27706448E+02</totfact>
</mgrwt>
</event>
<event>
 8    1  0.3542708E-007  0.1423559E+03  0.7546771E-02  0.1210194E+00
         -5   -1    0    0    0  501 -0.00000000000E+00  0.00000000000E+00  0.15783775330E+03  0.15790771471E+03  0.47000000000E+01 0. -1.
          5   -1    0    0  501    0  0.00000000000E+00 -0.00000000000E+00 -0.21034730144E+03  0.21039980329E+03  0.47000000000E+01 0. -1.
         25    2    1    2    0    0  0.51382721691E+02 -0.44722785136E+02  0.88753921355E+02  0.16775687953E+03  0.12499920189E+03 0.  0.
         25    2    1    2    0    0 -0.51382721691E+02  0.44722785136E+02 -0.14126346950E+03  0.20055063848E+03  0.12499951672E+03 0.  0.
          5    1    4    4  502    0  0.22206443953E+02 -0.28505665792E+02 -0.52346434895E+02  0.63780391826E+02  0.47000000000E+01 0. -1.
         -5    1    4    4    0  502 -0.73589165645E+02  0.73228450928E+02 -0.88917034606E+02  0.13677024665E+03  0.47000000000E+01 0. -1.
          5    1    3    3  503    0 -0.41498183757E+02 -0.99432929288E+01  0.23477986441E+02  0.48931321020E+02  0.47000000000E+01 0. -1.
         -5    1    3    3    0  503  0.92880905449E+02 -0.34779492207E+02  0.65275934915E+02  0.11882555851E+03  0.47000000000E+01 0. -1.
<mgrwt>
<rscale>  0 0.14235579E+03</rscale>
<asrwt>0</asrwt>
<pdfrwt beam="2">  1        5 0.32370544E-01 0.14235586E+03</pdfrwt>
<pdfrwt beam="1">  1       -5 0.24292152E-01 0.14235586E+03</pdfrwt>
<totfact> 0.10837912E+02</totfact>
</mgrwt>
</event>
<event>
 8    1  0.3542708E-007  0.1574803E+03  0.7546771E-02  0.1191572E+00
         -5   -1    0    0    0  501 -0.00000000000E+00  0.00000000000E+00  0.47941969705E+03  0.47944273477E+03  0.47000000000E+01 0.  1.
          5   -1    0    0  501    0  0.00000000000E+00 -0.00000000000E+00 -0.62892615859E+02  0.63067988153E+02  0.47000000000E+01 0.  1.
         25    2    1    2    0    0 -0.28769481534E+02 -0.91361068203E+02  0.32301685673E+03  0.35935995481E+03  0.12500063814E+03 0.  0.
         25    2    1    2    0    0  0.28769481534E+02  0.91361068203E+02  0.93510224459E+02  0.18315076811E+03  0.12500205570E+03 0.  0.
          5    1    4    4  502    0  0.18236507180E+02 -0.20427269681E+01  0.86751019883E+02  0.88795114609E+02  0.47000000000E+01 0.  1.
         -5    1    4    4    0  502  0.10532974354E+02  0.93403795171E+02  0.67592045754E+01  0.94355653501E+02  0.47000000000E+01 0.  1.
          5    1    3    3  503    0 -0.73090493045E+02 -0.64988533904E+02  0.25979470855E+03  0.27763485067E+03  0.47000000000E+01 0.  1.
         -5    1    3    3    0  503  0.44321011510E+02 -0.26372534299E+02  0.63222148180E+02  0.81725104142E+02  0.47000000000E+01 0.  1.
<mgrwt>
<rscale>  0 0.15748001E+03</rscale>
<asrwt>0</asrwt>
<pdfrwt beam="2">  1        5 0.96910497E-02 0.15748029E+03</pdfrwt>
<pdfrwt beam="1">  1       -5 0.73772137E-01 0.15748029E+03</pdfrwt>
<totfact> 0.10392750E+02</totfact>
</mgrwt>
</event>
<event>
 8    1  0.3542708E-007  0.1291220E+03  0.7546771E-02  0.1228765E+00
          5   -1    0    0  501    0  0.00000000000E+00  0.00000000000E+00  0.46752608123E+02  0.46988257749E+02  0.47000000000E+01 0. -1.
         -5   -1    0    0    0  501 -0.00000000000E+00 -0.00000000000E+00 -0.35705853659E+03  0.35708946855E+03  0.47000000000E+01 0. -1.
         25    2    1    2    0    0 -0.25657220890E+02  0.19716330792E+02 -0.16867622498E+03  0.21242447424E+03  0.12500184679E+03 0.  0.
         25    2    1    2    0    0  0.25657220890E+02 -0.19716330792E+02 -0.14162970349E+03  0.19165325206E+03  0.12499987772E+03 0.  0.
          5    1    4    4  502    0  0.39084617920E+02 -0.29027590653E+02 -0.15959274078E+03  0.16691956532E+03  0.47000000000E+01 0. -1.
         -5    1    4    4    0  502 -0.13427397030E+02  0.93112598618E+01  0.17963037288E+02  0.24733686742E+02  0.47000000000E+01 0. -1.
          5    1    3    3  503    0 -0.42150864555E+02  0.55715432321E+02 -0.46877490182E+02  0.84264428244E+02  0.47000000000E+01 0.  1.
         -5    1    3    3    0  503  0.16493643665E+02 -0.35999101530E+02 -0.12179873479E+03  0.12816004600E+03  0.47000000000E+01 0.  1.
<mgrwt>
<rscale>  0 0.12912151E+03</rscale>
<asrwt>0</asrwt>
<pdfrwt beam="1">  1        5 0.72132154E-02 0.12912199E+03</pdfrwt>
<pdfrwt beam="2">  1       -5 0.54952587E-01 0.12912199E+03</pdfrwt>
<totfact> 0.31062861E+02</totfact>
</mgrwt>
</event>
<event>
 8    1  0.3542708E-007  0.1431041E+03  0.7546771E-02  0.1209214E+00
         -5   -1    0    0    0  501 -0.00000000000E+00  0.00000000000E+00  0.26064323812E+03  0.26068561061E+03  0.47000000000E+01 0.  1.
          5   -1    0    0  501    0  0.00000000000E+00 -0.00000000000E+00 -0.81142584629E+02  0.81278589064E+02  0.47000000000E+01 0.  1.
         25    2    1    2    0    0  0.26735035751E+02 -0.64333064447E+02  0.12087177657E+03  0.18731580000E+03  0.12499486886E+03 0.  0.
         25    2    1    2    0    0 -0.26735035751E+02  0.64333064447E+02  0.58628876923E+02  0.15464839967E+03  0.12500110797E+03 0.  0.
          5    1    3    3  502    0  0.56390089916E+02 -0.36548823618E+02  0.12907277150E+03  0.14559371240E+03  0.47000000000E+01 0.  1.
         -5    1    3    3    0  502 -0.29655054165E+02 -0.27784240829E+02 -0.82009949271E+01  0.41722087601E+02  0.47000000000E+01 0.  1.
          5    1    4    4  503    0  0.13743817804E+01  0.18998704572E+02 -0.38797338310E+02  0.43476006723E+02  0.47000000000E+01 0. -1.
         -5    1    4    4    0  503 -0.28109417531E+02  0.45334359874E+02  0.97426215233E+02  0.11117239295E+03  0.47000000000E+01 0. -1.
<mgrwt>
<rscale>  0 0.14310273E+03</rscale>
<asrwt>0</asrwt>
<pdfrwt beam="2">  1        5 0.12497196E-01 0.14310410E+03</pdfrwt>
<pdfrwt beam="1">  1       -5 0.40112682E-01 0.14310410E+03</pdfrwt>
<totfact> 0.23965556E+02</totfact>
</mgrwt>
</event>
<event>
 8    1  0.3542708E-007  0.1526703E+03  0.7546771E-02  0.1197231E+00
         -5   -1    0    0    0  501 -0.00000000000E+00  0.00000000000E+00  0.92730706484E+02  0.92849738422E+02  0.47000000000E+01 0. -1.
          5   -1    0    0  501    0  0.00000000000E+00 -0.00000000000E+00 -0.27632430017E+03  0.27636426843E+03  0.47000000000E+01 0. -1.
         25    2    1    2    0    0 -0.53784430626E+02  0.69215727010E+02 -0.35974232759E+02  0.15684712241E+03  0.12499316998E+03 0.  0.
         25    2    1    2    0    0  0.53784430626E+02 -0.69215727010E+02 -0.14761936092E+03  0.21236688444E+03  0.12499854417E+03 0.  0.
          5    1    3    3  502    0 -0.74539638442E+02  0.10696853024E+02  0.14329454183E+02  0.76798461058E+02  0.47000000000E+01 0.  1.
         -5    1    3    3    0  502  0.20755207816E+02  0.58518873986E+02 -0.50303686941E+02  0.80048661350E+02  0.47000000000E+01 0.  1.
          5    1    4    4  503    0  0.15767292934E+02 -0.10114812839E+03 -0.10566222768E+03  0.14719425179E+03  0.47000000000E+01 0.  1.
         -5    1    4    4    0  503  0.38017137692E+02  0.31932401378E+02 -0.41957133242E+02  0.65172632646E+02  0.47000000000E+01 0.  1.
<mgrwt>
<rscale>  0 0.15266919E+03</rscale>
<asrwt>0</asrwt>
<pdfrwt beam="2">  1        5 0.42523661E-01 0.15267029E+03</pdfrwt>
<pdfrwt beam="1">  1       -5 0.14278493E-01 0.15267029E+03</pdfrwt>
<totfact> 0.17098739E+02</totfact>
</mgrwt>
</event>
<event>
 8    1  0.3542708E-007  0.1999260E+03  0.7546771E-02  0.1149802E+00
          5   -1    0    0  501    0  0.00000000000E+00  0.00000000000E+00  0.19050512917E+03  0.19056309779E+03  0.47000000000E+01 0. -1.
         -5   -1    0    0    0  501 -0.00000000000E+00 -0.00000000000E+00 -0.21805148884E+03  0.21810213613E+03  0.47000000000E+01 0. -1.
         25    2    1    2    0    0 -0.24059762182E+01 -0.15601008408E+03 -0.53761306831E+02  0.20702820167E+03  0.12500185247E+03 0.  0.
         25    2    1    2    0    0  0.24059762182E+01  0.15601008408E+03  0.26214947158E+02  0.20163703225E+03  0.12500133705E+03 0.  0.
          5    1    4    4  502    0  0.19777074211E+02  0.95412801398E+02 -0.44122561274E+02  0.10706832280E+03  0.47000000000E+01 0.  1.
         -5    1    4    4    0  502 -0.17371097993E+02  0.60597282678E+02  0.70337508432E+02  0.94568709444E+02  0.47000000000E+01 0.  1.
          5    1    3    3  503    0 -0.51161361153E+02 -0.97353084461E+02 -0.67867858278E+02  0.12931838275E+03  0.47000000000E+01 0.  1.
         -5    1    3    3    0  503  0.48755384935E+02 -0.58656999615E+02  0.14106551446E+02  0.77709818927E+02  0.47000000000E+01 0.  1.
<mgrwt>
<rscale>  0 0.19992590E+03</rscale>
<asrwt>0</asrwt>
<pdfrwt beam="1">  1        5 0.29316836E-01 0.19992598E+03</pdfrwt>
<pdfrwt beam="2">  1       -5 0.33554738E-01 0.19992598E+03</pdfrwt>
<totfact> 0.77492969E+01</totfact>
</mgrwt>
</event>
<event>
 8    1  0.3542708E-007  0.1321594E+03  0.7546771E-02  0.1224289E+00
          5   -1    0    0  501    0  0.00000000000E+00  0.00000000000E+00  0.21505681684E+03  0.21510816922E+03  0.47000000000E+01 0. -1.
         -5   -1    0    0    0  501 -0.00000000000E+00 -0.00000000000E+00 -0.92991753633E+02  0.93110451850E+02  0.47000000000E+01 0. -1.
         25    2    1    2    0    0  0.34641287683E+02 -0.25313311671E+02  0.59376177184E+01  0.13229275746E+03  0.12500134324E+03 0.  0.
         25    2    1    2    0    0 -0.34641287683E+02  0.25313311671E+02  0.11612744548E+03  0.17592586361E+03  0.12499417319E+03 0.  0.
          5    1    4    4  502    0  0.24585035536E+02 -0.36780600136E+02  0.26642031748E+02  0.51856767874E+02  0.47000000000E+01 0. -1.
         -5    1    4    4    0  502 -0.59226323219E+02  0.62093911807E+02  0.89485413736E+02  0.12406909574E+03  0.47000000000E+01 0. -1.
          5    1    3    3  503    0  0.14908182742E+02  0.50124798081E+02 -0.74647124229E+01  0.53033585838E+02  0.47000000000E+01 0. -1.
         -5    1    3    3    0  503  0.19733104941E+02 -0.75438109752E+02  0.13402330141E+02  0.79259171625E+02  0.47000000000E+01 0. -1.
<mgrwt>
<rscale>  0 0.13215775E+03</rscale>
<asrwt>0</asrwt>
<pdfrwt beam="1">  1        5 0.33098744E-01 0.13215944E+03</pdfrwt>
<pdfrwt beam="2">  1       -5 0.14319505E-01 0.13215944E+03</pdfrwt>
<totfact> 0.26935941E+02</totfact>
</mgrwt>
</event>
<event>
 8    1  0.3542708E-007  0.2190177E+03  0.7546771E-02  0.1134618E+00
         -5   -1    0    0    0  501 -0.00000000000E+00  0.00000000000E+00  0.10284765485E+04  0.10284872877E+04  0.47000000000E+01 0. -1.
          5   -1    0    0  501    0  0.00000000000E+00 -0.00000000000E+00 -0.50175438897E+02  0.50395085758E+02  0.47000000000E+01 0. -1.
         25    2    1    2    0    0  0.13289364704E+03  0.12117576973E+03  0.63460992077E+03  0.67134081939E+03  0.12499782258E+03 0.  0.
         25    2    1    2    0    0 -0.13289364704E+03 -0.12117576973E+03  0.34369118888E+03  0.40754155404E+03  0.12498878495E+03 0.  0.
          5    1    3    3  502    0  0.12633433246E+03  0.13804476147E+03  0.61991059480E+03  0.64755536850E+03  0.47000000000E+01 0.  1.
         -5    1    3    3    0  502  0.65593145781E+01 -0.16868991741E+02  0.14699325967E+02  0.23785450888E+02  0.47000000000E+01 0.  1.
          5    1    4    4  503    0 -0.73650476360E+02 -0.10400264029E+03  0.11876819371E+03  0.17426679457E+03  0.47000000000E+01 0.  1.
         -5    1    4    4    0  503 -0.59243170683E+02 -0.17173129440E+02  0.22492299517E+03  0.23327475946E+03  0.47000000000E+01 0.  1.
<mgrwt>
<rscale>  0 0.21901639E+03</rscale>
<asrwt>0</asrwt>
<pdfrwt beam="2">  1        5 0.77370212E-02 0.21901768E+03</pdfrwt>
<pdfrwt beam="1">  1       -5 0.15824486E+00 0.21901768E+03</pdfrwt>
<totfact> 0.24631391E+01</totfact>
</mgrwt>
</event>
<event>
 8    1  0.3542708E-007  0.1372130E+03  0.7546771E-02  0.1217133E+00
          5   -1    0    0  501    0  0.00000000000E+00  0.00000000000E+00  0.23611024381E+03  0.23615701817E+03  0.47000000000E+01 0.  1.
         -5   -1    0    0    0  501 -0.00000000000E+00 -0.00000000000E+00 -0.92074987633E+02  0.92194866167E+02  0.47000000000E+01 0.  1.
         25    2    1    2    0    0  0.32006045529E+02 -0.46638022648E+02  0.11665030455E+02  0.13769700704E+03  0.12499960283E+03 0.  0.
         25    2    1    2    0    0 -0.32006045529E+02  0.46638022648E+02  0.13237022572E+03  0.19065487730E+03  0.12501165334E+03 0.  0.
          5    1    3    3  502    0  0.72314673517E+01 -0.14456137568E+01 -0.53653750197E+02  0.54361740493E+02  0.47000000000E+01 0. -1.
         -5    1    3    3    0  502  0.24774578177E+02 -0.45192408891E+02  0.65318780653E+02  0.83335266551E+02  0.47000000000E+01 0. -1.
          5    1    4    4  503    0  0.15938921342E+02  0.63678017198E+02  0.12184597859E+03  0.13848274834E+03  0.47000000000E+01 0.  1.
         -5    1    4    4    0  503 -0.47944966871E+02 -0.17039994550E+02  0.10524247132E+02  0.52172128960E+02  0.47000000000E+01 0.  1.
<mgrwt>
<rscale>  0 0.13721025E+03</rscale>
<asrwt>0</asrwt>
<pdfrwt beam="1">  1        5 0.36337472E-01 0.13721299E+03</pdfrwt>
<pdfrwt beam="2">  1       -5 0.14178202E-01 0.13721299E+03</pdfrwt>
<totfact> 0.23041813E+02</totfact>
</mgrwt>
</event>
<event>
 8    1  0.3542708E-007  0.1615551E+03  0.7546771E-02  0.1186952E+00
          5   -1    0    0  501    0  0.00000000000E+00  0.00000000000E+00  0.11200913045E+04  0.11201011652E+04  0.47000000000E+01 0.  1.
         -5   -1    0    0    0  501 -0.00000000000E+00 -0.00000000000E+00 -0.27548446312E+02  0.27946500572E+02  0.47000000000E+01 0.  1.
         25    2    1    2    0    0 -0.77647362885E+02  0.66677138135E+02  0.31628560784E+03  0.35515715711E+03  0.12500026723E+03 0.  0.
         25    2    1    2    0    0  0.77647362885E+02 -0.66677138135E+02  0.77625725031E+03  0.79289050868E+03  0.12500034554E+03 0.  0.
          5    1    4    4  502    0  0.72324033418E+02 -0.95598139415E+02  0.71240288632E+03  0.72243320280E+03  0.47000000000E+01 0. -1.
         -5    1    4    4    0  502  0.53233294668E+01  0.28921001280E+02  0.63854363992E+02  0.70457305885E+02  0.47000000000E+01 0. -1.
          5    1    3    3  503    0 -0.76445398515E+02 -0.15102630957E+02  0.12973672088E+03  0.15141233490E+03  0.47000000000E+01 0.  1.
         -5    1    3    3    0  503 -0.12019643695E+01  0.81779769092E+02  0.18654888697E+03  0.20374482222E+03  0.47000000000E+01 0.  1.
<mgrwt>
<rscale>  0 0.16155505E+03</rscale>
<asrwt>0</asrwt>
<pdfrwt beam="1">  1        5 0.17235318E+00 0.16155507E+03</pdfrwt>
<pdfrwt beam="2">  1       -5 0.42695991E-02 0.16155507E+03</pdfrwt>
<totfact> 0.48735755E+01</totfact>
</mgrwt>
</event>
<event>
 8    1  0.3542708E-007  0.1883361E+03  0.7546771E-02  0.1159972E+00
          5   -1    0    0  501    0  0.00000000000E+00  0.00000000000E+00  0.22901532286E+02  0.23378840455E+02  0.47000000000E+01 0.  1.
         -5   -1    0    0    0  501 -0.00000000000E+00 -0.00000000000E+00 -0.15540877042E+04  0.15540948112E+04  0.47000000000E+01 0.  1.
         25    2    1    2    0    0  0.13172353221E+03  0.49941284211E+02 -0.85895823490E+03  0.87936325214E+03  0.12500103640E+03 0.  0.
         25    2    1    2    0    0 -0.13172353221E+03 -0.49941284211E+02 -0.67222793701E+03  0.69811039956E+03  0.12499003909E+03 0.  0.
          5    1    3    3  502    0  0.90603401746E+02  0.50181661517E+02 -0.27427134015E+03  0.29321329026E+03  0.47000000000E+01 0. -1.
         -5    1    3    3    0  502  0.41120130463E+02 -0.24037730680E+00 -0.58468689475E+03  0.58614996187E+03  0.47000000000E+01 0. -1.
          5    1    4    4  503    0 -0.85724061700E+02 -0.10940327995E+02 -0.58842879315E+03  0.59475948091E+03  0.47000000000E+01 0. -1.
         -5    1    4    4    0  503 -0.45999470509E+02 -0.39000956215E+02 -0.83799143857E+02  0.10335091864E+03  0.47000000000E+01 0. -1.
<mgrwt>
<rscale>  0 0.18833426E+03</rscale>
<asrwt>0</asrwt>
<pdfrwt beam="1">  1        5 0.35605766E-02 0.18833608E+03</pdfrwt>
<pdfrwt beam="2">  1       -5 0.23912760E+00 0.18833608E+03</pdfrwt>
<totfact> 0.24036312E+01</totfact>
</mgrwt>
</event>
<event>
 8    1  0.3542708E-007  0.1633139E+03  0.7546771E-02  0.1185010E+00
         -5   -1    0    0    0  501 -0.00000000000E+00  0.00000000000E+00  0.70245921806E+03  0.70247494121E+03  0.47000000000E+01 0.  1.
          5   -1    0    0  501    0  0.00000000000E+00 -0.00000000000E+00 -0.38198760878E+02  0.38486820245E+02  0.47000000000E+01 0.  1.
         25    2    1    2    0    0  0.16429185559E+02 -0.10378032760E+03  0.36969579637E+03  0.40416135486E+03  0.12502457506E+03 0.  0.
         25    2    1    2    0    0 -0.16429185559E+02  0.10378032760E+03  0.29456466081E+03  0.33680040660E+03  0.12500359977E+03 0.  0.
          5    1    3    3  502    0  0.63591545611E+02 -0.69771711101E+02  0.29256728034E+03  0.30745679350E+03  0.47000000000E+01 0.  1.
         -5    1    3    3    0  502 -0.47162360051E+02 -0.34008616502E+02  0.77128516027E+02  0.96704561353E+02  0.47000000000E+01 0.  1.
          5    1    4    4  503    0 -0.28488699888E+02 -0.21556012441E+02  0.49323614495E+02  0.61083358130E+02  0.47000000000E+01 0. -1.
         -5    1    4    4    0  503  0.12059514328E+02  0.12533634004E+03  0.24524104631E+03  0.27571704847E+03  0.47000000000E+01 0. -1.
<mgrwt>
<rscale>  0 0.16330985E+03</rscale>
<asrwt>0</asrwt>
<pdfrwt beam="2">  1        5 0.59001009E-02 0.16331387E+03</pdfrwt>
<pdfrwt beam="1">  1       -5 0.10809401E+00 0.16331387E+03</pdfrwt>
<totfact> 0.99005226E+01</totfact>
</mgrwt>
</event>
<event>
 8    1  0.3542708E-007  0.1958190E+03  0.7546771E-02  0.1153321E+00
         -5   -1    0    0    0  501 -0.00000000000E+00  0.00000000000E+00  0.29015318852E+03  0.29019125213E+03  0.47000000000E+01 0.  1.
          5   -1    0    0  501    0  0.00000000000E+00 -0.00000000000E+00 -0.13805683746E+03  0.13813681757E+03  0.47000000000E+01 0.  1.
         25    2    1    2    0    0  0.73968484586E+02  0.13133852869E+03  0.12070180939E+03  0.23000839976E+03  0.12495515731E+03 0.  0.
         25    2    1    2    0    0 -0.73968484586E+02 -0.13133852869E+03  0.31394541669E+02  0.19831966994E+03  0.12499571355E+03 0.  0.
          5    1    3    3  502    0  0.52000874741E+02  0.25152598964E+02  0.10555705510E+03  0.12042062153E+03  0.47000000000E+01 0. -1.
         -5    1    3    3    0  502  0.21967609845E+02  0.10618592973E+03  0.15144754293E+02  0.10958777823E+03  0.47000000000E+01 0. -1.
          5    1    4    4  503    0 -0.35380331582E+02 -0.94102689467E+00  0.49520291232E+02  0.61049182125E+02  0.47000000000E+01 0. -1.
         -5    1    4    4    0  503 -0.38588153004E+02 -0.13039750180E+03 -0.18125749562E+02  0.13727048781E+03  0.47000000000E+01 0. -1.
<mgrwt>
<rscale>  0 0.19581251E+03</rscale>
<asrwt>0</asrwt>
<pdfrwt beam="2">  1        5 0.21248594E-01 0.19581898E+03</pdfrwt>
<pdfrwt beam="1">  1       -5 0.44648032E-01 0.19581898E+03</pdfrwt>
<totfact> 0.79855935E+01</totfact>
</mgrwt>
</event>
<event>
 8    1  0.3542708E-007  0.1329350E+03  0.7546771E-02  0.1223165E+00
          5   -1    0    0  501    0  0.00000000000E+00  0.00000000000E+00  0.44755526488E+03  0.44757994271E+03  0.47000000000E+01 0. -1.
         -5   -1    0    0    0  501 -0.00000000000E+00 -0.00000000000E+00 -0.39766507459E+02  0.40043290517E+02  0.47000000000E+01 0. -1.
         25    2    1    2    0    0  0.87391470474E+00 -0.45233391403E+02  0.17813053637E+03  0.22226570519E+03  0.12499892917E+03 0.  0.
         25    2    1    2    0    0 -0.87391470474E+00  0.45233391403E+02  0.22965822105E+03  0.26535752804E+03  0.12499958306E+03 0.  0.
          5    1    3    3  502    0 -0.50489369589E+02  0.15122945164E+02  0.60842431666E+02  0.80633562510E+02  0.47000000000E+01 0.  1.
         -5    1    3    3    0  502  0.51363284294E+02 -0.60356336567E+02  0.11728810470E+03  0.14163214268E+03  0.47000000000E+01 0.  1.
          5    1    4    4  503    0 -0.55743632611E+02 -0.44200647435E+01  0.73354493991E+02  0.92357248431E+02  0.47000000000E+01 0. -1.
         -5    1    4    4    0  503  0.54869717907E+02  0.49653456146E+02  0.15630372706E+03  0.17300027961E+03  0.47000000000E+01 0. -1.
<mgrwt>
<rscale>  0 0.13293486E+03</rscale>
<asrwt>0</asrwt>
<pdfrwt beam="1">  1        5 0.68877846E-01 0.13293502E+03</pdfrwt>
<pdfrwt beam="2">  1       -5 0.61411135E-02 0.13293502E+03</pdfrwt>
<totfact> 0.25087744E+02</totfact>
</mgrwt>
</event>
<event>
 8    1  0.3542708E-007  0.1386189E+03  0.7546771E-02  0.1215205E+00
         -5   -1    0    0    0  501 -0.00000000000E+00  0.00000000000E+00  0.62724119187E+03  0.62725880047E+03  0.47000000000E+01 0.  1.
          5   -1    0    0  501    0  0.00000000000E+00 -0.00000000000E+00 -0.30466860905E+02  0.30827254393E+02  0.47000000000E+01 0.  1.
         25    2    1    2    0    0  0.27627775124E+02 -0.53162725779E+02  0.28741859252E+03  0.31909316561E+03  0.12498572575E+03 0.  0.
         25    2    1    2    0    0 -0.27627775124E+02  0.53162725779E+02  0.30935573844E+03  0.33899288926E+03  0.12500254674E+03 0.  0.
          5    1    3    3  502    0 -0.34752548702E+01 -0.33481304128E+02  0.27897625678E+03  0.28103899546E+03  0.47000000000E+01 0. -1.
         -5    1    3    3    0  502  0.31103029994E+02 -0.19681421651E+02  0.84423357415E+01  0.38054170150E+02  0.47000000000E+01 0. -1.
          5    1    4    4  503    0 -0.34018502551E+02 -0.34942492471E+02  0.13202034719E+03  0.14081796181E+03  0.47000000000E+01 0.  1.
         -5    1    4    4    0  503  0.63907274268E+01  0.88105218250E+02  0.17733539125E+03  0.19817492745E+03  0.47000000000E+01 0.  1.
<mgrwt>
<rscale>  0 0.13861513E+03</rscale>
<asrwt>0</asrwt>
<pdfrwt beam="2">  1        5 0.47162865E-02 0.13861892E+03</pdfrwt>
<pdfrwt beam="1">  1       -5 0.96527722E-01 0.13861892E+03</pdfrwt>
<totfact> 0.18039855E+02</totfact>
</mgrwt>
</event>
<event>
 8    1  0.3542708E-007  0.1686929E+03  0.7546771E-02  0.1179218E+00
          5   -1    0    0  501    0  0.00000000000E+00  0.00000000000E+00  0.14157684073E+03  0.14165483342E+03  0.47000000000E+01 0.  1.
         -5   -1    0    0    0  501 -0.00000000000E+00 -0.00000000000E+00 -0.22443673044E+03  0.22448593714E+03  0.47000000000E+01 0.  1.
         25    2    1    2    0    0 -0.87069707151E+02  0.72462868010E+02 -0.10077106660E+03  0.19649965156E+03  0.12500121623E+03 0.  0.
         25    2    1    2    0    0  0.87069707151E+02 -0.72462868010E+02  0.17911176881E+02  0.16964111899E+03  0.12500119140E+03 0.  0.
          5    1    4    4  502    0  0.38765530077E+02 -0.26635201855E+02 -0.53837966128E+02  0.71643680089E+02  0.47000000000E+01 0.  1.
         -5    1    4    4    0  502  0.48304177075E+02 -0.45827666155E+02  0.71749143009E+02  0.97997438898E+02  0.47000000000E+01 0.  1.
          5    1    3    3  503    0 -0.21931366544E+02  0.92511243938E+02 -0.34301040443E+02  0.10118283683E+03  0.47000000000E+01 0.  1.
         -5    1    3    3    0  503 -0.65138340607E+02 -0.20048375928E+02 -0.66470026152E+02  0.95316814734E+02  0.47000000000E+01 0.  1.
<mgrwt>
<rscale>  0 0.16869293E+03</rscale>
<asrwt>0</asrwt>
<pdfrwt beam="1">  1        5 0.21790837E-01 0.16869293E+03</pdfrwt>
<pdfrwt beam="2">  1       -5 0.34538512E-01 0.16869293E+03</pdfrwt>
<totfact> 0.12345591E+02</totfact>
</mgrwt>
</event>
<event>
 8    1  0.3542708E-007  0.1551071E+03  0.7546771E-02  0.1194335E+00
         -5   -1    0    0    0  501 -0.00000000000E+00  0.00000000000E+00  0.27921258974E+03  0.27925214461E+03  0.47000000000E+01 0. -1.
          5   -1    0    0  501    0  0.00000000000E+00 -0.00000000000E+00 -0.88024419482E+02  0.88149806722E+02  0.47000000000E+01 0. -1.
         25    2    1    2    0    0  0.91827286296E+02 -0.46288083437E+00  0.12305554023E+03  0.19799208081E+03  0.12500293323E+03 0.  0.
         25    2    1    2    0    0 -0.91827286296E+02  0.46288083437E+00  0.68132630033E+02  0.16940987053E+03  0.12500073675E+03 0.  0.
          5    1    3    3  502    0  0.20671141119E+02  0.13103264192E+02  0.12290047020E+03  0.12540178301E+03  0.47000000000E+01 0. -1.
         -5    1    3    3    0  502  0.71156145177E+02 -0.13566145026E+02  0.15507002730E+00  0.72590297795E+02  0.47000000000E+01 0. -1.
          5    1    4    4  503    0 -0.69513763975E+02  0.59616170485E+02  0.41315133792E+02  0.10057475551E+03  0.47000000000E+01 0.  1.
         -5    1    4    4    0  503 -0.22313522321E+02 -0.59153289651E+02  0.26817496241E+02  0.68835115018E+02  0.47000000000E+01 0.  1.
<mgrwt>
<rscale>  0 0.15510661E+03</rscale>
<asrwt>0</asrwt>
<pdfrwt beam="2">  1        5 0.13554907E-01 0.15510705E+03</pdfrwt>
<pdfrwt beam="1">  1       -5 0.42968470E-01 0.15510705E+03</pdfrwt>
<totfact> 0.18472170E+02</totfact>
</mgrwt>
</event>
<event>
 8    1  0.3542708E-007  0.1817815E+03  0.7546771E-02  0.1166090E+00
         -5   -1    0    0    0  501 -0.00000000000E+00  0.00000000000E+00  0.19904906537E+03  0.19910454647E+03  0.47000000000E+01 0.  1.
          5   -1    0    0  501    0  0.00000000000E+00 -0.00000000000E+00 -0.26199579281E+03  0.26203794658E+03  0.47000000000E+01 0.  1.
         25    2    1    2    0    0 -0.33339618778E+00 -0.13198341457E+03  0.10813866345E+03  0.21151472745E+03  0.12499910608E+03 0.  0.
         25    2    1    2    0    0  0.33339618778E+00  0.13198341457E+03 -0.17108539089E+03  0.24962776560E+03  0.12499630998E+03 0.  0.
          5    1    4    4  502    0 -0.78473401794E+01  0.15515867857E+03 -0.15695788361E+03  0.22089287791E+03  0.47000000000E+01 0.  1.
         -5    1    4    4    0  502  0.81807363672E+01 -0.23175263997E+02 -0.14127507279E+02  0.28734887694E+02  0.47000000000E+01 0.  1.
          5    1    3    3  503    0  0.28619876959E+02 -0.13779815004E+03  0.11383448449E+03  0.18107403837E+03  0.47000000000E+01 0. -1.
         -5    1    3    3    0  503 -0.28953273147E+02  0.58147354671E+01 -0.56958210452E+01  0.30440689083E+02  0.47000000000E+01 0. -1.
<mgrwt>
<rscale>  0 0.18178101E+03</rscale>
<asrwt>0</asrwt>
<pdfrwt beam="2">  1        5 0.40314556E-01 0.18178149E+03</pdfrwt>
<pdfrwt beam="1">  1       -5 0.30630443E-01 0.18178149E+03</pdfrwt>
<totfact> 0.47691755E+01</totfact>
</mgrwt>
</event>
<event>
 8    1  0.3542708E-007  0.1345843E+03  0.7546771E-02  0.1220808E+00
          5   -1    0    0  501    0  0.00000000000E+00  0.00000000000E+00  0.41973567157E+03  0.41976198493E+03  0.47000000000E+01 0. -1.
         -5   -1    0    0    0  501 -0.00000000000E+00 -0.00000000000E+00 -0.77370250364E+02  0.77512874037E+02  0.47000000000E+01 0. -1.
         25    2    1    2    0    0 -0.49798936718E+02 -0.27604275020E+01  0.56985769486E+01  0.13470486108E+03  0.12500148703E+03 0.  0.
         25    2    1    2    0    0  0.49798936718E+02  0.27604275020E+01  0.33666684426E+03  0.36256999789E+03  0.12499954114E+03 0.  0.
          5    1    3    3  502    0 -0.55567254733E+02  0.48132077677E+02  0.27783724876E+02  0.78730185241E+02  0.47000000000E+01 0. -1.
         -5    1    3    3    0  502  0.57683180154E+01 -0.50892505179E+02 -0.22085147928E+02  0.55974675837E+02  0.47000000000E+01 0. -1.
          5    1    4    4  503    0  0.20126565972E+02  0.43405073206E+02  0.28941264252E+03  0.29337833370E+03  0.47000000000E+01 0.  1.
         -5    1    4    4    0  503  0.29672370746E+02 -0.40644645704E+02  0.47254201744E+02  0.69191664184E+02  0.47000000000E+01 0.  1.
<mgrwt>
<rscale>  0 0.13458382E+03</rscale>
<asrwt>0</asrwt>
<pdfrwt beam="1">  1        5 0.64587713E-01 0.13458427E+03</pdfrwt>
<pdfrwt beam="2">  1       -5 0.11916111E-01 0.13458427E+03</pdfrwt>
<totfact> 0.92737790E+01</totfact>
</mgrwt>
</event>
<event>
 8    1  0.3542708E-007  0.1272319E+03  0.7546771E-02  0.1231622E+00
         -5   -1    0    0    0  501 -0.00000000000E+00  0.00000000000E+00  0.10651634626E+02  0.11642479126E+02  0.47000000000E+01 0.  1.
          5   -1    0    0  501    0  0.00000000000E+00 -0.00000000000E+00 -0.14577110287E+04  0.14577186056E+04  0.47000000000E+01 0.  1.
         25    2    1    2    0    0  0.23650797335E+02 -0.18096975227E+01 -0.77255737071E+03  0.78296413523E+03  0.12500124317E+03 0.  0.
         25    2    1    2    0    0 -0.23650797335E+02  0.18096975227E+01 -0.67450202333E+03  0.68639694949E+03  0.12500063031E+03 0.  0.
          5    1    4    4  502    0 -0.32478332229E+02  0.59067138833E+02 -0.30897150272E+03  0.31627400850E+03  0.47000000000E+01 0.  1.
         -5    1    4    4    0  502  0.88275348939E+01 -0.57257441311E+02 -0.36553052060E+03  0.37012294099E+03  0.47000000000E+01 0.  1.
          5    1    3    3  503    0  0.23961219815E+02 -0.49170742498E+02 -0.17257592563E+03  0.18109787984E+03  0.47000000000E+01 0.  1.
         -5    1    3    3    0  503 -0.31042248022E+00  0.47361044975E+02 -0.59998144508E+03  0.60186625539E+03  0.47000000000E+01 0.  1.
<mgrwt>
<rscale>  0 0.12723171E+03</rscale>
<asrwt>0</asrwt>
<pdfrwt beam="2">  1        5 0.22433989E+00 0.12723186E+03</pdfrwt>
<pdfrwt beam="1">  1       -5 0.17155158E-02 0.12723186E+03</pdfrwt>
<totfact> 0.87233117E+01</totfact>
</mgrwt>
</event>
<event>
 8    1  0.3542708E-007  0.1749079E+03  0.7546771E-02  0.1172825E+00
          5   -1    0    0  501    0  0.00000000000E+00  0.00000000000E+00  0.37813212619E+03  0.37816133443E+03  0.47000000000E+01 0. -1.
         -5   -1    0    0    0  501 -0.00000000000E+00 -0.00000000000E+00 -0.80819301833E+02  0.80955849380E+02  0.47000000000E+01 0. -1.
         25    2    1    2    0    0 -0.34638543323E+02  0.11732721541E+03  0.15200636014E+03  0.23172599788E+03  0.12500200164E+03 0.  0.
         25    2    1    2    0    0  0.34638543323E+02 -0.11732721541E+03  0.14530646422E+03  0.22739118593E+03  0.12500911461E+03 0.  0.
          5    1    4    4  502    0  0.33177708829E+02 -0.22671071035E+02  0.12373795649E+03  0.13018413768E+03  0.47000000000E+01 0. -1.
         -5    1    4    4    0  502  0.14608344936E+01 -0.94656144370E+02  0.21568507725E+02  0.97207048252E+02  0.47000000000E+01 0. -1.
          5    1    3    3  503    0 -0.16226196199E+02  0.12682520998E+03  0.16346916471E+03  0.20758656301E+03  0.47000000000E+01 0.  1.
         -5    1    3    3    0  503 -0.18412347124E+02 -0.94979945739E+01 -0.11462804571E+02  0.24139434877E+02  0.47000000000E+01 0.  1.
<mgrwt>
<rscale>  0 0.17490666E+03</rscale>
<asrwt>0</asrwt>
<pdfrwt beam="1">  1        5 0.58186926E-01 0.17490793E+03</pdfrwt>
<pdfrwt beam="2">  1       -5 0.12446489E-01 0.17490793E+03</pdfrwt>
<totfact> 0.11713185E+02</totfact>
</mgrwt>
</event>
<event>
 8    1  0.3542708E-007  0.1451613E+03  0.7546771E-02  0.1206551E+00
          5   -1    0    0  501    0  0.00000000000E+00  0.00000000000E+00  0.16186047013E+03  0.16192869353E+03  0.47000000000E+01 0.  1.
         -5   -1    0    0    0  501 -0.00000000000E+00 -0.00000000000E+00 -0.13011239291E+03  0.13019725339E+03  0.47000000000E+01 0.  1.
         25    2    1    2    0    0 -0.30052743829E+02  0.67393820177E+02  0.12429796877E+02  0.14568484476E+03  0.12499791892E+03 0.  0.
         25    2    1    2    0    0  0.30052743829E+02 -0.67393820177E+02  0.19318280336E+02  0.14644110216E+03  0.12500682396E+03 0.  0.
          5    1    4    4  502    0 -0.40755034409E+02  0.75634516525E+01  0.92601303325E+01  0.42731939394E+02  0.47000000000E+01 0. -1.
         -5    1    4    4    0  502  0.70807778238E+02 -0.74957271830E+02  0.10058150004E+02  0.10370916276E+03  0.47000000000E+01 0. -1.
          5    1    3    3  503    0 -0.13105738051E+02  0.10520747383E+02 -0.53843389004E+02  0.56600768854E+02  0.47000000000E+01 0.  1.
         -5    1    3    3    0  503 -0.16947005777E+02  0.56873072794E+02  0.66273185881E+02  0.89084075910E+02  0.47000000000E+01 0.  1.
<mgrwt>
<rscale>  0 0.14515937E+03</rscale>
<asrwt>0</asrwt>
<pdfrwt beam="1">  1        5 0.24913386E-01 0.14516129E+03</pdfrwt>
<pdfrwt beam="2">  1       -5 0.20029067E-01 0.14516129E+03</pdfrwt>
<totfact> 0.26168844E+02</totfact>
</mgrwt>
</event>
<event>
 8    1  0.3542708E-007  0.1379323E+03  0.7546771E-02  0.1216141E+00
          5   -1    0    0  501    0  0.00000000000E+00  0.00000000000E+00  0.24517210021E+03  0.24521714606E+03  0.47000000000E+01 0.  1.
         -5   -1    0    0    0  501 -0.00000000000E+00 -0.00000000000E+00 -0.78118408588E+02  0.78259668798E+02  0.47000000000E+01 0.  1.
         25    2    1    2    0    0  0.53856907632E+02  0.22337659188E+02  0.98211587638E+02  0.16931924745E+03  0.12499581630E+03 0.  0.
         25    2    1    2    0    0 -0.53856907632E+02 -0.22337659188E+02  0.68842103984E+02  0.15415756741E+03  0.12500313112E+03 0.  0.
          5    1    4    4  502    0 -0.25097114763E+02  0.91080367511E+01 -0.33560897765E+02  0.43142152956E+02  0.47000000000E+01 0. -1.
         -5    1    4    4    0  502 -0.28759792869E+02 -0.31445695939E+02  0.10240300175E+03  0.11101541445E+03  0.47000000000E+01 0. -1.
          5    1    3    3  503    0  0.51835844982E+02  0.53564459945E+02  0.11214898359E+03  0.13474268334E+03  0.47000000000E+01 0.  1.
         -5    1    3    3    0  503  0.20210626502E+01 -0.31226800757E+02 -0.13937395948E+02  0.34576564109E+02  0.47000000000E+01 0.  1.
<mgrwt>
<rscale>  0 0.13793065E+03</rscale>
<asrwt>0</asrwt>
<pdfrwt beam="1">  1        5 0.37733116E-01 0.13793230E+03</pdfrwt>
<pdfrwt beam="2">  1       -5 0.12032548E-01 0.13793230E+03</pdfrwt>
<totfact> 0.28675604E+02</totfact>
</mgrwt>
</event>
<event>
 8    1  0.3542708E-007  0.1320771E+03  0.7546771E-02  0.1224407E+00
          5   -1    0    0  501    0  0.00000000000E+00  0.00000000000E+00  0.24578412584E+02  0.25023756016E+02  0.47000000000E+01 0. -1.
         -5   -1    0    0    0  501 -0.00000000000E+00 -0.00000000000E+00 -0.79514898308E+03  0.79516287343E+03  0.47000000000E+01 0. -1.
         25    2    1    2    0    0 -0.42388447594E+02  0.47589975850E+01 -0.52493699629E+03  0.54129770961E+03  0.12499972721E+03 0.  0.
         25    2    1    2    0    0  0.42388447594E+02 -0.47589975850E+01 -0.24563357420E+03  0.27888891984E+03  0.12499499305E+03 0.  0.
          5    1    3    3  502    0 -0.66328420448E+02  0.28863010418E+02 -0.17136237379E+03  0.18606366082E+03  0.47000000000E+01 0.  1.
         -5    1    3    3    0  502  0.23939972855E+02 -0.24104012833E+02 -0.35357462251E+03  0.35523404879E+03  0.47000000000E+01 0.  1.
          5    1    4    4  503    0 -0.40814823370E+02 -0.14855745614E+02 -0.12078310653E+03  0.12844139445E+03  0.47000000000E+01 0.  1.
         -5    1    4    4    0  503  0.83203270964E+02  0.10096748029E+02 -0.12485046767E+03  0.15044752539E+03  0.47000000000E+01 0.  1.
<mgrwt>
<rscale>  0 0.13207598E+03</rscale>
<asrwt>0</asrwt>
<pdfrwt beam="1">  1        5 0.38166205E-02 0.13207710E+03</pdfrwt>
<pdfrwt beam="2">  1       -5 0.12236592E+00 0.13207710E+03</pdfrwt>
<totfact> 0.13960487E+02</totfact>
</mgrwt>
</event>
<event>
 8    1  0.3542708E-007  0.1594916E+03  0.7546771E-02  0.1189273E+00
          5   -1    0    0  501    0  0.00000000000E+00  0.00000000000E+00  0.10247775998E+03  0.10258548284E+03  0.47000000000E+01 0. -1.
         -5   -1    0    0    0  501 -0.00000000000E+00 -0.00000000000E+00 -0.24969495523E+03  0.24973918529E+03  0.47000000000E+01 0. -1.
         25    2    1    2    0    0  0.98943133628E+02 -0.48172142457E+01 -0.58932785772E+02  0.17003128148E+03  0.12499845679E+03 0.  0.
         25    2    1    2    0    0 -0.98943133628E+02  0.48172142457E+01 -0.88284409483E+02  0.18229338665E+03  0.12499517036E+03 0.  0.
          5    1    3    3  502    0 -0.35913683432E+01 -0.70595285367E+01  0.31744685908E+02  0.33053743406E+02  0.47000000000E+01 0.  1.
         -5    1    3    3    0  502  0.10253450197E+03  0.22423142910E+01 -0.90677471680E+02  0.13697753808E+03  0.47000000000E+01 0.  1.
          5    1    4    4  503    0 -0.45978997834E+02 -0.43802448522E+02 -0.89969499411E+02  0.11022397000E+03  0.47000000000E+01 0.  1.
         -5    1    4    4    0  503 -0.52964135795E+02  0.48619662767E+02  0.16850899281E+01  0.72069416649E+02  0.47000000000E+01 0.  1.
<mgrwt>
<rscale>  0 0.15949093E+03</rscale>
<asrwt>0</asrwt>
<pdfrwt beam="1">  1        5 0.15777498E-01 0.15949158E+03</pdfrwt>
<pdfrwt beam="2">  1       -5 0.38426297E-01 0.15949158E+03</pdfrwt>
<totfact> 0.17815837E+02</totfact>
</mgrwt>
</event>
<event>
 8    1  0.3542708E-007  0.1420864E+03  0.7546771E-02  0.1210552E+00
         -5   -1    0    0    0  501 -0.00000000000E+00  0.00000000000E+00  0.59750295161E+02  0.59934862741E+02  0.47000000000E+01 0.  1.
          5   -1    0    0  501    0  0.00000000000E+00 -0.00000000000E+00 -0.33870638888E+03  0.33873899668E+03  0.47000000000E+01 0.  1.
         25    2    1    2    0    0  0.24446227830E+02 -0.62957285860E+02 -0.12592919557E+03  0.18985969890E+03  0.12500921995E+03 0.  0.
         25    2    1    2    0    0 -0.24446227830E+02  0.62957285860E+02 -0.15302689815E+03  0.20881416052E+03  0.12499953671E+03 0.  0.
          5    1    3    3  502    0  0.74844337399E+02 -0.25842605666E+02 -0.70625955617E+02  0.10620560586E+03  0.47000000000E+01 0. -1.
         -5    1    3    3    0  502 -0.50398109569E+02 -0.37114680194E+02 -0.55303239957E+02  0.83654093049E+02  0.47000000000E+01 0. -1.
          5    1    4    4  503    0  0.39915803146E+02  0.56139274638E+02 -0.11344224214E+03  0.13280106099E+03  0.47000000000E+01 0.  1.
         -5    1    4    4    0  503 -0.64362030975E+02  0.68180112222E+01 -0.39584656006E+02  0.76013099525E+02  0.47000000000E+01 0.  1.
<mgrwt>
<rscale>  0 0.14208426E+03</rscale>
<asrwt>0</asrwt>
<pdfrwt beam="2">  1        5 0.52125380E-01 0.14208639E+03</pdfrwt>
<pdfrwt beam="1">  1       -5 0.92090591E-02 0.14208639E+03</pdfrwt>
<totfact> 0.23639730E+02</totfact>
</mgrwt>
</event>
<event>
 8    1  0.3542708E-007  0.1480783E+03  0.7546771E-02  0.1202856E+00
          5   -1    0    0  501    0  0.00000000000E+00  0.00000000000E+00  0.44388356468E+03  0.44390844664E+03  0.47000000000E+01 0.  1.
         -5   -1    0    0    0  501 -0.00000000000E+00 -0.00000000000E+00 -0.89117677670E+02  0.89241528860E+02  0.47000000000E+01 0.  1.
         25    2    1    2    0    0  0.89397247698E+01  0.78878608464E+02 -0.69630212551E+00  0.14807994558E+03  0.12500172756E+03 0.  0.
         25    2    1    2    0    0 -0.89397247698E+01 -0.78878608464E+02  0.35546218914E+03  0.38507002992E+03  0.12499522584E+03 0.  0.
          5    1    3    3  502    0 -0.10481864827E+02  0.88912945442E+02  0.42669967953E+02  0.99288456140E+02  0.47000000000E+01 0.  1.
         -5    1    3    3    0  502  0.19421589597E+02 -0.10034336978E+02 -0.43366270079E+02  0.48791489438E+02  0.47000000000E+01 0.  1.
          5    1    4    4  503    0 -0.61514574473E+02 -0.52711647007E+02  0.14120333888E+03  0.16285893747E+03  0.47000000000E+01 0.  1.
         -5    1    4    4    0  503  0.52574849704E+02 -0.26166961457E+02  0.21425885026E+03  0.22221109245E+03  0.47000000000E+01 0.  1.
<mgrwt>
<rscale>  0 0.14807694E+03</rscale>
<asrwt>0</asrwt>
<pdfrwt beam="1">  1        5 0.68301218E-01 0.14807831E+03</pdfrwt>
<pdfrwt beam="2">  1       -5 0.13721853E-01 0.14807831E+03</pdfrwt>
<totfact> 0.65589252E+01</totfact>
</mgrwt>
</event>
<event>
 8    1  0.3542708E-007  0.1754130E+03  0.7546771E-02  0.1172318E+00
         -5   -1    0    0    0  501 -0.00000000000E+00  0.00000000000E+00  0.34434405101E+03  0.34437612499E+03  0.47000000000E+01 0.  1.
          5   -1    0    0  501    0  0.00000000000E+00 -0.00000000000E+00 -0.90136619575E+02  0.90259072610E+02  0.47000000000E+01 0.  1.
         25    2    1    2    0    0 -0.68845220659E+02  0.10200855390E+03  0.14853546186E+03  0.22985321077E+03  0.12499722236E+03 0.  0.
         25    2    1    2    0    0  0.68845220659E+02 -0.10200855390E+03  0.10567196957E+03  0.20478198683E+03  0.12499474989E+03 0.  0.
          5    1    3    3  502    0 -0.57681515405E+02 -0.40436969892E+01  0.16994270026E+02  0.60451665969E+02  0.47000000000E+01 0. -1.
         -5    1    3    3    0  502 -0.11163705254E+02  0.10605225089E+03  0.13154119183E+03  0.16940154480E+03  0.47000000000E+01 0. -1.
          5    1    4    4  503    0  0.10233598721E+03 -0.65744330724E+02  0.53997623947E+02  0.13316457747E+03  0.47000000000E+01 0. -1.
         -5    1    4    4    0  503 -0.33490766555E+02 -0.36264223173E+02  0.51674345624E+02  0.71617409354E+02  0.47000000000E+01 0. -1.
<mgrwt>
<rscale>  0 0.17541254E+03</rscale>
<asrwt>0</asrwt>
<pdfrwt beam="2">  1        5 0.13879059E-01 0.17541298E+03</pdfrwt>
<pdfrwt beam="1">  1       -5 0.52987895E-01 0.17541298E+03</pdfrwt>
<totfact> 0.11809751E+02</totfact>
</mgrwt>
</event>
<event>
 8    1  0.3542708E-007  0.1326306E+03  0.7546771E-02  0.1223611E+00
          5   -1    0    0  501    0  0.00000000000E+00  0.00000000000E+00  0.58103272643E+03  0.58105173537E+03  0.47000000000E+01 0. -1.
         -5   -1    0    0    0  501 -0.00000000000E+00 -0.00000000000E+00 -0.30109851444E+02  0.30474467247E+02  0.47000000000E+01 0. -1.
         25    2    1    2    0    0  0.35576381176E+02 -0.26373398132E+02  0.26424308872E+03  0.29566077349E+03  0.12501859070E+03 0.  0.
         25    2    1    2    0    0 -0.35576381176E+02  0.26373398132E+02  0.28667978627E+03  0.31586542913E+03  0.12499773773E+03 0.  0.
          5    1    3    3  502    0  0.32765537512E+02  0.28706073609E+02  0.25733253900E+02  0.50812493215E+02  0.47000000000E+01 0. -1.
         -5    1    3    3    0  502  0.28108436646E+01 -0.55079471741E+02  0.23850983482E+03  0.24484828028E+03  0.47000000000E+01 0. -1.
          5    1    4    4  503    0 -0.54781134255E+02 -0.33396582061E+02  0.10046240674E+03  0.11929413033E+03  0.47000000000E+01 0. -1.
         -5    1    4    4    0  503  0.19204753079E+02  0.59769980194E+02  0.18621737953E+03  0.19657129880E+03  0.47000000000E+01 0. -1.
<mgrwt>
<rscale>  0 0.13262571E+03</rscale>
<asrwt>0</asrwt>
<pdfrwt beam="1">  1        5 0.89419162E-01 0.13263063E+03</pdfrwt>
<pdfrwt beam="2">  1       -5 0.46617943E-02 0.13263063E+03</pdfrwt>
<totfact> 0.21755575E+02</totfact>
</mgrwt>
</event>
<event>
 8    1  0.3542708E-007  0.1437669E+03  0.7546771E-02  0.1208352E+00
         -5   -1    0    0    0  501 -0.00000000000E+00  0.00000000000E+00  0.21802657492E+04  0.21802708151E+04  0.47000000000E+01 0.  1.
          5   -1    0    0  501    0  0.00000000000E+00 -0.00000000000E+00 -0.97187154019E+01  0.10795528197E+02  0.47000000000E+01 0.  1.
         25    2    1    2    0    0 -0.64455507238E+02 -0.29785429592E+02  0.13878427694E+04  0.13952680733E+04  0.12499503796E+03 0.  0.
         25    2    1    2    0    0  0.64455507238E+02  0.29785429592E+02  0.78270426437E+03  0.79579826998E+03  0.12500894691E+03 0.  0.
          5    1    4    4  502    0  0.99504700517E+02  0.29372018247E+02  0.65917580067E+03  0.66730707105E+03  0.47000000000E+01 0. -1.
         -5    1    4    4    0  502 -0.35049193279E+02  0.41341134557E+00  0.12352846370E+03  0.12849119893E+03  0.47000000000E+01 0. -1.
          5    1    3    3  503    0 -0.36337324577E+02 -0.10911965480E+02  0.13061503688E+04  0.13067097413E+04  0.47000000000E+01 0. -1.
         -5    1    3    3    0  503 -0.28118182661E+02 -0.18873464113E+02  0.81692400594E+02  0.88558331955E+02  0.47000000000E+01 0. -1.
<mgrwt>
<rscale>  0 0.14376387E+03</rscale>
<asrwt>0</asrwt>
<pdfrwt beam="2">  1        5 0.15784065E-02 0.14376690E+03</pdfrwt>
<pdfrwt beam="1">  1       -5 0.33550912E+00 0.14376690E+03</pdfrwt>
<totfact> 0.20220912E+01</totfact>
</mgrwt>
</event>
<event>
 8    1  0.3542708E-007  0.1661264E+03  0.7546771E-02  0.1181950E+00
         -5   -1    0    0    0  501 -0.00000000000E+00  0.00000000000E+00  0.30009531693E+03  0.30013211964E+03  0.47000000000E+01 0. -1.
          5   -1    0    0  501    0  0.00000000000E+00 -0.00000000000E+00 -0.96618786010E+02  0.96733033707E+02  0.47000000000E+01 0. -1.
         25    2    1    2    0    0  0.98282178692E+02 -0.48089980863E+02  0.14574215486E+03  0.22099237887E+03  0.12499929164E+03 0.  0.
         25    2    1    2    0    0 -0.98282178692E+02  0.48089980863E+02  0.57734376062E+02  0.17587277448E+03  0.12500376680E+03 0.  0.
          5    1    4    4  502    0 -0.29339793789E+02  0.35066693472E+02 -0.36219195879E+02  0.58518515367E+02  0.47000000000E+01 0.  1.
         -5    1    4    4    0  502 -0.68942384903E+02  0.13023287390E+02  0.93953571940E+02  0.11735425911E+03  0.47000000000E+01 0.  1.
          5    1    3    3  503    0  0.10994107105E+03 -0.68250297954E+02  0.82755793273E+02  0.15367417999E+03  0.47000000000E+01 0.  1.
         -5    1    3    3    0  503 -0.11658892356E+02  0.20160317091E+02  0.62986361583E+02  0.67318198889E+02  0.47000000000E+01 0.  1.
<mgrwt>
<rscale>  0 0.16612554E+03</rscale>
<asrwt>0</asrwt>
<pdfrwt beam="2">  1        5 0.14876048E-01 0.16612638E+03</pdfrwt>
<pdfrwt beam="1">  1       -5 0.46180129E-01 0.16612638E+03</pdfrwt>
<totfact> 0.13727172E+02</totfact>
</mgrwt>
</event>
<event>
 8    1  0.3542708E-007  0.1342499E+03  0.7546771E-02  0.1221288E+00
          5   -1    0    0  501    0  0.00000000000E+00  0.00000000000E+00  0.26782174289E+02  0.27191448281E+02  0.47000000000E+01 0.  1.
         -5   -1    0    0    0  501 -0.00000000000E+00 -0.00000000000E+00 -0.67494839334E+03  0.67496475736E+03  0.47000000000E+01 0.  1.
         25    2    1    2    0    0  0.46658563510E+02 -0.14863156425E+02 -0.36132140230E+03  0.38545581887E+03  0.12500039030E+03 0.  0.
         25    2    1    2    0    0 -0.46658563510E+02  0.14863156425E+02 -0.28684481675E+03  0.31670038677E+03  0.12498500355E+03 0.  0.
          5    1    4    4  502    0 -0.83918529780E+02 -0.11292571797E+02 -0.14883664081E+03  0.17130171472E+03  0.47000000000E+01 0. -1.
         -5    1    4    4    0  502  0.37259966271E+02  0.26155728222E+02 -0.13800817594E+03  0.14539867205E+03  0.47000000000E+01 0. -1.
          5    1    3    3  503    0  0.33827429244E+02 -0.11372541386E+02 -0.15243597916E+02  0.39090752670E+02  0.47000000000E+01 0.  1.
         -5    1    3    3    0  503  0.12831134266E+02 -0.34906150395E+01 -0.34607780438E+03  0.34636506621E+03  0.47000000000E+01 0.  1.
<mgrwt>
<rscale>  0 0.13424631E+03</rscale>
<asrwt>0</asrwt>
<pdfrwt beam="1">  1        5 0.41530764E-02 0.13424989E+03</pdfrwt>
<pdfrwt beam="2">  1       -5 0.10387094E+00 0.13424989E+03</pdfrwt>
<totfact> 0.18415602E+02</totfact>
</mgrwt>
</event>
<event>
 8    1  0.3542708E-007  0.1393710E+03  0.7546771E-02  0.1214182E+00
          5   -1    0    0  501    0  0.00000000000E+00  0.00000000000E+00  0.39883682481E+03  0.39886451688E+03  0.47000000000E+01 0.  1.
         -5   -1    0    0    0  501 -0.00000000000E+00 -0.00000000000E+00 -0.55783034159E+02  0.55980683276E+02  0.47000000000E+01 0.  1.
         25    2    1    2    0    0  0.61577843655E+02 -0.64666371075E+00  0.89847485687E+02  0.16582172270E+03  0.12502809297E+03 0.  0.
         25    2    1    2    0    0 -0.61577843655E+02  0.64666371075E+00  0.25320630496E+03  0.28902347745E+03  0.12501555360E+03 0.  0.
          5    1    4    4  502    0 -0.32657851949E+02 -0.59255145605E+02  0.89792642243E+02  0.11252784622E+03  0.47000000000E+01 0.  1.
         -5    1    4    4    0  502 -0.28919991706E+02  0.59901809316E+02  0.16341366272E+03  0.17649563123E+03  0.47000000000E+01 0.  1.
          5    1    3    3  503    0 -0.25624577796E+02 -0.15737120019E+02 -0.10262874694E+02  0.32119970901E+02  0.47000000000E+01 0.  1.
         -5    1    3    3    0  503  0.87202421452E+02  0.15090456308E+02  0.10011036038E+03  0.13370175180E+03  0.47000000000E+01 0.  1.
<mgrwt>
<rscale>  0 0.13936818E+03</rscale>
<asrwt>0</asrwt>
<pdfrwt beam="1">  1        5 0.61376847E-01 0.13937099E+03</pdfrwt>
<pdfrwt beam="2">  1       -5 0.85993390E-02 0.13937099E+03</pdfrwt>
<totfact> 0.18560428E+02</totfact>
</mgrwt>
</event>
<event>
 8    1  0.3542708E-007  0.1323396E+03  0.7546771E-02  0.1224032E+00
          5   -1    0    0  501    0  0.00000000000E+00  0.00000000000E+00  0.79595081967E+02  0.79733726072E+02  0.47000000000E+01 0.  1.
         -5   -1    0    0    0  501 -0.00000000000E+00 -0.00000000000E+00 -0.22246151380E+03  0.22251115730E+03  0.47000000000E+01 0.  1.
         25    2    1    2    0    0 -0.41275574115E+02 -0.13487411813E+02 -0.88415115063E+02  0.15914100951E+03  0.12499217992E+03 0.  0.
         25    2    1    2    0    0  0.41275574115E+02  0.13487411813E+02 -0.54451316773E+02  0.14310387386E+03  0.12501275743E+03 0.  0.
          5    1    3    3  502    0 -0.84683033530E+02  0.25318696953E+01 -0.66090947108E+02  0.10755338127E+03  0.47000000000E+01 0. -1.
         -5    1    3    3    0  502  0.43407459415E+02 -0.16019281509E+02 -0.22324167955E+02  0.51587628243E+02  0.47000000000E+01 0. -1.
          5    1    4    4  503    0  0.83096263355E+02  0.25527314416E+02 -0.25838599455E+02  0.90809448774E+02  0.47000000000E+01 0. -1.
         -5    1    4    4    0  503 -0.41820689240E+02 -0.12039902603E+02 -0.28612717318E+02  0.52294425090E+02  0.47000000000E+01 0. -1.
<mgrwt>
<rscale>  0 0.13233475E+03</rscale>
<asrwt>0</asrwt>
<pdfrwt beam="1">  1        5 0.12259881E-01 0.13233961E+03</pdfrwt>
<pdfrwt beam="2">  1       -5 0.34239332E-01 0.13233961E+03</pdfrwt>
<totfact> 0.33249873E+02</totfact>
</mgrwt>
</event>
<event>
 8    1  0.3542708E-007  0.1312022E+03  0.7546771E-02  0.1225716E+00
          5   -1    0    0  501    0  0.00000000000E+00  0.00000000000E+00  0.63889823831E+02  0.64062466306E+02  0.47000000000E+01 0. -1.
         -5   -1    0    0    0  501 -0.00000000000E+00 -0.00000000000E+00 -0.38390490212E+03  0.38393367119E+03  0.47000000000E+01 0. -1.
         25    2    1    2    0    0 -0.36833476927E+02  0.14488134659E+02 -0.28264773672E+03  0.31157642012E+03  0.12499404560E+03 0.  0.
         25    2    1    2    0    0  0.36833476927E+02 -0.14488134659E+02 -0.37367341573E+02  0.13641971737E+03  0.12508960790E+03 0.  0.
          5    1    3    3  502    0  0.27538521739E+02  0.49390953436E+01 -0.82743517279E+01  0.29551983672E+02  0.47000000000E+01 0. -1.
         -5    1    3    3    0  502 -0.64371998666E+02  0.95490393156E+01 -0.27437338499E+03  0.28202443645E+03  0.47000000000E+01 0. -1.
          5    1    4    4  503    0 -0.28176225147E+02  0.33341940797E+02  0.65886647860E+01  0.44396905110E+02  0.47000000000E+01 0.  1.
         -5    1    4    4    0  503  0.65009702074E+02 -0.47830075456E+02 -0.43956006359E+02  0.92022812264E+02  0.47000000000E+01 0.  1.
<mgrwt>
<rscale>  0 0.13117943E+03</rscale>
<asrwt>0</asrwt>
<pdfrwt beam="1">  1        5 0.98446971E-02 0.13120221E+03</pdfrwt>
<pdfrwt beam="2">  1       -5 0.59077784E-01 0.13120221E+03</pdfrwt>
<totfact> 0.15642934E+02</totfact>
</mgrwt>
</event>
<event>
 8    1  0.3542708E-007  0.1700011E+03  0.7546771E-02  0.1177852E+00
          5   -1    0    0  501    0  0.00000000000E+00  0.00000000000E+00  0.16010278036E+03  0.16017175243E+03  0.47000000000E+01 0. -1.
         -5   -1    0    0    0  501 -0.00000000000E+00 -0.00000000000E+00 -0.18553792765E+03  0.18559744771E+03  0.47000000000E+01 0. -1.
         25    2    1    2    0    0  0.49817918825E+02  0.10387193463E+03 -0.41607860938E+02  0.17500053802E+03  0.12499108118E+03 0.  0.
         25    2    1    2    0    0 -0.49817918825E+02 -0.10387193463E+03  0.16172713647E+02  0.17076866213E+03  0.12501670072E+03 0.  0.
          5    1    4    4  502    0  0.28002570425E+02 -0.10181497022E+02 -0.27969555580E+02  0.41136271967E+02  0.47000000000E+01 0.  1.
         -5    1    4    4    0  502 -0.77820489250E+02 -0.93690437606E+02  0.44142269227E+02  0.12963239016E+03  0.47000000000E+01 0.  1.
          5    1    3    3  503    0  0.12008972593E+00  0.11430405606E+03 -0.96283503075E+01  0.11480516880E+03  0.47000000000E+01 0. -1.
         -5    1    3    3    0  503  0.49697829099E+02 -0.10432121434E+02 -0.31979510630E+02  0.60195369215E+02  0.47000000000E+01 0. -1.
<mgrwt>
<rscale>  0 0.16999641E+03</rscale>
<asrwt>0</asrwt>
<pdfrwt beam="1">  1        5 0.24641081E-01 0.17000112E+03</pdfrwt>
<pdfrwt beam="2">  1       -5 0.28554181E-01 0.17000112E+03</pdfrwt>
<totfact> 0.14275346E+02</totfact>
</mgrwt>
</event>
<event>
 8    1  0.3542708E-007  0.1418903E+03  0.7546771E-02  0.1210824E+00
          5   -1    0    0  501    0  0.00000000000E+00  0.00000000000E+00  0.25251611993E+02  0.25685285832E+02  0.47000000000E+01 0.  1.
         -5   -1    0    0    0  501 -0.00000000000E+00 -0.00000000000E+00 -0.95245383740E+03  0.95246543369E+03  0.47000000000E+01 0.  1.
         25    2    1    2    0    0  0.57157194469E+02 -0.35051636258E+02 -0.66573205856E+03  0.68068497453E+03  0.12504918501E+03 0.  0.
         25    2    1    2    0    0 -0.57157194469E+02  0.35051636258E+02 -0.26147016685E+03  0.29746574499E+03  0.12499463673E+03 0.  0.
          5    1    4    4  502    0 -0.56618709033E+02 -0.37936802246E+02 -0.13724954872E+03  0.15331147316E+03  0.47000000000E+01 0. -1.
         -5    1    4    4    0  502 -0.53848543609E+00  0.72988438503E+02 -0.12422061813E+03  0.14415427184E+03  0.47000000000E+01 0. -1.
          5    1    3    3  503    0  0.73954383664E+02 -0.11269077331E+02 -0.62959069893E+03  0.63403689258E+03  0.47000000000E+01 0.  1.
         -5    1    3    3    0  503 -0.16797189195E+02 -0.23782558927E+02 -0.36141359624E+02  0.46648081948E+02  0.47000000000E+01 0.  1.
<mgrwt>
<rscale>  0 0.14187829E+03</rscale>
<asrwt>0</asrwt>
<pdfrwt beam="1">  1        5 0.39191157E-02 0.14189031E+03</pdfrwt>
<pdfrwt beam="2">  1       -5 0.14656558E+00 0.14189031E+03</pdfrwt>
<totfact> 0.85058758E+01</totfact>
</mgrwt>
</event>
<event>
 8    1  0.3542708E-007  0.1436721E+03  0.7546771E-02  0.1208473E+00
         -5   -1    0    0    0  501 -0.00000000000E+00  0.00000000000E+00  0.93901817384E+02  0.94019366665E+02  0.47000000000E+01 0. -1.
          5   -1    0    0  501    0  0.00000000000E+00 -0.00000000000E+00 -0.26915988014E+03  0.26920091210E+03  0.47000000000E+01 0. -1.
         25    2    1    2    0    0  0.21495678199E+02  0.67483138695E+02 -0.96742938630E+01  0.14399747156E+03  0.12500256663E+03 0.  0.
         25    2    1    2    0    0 -0.21495678199E+02 -0.67483138695E+02 -0.16558376889E+03  0.21922280721E+03  0.12499846595E+03 0.  0.
          5    1    4    4  502    0  0.39429568049E+01 -0.13370809135E+02 -0.15809630990E+03  0.15877927651E+03  0.47000000000E+01 0.  1.
         -5    1    4    4    0  502 -0.25438635004E+02 -0.54112329561E+02 -0.74874589966E+01  0.60443530701E+02  0.47000000000E+01 0.  1.
          5    1    3    3  503    0  0.30631263462E+02  0.74638428605E+02  0.41825306144E+02  0.90997887668E+02  0.47000000000E+01 0. -1.
         -5    1    3    3    0  503 -0.91355852630E+01 -0.71552899099E+01 -0.51499600007E+02  0.52999583892E+02  0.47000000000E+01 0. -1.
<mgrwt>
<rscale>  0 0.14367123E+03</rscale>
<asrwt>0</asrwt>
<pdfrwt beam="2">  1        5 0.41421410E-01 0.14367213E+03</pdfrwt>
<pdfrwt beam="1">  1       -5 0.14458632E-01 0.14367213E+03</pdfrwt>
<totfact> 0.17299529E+02</totfact>
</mgrwt>
</event>
<event>
 8    1  0.3542708E-007  0.1610555E+03  0.7546771E-02  0.1187511E+00
         -5   -1    0    0    0  501 -0.00000000000E+00  0.00000000000E+00  0.25486414749E+02  0.25916159761E+02  0.47000000000E+01 0.  1.
          5   -1    0    0  501    0  0.00000000000E+00 -0.00000000000E+00 -0.10163754698E+04  0.10163863368E+04  0.47000000000E+01 0.  1.
         25    2    1    2    0    0  0.67172166784E+02  0.76174003951E+02 -0.54045083104E+03  0.56393707823E+03  0.12499339408E+03 0.  0.
         25    2    1    2    0    0 -0.67172166784E+02 -0.76174003951E+02 -0.45043822405E+03  0.47836541836E+03  0.12499720368E+03 0.  0.
          5    1    4    4  502    0  0.12344668935E+02  0.12669507775E+02 -0.20125684827E+03  0.20208739756E+03  0.47000000000E+01 0.  1.
         -5    1    4    4    0  502 -0.79516835719E+02 -0.88843511726E+02 -0.24918137578E+03  0.27627802080E+03  0.47000000000E+01 0.  1.
          5    1    3    3  503    0  0.20465850931E+02 -0.12609776689E+02 -0.32833526226E+03  0.32924761497E+03  0.47000000000E+01 0.  1.
         -5    1    3    3    0  503  0.46706315853E+02  0.88783780640E+02 -0.21211556878E+03  0.23468946326E+03  0.47000000000E+01 0.  1.
<mgrwt>
<rscale>  0 0.16105478E+03</rscale>
<asrwt>0</asrwt>
<pdfrwt beam="2">  1        5 0.15639932E+00 0.16105552E+03</pdfrwt>
<pdfrwt beam="1">  1       -5 0.39548809E-02 0.16105552E+03</pdfrwt>
<totfact> 0.72803463E+01</totfact>
</mgrwt>
</event>
<event>
 8    1  0.3542708E-007  0.1766887E+03  0.7546771E-02  0.1171047E+00
          5   -1    0    0  501    0  0.00000000000E+00  0.00000000000E+00  0.29598295609E+03  0.29602027008E+03  0.47000000000E+01 0.  1.
         -5   -1    0    0    0  501 -0.00000000000E+00 -0.00000000000E+00 -0.12625552929E+03  0.12634298032E+03  0.47000000000E+01 0.  1.
         25    2    1    2    0    0 -0.51693775336E+02  0.11367103474E+03 -0.96487677309E+00  0.17669132256E+03  0.12500216771E+03 0.  0.
         25    2    1    2    0    0  0.51693775336E+02 -0.11367103474E+03  0.17069230357E+03  0.24567192784E+03  0.12500193231E+03 0.  0.
          5    1    3    3  502    0  0.94408000665E+00  0.95296861335E+02 -0.44994573678E+02  0.10549400328E+03  0.47000000000E+01 0.  1.
         -5    1    3    3    0  502 -0.52637855343E+02  0.18374173407E+02  0.44029696905E+02  0.71197319283E+02  0.47000000000E+01 0.  1.
          5    1    4    4  503    0  0.48165541053E+02 -0.11984861678E+03  0.18697015277E+03  0.22729614672E+03  0.47000000000E+01 0. -1.
         -5    1    4    4    0  503  0.35282342829E+01  0.61775820379E+01 -0.16277849199E+02  0.18375781113E+02  0.47000000000E+01 0. -1.
<mgrwt>
<rscale>  0 0.17668865E+03</rscale>
<asrwt>0</asrwt>
<pdfrwt beam="1">  1        5 0.45545436E-01 0.17668869E+03</pdfrwt>
<pdfrwt beam="2">  1       -5 0.19433525E-01 0.17668869E+03</pdfrwt>
<totfact> 0.87987006E+01</totfact>
</mgrwt>
</event>
<event>
 8    1  0.3542708E-007  0.1256357E+03  0.7546771E-02  0.1234080E+00
         -5   -1    0    0    0  501 -0.00000000000E+00  0.00000000000E+00  0.22330999083E+03  0.22335944575E+03  0.47000000000E+01 0. -1.
          5   -1    0    0  501    0  0.00000000000E+00 -0.00000000000E+00 -0.75663180434E+02  0.75809015779E+02  0.47000000000E+01 0. -1.
         25    2    1    2    0    0  0.12494952008E+02 -0.15340684873E+01  0.11266814097E+03  0.16875438869E+03  0.12500182607E+03 0.  0.
         25    2    1    2    0    0 -0.12494952008E+02  0.15340684873E+01  0.34978669427E+02  0.13041407284E+03  0.12500338350E+03 0.  0.
          5    1    4    4  502    0 -0.52586500055E+02 -0.32943252282E+01 -0.24558069310E+02  0.58321362595E+02  0.47000000000E+01 0.  1.
         -5    1    4    4    0  502  0.40091548047E+02  0.48283937155E+01  0.59536738737E+02  0.72092710243E+02  0.47000000000E+01 0.  1.
          5    1    3    3  503    0 -0.71219363199E+01 -0.13285957563E+02  0.13531254258E+03  0.13623073378E+03  0.47000000000E+01 0.  1.
         -5    1    3    3    0  503  0.19616888328E+02  0.11751889076E+02 -0.22644401612E+02  0.32523654912E+02  0.47000000000E+01 0.  1.
<mgrwt>
<rscale>  0 0.12563529E+03</rscale>
<asrwt>0</asrwt>
<pdfrwt beam="2">  1        5 0.11655512E-01 0.12563568E+03</pdfrwt>
<pdfrwt beam="1">  1       -5 0.34370405E-01 0.12563568E+03</pdfrwt>
<totfact> 0.35403252E+02</totfact>
</mgrwt>
</event>
<event>
 8    1  0.3542708E-007  0.1332711E+03  0.7546771E-02  0.1222684E+00
         -5   -1    0    0    0  501 -0.00000000000E+00  0.00000000000E+00  0.23331953426E+03  0.23336686797E+03  0.47000000000E+01 0.  1.
          5   -1    0    0  501    0  0.00000000000E+00 -0.00000000000E+00 -0.76699694031E+02  0.76843562283E+02  0.47000000000E+01 0.  1.
         25    2    1    2    0    0  0.38932981904E+02  0.24903577514E+02  0.63425653487E+02  0.14759406262E+03  0.12500091419E+03 0.  0.
         25    2    1    2    0    0 -0.38932981904E+02 -0.24903577514E+02  0.93194186742E+02  0.16261636764E+03  0.12499184505E+03 0.  0.
          5    1    4    4  502    0 -0.69798171774E+02 -0.71382680954E+01  0.87655469337E+01  0.70863703455E+02  0.47000000000E+01 0. -1.
         -5    1    4    4    0  502  0.30865189870E+02 -0.17765309419E+02  0.84428639809E+02  0.91752664181E+02  0.47000000000E+01 0. -1.
          5    1    3    3  503    0  0.17095164799E+02  0.37575866375E+02 -0.29648105380E+02  0.51042046843E+02  0.47000000000E+01 0.  1.
         -5    1    3    3    0  503  0.21837817105E+02 -0.12672288861E+02  0.93073758867E+02  0.96552015777E+02  0.47000000000E+01 0.  1.
<mgrwt>
<rscale>  0 0.13326900E+03</rscale>
<asrwt>0</asrwt>
<pdfrwt beam="2">  1        5 0.11814661E-01 0.13327113E+03</pdfrwt>
<pdfrwt beam="1">  1       -5 0.35910021E-01 0.13327113E+03</pdfrwt>
<totfact> 0.32348810E+02</totfact>
</mgrwt>
</event>
<event>
 8    1  0.3542708E-007  0.1420402E+03  0.7546771E-02  0.1210614E+00
          5   -1    0    0  501    0  0.00000000000E+00  0.00000000000E+00  0.10881797840E+03  0.10891943088E+03  0.47000000000E+01 0. -1.
         -5   -1    0    0    0  501 -0.00000000000E+00 -0.00000000000E+00 -0.18697881048E+03  0.18703787201E+03  0.47000000000E+01 0. -1.
         25    2    1    2    0    0 -0.34401084980E+00  0.67434446823E+02 -0.53623611456E+02  0.15181330151E+03  0.12499705536E+03 0.  0.
         25    2    1    2    0    0  0.34401084980E+00 -0.67434446823E+02 -0.24537220617E+02  0.14414400138E+03  0.12501157937E+03 0.  0.
          5    1    3    3  502    0 -0.16701208036E+02  0.10071118031E+03 -0.26329477881E+02  0.10553200271E+03  0.47000000000E+01 0.  1.
         -5    1    3    3    0  502  0.16357197186E+02 -0.33276733490E+02 -0.27294133575E+02  0.46281298806E+02  0.47000000000E+01 0.  1.
          5    1    4    4  503    0  0.90096949052E+01 -0.83553014453E+02  0.27688147967E+02  0.88605893508E+02  0.47000000000E+01 0.  1.
         -5    1    4    4    0  503 -0.86656840554E+01  0.16118567630E+02 -0.52225368584E+02  0.55538107875E+02  0.47000000000E+01 0.  1.
<mgrwt>
<rscale>  0 0.14203700E+03</rscale>
<asrwt>0</asrwt>
<pdfrwt beam="1">  1        5 0.16753575E-01 0.14204020E+03</pdfrwt>
<pdfrwt beam="2">  1       -5 0.28778318E-01 0.14204020E+03</pdfrwt>
<totfact> 0.27344934E+02</totfact>
</mgrwt>
</event>
<event>
 8    1  0.3542708E-007  0.1402782E+03  0.7546771E-02  0.1212957E+00
         -5   -1    0    0    0  501 -0.00000000000E+00  0.00000000000E+00  0.16212853236E+03  0.16219664301E+03  0.47000000000E+01 0.  1.
          5   -1    0    0  501    0  0.00000000000E+00 -0.00000000000E+00 -0.13178765920E+03  0.13187144163E+03  0.47000000000E+01 0.  1.
         25    2    1    2    0    0 -0.34094569522E+02 -0.53787424914E+02  0.56763704161E+02  0.15132308295E+03  0.12498412128E+03 0.  0.
         25    2    1    2    0    0  0.34094569522E+02  0.53787424914E+02 -0.26422831007E+02  0.14274500170E+03  0.12498977063E+03 0.  0.
          5    1    4    4  502    0  0.13838596157E+02  0.43563546341E+02 -0.75550722824E+02  0.88426755186E+02  0.47000000000E+01 0. -1.
         -5    1    4    4    0  502  0.20255973365E+02  0.10223878572E+02  0.49127891817E+02  0.54318246515E+02  0.47000000000E+01 0. -1.
          5    1    3    3  503    0 -0.71139677861E+02 -0.30942682651E+01  0.51771218843E+02  0.88163356123E+02  0.47000000000E+01 0. -1.
         -5    1    3    3    0  503  0.37045108339E+02 -0.50693156649E+02  0.49924853181E+01  0.63159726824E+02  0.47000000000E+01 0. -1.
<mgrwt>
<rscale>  0 0.14027693E+03</rscale>
<asrwt>0</asrwt>
<pdfrwt beam="2">  1        5 0.20286709E-01 0.14027819E+03</pdfrwt>
<pdfrwt beam="1">  1       -5 0.24954535E-01 0.14027819E+03</pdfrwt>
<totfact> 0.25177989E+02</totfact>
</mgrwt>
</event>
<event>
 8    1  0.3542708E-007  0.2844613E+03  0.7546771E-02  0.1093278E+00
         -5   -1    0    0    0  501 -0.00000000000E+00  0.00000000000E+00  0.22143968962E+03  0.22148956215E+03  0.47000000000E+01 0. -1.
          5   -1    0    0  501    0  0.00000000000E+00 -0.00000000000E+00 -0.43612872341E+03  0.43615404777E+03  0.47000000000E+01 0. -1.
         25    2    1    2    0    0  0.24109757940E+03 -0.84628966983E+02  0.25154074486E+02  0.28556441690E+03  0.12499681551E+03 0.  0.
         25    2    1    2    0    0 -0.24109757940E+03  0.84628966983E+02 -0.23984310827E+03  0.37207919302E+03  0.12501241717E+03 0.  0.
          5    1    3    3  502    0  0.63820789596E+02 -0.46673302356E+02  0.61898994847E+02  0.10052395685E+03  0.47000000000E+01 0.  1.
         -5    1    3    3    0  502  0.17727678981E+03 -0.37955664627E+02 -0.36744920361E+02  0.18504046005E+03  0.47000000000E+01 0.  1.
          5    1    4    4  503    0 -0.13476441963E+02 -0.25759946474E+02 -0.12742363082E+02  0.32088115358E+02  0.47000000000E+01 0.  1.
         -5    1    4    4    0  503 -0.22762113744E+03  0.11038891346E+03 -0.22710074519E+03  0.33999107766E+03  0.47000000000E+01 0.  1.
<mgrwt>
<rscale>  0 0.28445955E+03</rscale>
<asrwt>0</asrwt>
<pdfrwt beam="2">  1        5 0.67102511E-01 0.28446126E+03</pdfrwt>
<pdfrwt beam="1">  1       -5 0.34073429E-01 0.28446126E+03</pdfrwt>
<totfact> 0.14288652E+01</totfact>
</mgrwt>
</event>
<event>
 8    1  0.3542708E-007  0.1283774E+03  0.7546771E-02  0.1229899E+00
         -5   -1    0    0    0  501 -0.00000000000E+00  0.00000000000E+00  0.29170153983E+03  0.29173940142E+03  0.47000000000E+01 0. -1.
          5   -1    0    0  501    0  0.00000000000E+00 -0.00000000000E+00 -0.56501435569E+02  0.56696580333E+02  0.47000000000E+01 0. -1.
         25    2    1    2    0    0 -0.27288348139E+02  0.99989281900E+01  0.12684999871E+03  0.18044642735E+03  0.12500143384E+03 0.  0.
         25    2    1    2    0    0  0.27288348139E+02 -0.99989281900E+01  0.10835010556E+03  0.16798955440E+03  0.12504444212E+03 0.  0.
          5    1    3    3  502    0 -0.92362060082E+01 -0.55676658435E+02  0.37193916644E+02  0.67754521851E+02  0.47000000000E+01 0.  1.
         -5    1    3    3    0  502 -0.18052142131E+02  0.65675586625E+02  0.89656082063E+02  0.11269190550E+03  0.47000000000E+01 0.  1.
          5    1    4    4  503    0 -0.65907475777E+01 -0.58088218814E+02  0.87629258742E+02  0.10544503832E+03  0.47000000000E+01 0.  1.
         -5    1    4    4    0  503  0.33879095717E+02  0.48089290624E+02  0.20720846813E+02  0.62544516082E+02  0.47000000000E+01 0.  1.
<mgrwt>
<rscale>  0 0.12836688E+03</rscale>
<asrwt>0</asrwt>
<pdfrwt beam="2">  1        5 0.87104521E-02 0.12837735E+03</pdfrwt>
<pdfrwt beam="1">  1       -5 0.44895083E-01 0.12837735E+03</pdfrwt>
<totfact> 0.34418140E+02</totfact>
</mgrwt>
</event>
<event>
 8    1  0.3542708E-007  0.1275553E+03  0.7546771E-02  0.1231131E+00
         -5   -1    0    0    0  501 -0.00000000000E+00  0.00000000000E+00  0.35322563001E+03  0.35325689759E+03  0.47000000000E+01 0.  1.
          5   -1    0    0  501    0  0.00000000000E+00 -0.00000000000E+00 -0.45951190225E+02  0.46190928580E+02  0.47000000000E+01 0.  1.
         25    2    1    2    0    0  0.35715234520E+01  0.25156403389E+02  0.15979218151E+03  0.20446002196E+03  0.12499903558E+03 0.  0.
         25    2    1    2    0    0 -0.35715234520E+01 -0.25156403389E+02  0.14748225827E+03  0.19498780421E+03  0.12499450738E+03 0.  0.
          5    1    4    4  502    0 -0.28763574083E+02  0.38067565588E+02  0.10281944846E+03  0.11344783702E+03  0.47000000000E+01 0. -1.
         -5    1    4    4    0  502  0.25192050631E+02 -0.63223968977E+02  0.44662809812E+02  0.81539967185E+02  0.47000000000E+01 0. -1.
          5    1    3    3  503    0  0.51866162670E+02  0.27109459429E+02  0.30108427229E+02  0.65982035516E+02  0.47000000000E+01 0.  1.
         -5    1    3    3    0  503 -0.48294639218E+02 -0.19530560395E+01  0.12968375428E+03  0.13847798645E+03  0.47000000000E+01 0.  1.
<mgrwt>
<rscale>  0 0.12755421E+03</rscale>
<asrwt>0</asrwt>
<pdfrwt beam="2">  1        5 0.70902605E-02 0.12755532E+03</pdfrwt>
<pdfrwt beam="1">  1       -5 0.54363251E-01 0.12755532E+03</pdfrwt>
<totfact> 0.32587760E+02</totfact>
</mgrwt>
</event>
<event>
 8    1  0.3542708E-007  0.1272394E+03  0.7546771E-02  0.1231612E+00
          5   -1    0    0  501    0  0.00000000000E+00  0.00000000000E+00  0.13581784900E+02  0.14372017293E+02  0.47000000000E+01 0.  1.
         -5   -1    0    0    0  501 -0.00000000000E+00 -0.00000000000E+00 -0.11608275177E+04  0.11608370324E+04  0.47000000000E+01 0.  1.
         25    2    1    2    0    0 -0.23617355093E+02  0.26677250715E+01 -0.54218573162E+03  0.55691504238E+03  0.12499640249E+03 0.  0.
         25    2    1    2    0    0  0.23617355093E+02 -0.26677250715E+01 -0.60506000118E+03  0.61829400734E+03  0.12499991307E+03 0.  0.
          5    1    4    4  502    0  0.29448722419E+01 -0.62992600995E+02 -0.31046457198E+03  0.31683920292E+03  0.47000000000E+01 0.  1.
         -5    1    4    4    0  502  0.20672482851E+02  0.60324875923E+02 -0.29459542919E+03  0.30145480441E+03  0.47000000000E+01 0.  1.
          5    1    3    3  503    0 -0.19431766964E+01 -0.32914795449E+02 -0.48427750734E+03  0.48542141878E+03  0.47000000000E+01 0. -1.
         -5    1    3    3    0  503 -0.21674178396E+02  0.35582520520E+02 -0.57908224278E+02  0.71493623596E+02  0.47000000000E+01 0. -1.
<mgrwt>
<rscale>  0 0.12723858E+03</rscale>
<asrwt>0</asrwt>
<pdfrwt beam="1">  1        5 0.21510253E-02 0.12723944E+03</pdfrwt>
<pdfrwt beam="2">  1       -5 0.17865029E+00 0.12723944E+03</pdfrwt>
<totfact> 0.12395703E+02</totfact>
</mgrwt>
</event>
<event>
 8    1  0.3542708E-007  0.1338074E+03  0.7546771E-02  0.1221916E+00
         -5   -1    0    0    0  501 -0.00000000000E+00  0.00000000000E+00  0.48699815134E+03  0.48702083057E+03  0.47000000000E+01 0. -1.
          5   -1    0    0  501    0  0.00000000000E+00 -0.00000000000E+00 -0.99883916595E+02  0.99994433817E+02  0.47000000000E+01 0. -1.
         25    2    1    2    0    0  0.42805206302E+02  0.21065109025E+02  0.42693339267E+03  0.44740868189E+03  0.12500552930E+03 0.  0.
         25    2    1    2    0    0 -0.42805206302E+02 -0.21065109025E+02 -0.39819157924E+02  0.13960658249E+03  0.12501363139E+03 0.  0.
          5    1    3    3  502    0  0.60505843153E+02  0.60624309682E+02  0.33270006151E+03  0.34358068181E+03  0.47000000000E+01 0. -1.
         -5    1    3    3    0  502 -0.17700636851E+02 -0.39559200657E+02  0.94233331153E+02  0.10382800009E+03  0.47000000000E+01 0. -1.
          5    1    4    4  503    0  0.37667628144E+01  0.84616059971E+00  0.42214033630E+02  0.42649960436E+02  0.47000000000E+01 0.  1.
         -5    1    4    4    0  503 -0.46571969116E+02 -0.21911269625E+02 -0.82033191554E+02  0.96956622056E+02  0.47000000000E+01 0.  1.
<mgrwt>
<rscale>  0 0.13380555E+03</rscale>
<asrwt>0</asrwt>
<pdfrwt beam="2">  1        5 0.15377003E-01 0.13380745E+03</pdfrwt>
<pdfrwt beam="1">  1       -5 0.74933036E-01 0.13380745E+03</pdfrwt>
<totfact> 0.41970149E+01</totfact>
</mgrwt>
</event>
<event>
 8    1  0.3542708E-007  0.1355505E+03  0.7546771E-02  0.1219446E+00
         -5   -1    0    0    0  501 -0.00000000000E+00  0.00000000000E+00  0.21314722539E+03  0.21319903774E+03  0.47000000000E+01 0.  1.
          5   -1    0    0  501    0  0.00000000000E+00 -0.00000000000E+00 -0.86079420299E+02  0.86207636547E+02  0.47000000000E+01 0.  1.
         25    2    1    2    0    0  0.45203310395E+02 -0.26545471800E+02  0.62416518681E+02  0.14923053525E+03  0.12500371796E+03 0.  0.
         25    2    1    2    0    0 -0.45203310395E+02  0.26545471800E+02  0.64651286411E+02  0.15017613903E+03  0.12500033022E+03 0.  0.
          5    1    4    4  502    0 -0.72282754785E+02  0.25425896498E+02 -0.33302184753E+01  0.76840439921E+02  0.47000000000E+01 0.  1.
         -5    1    4    4    0  502  0.27079444391E+02  0.11195753018E+01  0.67981504887E+02  0.73335699110E+02  0.47000000000E+01 0.  1.
          5    1    3    3  503    0  0.24162971297E+02 -0.68021848318E+02  0.13819041664E+01  0.72352060715E+02  0.47000000000E+01 0.  1.
         -5    1    3    3    0  503  0.21040339098E+02  0.41476376518E+02  0.61034614515E+02  0.76878474539E+02  0.47000000000E+01 0.  1.
<mgrwt>
<rscale>  0 0.13554969E+03</rscale>
<asrwt>0</asrwt>
<pdfrwt beam="2">  1        5 0.13256836E-01 0.13555047E+03</pdfrwt>
<pdfrwt beam="1">  1       -5 0.32805729E-01 0.13555047E+03</pdfrwt>
<totfact> 0.31762156E+02</totfact>
</mgrwt>
</event>
<event>
 8    1  0.3542708E-007  0.1294072E+03  0.7546771E-02  0.1228347E+00
          5   -1    0    0  501    0  0.00000000000E+00  0.00000000000E+00  0.49563661265E+02  0.49786007251E+02  0.47000000000E+01 0. -1.
         -5   -1    0    0    0  501 -0.00000000000E+00 -0.00000000000E+00 -0.34869672555E+03  0.34872839920E+03  0.47000000000E+01 0. -1.
         25    2    1    2    0    0  0.19598007754E+01 -0.33431982627E+02 -0.18634393207E+03  0.22687060573E+03  0.12499868977E+03 0.  0.
         25    2    1    2    0    0 -0.19598007754E+01  0.33431982627E+02 -0.11278913222E+03  0.17164380073E+03  0.12497466823E+03 0.  0.
          5    1    3    3  502    0 -0.59823335402E+02 -0.37971499066E+01 -0.97887162392E+02  0.11487922513E+03  0.47000000000E+01 0. -1.
         -5    1    3    3    0  502  0.61783136178E+02 -0.29634832721E+02 -0.88456769675E+02  0.11199138060E+03  0.47000000000E+01 0. -1.
          5    1    4    4  503    0  0.83594147856E+01 -0.47088024589E+02 -0.43152544832E+02  0.64586329829E+02  0.47000000000E+01 0.  1.
         -5    1    4    4    0  503 -0.10319215561E+02  0.80520007216E+02 -0.69636587388E+02  0.10705747090E+03  0.47000000000E+01 0.  1.
<mgrwt>
<rscale>  0 0.12940135E+03</rscale>
<asrwt>0</asrwt>
<pdfrwt beam="1">  1        5 0.76447188E-02 0.12940715E+03</pdfrwt>
<pdfrwt beam="2">  1       -5 0.53665189E-01 0.12940715E+03</pdfrwt>
<totfact> 0.29628532E+02</totfact>
</mgrwt>
</event>
<event>
 8    1  0.3542708E-007  0.1337054E+03  0.7546771E-02  0.1222063E+00
         -5   -1    0    0    0  501 -0.00000000000E+00  0.00000000000E+00  0.38141801167E+02  0.38430287487E+02  0.47000000000E+01 0.  1.
          5   -1    0    0  501    0  0.00000000000E+00 -0.00000000000E+00 -0.48348666022E+03  0.48350950416E+03  0.47000000000E+01 0.  1.
         25    2    1    2    0    0 -0.73799416765E+01 -0.46859056297E+02 -0.17390202062E+03  0.21935367697E+03  0.12499555243E+03 0.  0.
         25    2    1    2    0    0  0.73799416765E+01  0.46859056297E+02 -0.27144283843E+03  0.30258611467E+03  0.12500763002E+03 0.  0.
          5    1    3    3  502    0 -0.45588286183E+02 -0.20619409837E+02 -0.13093529707E+02  0.51932479426E+02  0.47000000000E+01 0.  1.
         -5    1    3    3    0  502  0.38208344506E+02 -0.26239646460E+02 -0.16080849092E+03  0.16742119754E+03  0.47000000000E+01 0.  1.
          5    1    4    4  503    0  0.20998697312E+02  0.71321912396E+02 -0.26243108066E+03  0.27280015134E+03  0.47000000000E+01 0. -1.
         -5    1    4    4    0  503 -0.13618755635E+02 -0.24462856099E+02 -0.90117577729E+01  0.29785963334E+02  0.47000000000E+01 0. -1.
<mgrwt>
<rscale>  0 0.13370261E+03</rscale>
<asrwt>0</asrwt>
<pdfrwt beam="2">  1        5 0.74406507E-01 0.13370543E+03</pdfrwt>
<pdfrwt beam="1">  1       -5 0.58919182E-02 0.13370543E+03</pdfrwt>
<totfact> 0.22631222E+02</totfact>
</mgrwt>
</event>
<event>
 8    1  0.3542708E-007  0.1268293E+03  0.7546771E-02  0.1232241E+00
         -5   -1    0    0    0  501 -0.00000000000E+00  0.00000000000E+00  0.29198833170E+03  0.29202615610E+03  0.47000000000E+01 0.  1.
          5   -1    0    0  501    0  0.00000000000E+00 -0.00000000000E+00 -0.10541158547E+03  0.10551631320E+03  0.47000000000E+01 0.  1.
         25    2    1    2    0    0  0.71678214573E+01  0.20180545783E+02  0.23070155864E+03  0.26326579302E+03  0.12500814583E+03 0.  0.
         25    2    1    2    0    0 -0.71678214573E+01 -0.20180545783E+02 -0.44124812408E+02  0.13427667628E+03  0.12499837851E+03 0.  0.
          5    1    4    4  502    0 -0.51973555540E+02 -0.49322002329E+02 -0.34888650007E+02  0.79832438824E+02  0.47000000000E+01 0. -1.
         -5    1    4    4    0  502  0.44805734083E+02  0.29141456546E+02 -0.92361624005E+01  0.54444237456E+02  0.47000000000E+01 0. -1.
          5    1    3    3  503    0  0.63056791621E+01 -0.43489538563E+02  0.32015971118E+02  0.54573014950E+02  0.47000000000E+01 0. -1.
         -5    1    3    3    0  503  0.86214229511E+00  0.63670084345E+02  0.19868558752E+03  0.20869277807E+03  0.47000000000E+01 0. -1.
<mgrwt>
<rscale>  0 0.12682688E+03</rscale>
<asrwt>0</asrwt>
<pdfrwt beam="2">  1        5 0.16228133E-01 0.12682929E+03</pdfrwt>
<pdfrwt beam="1">  1       -5 0.44932246E-01 0.12682929E+03</pdfrwt>
<totfact> 0.11371901E+02</totfact>
</mgrwt>
</event>
<event>
 8    1  0.3542708E-007  0.1330647E+03  0.7546771E-02  0.1222983E+00
          5   -1    0    0  501    0  0.00000000000E+00  0.00000000000E+00  0.14583954327E+02  0.15322588679E+02  0.47000000000E+01 0.  1.
         -5   -1    0    0    0  501 -0.00000000000E+00 -0.00000000000E+00 -0.13019118510E+04  0.13019203346E+04  0.47000000000E+01 0.  1.
         25    2    1    2    0    0  0.45230954893E+02 -0.56501325717E+01 -0.84248046785E+03  0.85292411992E+03  0.12501380862E+03 0.  0.
         25    2    1    2    0    0 -0.45230954893E+02  0.56501325717E+01 -0.44484742878E+03  0.46431880337E+03  0.12499981197E+03 0.  0.
          5    1    4    4  502    0  0.35886552704E+02  0.31047472399E+02 -0.14667314055E+03  0.15422999179E+03  0.47000000000E+01 0. -1.
         -5    1    4    4    0  502 -0.81117507596E+02 -0.25397339827E+02 -0.29817428823E+03  0.31008881158E+03  0.47000000000E+01 0. -1.
          5    1    3    3  503    0  0.62768062891E+02  0.19440294090E+02 -0.78387738814E+03  0.78664070858E+03  0.47000000000E+01 0. -1.
         -5    1    3    3    0  503 -0.17537107999E+02 -0.25090426662E+02 -0.58603079710E+02  0.66283411338E+02  0.47000000000E+01 0. -1.
<mgrwt>
<rscale>  0 0.13306142E+03</rscale>
<asrwt>0</asrwt>
<pdfrwt beam="1">  1        5 0.23011569E-02 0.13306470E+03</pdfrwt>
<pdfrwt beam="2">  1       -5 0.20035151E+00 0.13306470E+03</pdfrwt>
<totfact> 0.79930868E+01</totfact>
</mgrwt>
</event>
<event>
 8    1  0.3542708E-007  0.1637265E+03  0.7546771E-02  0.1184555E+00
         -5   -1    0    0    0  501 -0.00000000000E+00  0.00000000000E+00  0.10057093353E+03  0.10068069662E+03  0.47000000000E+01 0.  1.
          5   -1    0    0  501    0  0.00000000000E+00 -0.00000000000E+00 -0.27062289972E+03  0.27066370989E+03  0.47000000000E+01 0.  1.
         25    2    1    2    0    0  0.10378563425E+03 -0.20243617946E+02 -0.61436783122E+02  0.17486631927E+03  0.12498995700E+03 0.  0.
         25    2    1    2    0    0 -0.10378563425E+03  0.20243617946E+02 -0.10861518307E+03  0.19647808724E+03  0.12500047531E+03 0.  0.
          5    1    4    4  502    0 -0.67895800046E+02 -0.49137647870E+02 -0.69558302660E+02  0.10901740949E+03  0.47000000000E+01 0. -1.
         -5    1    4    4    0  502 -0.35889834203E+02  0.69381265816E+02 -0.39056880409E+02  0.87460677751E+02  0.47000000000E+01 0. -1.
          5    1    3    3  503    0  0.90555268303E+02  0.41984112159E+02 -0.37856839353E+02  0.10685575594E+03  0.47000000000E+01 0.  1.
         -5    1    3    3    0  503  0.13230365946E+02 -0.62227730105E+02 -0.23579943770E+02  0.68010563336E+02  0.47000000000E+01 0.  1.
<mgrwt>
<rscale>  0 0.16372454E+03</rscale>
<asrwt>0</asrwt>
<pdfrwt beam="2">  1        5 0.41645875E-01 0.16372654E+03</pdfrwt>
<pdfrwt beam="1">  1       -5 0.15484034E-01 0.16372654E+03</pdfrwt>
<totfact> 0.15757489E+02</totfact>
</mgrwt>
</event>
<event>
 8    1  0.3542708E-007  0.1470215E+03  0.7546771E-02  0.1204200E+00
         -5   -1    0    0    0  501 -0.00000000000E+00  0.00000000000E+00  0.12681539002E+03  0.12690245524E+03  0.47000000000E+01 0. -1.
          5   -1    0    0  501    0  0.00000000000E+00 -0.00000000000E+00 -0.17540664675E+03  0.17546960342E+03  0.47000000000E+01 0. -1.
         25    2    1    2    0    0  0.58699145951E+02  0.50440478691E+02  0.17468841429E+01  0.14697180751E+03  0.12493129701E+03 0.  0.
         25    2    1    2    0    0 -0.58699145951E+02 -0.50440478691E+02 -0.50338140875E+02  0.15540025115E+03  0.12500191201E+03 0.  0.
          5    1    4    4  502    0 -0.72393504346E+02 -0.62185879439E+02 -0.77104691768E+02  0.12278080699E+03  0.47000000000E+01 0.  1.
         -5    1    4    4    0  502  0.13694358394E+02  0.11745400748E+02  0.26766550893E+02  0.32619444160E+02  0.47000000000E+01 0.  1.
          5    1    3    3  503    0 -0.24701739238E+01 -0.38524415429E+02  0.10281994362E+01  0.38902179084E+02  0.47000000000E+01 0.  1.
         -5    1    3    3    0  503  0.61169319875E+02  0.88964894120E+02  0.71868470664E+00  0.10806962842E+03  0.47000000000E+01 0.  1.
<mgrwt>
<rscale>  0 0.14700645E+03</rscale>
<asrwt>0</asrwt>
<pdfrwt beam="2">  1        5 0.26997178E-01 0.14702146E+03</pdfrwt>
<pdfrwt beam="1">  1       -5 0.19521600E-01 0.14702146E+03</pdfrwt>
<totfact> 0.23616496E+02</totfact>
</mgrwt>
</event>
<event>
 8    1  0.3542708E-007  0.1401033E+03  0.7546771E-02  0.1213196E+00
          5   -1    0    0  501    0  0.00000000000E+00  0.00000000000E+00  0.80317053262E+02  0.80454453231E+02  0.47000000000E+01 0. -1.
         -5   -1    0    0    0  501 -0.00000000000E+00 -0.00000000000E+00 -0.29405826139E+03  0.29409581957E+03  0.47000000000E+01 0. -1.
         25    2    1    2    0    0 -0.20866898607E+02  0.59708865812E+02 -0.18412585546E+03  0.23136825147E+03  0.12501344338E+03 0.  0.
         25    2    1    2    0    0  0.20866898607E+02 -0.59708865812E+02 -0.29615352665E+02  0.14318202133E+03  0.12499378387E+03 0.  0.
          5    1    3    3  502    0  0.21636287969E+01 -0.38560912271E+02 -0.46402357678E+02  0.60554884550E+02  0.47000000000E+01 0. -1.
         -5    1    3    3    0  502 -0.23030527404E+02  0.98269778084E+02 -0.13772349778E+03  0.17081336692E+03  0.47000000000E+01 0. -1.
          5    1    4    4  503    0  0.61689189373E+02 -0.60462192499E+02 -0.47124286581E+02  0.98508990417E+02  0.47000000000E+01 0. -1.
         -5    1    4    4    0  503 -0.40822290765E+02  0.75332668644E+00  0.17508933916E+02  0.44673030917E+02  0.47000000000E+01 0. -1.
<mgrwt>
<rscale>  0 0.14009892E+03</rscale>
<asrwt>0</asrwt>
<pdfrwt beam="1">  1        5 0.12369928E-01 0.14010331E+03</pdfrwt>
<pdfrwt beam="2">  1       -5 0.45253190E-01 0.14010331E+03</pdfrwt>
<totfact> 0.18888647E+02</totfact>
</mgrwt>
</event>
<event>
 8    1  0.3542708E-007  0.1341011E+03  0.7546771E-02  0.1221496E+00
         -5   -1    0    0    0  501 -0.00000000000E+00  0.00000000000E+00  0.31523075093E+02  0.31871527471E+02  0.47000000000E+01 0. -1.
          5   -1    0    0  501    0  0.00000000000E+00 -0.00000000000E+00 -0.70663616673E+03  0.70665179695E+03  0.47000000000E+01 0. -1.
         25    2    1    2    0    0 -0.28358174180E+02  0.39401319568E+02 -0.17342632559E+03  0.21922311188E+03  0.12500172937E+03 0.  0.
         25    2    1    2    0    0  0.28358174180E+02 -0.39401319568E+02 -0.50168676604E+03  0.51930021254E+03  0.12500579785E+03 0.  0.
          5    1    3    3  502    0 -0.61255506771E+02  0.20145109893E+02 -0.16852830006E+03  0.18050468272E+03  0.47000000000E+01 0.  1.
         -5    1    3    3    0  502  0.32897332591E+02  0.19256209674E+02 -0.48980255363E+01  0.38718429162E+02  0.47000000000E+01 0.  1.
          5    1    4    4  503    0 -0.33831624736E+02  0.25884315598E+02 -0.13379048427E+03  0.14048686881E+03  0.47000000000E+01 0.  1.
         -5    1    4    4    0  503  0.62189798916E+02 -0.65285635165E+02 -0.36789628178E+03  0.37881334374E+03  0.47000000000E+01 0.  1.
<mgrwt>
<rscale>  0 0.13410013E+03</rscale>
<asrwt>0</asrwt>
<pdfrwt beam="2">  1        5 0.10874125E+00 0.13410108E+03</pdfrwt>
<pdfrwt beam="1">  1       -5 0.48777107E-02 0.13410108E+03</pdfrwt>
<totfact> 0.12607237E+02</totfact>
</mgrwt>
</event>
<event>
 8    1  0.3542708E-007  0.1520128E+03  0.7546771E-02  0.1198022E+00
          5   -1    0    0  501    0  0.00000000000E+00  0.00000000000E+00  0.29720109129E+02  0.30089448095E+02  0.47000000000E+01 0. -1.
         -5   -1    0    0    0  501 -0.00000000000E+00 -0.00000000000E+00 -0.77707421556E+03  0.77708842900E+03  0.47000000000E+01 0. -1.
         25    2    1    2    0    0  0.46311671474E+02  0.73068835562E+02 -0.40519668366E+03  0.43277221250E+03  0.12499443914E+03 0.  0.
         25    2    1    2    0    0 -0.46311671474E+02 -0.73068835562E+02 -0.34215742277E+03  0.37440566460E+03  0.12499629627E+03 0.  0.
          5    1    4    4  502    0 -0.25965994036E+02 -0.10694070305E+03 -0.27649452173E+03  0.29762704407E+03  0.47000000000E+01 0.  1.
         -5    1    4    4    0  502 -0.20345677438E+02  0.33871867486E+02 -0.65662901046E+02  0.76778620534E+02  0.47000000000E+01 0.  1.
          5    1    3    3  503    0 -0.26300415241E+02  0.61296487013E+02 -0.11190795797E+03  0.13036277160E+03  0.47000000000E+01 0.  1.
         -5    1    3    3    0  503  0.72612086715E+02  0.11772348549E+02 -0.29328872569E+03  0.30240944090E+03  0.47000000000E+01 0.  1.
<mgrwt>
<rscale>  0 0.15201245E+03</rscale>
<asrwt>0</asrwt>
<pdfrwt beam="1">  1        5 0.46018291E-02 0.15201283E+03</pdfrwt>
<pdfrwt beam="2">  1       -5 0.11957937E+00 0.15201283E+03</pdfrwt>
<totfact> 0.11380947E+02</totfact>
</mgrwt>
</event>
<event>
 8    1  0.3542708E-007  0.1294114E+03  0.7546771E-02  0.1228332E+00
          5   -1    0    0  501    0  0.00000000000E+00  0.00000000000E+00  0.34379269206E+03  0.34382481748E+03  0.47000000000E+01 0. -1.
         -5   -1    0    0    0  501 -0.00000000000E+00 -0.00000000000E+00 -0.61349603817E+02  0.61529374192E+02  0.47000000000E+01 0. -1.
         25    2    1    2    0    0 -0.32428700959E+02 -0.83763594754E+01  0.48878888727E+02  0.13833456805E+03  0.12500209162E+03 0.  0.
         25    2    1    2    0    0  0.32428700959E+02  0.83763594754E+01  0.23356419952E+03  0.26701962362E+03  0.12500184022E+03 0.  0.
          5    1    3    3  502    0 -0.73767818588E+02 -0.13973181103E+02  0.58464422815E+02  0.95273918700E+02  0.47000000000E+01 0. -1.
         -5    1    3    3    0  502  0.41339117629E+02  0.55968216274E+01 -0.95855340874E+01  0.43060649350E+02  0.47000000000E+01 0. -1.
          5    1    4    4  503    0 -0.32521056811E+02  0.38085715413E+02  0.54424829566E+02  0.74110005585E+02  0.47000000000E+01 0.  1.
         -5    1    4    4    0  503  0.64949757770E+02 -0.29709355938E+02  0.17913936995E+03  0.19290961804E+03  0.47000000000E+01 0.  1.
<mgrwt>
<rscale>  0 0.12941133E+03</rscale>
<asrwt>0</asrwt>
<pdfrwt beam="1">  1        5 0.52907481E-01 0.12941139E+03</pdfrwt>
<pdfrwt beam="2">  1       -5 0.94547007E-02 0.12941139E+03</pdfrwt>
<totfact> 0.21189751E+02</totfact>
</mgrwt>
</event>
<event>
 8    1  0.3542708E-007  0.2001716E+03  0.7546771E-02  0.1149597E+00
         -5   -1    0    0    0  501 -0.00000000000E+00  0.00000000000E+00  0.11955844133E+03  0.11965078726E+03  0.47000000000E+01 0.  1.
          5   -1    0    0  501    0  0.00000000000E+00 -0.00000000000E+00 -0.41004504844E+03  0.41007198362E+03  0.47000000000E+01 0.  1.
         25    2    1    2    0    0  0.90415645868E+02  0.12752454782E+03 -0.31854439183E+02  0.20267649605E+03  0.12500222973E+03 0.  0.
         25    2    1    2    0    0 -0.90415645868E+02 -0.12752454782E+03 -0.25863216793E+03  0.32704627483E+03  0.12502467068E+03 0.  0.
          5    1    4    4  502    0  0.75120129763E+01  0.18370316005E+02 -0.51447739712E+02  0.55343100478E+02  0.47000000000E+01 0. -1.
         -5    1    4    4    0  502 -0.97927658844E+02 -0.14589486383E+03 -0.20718442822E+03  0.27170317436E+03  0.47000000000E+01 0. -1.
          5    1    3    3  503    0  0.11620311372E+03  0.70650958466E+02 -0.10373318332E+02  0.13647130578E+03  0.47000000000E+01 0.  1.
         -5    1    3    3    0  503 -0.25787467847E+02  0.56873589359E+02 -0.21481120851E+02  0.66205190261E+02  0.47000000000E+01 0.  1.
<mgrwt>
<rscale>  0 0.20016809E+03</rscale>
<asrwt>0</asrwt>
<pdfrwt beam="2">  1        5 0.63093028E-01 0.20017160E+03</pdfrwt>
<pdfrwt beam="1">  1       -5 0.18402782E-01 0.20017160E+03</pdfrwt>
<totfact> 0.49888984E+01</totfact>
</mgrwt>
</event>
<event>
 8    1  0.3542708E-007  0.1545733E+03  0.7546771E-02  0.1194967E+00
         -5   -1    0    0    0  501 -0.00000000000E+00  0.00000000000E+00  0.35671212007E+03  0.35674308207E+03  0.47000000000E+01 0. -1.
          5   -1    0    0  501    0  0.00000000000E+00 -0.00000000000E+00 -0.70282518778E+02  0.70439494929E+02  0.47000000000E+01 0. -1.
         25    2    1    2    0    0  0.41098989527E+02  0.81084490337E+02  0.19028251953E+03  0.24514643373E+03  0.12500206086E+03 0.  0.
         25    2    1    2    0    0 -0.41098989527E+02 -0.81084490337E+02  0.96147081768E+02  0.18203614327E+03  0.12501629738E+03 0.  0.
          5    1    3    3  502    0 -0.22975505452E+02  0.35711059415E+02  0.39637852842E+01  0.42906353948E+02  0.47000000000E+01 0.  1.
         -5    1    3    3    0  502  0.64074494979E+02  0.45373430922E+02  0.18631873424E+03  0.20224007978E+03  0.47000000000E+01 0.  1.
          5    1    4    4  503    0 -0.65117580276E+02 -0.33692319264E+02  0.16049546918E+01  0.73485627969E+02  0.47000000000E+01 0.  1.
         -5    1    4    4    0  503  0.24018590750E+02 -0.47392171073E+02  0.94542127076E+02  0.10855051530E+03  0.47000000000E+01 0.  1.
<mgrwt>
<rscale>  0 0.15457039E+03</rscale>
<asrwt>0</asrwt>
<pdfrwt beam="2">  1        5 0.10827152E-01 0.15457327E+03</pdfrwt>
<pdfrwt beam="1">  1       -5 0.54893245E-01 0.15457327E+03</pdfrwt>
<totfact> 0.16390800E+02</totfact>
</mgrwt>
</event>
<event>
 8    1  0.3542708E-007  0.1596283E+03  0.7546771E-02  0.1189117E+00
         -5   -1    0    0    0  501 -0.00000000000E+00  0.00000000000E+00  0.12479664065E+03  0.12488511327E+03  0.47000000000E+01 0.  1.
          5   -1    0    0  501    0  0.00000000000E+00 -0.00000000000E+00 -0.20437516130E+03  0.20442919693E+03  0.47000000000E+01 0.  1.
         25    2    1    2    0    0  0.92639987974E+02  0.35683010142E+02 -0.46910083587E+02  0.16637742911E+03  0.12500179355E+03 0.  0.
         25    2    1    2    0    0 -0.92639987974E+02 -0.35683010142E+02 -0.32668437070E+02  0.16293688109E+03  0.12500302337E+03 0.  0.
          5    1    3    3  502    0  0.12842907221E+02  0.46461559997E+02 -0.67551005455E+02  0.83119463192E+02  0.47000000000E+01 0.  1.
         -5    1    3    3    0  502  0.79797080753E+02 -0.10778549855E+02  0.20640921868E+02  0.83257965921E+02  0.47000000000E+01 0.  1.
          5    1    4    4  503    0 -0.10205767713E+03 -0.61406716968E+02  0.10951699856E+01  0.11920504916E+03  0.47000000000E+01 0. -1.
         -5    1    4    4    0  503  0.94176891506E+01  0.25723706826E+02 -0.33763607055E+02  0.43731831921E+02  0.47000000000E+01 0. -1.
<mgrwt>
<rscale>  0 0.15962808E+03</rscale>
<asrwt>0</asrwt>
<pdfrwt beam="2">  1        5 0.31453295E-01 0.15962832E+03</pdfrwt>
<pdfrwt beam="1">  1       -5 0.19210445E-01 0.15962832E+03</pdfrwt>
<totfact> 0.18536397E+02</totfact>
</mgrwt>
</event>
<event>
 8    1  0.3542708E-007  0.1307771E+03  0.7546771E-02  0.1226309E+00
         -5   -1    0    0    0  501 -0.00000000000E+00  0.00000000000E+00  0.12382378894E+03  0.12391295617E+03  0.47000000000E+01 0. -1.
          5   -1    0    0  501    0  0.00000000000E+00 -0.00000000000E+00 -0.15992623590E+03  0.15999528409E+03  0.47000000000E+01 0. -1.
         25    2    1    2    0    0  0.78662043394E-01 -0.38418541719E+02  0.34558629914E+02  0.13526617505E+03  0.12500659452E+03 0.  0.
         25    2    1    2    0    0 -0.78662043394E-01  0.38418541719E+02 -0.70661076880E+02  0.14864206521E+03  0.12500194090E+03 0.  0.
          5    1    3    3  502    0 -0.35259446794E+02 -0.12313605533E+02  0.69430275990E+02  0.78977887370E+02  0.47000000000E+01 0. -1.
         -5    1    3    3    0  502  0.35338108837E+02 -0.26104936186E+02 -0.34871646076E+02  0.56288287676E+02  0.47000000000E+01 0. -1.
          5    1    4    4  503    0  0.53272707702E+02  0.20741783199E+02  0.10980634239E+01  0.57371584425E+02  0.47000000000E+01 0.  1.
         -5    1    4    4    0  503 -0.53351369745E+02  0.17676758520E+02 -0.71759140304E+02  0.91270480784E+02  0.47000000000E+01 0.  1.
<mgrwt>
<rscale>  0 0.13077595E+03</rscale>
<asrwt>0</asrwt>
<pdfrwt beam="2">  1        5 0.24616207E-01 0.13077706E+03</pdfrwt>
<pdfrwt beam="1">  1       -5 0.19061984E-01 0.13077706E+03</pdfrwt>
<totfact> 0.28328397E+02</totfact>
</mgrwt>
</event>
<event>
 8    1  0.3542708E-007  0.1323856E+03  0.7546771E-02  0.1223961E+00
          5   -1    0    0  501    0  0.00000000000E+00  0.00000000000E+00  0.47752615316E+02  0.47983354088E+02  0.47000000000E+01 0.  1.
         -5   -1    0    0    0  501 -0.00000000000E+00 -0.00000000000E+00 -0.60226901514E+03  0.60228735384E+03  0.47000000000E+01 0.  1.
         25    2    1    2    0    0 -0.10672811711E+02 -0.42252165610E+02 -0.48092368669E+03  0.49881213699E+03  0.12500720452E+03 0.  0.
         25    2    1    2    0    0  0.10672811711E+02  0.42252165610E+02 -0.73592713137E+02  0.15145857094E+03  0.12499862750E+03 0.  0.
          5    1    3    3  502    0 -0.36752456150E+02 -0.77252021977E+02 -0.26625606195E+03  0.27970162399E+03  0.47000000000E+01 0. -1.
         -5    1    3    3    0  502  0.26079644439E+02  0.34999856367E+02 -0.21466762473E+03  0.21911051300E+03  0.47000000000E+01 0. -1.
          5    1    4    4  503    0  0.48058072838E+02  0.18205922229E+02  0.13694958024E+02  0.53391720748E+02  0.47000000000E+01 0.  1.
         -5    1    4    4    0  503 -0.37385261128E+02  0.24046243381E+02 -0.87287671161E+02  0.98066850194E+02  0.47000000000E+01 0.  1.
<mgrwt>
<rscale>  0 0.13238361E+03</rscale>
<asrwt>0</asrwt>
<pdfrwt beam="1">  1        5 0.73657164E-02 0.13238563E+03</pdfrwt>
<pdfrwt beam="2">  1       -5 0.92675926E-01 0.13238563E+03</pdfrwt>
<totfact> 0.92726029E+01</totfact>
</mgrwt>
</event>
<event>
 8    1  0.3542708E-007  0.1411505E+03  0.7546771E-02  0.1211790E+00
          5   -1    0    0  501    0  0.00000000000E+00  0.00000000000E+00  0.43020202454E+03  0.43022769776E+03  0.47000000000E+01 0.  1.
         -5   -1    0    0    0  501 -0.00000000000E+00 -0.00000000000E+00 -0.79354981477E+02  0.79494044338E+02  0.47000000000E+01 0.  1.
         25    2    1    2    0    0 -0.58280140045E+02 -0.30022380826E+02  0.10822382245E+02  0.14156383907E+03  0.12500111400E+03 0.  0.
         25    2    1    2    0    0  0.58280140045E+02  0.30022380826E+02  0.34002466082E+03  0.36815790303E+03  0.12500221408E+03 0.  0.
          5    1    3    3  502    0 -0.63844258510E+02  0.34487741165E+02 -0.99685854902E+01  0.73395887705E+02  0.47000000000E+01 0.  1.
         -5    1    3    3    0  502  0.55641184645E+01 -0.64510121991E+02  0.20790967735E+02  0.68167951363E+02  0.47000000000E+01 0.  1.
          5    1    4    4  503    0  0.98440674668E+01  0.45525418993E+02  0.29901563837E+03  0.30265807676E+03  0.47000000000E+01 0. -1.
         -5    1    4    4    0  503  0.48436072578E+02 -0.15503038167E+02  0.41009022452E+02  0.65499826272E+02  0.47000000000E+01 0. -1.
<mgrwt>
<rscale>  0 0.14115028E+03</rscale>
<asrwt>0</asrwt>
<pdfrwt beam="1">  1        5 0.66197598E-01 0.14115053E+03</pdfrwt>
<pdfrwt beam="2">  1       -5 0.12221131E-01 0.14115053E+03</pdfrwt>
<totfact> 0.85231608E+01</totfact>
</mgrwt>
</event>
<event>
 8    1  0.3542708E-007  0.1375216E+03  0.7546771E-02  0.1216724E+00
         -5   -1    0    0    0  501 -0.00000000000E+00  0.00000000000E+00  0.50712180650E+02  0.50929512723E+02  0.47000000000E+01 0. -1.
          5   -1    0    0  501    0  0.00000000000E+00 -0.00000000000E+00 -0.47002627420E+03  0.47004977230E+03  0.47000000000E+01 0. -1.
         25    2    1    2    0    0 -0.14384110067E+02  0.55339745920E+02 -0.90607151487E+02  0.16468712237E+03  0.12507118882E+03 0.  0.
         25    2    1    2    0    0  0.14384110067E+02 -0.55339745920E+02 -0.32870694206E+03  0.35629216265E+03  0.12500584509E+03 0.  0.
          5    1    3    3  502    0 -0.75419423670E+01 -0.19008138711E+02 -0.87319351119E+02  0.89805062840E+02  0.47000000000E+01 0.  1.
         -5    1    3    3    0  502 -0.68421676996E+01  0.74347884631E+02 -0.32878003678E+01  0.74882059528E+02  0.47000000000E+01 0.  1.
          5    1    4    4  503    0  0.67235234626E+02 -0.23277369453E+02 -0.13174452799E+03  0.14980361597E+03  0.47000000000E+01 0. -1.
         -5    1    4    4    0  503 -0.52851124559E+02 -0.32062376467E+02 -0.19696241407E+03  0.20648854668E+03  0.47000000000E+01 0. -1.
<mgrwt>
<rscale>  0 0.13750675E+03</rscale>
<asrwt>0</asrwt>
<pdfrwt beam="2">  1        5 0.72330257E-01 0.13752161E+03</pdfrwt>
<pdfrwt beam="1">  1       -5 0.78203997E-02 0.13752161E+03</pdfrwt>
<totfact> 0.15078017E+02</totfact>
</mgrwt>
</event>
<event>
 8    1  0.3542708E-007  0.1414811E+03  0.7546771E-02  0.1211350E+00
         -5   -1    0    0    0  501 -0.00000000000E+00  0.00000000000E+00  0.36782950455E+03  0.36785953083E+03  0.47000000000E+01 0.  1.
          5   -1    0    0  501    0  0.00000000000E+00 -0.00000000000E+00 -0.66473356789E+02  0.66639306440E+02  0.47000000000E+01 0.  1.
         25    2    1    2    0    0  0.60475012082E+02 -0.27104473636E+02  0.24355643410E+03  0.28166761680E+03  0.12500012074E+03 0.  0.
         25    2    1    2    0    0 -0.60475012082E+02  0.27104473636E+02  0.57799713663E+02  0.15283122046E+03  0.12499878188E+03 0.  0.
          5    1    4    4  502    0 -0.15884333067E+02 -0.38346819033E+01 -0.38557911291E+02  0.42140471585E+02  0.47000000000E+01 0. -1.
         -5    1    4    4    0  502 -0.44590679015E+02  0.30939155540E+02  0.96357624954E+02  0.11069074888E+03  0.47000000000E+01 0. -1.
          5    1    3    3  503    0  0.22746004718E+02 -0.53164536955E+02  0.34306413775E+02  0.67400806719E+02  0.47000000000E+01 0. -1.
         -5    1    3    3    0  503  0.37729007364E+02  0.26060063319E+02  0.20925002033E+03  0.21426681008E+03  0.47000000000E+01 0. -1.
<mgrwt>
<rscale>  0 0.14148083E+03</rscale>
<asrwt>0</asrwt>
<pdfrwt beam="2">  1        5 0.10241746E-01 0.14148113E+03</pdfrwt>
<pdfrwt beam="1">  1       -5 0.56604229E-01 0.14148113E+03</pdfrwt>
<totfact> 0.16429237E+02</totfact>
</mgrwt>
</event>
<event>
 8    1  0.3542708E-007  0.1259819E+03  0.7546771E-02  0.1233544E+00
         -5   -1    0    0    0  501 -0.00000000000E+00  0.00000000000E+00  0.16786766959E+03  0.16793345258E+03  0.47000000000E+01 0. -1.
          5   -1    0    0  501    0  0.00000000000E+00 -0.00000000000E+00 -0.11779689080E+03  0.11789061660E+03  0.47000000000E+01 0. -1.
         25    2    1    2    0    0 -0.82331506177E+01  0.13247502289E+02  0.88677736758E+02  0.15405934996E+03  0.12500904458E+03 0.  0.
         25    2    1    2    0    0  0.82331506177E+01 -0.13247502289E+02 -0.38606957964E+02  0.13176471921E+03  0.12501265112E+03 0.  0.
          5    1    4    4  502    0 -0.47633516874E+02 -0.17729513631E+02 -0.53130891913E+02  0.73676789146E+02  0.47000000000E+01 0. -1.
         -5    1    4    4    0  502  0.55866667491E+02  0.44820113422E+01  0.14523933949E+02  0.58087930068E+02  0.47000000000E+01 0. -1.
          5    1    3    3  503    0 -0.62167491086E+02  0.29817144370E+02  0.43875940327E+02  0.81859924175E+02  0.47000000000E+01 0. -1.
         -5    1    3    3    0  503  0.53934340468E+02 -0.16569642081E+02  0.44801796430E+02  0.72199425786E+02  0.47000000000E+01 0. -1.
<mgrwt>
<rscale>  0 0.12598102E+03</rscale>
<asrwt>0</asrwt>
<pdfrwt beam="2">  1        5 0.18134869E-01 0.12598192E+03</pdfrwt>
<pdfrwt beam="1">  1       -5 0.25838065E-01 0.12598192E+03</pdfrwt>
<totfact> 0.27928180E+02</totfact>
</mgrwt>
</event>
<event>
 8    1  0.3542708E-007  0.1250543E+03  0.7546771E-02  0.1234986E+00
          5   -1    0    0  501    0  0.00000000000E+00  0.00000000000E+00  0.12190046090E+03  0.12199103396E+03  0.47000000000E+01 0.  1.
         -5   -1    0    0    0  501 -0.00000000000E+00 -0.00000000000E+00 -0.14794154419E+03  0.14801618323E+03  0.47000000000E+01 0.  1.
         25    2    1    2    0    0 -0.26620300757E+01 -0.23551128069E+01 -0.62429343636E+02  0.13977123440E+03  0.12500376818E+03 0.  0.
         25    2    1    2    0    0  0.26620300757E+01  0.23551128069E+01  0.36388260343E+02  0.13023598278E+03  0.12499869103E+03 0.  0.
          5    1    4    4  502    0 -0.26520250291E+02  0.98820453962E+01  0.75424400485E+02  0.80696398217E+02  0.47000000000E+01 0.  1.
         -5    1    4    4    0  502  0.29182280367E+02 -0.75269325893E+01 -0.39036140142E+02  0.49539584564E+02  0.47000000000E+01 0.  1.
          5    1    3    3  503    0 -0.13765358939E+02  0.44329787406E+02  0.14608193808E+02  0.48888694854E+02  0.47000000000E+01 0.  1.
         -5    1    3    3    0  503  0.11103328863E+02 -0.46684900213E+02 -0.77037537444E+02  0.90882539551E+02  0.47000000000E+01 0.  1.
<mgrwt>
<rscale>  0 0.12505302E+03</rscale>
<asrwt>0</asrwt>
<pdfrwt beam="1">  1        5 0.18766626E-01 0.12505429E+03</pdfrwt>
<pdfrwt beam="2">  1       -5 0.22772946E-01 0.12505429E+03</pdfrwt>
<totfact> 0.33259981E+02</totfact>
</mgrwt>
</event>
<event>
 8    1  0.3542708E-007  0.1399713E+03  0.7546771E-02  0.1213368E+00
          5   -1    0    0  501    0  0.00000000000E+00  0.00000000000E+00  0.44901028998E+03  0.44903488785E+03  0.47000000000E+01 0. -1.
         -5   -1    0    0    0  501 -0.00000000000E+00 -0.00000000000E+00 -0.43582262664E+02  0.43834958867E+02  0.47000000000E+01 0. -1.
         25    2    1    2    0    0  0.22604502947E+02 -0.58784202043E+02  0.19084061020E+03  0.23666876066E+03  0.12500167121E+03 0.  0.
         25    2    1    2    0    0 -0.22604502947E+02  0.58784202043E+02  0.21458741711E+03  0.25620108606E+03  0.12499876380E+03 0.  0.
          5    1    3    3  502    0  0.41171558606E+02 -0.56976623043E+02  0.33243044472E+02  0.77901365952E+02  0.47000000000E+01 0. -1.
         -5    1    3    3    0  502 -0.18567055659E+02 -0.18075789997E+01  0.15759756573E+03  0.15876739470E+03  0.47000000000E+01 0. -1.
          5    1    4    4  503    0 -0.30053384331E+02  0.74724275234E+02  0.22225203309E+03  0.23644233849E+03  0.47000000000E+01 0. -1.
         -5    1    4    4    0  503  0.74488813838E+01 -0.15940073191E+02 -0.76646159796E+01  0.19758747565E+02  0.47000000000E+01 0. -1.
<mgrwt>
<rscale>  0 0.13997065E+03</rscale>
<asrwt>0</asrwt>
<pdfrwt beam="1">  1        5 0.69099839E-01 0.13997130E+03</pdfrwt>
<pdfrwt beam="2">  1       -5 0.67262936E-02 0.13997130E+03</pdfrwt>
<totfact> 0.21733174E+02</totfact>
</mgrwt>
</event>
<event>
 8    1  0.3542708E-007  0.2134459E+03  0.7546771E-02  0.1138869E+00
          5   -1    0    0  501    0  0.00000000000E+00  0.00000000000E+00  0.62076786530E+03  0.62078565752E+03  0.47000000000E+01 0. -1.
         -5   -1    0    0    0  501 -0.00000000000E+00 -0.00000000000E+00 -0.88845050965E+02  0.88969281671E+02  0.47000000000E+01 0. -1.
         25    2    1    2    0    0  0.16320247341E+03 -0.57441130347E+02  0.11759819406E+03  0.24368195147E+03  0.12496810571E+03 0.  0.
         25    2    1    2    0    0 -0.16320247341E+03  0.57441130347E+02  0.41432462027E+03  0.46607298773E+03  0.12499843256E+03 0.  0.
          5    1    4    4  502    0 -0.90601677435E+02 -0.32222187202E+02  0.21795169485E+03  0.23826868152E+03  0.47000000000E+01 0.  1.
         -5    1    4    4    0  502 -0.72600795971E+02  0.89663317549E+02  0.19637292542E+03  0.22780430621E+03  0.47000000000E+01 0.  1.
          5    1    3    3  503    0 -0.51801120376E+01 -0.20295443733E+02  0.56906979785E+02  0.60821319826E+02  0.47000000000E+01 0.  1.
         -5    1    3    3    0  503  0.16838258544E+03 -0.37145686614E+02  0.60691214274E+02  0.18286063164E+03  0.47000000000E+01 0. -1.
<mgrwt>
<rscale>  0 0.21344143E+03</rscale>
<asrwt>0</asrwt>
<pdfrwt beam="1">  1        5 0.95513674E-01 0.21344587E+03</pdfrwt>
<pdfrwt beam="2">  1       -5 0.13679394E-01 0.21344587E+03</pdfrwt>
<totfact> 0.33362001E+01</totfact>
</mgrwt>
</event>
<event>
 8    1  0.3542708E-007  0.1574803E+03  0.7546771E-02  0.1191572E+00
         -5   -1    0    0    0  501 -0.00000000000E+00  0.00000000000E+00  0.49824140866E+03  0.49826357613E+03  0.47000000000E+01 0. -1.
          5   -1    0    0  501    0  0.00000000000E+00 -0.00000000000E+00 -0.50171039829E+02  0.50390705865E+02  0.47000000000E+01 0. -1.
         25    2    1    2    0    0  0.20554159345E+02 -0.93552543059E+02  0.25219866645E+03  0.29732847601E+03  0.12500201403E+03 0.  0.
         25    2    1    2    0    0 -0.20554159345E+02  0.93552543059E+02  0.19587170238E+03  0.25132580598E+03  0.12499754070E+03 0.  0.
          5    1    3    3  502    0 -0.28708284775E+02 -0.45835952101E+01  0.48472374462E+01  0.29845613926E+02  0.47000000000E+01 0. -1.
         -5    1    3    3    0  502  0.49262444120E+02 -0.88968947848E+02  0.24735142900E+03  0.26748286209E+03  0.47000000000E+01 0. -1.
          5    1    4    4  503    0  0.41743702929E+01  0.23440732733E+02 -0.14419979343E+02  0.28229755979E+02  0.47000000000E+01 0. -1.
         -5    1    4    4    0  503 -0.24728529638E+02  0.70111810326E+02  0.21029168172E+03  0.22309605000E+03  0.47000000000E+01 0. -1.
<mgrwt>
<rscale>  0 0.15747945E+03</rscale>
<asrwt>0</asrwt>
<pdfrwt beam="2">  1        5 0.77372243E-02 0.15748033E+03</pdfrwt>
<pdfrwt beam="1">  1       -5 0.76671125E-01 0.15748033E+03</pdfrwt>
<totfact> 0.14043523E+02</totfact>
</mgrwt>
</event>
<event>
 8    1  0.3542708E-007  0.1481936E+03  0.7546771E-02  0.1202730E+00
          5   -1    0    0  501    0  0.00000000000E+00  0.00000000000E+00  0.35935149091E+03  0.35938222552E+03  0.47000000000E+01 0. -1.
         -5   -1    0    0    0  501 -0.00000000000E+00 -0.00000000000E+00 -0.65857100129E+02  0.66024598729E+02  0.47000000000E+01 0. -1.
         25    2    1    2    0    0  0.61118165743E+02  0.50798990578E+02  0.88827123135E+02  0.17272120657E+03  0.12500555895E+03 0.  0.
         25    2    1    2    0    0 -0.61118165743E+02 -0.50798990578E+02  0.20466726764E+03  0.25268561767E+03  0.12508142670E+03 0.  0.
          5    1    4    4  502    0 -0.44185049588E+02 -0.13487389331E+02  0.26612472939E+01  0.46512369487E+02  0.47000000000E+01 0. -1.
         -5    1    4    4    0  502 -0.16933116154E+02 -0.37311601247E+02  0.20200602035E+03  0.20617324818E+03  0.47000000000E+01 0. -1.
          5    1    3    3  503    0  0.97566527039E+01  0.54236210863E+02  0.10490213837E+03  0.11858881683E+03  0.47000000000E+01 0.  1.
         -5    1    3    3    0  503  0.51361513039E+02 -0.34372202848E+01 -0.16075015238E+02  0.54132389748E+02  0.47000000000E+01 0.  1.
<mgrwt>
<rscale>  0 0.14817755E+03</rscale>
<asrwt>0</asrwt>
<pdfrwt beam="1">  1        5 0.55300095E-01 0.14819356E+03</pdfrwt>
<pdfrwt beam="2">  1       -5 0.10147110E-01 0.14819356E+03</pdfrwt>
<totfact> 0.17830526E+02</totfact>
</mgrwt>
</event>
<event>
 8    1  0.3542708E-007  0.1378222E+03  0.7546771E-02  0.1216292E+00
          5   -1    0    0  501    0  0.00000000000E+00  0.00000000000E+00  0.23347332170E+03  0.23352062424E+03  0.47000000000E+01 0. -1.
         -5   -1    0    0    0  501 -0.00000000000E+00 -0.00000000000E+00 -0.94169852601E+02  0.94287067718E+02  0.47000000000E+01 0. -1.
         25    2    1    2    0    0 -0.57490530983E+02 -0.78950899885E+01  0.89547819985E+01  0.13811285375E+03  0.12500991422E+03 0.  0.
         25    2    1    2    0    0  0.57490530983E+02  0.78950899885E+01  0.13034868710E+03  0.18969483821E+03  0.12500343121E+03 0.  0.
          5    1    3    3  502    0 -0.62057321359E+02 -0.47272831278E+02  0.39763594294E+02  0.87687314604E+02  0.47000000000E+01 0. -1.
         -5    1    3    3    0  502  0.45667903768E+01  0.39377741289E+02 -0.30808812296E+02  0.50425539149E+02  0.47000000000E+01 0. -1.
          5    1    4    4  503    0  0.12168414600E+02  0.51381789567E+02  0.10123886180E+02  0.53969821978E+02  0.47000000000E+01 0. -1.
         -5    1    4    4    0  503  0.45322116383E+02 -0.43486699578E+02  0.12022480092E+03  0.13572501623E+03  0.47000000000E+01 0. -1.
<mgrwt>
<rscale>  0 0.13782078E+03</rscale>
<asrwt>0</asrwt>
<pdfrwt beam="1">  1        5 0.35931628E-01 0.13782225E+03</pdfrwt>
<pdfrwt beam="2">  1       -5 0.14500325E-01 0.13782225E+03</pdfrwt>
<totfact> 0.22667533E+02</totfact>
</mgrwt>
</event>
<event>
 8    1  0.3542708E-007  0.1494776E+03  0.7546771E-02  0.1201119E+00
         -5   -1    0    0    0  501 -0.00000000000E+00  0.00000000000E+00  0.54108960367E+02  0.54312701940E+02  0.47000000000E+01 0. -1.
          5   -1    0    0  501    0  0.00000000000E+00 -0.00000000000E+00 -0.41825270565E+03  0.41827911229E+03  0.47000000000E+01 0. -1.
         25    2    1    2    0    0 -0.71248938127E+02 -0.40522606042E+02 -0.15300974003E+03  0.21390543710E+03  0.12500025076E+03 0.  0.
         25    2    1    2    0    0  0.71248938127E+02  0.40522606042E+02 -0.21113400525E+03  0.25868637714E+03  0.12499032266E+03 0.  0.
          5    1    4    4  502    0  0.73170457835E+01  0.39625648889E+02 -0.18509623525E+03  0.18948994040E+03  0.47000000000E+01 0. -1.
         -5    1    4    4    0  502  0.63931892343E+02  0.89695715250E+00 -0.26037769999E+02  0.69196436738E+02  0.47000000000E+01 0. -1.
          5    1    3    3  503    0 -0.52986598266E+01 -0.58592936461E+02 -0.12798469828E+03  0.14093750740E+03  0.47000000000E+01 0.  1.
         -5    1    3    3    0  503 -0.65950278300E+02  0.18070330420E+02 -0.25025041754E+02  0.72967929696E+02  0.47000000000E+01 0.  1.
<mgrwt>
<rscale>  0 0.14947553E+03</rscale>
<asrwt>0</asrwt>
<pdfrwt beam="2">  1        5 0.64364272E-01 0.14947761E+03</pdfrwt>
<pdfrwt beam="1">  1       -5 0.83421594E-02 0.14947761E+03</pdfrwt>
<totfact> 0.18017925E+02</totfact>
</mgrwt>
</event>
<event>
 8    1  0.3542708E-007  0.1275727E+03  0.7546771E-02  0.1231104E+00
         -5   -1    0    0    0  501 -0.00000000000E+00  0.00000000000E+00  0.23064075174E+03  0.23068863510E+03  0.47000000000E+01 0.  1.
          5   -1    0    0  501    0  0.00000000000E+00 -0.00000000000E+00 -0.75138751943E+02  0.75285603162E+02  0.47000000000E+01 0.  1.
         25    2    1    2    0    0  0.16999658528E+02  0.19005239609E+02  0.11600852614E+03  0.17242821516E+03  0.12499329472E+03 0.  0.
         25    2    1    2    0    0 -0.16999658528E+02 -0.19005239609E+02  0.39493473662E+02  0.13354602310E+03  0.12499847320E+03 0.  0.
          5    1    4    4  502    0  0.66385189628E+01 -0.31102923390E+02  0.79240866364E+02  0.85514131461E+02  0.47000000000E+01 0.  1.
         -5    1    4    4    0  502 -0.23638177490E+02  0.12097683781E+02 -0.39747392702E+02  0.48031891640E+02  0.47000000000E+01 0.  1.
          5    1    3    3  503    0  0.57695424954E+02  0.49357640889E+02  0.61815911625E+02  0.98021608356E+02  0.47000000000E+01 0. -1.
         -5    1    3    3    0  503 -0.40695766427E+02 -0.30352401280E+02  0.54192614514E+02  0.74406606806E+02  0.47000000000E+01 0. -1.
<mgrwt>
<rscale>  0 0.12757148E+03</rscale>
<asrwt>0</asrwt>
<pdfrwt beam="2">  1        5 0.11574788E-01 0.12757275E+03</pdfrwt>
<pdfrwt beam="1">  1       -5 0.35498172E-01 0.12757275E+03</pdfrwt>
<totfact> 0.33787930E+02</totfact>
</mgrwt>
</event>
<event>
 8    1  0.3542708E-007  0.1681283E+03  0.7546771E-02  0.1179815E+00
         -5   -1    0    0    0  501 -0.00000000000E+00  0.00000000000E+00  0.72887922445E+02  0.73039299273E+02  0.47000000000E+01 0.  1.
          5   -1    0    0  501    0  0.00000000000E+00 -0.00000000000E+00 -0.38975461965E+03  0.38978295696E+03  0.47000000000E+01 0.  1.
         25    2    1    2    0    0  0.98792475299E+02 -0.53685959907E+02 -0.17701385963E+03  0.24413322164E+03  0.12499995177E+03 0.  0.
         25    2    1    2    0    0 -0.98792475299E+02  0.53685959907E+02 -0.13985283758E+03  0.21868903460E+03  0.12499576876E+03 0.  0.
          5    1    3    3  502    0  0.83564928121E+02 -0.86194412641E+02 -0.90707547995E+02  0.15054076938E+03  0.47000000000E+01 0.  1.
         -5    1    3    3    0  502  0.15227547178E+02  0.32508452734E+02 -0.86306311636E+02  0.93592452262E+02  0.47000000000E+01 0.  1.
          5    1    4    4  503    0 -0.40067841426E+02  0.75725548297E+02 -0.27806507845E+02  0.90194691972E+02  0.47000000000E+01 0.  1.
         -5    1    4    4    0  503 -0.58724633872E+02 -0.22039588390E+02 -0.11204632973E+03  0.12849434262E+03  0.47000000000E+01 0.  1.
<mgrwt>
<rscale>  0 0.16812752E+03</rscale>
<asrwt>0</asrwt>
<pdfrwt beam="2">  1        5 0.59976072E-01 0.16812829E+03</pdfrwt>
<pdfrwt beam="1">  1       -5 0.11227351E-01 0.16812829E+03</pdfrwt>
<totfact> 0.13011311E+02</totfact>
</mgrwt>
</event>
<event>
 8    1  0.3542708E-007  0.1636628E+03  0.7546771E-02  0.1184625E+00
          5   -1    0    0  501    0  0.00000000000E+00  0.00000000000E+00  0.55590244680E+03  0.55592231504E+03  0.47000000000E+01 0.  1.
         -5   -1    0    0    0  501 -0.00000000000E+00 -0.00000000000E+00 -0.52206809652E+02  0.52417945153E+02  0.47000000000E+01 0.  1.
         25    2    1    2    0    0 -0.98704984857E+02  0.37651238355E+02  0.16618165259E+03  0.23324203611E+03  0.12500086387E+03 0.  0.
         25    2    1    2    0    0  0.98704984857E+02 -0.37651238355E+02  0.33751398456E+03  0.37509822408E+03  0.12499079225E+03 0.  0.
          5    1    3    3  502    0 -0.18565985890E+02 -0.53672866983E+00  0.13895430485E+03  0.14026893008E+03  0.47000000000E+01 0.  1.
         -5    1    3    3    0  502 -0.80138998968E+02  0.38187967025E+02  0.27227347741E+02  0.92973106037E+02  0.47000000000E+01 0.  1.
          5    1    4    4  503    0  0.10025880804E+03  0.21010903443E+02  0.18337367904E+03  0.21009826943E+03  0.47000000000E+01 0. -1.
         -5    1    4    4    0  503 -0.15538231863E+01 -0.58662141799E+02  0.15414030552E+03  0.16499995464E+03  0.47000000000E+01 0. -1.
<mgrwt>
<rscale>  0 0.16366086E+03</rscale>
<asrwt>0</asrwt>
<pdfrwt beam="1">  1        5 0.85541225E-01 0.16366278E+03</pdfrwt>
<pdfrwt beam="2">  1       -5 0.80495862E-02 0.16366278E+03</pdfrwt>
<totfact> 0.10289558E+02</totfact>
</mgrwt>
</event>
<event>
 8    1  0.3542708E-007  0.1777851E+03  0.7546771E-02  0.1169964E+00
         -5   -1    0    0    0  501 -0.00000000000E+00  0.00000000000E+00  0.80049764235E+03  0.80051143990E+03  0.47000000000E+01 0.  1.
          5   -1    0    0  501    0  0.00000000000E+00 -0.00000000000E+00 -0.48173027228E+02  0.48401761872E+02  0.47000000000E+01 0.  1.
         25    2    1    2    0    0 -0.11214529214E+03 -0.58356351093E+02  0.55750960943E+03  0.58517049640E+03  0.12500205995E+03 0.  0.
         25    2    1    2    0    0  0.11214529214E+03  0.58356351093E+02  0.19481500570E+03  0.26374270537E+03  0.12500119172E+03 0.  0.
          5    1    3    3  502    0 -0.11344569149E+03 -0.81829266955E+02  0.53225618802E+03  0.55034961028E+03  0.47000000000E+01 0.  1.
         -5    1    3    3    0  502  0.13003993545E+01  0.23472915861E+02  0.25253421407E+02  0.34820886121E+02  0.47000000000E+01 0.  1.
          5    1    4    4  503    0  0.10915219338E+03  0.69534438135E+01  0.17873332078E+03  0.20959542375E+03  0.47000000000E+01 0.  1.
         -5    1    4    4    0  503  0.29930987598E+01  0.51402907280E+02  0.16081684915E+02  0.54147281619E+02  0.47000000000E+01 0.  1.
<mgrwt>
<rscale>  0 0.17778496E+03</rscale>
<asrwt>0</asrwt>
<pdfrwt beam="2">  1        5 0.74298906E-02 0.17778511E+03</pdfrwt>
<pdfrwt beam="1">  1       -5 0.12317215E+00 0.17778511E+03</pdfrwt>
<totfact> 0.49251868E+01</totfact>
</mgrwt>
</event>
<event>
 8    1  0.3542708E-007  0.1294060E+03  0.7546771E-02  0.1228340E+00
         -5   -1    0    0    0  501 -0.00000000000E+00  0.00000000000E+00  0.22521237197E+03  0.22526140923E+03  0.47000000000E+01 0. -1.
          5   -1    0    0  501    0  0.00000000000E+00 -0.00000000000E+00 -0.75643220754E+02  0.75789094506E+02  0.47000000000E+01 0. -1.
         25    2    1    2    0    0  0.10753332925E+02  0.31708761175E+02  0.95375468240E+02  0.16075486969E+03  0.12499827391E+03 0.  0.
         25    2    1    2    0    0 -0.10753332925E+02 -0.31708761175E+02  0.54193682978E+02  0.14029563405E+03  0.12499931982E+03 0.  0.
          5    1    3    3  502    0 -0.47300909318E+02  0.38370208908E+02  0.79044495827E+02  0.99898805171E+02  0.47000000000E+01 0.  1.
         -5    1    3    3    0  502  0.58054242243E+02 -0.66614477331E+01  0.16330972413E+02  0.60856064515E+02  0.47000000000E+01 0.  1.
          5    1    4    4  503    0  0.69078438202E+01  0.24766932406E+02 -0.28391350830E+02  0.38591165427E+02  0.47000000000E+01 0.  1.
         -5    1    4    4    0  503 -0.17661176745E+02 -0.56475693580E+02  0.82585033808E+02  0.10170446863E+03  0.47000000000E+01 0.  1.
<mgrwt>
<rscale>  0 0.12940574E+03</rscale>
<asrwt>0</asrwt>
<pdfrwt beam="2">  1        5 0.11652412E-01 0.12940599E+03</pdfrwt>
<pdfrwt beam="1">  1       -5 0.34663050E-01 0.12940599E+03</pdfrwt>
<totfact> 0.35206366E+02</totfact>
</mgrwt>
</event>
<event>
 8    1  0.3542708E-007  0.1530202E+03  0.7546771E-02  0.1196811E+00
          5   -1    0    0  501    0  0.00000000000E+00  0.00000000000E+00  0.50679403067E+02  0.50896875103E+02  0.47000000000E+01 0.  1.
         -5   -1    0    0    0  501 -0.00000000000E+00 -0.00000000000E+00 -0.46130430563E+03  0.46132824799E+03  0.47000000000E+01 0.  1.
         25    2    1    2    0    0 -0.88005040585E+02  0.67517291312E+01 -0.21381644188E+03  0.26293090088E+03  0.12499885920E+03 0.  0.
         25    2    1    2    0    0  0.88005040585E+02 -0.67517291312E+01 -0.19680846068E+03  0.24929422222E+03  0.12499426395E+03 0.  0.
          5    1    3    3  502    0  0.26750549135E+02 -0.20524843479E+02 -0.36476509758E+02  0.49894757670E+02  0.47000000000E+01 0. -1.
         -5    1    3    3    0  502 -0.11475558972E+03  0.27276572610E+02 -0.17733993213E+03  0.21303614321E+03  0.47000000000E+01 0. -1.
          5    1    4    4  503    0  0.55860863369E+02 -0.64840217705E+02 -0.98453363372E+02  0.13053675593E+03  0.47000000000E+01 0. -1.
         -5    1    4    4    0  503  0.32144177216E+02  0.58088488574E+02 -0.98355097308E+02  0.11875746629E+03  0.47000000000E+01 0. -1.
<mgrwt>
<rscale>  0 0.15301928E+03</rscale>
<asrwt>0</asrwt>
<pdfrwt beam="1">  1        5 0.78154019E-02 0.15302022E+03</pdfrwt>
<pdfrwt beam="2">  1       -5 0.70988461E-01 0.15302022E+03</pdfrwt>
<totfact> 0.16304516E+02</totfact>
</mgrwt>
</event>
<event>
 8    1  0.3542708E-007  0.1279167E+03  0.7546771E-02  0.1230591E+00
          5   -1    0    0  501    0  0.00000000000E+00  0.00000000000E+00  0.18629994500E+02  0.19213711122E+02  0.47000000000E+01 0.  1.
         -5   -1    0    0    0  501 -0.00000000000E+00 -0.00000000000E+00 -0.13368231908E+04  0.13368314529E+04  0.47000000000E+01 0.  1.
         25    2    1    2    0    0  0.91215920382E+01  0.25434584155E+02 -0.10622979614E+04  0.10699717966E+04  0.12503025713E+03 0.  0.
         25    2    1    2    0    0 -0.91215920382E+01 -0.25434584155E+02 -0.25589523490E+03  0.28607336743E+03  0.12500191516E+03 0.  0.
          5    1    3    3  502    0  0.34044017228E+01 -0.29151905602E+01 -0.10100359153E+04  0.10100567947E+04  0.47000000000E+01 0.  1.
         -5    1    3    3    0  502  0.57171903154E+01  0.28349774715E+02 -0.52262046098E+02  0.59915001910E+02  0.47000000000E+01 0.  1.
          5    1    4    4  503    0  0.23379115053E+01 -0.68084126412E+02 -0.21542269279E+03  0.22598659400E+03  0.47000000000E+01 0.  1.
         -5    1    4    4    0  503 -0.11459503544E+02  0.42649542257E+02 -0.40472542117E+02  0.60086773433E+02  0.47000000000E+01 0.  1.
<mgrwt>
<rscale>  0 0.12790979E+03</rscale>
<asrwt>0</asrwt>
<pdfrwt beam="1">  1        5 0.29116909E-02 0.12791672E+03</pdfrwt>
<pdfrwt beam="2">  1       -5 0.20571057E+00 0.12791672E+03</pdfrwt>
<totfact> 0.49877828E+01</totfact>
</mgrwt>
</event>
<event>
 8    1  0.3542708E-007  0.1301030E+03  0.7546771E-02  0.1227304E+00
          5   -1    0    0  501    0  0.00000000000E+00  0.00000000000E+00  0.73302832684E+03  0.73304339431E+03  0.47000000000E+01 0. -1.
         -5   -1    0    0    0  501 -0.00000000000E+00 -0.00000000000E+00 -0.33109587258E+02  0.33441512651E+02  0.47000000000E+01 0. -1.
         25    2    1    2    0    0  0.24771471513E+02 -0.26226881748E+02  0.13783020157E+03  0.18953612877E+03  0.12500121807E+03 0.  0.
         25    2    1    2    0    0 -0.24771471513E+02  0.26226881748E+02  0.56208853801E+03  0.57694877819E+03  0.12499957186E+03 0.  0.
          5    1    3    3  502    0  0.42240050414E+02 -0.70199379306E+02  0.95069340726E+02  0.12558839222E+03  0.47000000000E+01 0. -1.
         -5    1    3    3    0  502 -0.17468578901E+02  0.43972497558E+02  0.42760860841E+02  0.63947736552E+02  0.47000000000E+01 0. -1.
          5    1    4    4  503    0 -0.46913219659E+02  0.63853018456E+02  0.26496703813E+03  0.27660021591E+03  0.47000000000E+01 0. -1.
         -5    1    4    4    0  503  0.22141748146E+02 -0.37626136708E+02  0.29712149988E+03  0.30034856228E+03  0.47000000000E+01 0. -1.
<mgrwt>
<rscale>  0 0.13010256E+03</rscale>
<asrwt>0</asrwt>
<pdfrwt beam="1">  1        5 0.11280029E+00 0.13010296E+03</pdfrwt>
<pdfrwt beam="2">  1       -5 0.51204740E-02 0.13010296E+03</pdfrwt>
<totfact> 0.10511402E+02</totfact>
</mgrwt>
</event>
<event>
 8    1  0.3542708E-007  0.1806390E+03  0.7546771E-02  0.1167186E+00
          5   -1    0    0  501    0  0.00000000000E+00  0.00000000000E+00  0.24477016244E+03  0.24481528224E+03  0.47000000000E+01 0. -1.
         -5   -1    0    0    0  501 -0.00000000000E+00 -0.00000000000E+00 -0.14201126100E+03  0.14208901524E+03  0.47000000000E+01 0. -1.
         25    2    1    2    0    0 -0.95153956916E+02  0.89167526825E+02  0.32432536704E+01  0.18066701031E+03  0.12499970626E+03 0.  0.
         25    2    1    2    0    0  0.95153956916E+02 -0.89167526825E+02  0.99515647766E+02  0.20623728717E+03  0.12500132443E+03 0.  0.
          5    1    3    3  502    0  0.12150309947E+02 -0.72950025338E+01  0.30308429668E+02  0.33786654210E+02  0.47000000000E+01 0.  1.
         -5    1    3    3    0  502 -0.10730426686E+03  0.96462529359E+02 -0.27065175997E+02  0.14688035610E+03  0.47000000000E+01 0.  1.
          5    1    4    4  503    0  0.64248523556E+02 -0.11448125827E+03  0.45772643781E+02  0.13910807379E+03  0.47000000000E+01 0. -1.
         -5    1    4    4    0  503  0.30905433360E+02  0.25313731448E+02  0.53743003985E+02  0.67129213375E+02  0.47000000000E+01 0. -1.
<mgrwt>
<rscale>  0 0.18063874E+03</rscale>
<asrwt>0</asrwt>
<pdfrwt beam="1">  1        5 0.37666400E-01 0.18063902E+03</pdfrwt>
<pdfrwt beam="2">  1       -5 0.21857338E-01 0.18063902E+03</pdfrwt>
<totfact> 0.10510461E+02</totfact>
</mgrwt>
</event>
<event>
 8    1  0.3542708E-007  0.1328658E+03  0.7546771E-02  0.1223266E+00
         -5   -1    0    0    0  501 -0.00000000000E+00  0.00000000000E+00  0.14092211391E+03  0.14100046876E+03  0.47000000000E+01 0.  1.
          5   -1    0    0  501    0  0.00000000000E+00 -0.00000000000E+00 -0.12689629284E+03  0.12698330259E+03  0.47000000000E+01 0.  1.
         25    2    1    2    0    0  0.12725164085E+02  0.43210146272E+02  0.22907056662E+02  0.13482149667E+03  0.12499222447E+03 0.  0.
         25    2    1    2    0    0 -0.12725164085E+02 -0.43210146272E+02 -0.88812355902E+01  0.13316227467E+03  0.12499707400E+03 0.  0.
          5    1    3    3  502    0  0.67908218066E+02  0.15209810906E+02  0.36538947890E+01  0.69844866496E+02  0.47000000000E+01 0.  1.
         -5    1    3    3    0  502 -0.55183053980E+02  0.28000335366E+02  0.19253161873E+02  0.64976630178E+02  0.47000000000E+01 0.  1.
          5    1    4    4  503    0 -0.48160958758E+02 -0.29209278116E+01 -0.46729397404E+02  0.67333025696E+02  0.47000000000E+01 0. -1.
         -5    1    4    4    0  503  0.35435794672E+02 -0.40289218460E+02  0.37848161814E+02  0.65829248977E+02  0.47000000000E+01 0. -1.
<mgrwt>
<rscale>  0 0.13286464E+03</rscale>
<asrwt>0</asrwt>
<pdfrwt beam="2">  1        5 0.19535227E-01 0.13286578E+03</pdfrwt>
<pdfrwt beam="1">  1       -5 0.21693045E-01 0.13286578E+03</pdfrwt>
<totfact> 0.34597010E+02</totfact>
</mgrwt>
</event>
<event>
 8    1  0.3542708E-007  0.1413837E+03  0.7546771E-02  0.1211481E+00
          5   -1    0    0  501    0  0.00000000000E+00  0.00000000000E+00  0.16775586374E+04  0.16775652214E+04  0.47000000000E+01 0.  1.
         -5   -1    0    0    0  501 -0.00000000000E+00 -0.00000000000E+00 -0.16870920993E+02  0.17513365615E+02  0.47000000000E+01 0.  1.
         25    2    1    2    0    0 -0.22334165683E+02  0.62170829610E+02  0.36058425687E+03  0.38731012630E+03  0.12499640244E+03 0.  0.
         25    2    1    2    0    0  0.22334165683E+02 -0.62170829610E+02  0.13001034596E+04  0.13077684607E+04  0.12500125687E+03 0.  0.
          5    1    3    3  502    0  0.50347054096E+02  0.12316175484E+02  0.11143392472E+03  0.12298830682E+03  0.47000000000E+01 0. -1.
         -5    1    3    3    0  502 -0.72681219779E+02  0.49854654126E+02  0.24915033215E+03  0.26432181949E+03  0.47000000000E+01 0. -1.
          5    1    4    4  503    0  0.34175688346E+02 -0.82480694693E+02  0.54499856201E+03  0.55228304814E+03  0.47000000000E+01 0.  1.
         -5    1    4    4    0  503 -0.11841522663E+02  0.20309865083E+02  0.75510489754E+03  0.75548541255E+03  0.47000000000E+01 0.  1.
<mgrwt>
<rscale>  0 0.14138259E+03</rscale>
<asrwt>0</asrwt>
<pdfrwt beam="1">  1        5 0.25813596E+00 0.14138367E+03</pdfrwt>
<pdfrwt beam="2">  1       -5 0.26454507E-02 0.14138367E+03</pdfrwt>
<totfact> 0.27496911E+01</totfact>
</mgrwt>
</event>
<event>
 8    1  0.3542708E-007  0.1734228E+03  0.7546771E-02  0.1174326E+00
         -5   -1    0    0    0  501 -0.00000000000E+00  0.00000000000E+00  0.11033579973E+03  0.11043585787E+03  0.47000000000E+01 0.  1.
          5   -1    0    0  501    0  0.00000000000E+00 -0.00000000000E+00 -0.27302415571E+03  0.27306460701E+03  0.47000000000E+01 0.  1.
         25    2    1    2    0    0 -0.47847176254E+02 -0.11028197627E+03 -0.91003689985E+02  0.19584606909E+03  0.12499017810E+03 0.  0.
         25    2    1    2    0    0  0.47847176254E+02  0.11028197627E+03 -0.71684665993E+02  0.18765439579E+03  0.12499605735E+03 0.  0.
          5    1    3    3  502    0 -0.90240450543E+02 -0.65862379218E+02 -0.60040004257E+02  0.12691762691E+03  0.47000000000E+01 0.  1.
         -5    1    3    3    0  502  0.42393274288E+02 -0.44419597056E+02 -0.30963685728E+02  0.68928442180E+02  0.47000000000E+01 0.  1.
          5    1    4    4  503    0  0.14288765082E+02  0.12087954987E+03 -0.17772661473E+02  0.12310155109E+03  0.47000000000E+01 0.  1.
         -5    1    4    4    0  503  0.33558411172E+02 -0.10597573601E+02 -0.53912004520E+02  0.64552844693E+02  0.47000000000E+01 0.  1.
<mgrwt>
<rscale>  0 0.17342178E+03</rscale>
<asrwt>0</asrwt>
<pdfrwt beam="2">  1        5 0.42014524E-01 0.17342284E+03</pdfrwt>
<pdfrwt beam="1">  1       -5 0.16985547E-01 0.17342284E+03</pdfrwt>
<totfact> 0.13288696E+02</totfact>
</mgrwt>
</event>
<event>
 8    1  0.3542708E-007  0.1290207E+03  0.7546771E-02  0.1228918E+00
         -5   -1    0    0    0  501 -0.00000000000E+00  0.00000000000E+00  0.16495706729E+03  0.16502401052E+03  0.47000000000E+01 0. -1.
          5   -1    0    0  501    0  0.00000000000E+00 -0.00000000000E+00 -0.10305248340E+03  0.10315960612E+03  0.47000000000E+01 0. -1.
         25    2    1    2    0    0  0.21657134571E+02 -0.23501469478E+02  0.50899757414E+02  0.13869447327E+03  0.12499608421E+03 0.  0.
         25    2    1    2    0    0 -0.21657134571E+02  0.23501469478E+02  0.11004826478E+02  0.12948914336E+03  0.12499992599E+03 0.  0.
          5    1    4    4  502    0  0.47322597902E+02 -0.62332492729E+01 -0.14362605625E+02  0.50066516845E+02  0.47000000000E+01 0.  1.
         -5    1    4    4    0  502 -0.68979732472E+02  0.29734718751E+02  0.25367432103E+02  0.79422626516E+02  0.47000000000E+01 0.  1.
          5    1    3    3  503    0  0.66149689210E+02 -0.30786791514E+02  0.57330554009E+02  0.92911195974E+02  0.47000000000E+01 0. -1.
         -5    1    3    3    0  503 -0.44492554640E+02  0.72853220354E+01 -0.64307965952E+01  0.45783277301E+02  0.47000000000E+01 0. -1.
<mgrwt>
<rscale>  0 0.12901973E+03</rscale>
<asrwt>0</asrwt>
<pdfrwt beam="2">  1        5 0.15867618E-01 0.12902067E+03</pdfrwt>
<pdfrwt beam="1">  1       -5 0.25391399E-01 0.12902067E+03</pdfrwt>
<totfact> 0.37199754E+02</totfact>
</mgrwt>
</event>
<event>
 8    1  0.3542708E-007  0.1274516E+03  0.7546771E-02  0.1231288E+00
          5   -1    0    0  501    0  0.00000000000E+00  0.00000000000E+00  0.32122587430E+02  0.32464605699E+02  0.47000000000E+01 0. -1.
         -5   -1    0    0    0  501 -0.00000000000E+00 -0.00000000000E+00 -0.55480667618E+03  0.55482658366E+03  0.47000000000E+01 0. -1.
         25    2    1    2    0    0 -0.19667996542E+02 -0.15258817085E+02 -0.35135268058E+03  0.37375476818E+03  0.12499703596E+03 0.  0.
         25    2    1    2    0    0  0.19667996542E+02  0.15258817085E+02 -0.17133140817E+03  0.21353642118E+03  0.12499476052E+03 0.  0.
          5    1    4    4  502    0  0.63080279265E+02  0.33714530696E+02 -0.13825556942E+03  0.15573208946E+03  0.47000000000E+01 0. -1.
         -5    1    4    4    0  502 -0.43412282723E+02 -0.18455713611E+02 -0.33075838747E+02  0.57804331715E+02  0.47000000000E+01 0. -1.
          5    1    3    3  503    0  0.47809908160E+02 -0.28947696622E+02 -0.12264434697E+03  0.13486097397E+03  0.47000000000E+01 0. -1.
         -5    1    3    3    0  503 -0.67477904702E+02  0.13688879538E+02 -0.22870833361E+03  0.23889379420E+03  0.47000000000E+01 0. -1.
<mgrwt>
<rscale>  0 0.12745108E+03</rscale>
<asrwt>0</asrwt>
<pdfrwt beam="1">  1        5 0.49697774E-02 0.12745164E+03</pdfrwt>
<pdfrwt beam="2">  1       -5 0.85382707E-01 0.12745164E+03</pdfrwt>
<totfact> 0.21511536E+02</totfact>
</mgrwt>
</event>
<event>
 8    1  0.3542708E-007  0.2080978E+03  0.7546771E-02  0.1143082E+00
          5   -1    0    0  501    0  0.00000000000E+00  0.00000000000E+00  0.61789659195E+03  0.61791446685E+03  0.47000000000E+01 0.  1.
         -5   -1    0    0    0  501 -0.00000000000E+00 -0.00000000000E+00 -0.70385840048E+02  0.70542586282E+02  0.47000000000E+01 0.  1.
         25    2    1    2    0    0  0.13401751511E+03 -0.98586059054E+02  0.29969547503E+03  0.36485899642E+03  0.12499921646E+03 0.  0.
         25    2    1    2    0    0 -0.13401751511E+03  0.98586059054E+02  0.24781527687E+03  0.32359805671E+03  0.12499354168E+03 0.  0.
          5    1    3    3  502    0  0.98341959783E+02  0.51473845606E+00  0.18141872034E+03  0.20641280992E+03  0.47000000000E+01 0. -1.
         -5    1    3    3    0  502  0.35675555332E+02 -0.99100797510E+02  0.11827675469E+03  0.15844618650E+03  0.47000000000E+01 0. -1.
          5    1    4    4  503    0 -0.22125433305E+00  0.43880850302E+02  0.99866835500E+01  0.45248224551E+02  0.47000000000E+01 0.  1.
         -5    1    4    4    0  503 -0.13379626078E+03  0.54705208752E+02  0.23782859332E+03  0.27834983216E+03  0.47000000000E+01 0.  1.
<mgrwt>
<rscale>  0 0.20809698E+03</rscale>
<asrwt>0</asrwt>
<pdfrwt beam="1">  1        5 0.95074444E-01 0.20809784E+03</pdfrwt>
<pdfrwt beam="2">  1       -5 0.10842023E-01 0.20809784E+03</pdfrwt>
<totfact> 0.50803478E+01</totfact>
</mgrwt>
</event>
<event>
 8    1  0.3542708E-007  0.2561294E+03  0.7546771E-02  0.1109492E+00
         -5   -1    0    0    0  501 -0.00000000000E+00  0.00000000000E+00  0.22842905620E+03  0.22847740307E+03  0.47000000000E+01 0.  1.
          5   -1    0    0  501    0  0.00000000000E+00 -0.00000000000E+00 -0.29127619269E+03  0.29131410956E+03  0.47000000000E+01 0.  1.
         25    2    1    2    0    0 -0.45127462132E+02 -0.21895092923E+03 -0.25648974177E+00  0.25612948463E+03  0.12500499935E+03 0.  0.
         25    2    1    2    0    0  0.45127462132E+02  0.21895092923E+03 -0.62590646755E+02  0.26366202800E+03  0.12499631475E+03 0.  0.
          5    1    4    4  502    0  0.77554231078E+02  0.74361984272E+02 -0.19796535639E+02  0.10935426963E+03  0.47000000000E+01 0. -1.
         -5    1    4    4    0  502 -0.32426768946E+02  0.14458894496E+03 -0.42794111116E+02  0.15430775837E+03  0.47000000000E+01 0. -1.
          5    1    3    3  503    0  0.19309519736E+02  0.54619837171E+01  0.88360111139E+01  0.22424448956E+02  0.47000000000E+01 0. -1.
         -5    1    3    3    0  503 -0.64436981868E+02 -0.22441291295E+03 -0.90925008556E+01  0.23370503568E+03  0.47000000000E+01 0. -1.
<mgrwt>
<rscale>  0 0.25612830E+03</rscale>
<asrwt>0</asrwt>
<pdfrwt beam="2">  1        5 0.44818358E-01 0.25612936E+03</pdfrwt>
<pdfrwt beam="1">  1       -5 0.35149567E-01 0.25612936E+03</pdfrwt>
<totfact> 0.31640040E+01</totfact>
</mgrwt>
</event>
<event>
 8    1  0.3542708E-007  0.1320452E+03  0.7546771E-02  0.1224454E+00
         -5   -1    0    0    0  501 -0.00000000000E+00  0.00000000000E+00  0.15818052765E+03  0.15825033753E+03  0.47000000000E+01 0.  1.
          5   -1    0    0  501    0  0.00000000000E+00 -0.00000000000E+00 -0.11966005751E+03  0.11975232508E+03  0.47000000000E+01 0.  1.
         25    2    1    2    0    0 -0.45047204627E+01  0.42313315732E+02  0.58564420047E+02  0.14444481017E+03  0.12499521069E+03 0.  0.
         25    2    1    2    0    0  0.45047204627E+01 -0.42313315732E+02 -0.20043949901E+02  0.13355785244E+03  0.12500092330E+03 0.  0.
          5    1    4    4  502    0 -0.35838976349E+02 -0.35665202049E+02  0.37276101765E+02  0.62992353709E+02  0.47000000000E+01 0.  1.
         -5    1    4    4    0  502  0.40343696812E+02 -0.66481136828E+01 -0.57320051666E+02  0.70565498730E+02  0.47000000000E+01 0.  1.
          5    1    3    3  503    0  0.95855037638E+01 -0.37956658081E+02 -0.66183249054E+01  0.39981020493E+02  0.47000000000E+01 0.  1.
         -5    1    3    3    0  503 -0.14090224227E+02  0.80269973813E+02  0.65182744952E+02  0.10446378968E+03  0.47000000000E+01 0.  1.
<mgrwt>
<rscale>  0 0.13204387E+03</rscale>
<asrwt>0</asrwt>
<pdfrwt beam="2">  1        5 0.18421707E-01 0.13204522E+03</pdfrwt>
<pdfrwt beam="1">  1       -5 0.24347933E-01 0.13204522E+03</pdfrwt>
<totfact> 0.30924170E+02</totfact>
</mgrwt>
</event>
<event>
 8    1  0.3542708E-007  0.1454300E+03  0.7546771E-02  0.1206205E+00
         -5   -1    0    0    0  501 -0.00000000000E+00  0.00000000000E+00  0.58093590948E+02  0.58283405093E+02  0.47000000000E+01 0.  1.
          5   -1    0    0  501    0  0.00000000000E+00 -0.00000000000E+00 -0.38217253116E+03  0.38220143063E+03  0.47000000000E+01 0.  1.
         25    2    1    2    0    0  0.62651892279E+02  0.39995257154E+02 -0.11305440154E+03  0.18420419785E+03  0.12500003440E+03 0.  0.
         25    2    1    2    0    0 -0.62651892279E+02 -0.39995257154E+02 -0.21102453868E+03  0.25628063787E+03  0.12499411674E+03 0.  0.
          5    1    3    3  502    0  0.61095305101E+02  0.19782729312E+01  0.35981358208E+01  0.61413243283E+02  0.47000000000E+01 0.  1.
         -5    1    3    3    0  502  0.15565871782E+01  0.38016984223E+02 -0.11665253736E+03  0.12279095457E+03  0.47000000000E+01 0.  1.
          5    1    4    4  503    0 -0.44762148904E+02  0.17498260330E+02 -0.18379049108E+03  0.19002861285E+03  0.47000000000E+01 0.  1.
         -5    1    4    4    0  503 -0.17889743375E+02 -0.57493517484E+02 -0.27234047600E+02  0.66252025021E+02  0.47000000000E+01 0.  1.
<mgrwt>
<rscale>  0 0.14542874E+03</rscale>
<asrwt>0</asrwt>
<pdfrwt beam="2">  1        5 0.58812597E-01 0.14543001E+03</pdfrwt>
<pdfrwt beam="1">  1       -5 0.89542999E-02 0.14543001E+03</pdfrwt>
<totfact> 0.19272676E+02</totfact>
</mgrwt>
</event>
<event>
 8    1  0.3542708E-007  0.1703110E+03  0.7546771E-02  0.1177526E+00
         -5   -1    0    0    0  501 -0.00000000000E+00  0.00000000000E+00  0.14527376518E+02  0.15268748099E+02  0.47000000000E+01 0. -1.
          5   -1    0    0  501    0  0.00000000000E+00 -0.00000000000E+00 -0.21217570704E+04  0.21217622760E+04  0.47000000000E+01 0. -1.
         25    2    1    2    0    0 -0.11459917521E+03  0.15700222615E+02 -0.74625791454E+03  0.76544542812E+03  0.12500544172E+03 0.  0.
         25    2    1    2    0    0  0.11459917521E+03 -0.15700222615E+02 -0.13609717793E+04  0.13715855959E+04  0.12499357964E+03 0.  0.
          5    1    3    3  502    0 -0.24132792830E+02  0.63295394874E+02 -0.28642563162E+03  0.29436445294E+03  0.47000000000E+01 0.  1.
         -5    1    3    3    0  502 -0.90466382380E+02 -0.47595172258E+02 -0.45983228292E+03  0.47108097518E+03  0.47000000000E+01 0.  1.
          5    1    4    4  503    0  0.80026761410E+02  0.75464944455E+01 -0.32711692633E+03  0.33688099621E+03  0.47000000000E+01 0. -1.
         -5    1    4    4    0  503  0.34572413800E+02 -0.23246717061E+02 -0.10338548530E+04  0.10347045997E+04  0.47000000000E+01 0. -1.
<mgrwt>
<rscale>  0 0.17030880E+03</rscale>
<asrwt>0</asrwt>
<pdfrwt beam="2">  1        5 0.32648135E+00 0.17031098E+03</pdfrwt>
<pdfrwt beam="1">  1       -5 0.22924117E-02 0.17031098E+03</pdfrwt>
<totfact> 0.13271409E+01</totfact>
</mgrwt>
</event>
<event>
 8    1  0.3542708E-007  0.1257809E+03  0.7546771E-02  0.1233854E+00
         -5   -1    0    0    0  501 -0.00000000000E+00  0.00000000000E+00  0.11584989881E+03  0.11594519850E+03  0.47000000000E+01 0. -1.
          5   -1    0    0  501    0  0.00000000000E+00 -0.00000000000E+00 -0.15254017679E+03  0.15261256677E+03  0.47000000000E+01 0. -1.
         25    2    1    2    0    0  0.77096975121E+01  0.11671835904E+02  0.25349924441E+02  0.12830858031E+03  0.12499920769E+03 0.  0.
         25    2    1    2    0    0 -0.77096975121E+01 -0.11671835904E+02 -0.62040202419E+02  0.14024918496E+03  0.12500070390E+03 0.  0.
          5    1    4    4  502    0 -0.25673325611E+02  0.52679870227E+02 -0.30005035177E+02  0.66005155185E+02  0.47000000000E+01 0.  1.
         -5    1    4    4    0  502  0.17963628099E+02 -0.64351706131E+02 -0.32035167242E+02  0.74244029771E+02  0.47000000000E+01 0.  1.
          5    1    3    3  503    0 -0.21436141266E+02 -0.24462877938E+02 -0.37608151161E+02  0.49944004476E+02  0.47000000000E+01 0.  1.
         -5    1    3    3    0  503  0.29145838778E+02  0.36134713842E+02  0.62958075601E+02  0.78364575836E+02  0.47000000000E+01 0.  1.
<mgrwt>
<rscale>  0 0.12578058E+03</rscale>
<asrwt>0</asrwt>
<pdfrwt beam="2">  1        5 0.23480619E-01 0.12578095E+03</pdfrwt>
<pdfrwt beam="1">  1       -5 0.17835961E-01 0.12578095E+03</pdfrwt>
<totfact> 0.34547101E+02</totfact>
</mgrwt>
</event>
<event>
 8    1  0.3542708E-007  0.1374629E+03  0.7546771E-02  0.1216786E+00
         -5   -1    0    0    0  501 -0.00000000000E+00  0.00000000000E+00  0.98481563224E+01  0.10912203396E+02  0.47000000000E+01 0. -1.
          5   -1    0    0  501    0  0.00000000000E+00 -0.00000000000E+00 -0.18799489499E+04  0.18799548251E+04  0.47000000000E+01 0. -1.
         25    2    1    2    0    0  0.24096617614E+02  0.51866349356E+02 -0.76525160140E+03  0.77749987938E+03  0.12500113528E+03 0.  0.
         25    2    1    2    0    0 -0.24096617614E+02 -0.51866349356E+02 -0.11048491922E+04  0.11133671491E+04  0.12499562384E+03 0.  0.
          5    1    3    3  502    0  0.54817246143E+02  0.59458936760E+02 -0.28797090267E+03  0.29914816800E+03  0.47000000000E+01 0. -1.
         -5    1    3    3    0  502 -0.30720628529E+02 -0.75925874040E+01 -0.47728069872E+03  0.47835171137E+03  0.47000000000E+01 0. -1.
          5    1    4    4  503    0 -0.43934550958E+02 -0.28445421988E+02 -0.16852105208E+03  0.17652428103E+03  0.47000000000E+01 0. -1.
         -5    1    4    4    0  503  0.19837933344E+02 -0.23420927368E+02 -0.93632814013E+03  0.93684286806E+03  0.47000000000E+01 0. -1.
<mgrwt>
<rscale>  0 0.13746165E+03</rscale>
<asrwt>0</asrwt>
<pdfrwt beam="2">  1        5 0.28930495E+00 0.13746290E+03</pdfrwt>
<pdfrwt beam="1">  1       -5 0.15974042E-02 0.13746290E+03</pdfrwt>
<totfact> 0.38713343E+01</totfact>
</mgrwt>
</event>
<event>
 8    1  0.3542708E-007  0.2009344E+03  0.7546771E-02  0.1148954E+00
         -5   -1    0    0    0  501 -0.00000000000E+00  0.00000000000E+00  0.60502923360E+03  0.60504748864E+03  0.47000000000E+01 0. -1.
          5   -1    0    0  501    0  0.00000000000E+00 -0.00000000000E+00 -0.68311364167E+02  0.68472859400E+02  0.47000000000E+01 0. -1.
         25    2    1    2    0    0  0.13309853543E+03  0.83869803095E+02  0.32114181442E+03  0.37882275582E+03  0.12500100543E+03 0.  0.
         25    2    1    2    0    0 -0.13309853543E+03 -0.83869803095E+02  0.21557605501E+03  0.29469759221E+03  0.12499708539E+03 0.  0.
          5    1    4    4  502    0 -0.11095480404E+03 -0.61750593485E+02  0.68700105836E+02  0.14445033360E+03  0.47000000000E+01 0.  1.
         -5    1    4    4    0  502 -0.22143731393E+02 -0.22119209610E+02  0.14687594918E+03  0.15024725861E+03  0.47000000000E+01 0.  1.
          5    1    3    3  503    0  0.12172232612E+03  0.10211641674E+02  0.23442085515E+03  0.26437819432E+03  0.47000000000E+01 0. -1.
         -5    1    3    3    0  503  0.11376209309E+02  0.73658161422E+02  0.86720959269E+02  0.11444456151E+03  0.47000000000E+01 0. -1.
<mgrwt>
<rscale>  0 0.20093375E+03</rscale>
<asrwt>0</asrwt>
<pdfrwt beam="2">  1        5 0.10523268E-01 0.20093436E+03</pdfrwt>
<pdfrwt beam="1">  1       -5 0.93095246E-01 0.20093436E+03</pdfrwt>
<totfact> 0.55846502E+01</totfact>
</mgrwt>
</event>
<event>
 8    1  0.3542708E-007  0.1711532E+03  0.7546771E-02  0.1176652E+00
         -5   -1    0    0    0  501 -0.00000000000E+00  0.00000000000E+00  0.56536605964E+03  0.56538559532E+03  0.47000000000E+01 0.  1.
          5   -1    0    0  501    0  0.00000000000E+00 -0.00000000000E+00 -0.77504588565E+02  0.77646965483E+02  0.47000000000E+01 0.  1.
         25    2    1    2    0    0  0.40058560543E+02  0.10983251200E+03  0.42927023631E+03  0.46213239269E+03  0.12500217448E+03 0.  0.
         25    2    1    2    0    0 -0.40058560543E+02 -0.10983251200E+03  0.58591234763E+02  0.18090016811E+03  0.12499627621E+03 0.  0.
          5    1    3    3  502    0  0.12203074888E+02  0.20291648250E+02  0.15083675845E+01  0.24187418179E+02  0.47000000000E+01 0.  1.
         -5    1    3    3    0  502  0.27855485655E+02  0.89540863751E+02  0.42776186873E+03  0.43794497451E+03  0.47000000000E+01 0.  1.
          5    1    4    4  503    0 -0.55422948705E+02 -0.31396637208E+02  0.75681915100E+02  0.99031784516E+02  0.47000000000E+01 0.  1.
         -5    1    4    4    0  503  0.15364388162E+02 -0.78435874792E+02 -0.17090680337E+02  0.81868383595E+02  0.47000000000E+01 0.  1.
<mgrwt>
<rscale>  0 0.17115211E+03</rscale>
<asrwt>0</asrwt>
<pdfrwt beam="2">  1        5 0.11936238E-01 0.17115318E+03</pdfrwt>
<pdfrwt beam="1">  1       -5 0.86991849E-01 0.17115318E+03</pdfrwt>
<totfact> 0.50294733E+01</totfact>
</mgrwt>
</event>
<event>
 8    1  0.3542708E-007  0.1436605E+03  0.7546771E-02  0.1208487E+00
         -5   -1    0    0    0  501 -0.00000000000E+00  0.00000000000E+00  0.69778875420E+02  0.69936982025E+02  0.47000000000E+01 0. -1.
          5   -1    0    0  501    0  0.00000000000E+00 -0.00000000000E+00 -0.55104015385E+03  0.55106019739E+03  0.47000000000E+01 0. -1.
         25    2    1    2    0    0 -0.65636525485E+02 -0.26551059569E+02 -0.29117354930E+02  0.14657914854E+03  0.12499805673E+03 0.  0.
         25    2    1    2    0    0  0.65636525485E+02  0.26551059569E+02 -0.45214392350E+03  0.47441803088E+03  0.12500091291E+03 0.  0.
          5    1    4    4  502    0  0.21541647286E+02 -0.43527632421E+02 -0.84858550328E+02  0.97886469524E+02  0.47000000000E+01 0.  1.
         -5    1    4    4    0  502  0.44094878199E+02  0.70078691990E+02 -0.36728537317E+03  0.37653156136E+03  0.47000000000E+01 0.  1.
          5    1    3    3  503    0 -0.29595673391E+01 -0.48185517259E+02  0.30493172414E+02  0.57293338847E+02  0.47000000000E+01 0. -1.
         -5    1    3    3    0  503 -0.62676958146E+02  0.21634457690E+02 -0.59610527344E+02  0.89285809691E+02  0.47000000000E+01 0. -1.
<mgrwt>
<rscale>  0 0.14365988E+03</rscale>
<asrwt>0</asrwt>
<pdfrwt beam="2">  1        5 0.84789110E-01 0.14366050E+03</pdfrwt>
<pdfrwt beam="1">  1       -5 0.10748916E-01 0.14366050E+03</pdfrwt>
<totfact> 0.61065093E+01</totfact>
</mgrwt>
</event>
<event>
 8    1  0.3542708E-007  0.1283949E+03  0.7546771E-02  0.1229857E+00
         -5   -1    0    0    0  501 -0.00000000000E+00  0.00000000000E+00  0.67306960471E+02  0.67470859843E+02  0.47000000000E+01 0.  1.
          5   -1    0    0  501    0  0.00000000000E+00 -0.00000000000E+00 -0.25477522024E+03  0.25481856849E+03  0.47000000000E+01 0.  1.
         25    2    1    2    0    0  0.20632848411E+01  0.29253530511E+02 -0.61292395166E+02  0.14227436833E+03  0.12500084794E+03 0.  0.
         25    2    1    2    0    0 -0.20632848411E+01 -0.29253530511E+02 -0.12617586460E+03  0.18001506000E+03  0.12500018731E+03 0.  0.
          5    1    3    3  502    0 -0.53312035139E+02  0.39985916765E+02 -0.52558750006E+02  0.85003287186E+02  0.47000000000E+01 0. -1.
         -5    1    3    3    0  502  0.55375319980E+02 -0.10732386254E+02 -0.87336451595E+01  0.57271081143E+02  0.47000000000E+01 0. -1.
          5    1    4    4  503    0  0.14582624313E+02 -0.71406200815E+02 -0.41864734618E+02  0.84179833994E+02  0.47000000000E+01 0.  1.
         -5    1    4    4    0  503 -0.16645909154E+02  0.42152670303E+02 -0.84311129983E+02  0.95835226010E+02  0.47000000000E+01 0.  1.
<mgrwt>
<rscale>  0 0.12839469E+03</rscale>
<asrwt>0</asrwt>
<pdfrwt beam="2">  1        5 0.39212130E-01 0.12839485E+03</pdfrwt>
<pdfrwt beam="1">  1       -5 0.10370859E-01 0.12839485E+03</pdfrwt>
<totfact> 0.33591492E+02</totfact>
</mgrwt>
</event>
<event>
 8    1  0.3542708E-007  0.1404553E+03  0.7546771E-02  0.1212718E+00
          5   -1    0    0  501    0  0.00000000000E+00  0.00000000000E+00  0.19959161167E+03  0.19964694200E+03  0.47000000000E+01 0. -1.
         -5   -1    0    0    0  501 -0.00000000000E+00 -0.00000000000E+00 -0.12922560928E+03  0.12931105171E+03  0.47000000000E+01 0. -1.
         25    2    1    2    0    0 -0.59997056696E+02  0.22436844791E+02 -0.44691314135E+02  0.14739407341E+03  0.12499856200E+03 0.  0.
         25    2    1    2    0    0  0.59997056696E+02 -0.22436844791E+02  0.11505731652E+03  0.18156392030E+03  0.12499684897E+03 0.  0.
          5    1    4    4  502    0 -0.37882889478E+02  0.32024128602E+01  0.22948470879E+02  0.44655246937E+02  0.47000000000E+01 0. -1.
         -5    1    4    4    0  502  0.97879946174E+02 -0.25639257652E+02  0.92108845638E+02  0.13690867336E+03  0.47000000000E+01 0. -1.
          5    1    3    3  503    0  0.11142833586E+02  0.38293416695E+02 -0.60548904793E+02  0.72655408430E+02  0.47000000000E+01 0. -1.
         -5    1    3    3    0  503 -0.71139890282E+02 -0.15856571904E+02  0.15857590658E+02  0.74738664983E+02  0.47000000000E+01 0. -1.
<mgrwt>
<rscale>  0 0.14045495E+03</rscale>
<asrwt>0</asrwt>
<pdfrwt beam="1">  1        5 0.30717230E-01 0.14045533E+03</pdfrwt>
<pdfrwt beam="2">  1       -5 0.19891692E-01 0.14045533E+03</pdfrwt>
<totfact> 0.17454056E+02</totfact>
</mgrwt>
</event>
<event>
 8    1  0.3542708E-007  0.1466112E+03  0.7546771E-02  0.1204703E+00
          5   -1    0    0  501    0  0.00000000000E+00  0.00000000000E+00  0.15755116221E+03  0.15762125083E+03  0.47000000000E+01 0. -1.
         -5   -1    0    0    0  501 -0.00000000000E+00 -0.00000000000E+00 -0.13838977387E+03  0.13846956168E+03  0.47000000000E+01 0. -1.
         25    2    1    2    0    0 -0.24994100382E+02  0.72405923239E+02  0.27839228553E+02  0.14922306249E+03  0.12500070783E+03 0.  0.
         25    2    1    2    0    0  0.24994100382E+02 -0.72405923239E+02 -0.86778402127E+01  0.14686775002E+03  0.12501003285E+03 0.  0.
          5    1    3    3  502    0 -0.12976737349E+02 -0.31752863182E+02 -0.12460936007E+02  0.36796806364E+02  0.47000000000E+01 0. -1.
         -5    1    3    3    0  502 -0.12017363034E+02  0.10415878642E+03  0.40300164560E+02  0.11242625613E+03  0.47000000000E+01 0. -1.
          5    1    4    4  503    0  0.53019199525E+02 -0.95188017319E+02 -0.14378683981E+02  0.11000286684E+03  0.47000000000E+01 0.  1.
         -5    1    4    4    0  503 -0.28025099143E+02  0.22782094080E+02  0.57008437682E+01  0.36864883186E+02  0.47000000000E+01 0.  1.
<mgrwt>
<rscale>  0 0.14660917E+03</rscale>
<asrwt>0</asrwt>
<pdfrwt beam="1">  1        5 0.24250169E-01 0.14661116E+03</pdfrwt>
<pdfrwt beam="2">  1       -5 0.21302264E-01 0.14661116E+03</pdfrwt>
<totfact> 0.24630423E+02</totfact>
</mgrwt>
</event>
<event>
 8    1  0.3542708E-007  0.1276269E+03  0.7546771E-02  0.1231021E+00
          5   -1    0    0  501    0  0.00000000000E+00  0.00000000000E+00  0.10770937720E+02  0.11751727506E+02  0.47000000000E+01 0. -1.
         -5   -1    0    0    0  501 -0.00000000000E+00 -0.00000000000E+00 -0.15846550267E+04  0.15846619967E+04  0.47000000000E+01 0. -1.
         25    2    1    2    0    0  0.19907823796E+02 -0.16331054643E+02 -0.10235040022E+04  0.10314305910E+04  0.12500238705E+03 0.  0.
         25    2    1    2    0    0 -0.19907823796E+02  0.16331054643E+02 -0.55038008685E+03  0.56498313321E+03  0.12499870409E+03 0.  0.
          5    1    4    4  502    0  0.65180298111E+01 -0.34373087353E+02 -0.43193991145E+03  0.43337993833E+03  0.47000000000E+01 0. -1.
         -5    1    4    4    0  502 -0.26425853608E+02  0.50704141997E+02 -0.11844017540E+03  0.13160319488E+03  0.47000000000E+01 0. -1.
          5    1    3    3  503    0  0.61843366099E+02 -0.23371535398E+02 -0.32897772778E+03  0.33558794075E+03  0.47000000000E+01 0.  1.
         -5    1    3    3    0  503 -0.41935542302E+02  0.70404807544E+01 -0.69452627439E+03  0.69584265025E+03  0.47000000000E+01 0.  1.
<mgrwt>
<rscale>  0 0.12762598E+03</rscale>
<asrwt>0</asrwt>
<pdfrwt beam="1">  1        5 0.17330501E-02 0.12762688E+03</pdfrwt>
<pdfrwt beam="2">  1       -5 0.24386889E+00 0.12762688E+03</pdfrwt>
<totfact> 0.64469627E+01</totfact>
</mgrwt>
</event>
<event>
 8    1  0.3542708E-007  0.2125647E+03  0.7546771E-02  0.1139552E+00
         -5   -1    0    0    0  501 -0.00000000000E+00  0.00000000000E+00  0.37383738955E+03  0.37386693331E+03  0.47000000000E+01 0. -1.
          5   -1    0    0  501    0  0.00000000000E+00 -0.00000000000E+00 -0.12584168158E+03  0.12592942000E+03  0.47000000000E+01 0. -1.
         25    2    1    2    0    0 -0.16961026607E+03 -0.28131416054E+02  0.17408851927E+03  0.27474966023E+03  0.12498617655E+03 0.  0.
         25    2    1    2    0    0  0.16961026607E+03  0.28131416054E+02  0.73907188693E+02  0.22504669308E+03  0.12499889040E+03 0.  0.
          5    1    4    4  502    0  0.16672424209E+03  0.55222555842E+02  0.85100847509E+02  0.19521974240E+03  0.47000000000E+01 0.  1.
         -5    1    4    4    0  502  0.28860239776E+01 -0.27091139788E+02 -0.11193658816E+02  0.29826950684E+02  0.47000000000E+01 0.  1.
          5    1    3    3  503    0 -0.13771732433E+03 -0.59821791853E+02  0.17355786341E+03  0.22954112954E+03  0.47000000000E+01 0.  1.
         -5    1    3    3    0  503 -0.31892941744E+02  0.31690375800E+02  0.53065586703E+00  0.45208530689E+02  0.47000000000E+01 0.  1.
<mgrwt>
<rscale>  0 0.21256281E+03</rscale>
<asrwt>0</asrwt>
<pdfrwt beam="2">  1        5 0.19369280E-01 0.21256468E+03</pdfrwt>
<pdfrwt beam="1">  1       -5 0.57522466E-01 0.21256468E+03</pdfrwt>
<totfact> 0.56469893E+01</totfact>
</mgrwt>
</event>
<event>
 8    1  0.3542708E-007  0.1478216E+03  0.7546771E-02  0.1203176E+00
          5   -1    0    0  501    0  0.00000000000E+00  0.00000000000E+00  0.27925185118E+03  0.27929140049E+03  0.47000000000E+01 0. -1.
         -5   -1    0    0    0  501 -0.00000000000E+00 -0.00000000000E+00 -0.11346033147E+03  0.11355763655E+03  0.47000000000E+01 0. -1.
         25    2    1    2    0    0 -0.64495576249E+02 -0.45448302814E+02 -0.26632541796E+02  0.15020154550E+03  0.12500393755E+03 0.  0.
         25    2    1    2    0    0  0.64495576249E+02  0.45448302814E+02  0.19242406151E+03  0.24264749154E+03  0.12500223247E+03 0.  0.
          5    1    3    3  502    0 -0.49842598284E+02  0.36018767463E+02  0.40288807477E+01  0.61805809544E+02  0.47000000000E+01 0. -1.
         -5    1    3    3    0  502 -0.14652977964E+02 -0.81467070276E+02 -0.30661422544E+02  0.88395735955E+02  0.47000000000E+01 0. -1.
          5    1    4    4  503    0  0.10066504838E+03  0.25116988179E+02  0.11708256803E+03  0.15650793206E+03  0.47000000000E+01 0.  1.
         -5    1    4    4    0  503 -0.36169472132E+02  0.20331314635E+02  0.75341493479E+02  0.86139559487E+02  0.47000000000E+01 0.  1.
<mgrwt>
<rscale>  0 0.14782119E+03</rscale>
<asrwt>0</asrwt>
<pdfrwt beam="1">  1        5 0.42972351E-01 0.14782155E+03</pdfrwt>
<pdfrwt beam="2">  1       -5 0.17465963E-01 0.14782155E+03</pdfrwt>
<totfact> 0.11468564E+02</totfact>
</mgrwt>
</event>
<event>
 8    1  0.3542708E-007  0.1620432E+03  0.7546771E-02  0.1186420E+00
         -5   -1    0    0    0  501 -0.00000000000E+00  0.00000000000E+00  0.11706327284E+03  0.11715758554E+03  0.47000000000E+01 0.  1.
          5   -1    0    0  501    0  0.00000000000E+00 -0.00000000000E+00 -0.22477704644E+03  0.22482617865E+03  0.47000000000E+01 0.  1.
         25    2    1    2    0    0 -0.57170202142E+02 -0.85814949364E+02 -0.44073021216E+02  0.16789143736E+03  0.12494985391E+03 0.  0.
         25    2    1    2    0    0  0.57170202142E+02  0.85814949364E+02 -0.63640752378E+02  0.17409232682E+03  0.12500142138E+03 0.  0.
          5    1    4    4  502    0 -0.37983568249E+02  0.43016737562E+02 -0.21207685254E+02  0.61359979475E+02  0.47000000000E+01 0.  1.
         -5    1    4    4    0  502  0.95153770391E+02  0.42798211802E+02 -0.42433067124E+02  0.11273234735E+03  0.47000000000E+01 0.  1.
          5    1    3    3  503    0 -0.56059030476E+02  0.10332446923E+02  0.90968676539E+01  0.57915605482E+02  0.47000000000E+01 0. -1.
         -5    1    3    3    0  503 -0.11111716665E+01 -0.96147396287E+02 -0.53169888869E+02  0.10997583188E+03  0.47000000000E+01 0. -1.
<mgrwt>
<rscale>  0 0.16203324E+03</rscale>
<asrwt>0</asrwt>
<pdfrwt beam="2">  1        5 0.34592118E-01 0.16204318E+03</pdfrwt>
<pdfrwt beam="1">  1       -5 0.18020769E-01 0.16204318E+03</pdfrwt>
<totfact> 0.17346752E+02</totfact>
</mgrwt>
</event>
<event>
 8    1  0.3542708E-007  0.1299222E+03  0.7546771E-02  0.1227576E+00
          5   -1    0    0  501    0  0.00000000000E+00  0.00000000000E+00  0.22366472600E+03  0.22371410250E+03  0.47000000000E+01 0. -1.
         -5   -1    0    0    0  501 -0.00000000000E+00 -0.00000000000E+00 -0.84217606518E+02  0.84348652910E+02  0.47000000000E+01 0. -1.
         25    2    1    2    0    0  0.12741706276E+02 -0.32999346262E+02  0.19741686838E+02  0.13140159214E+03  0.12500134513E+03 0.  0.
         25    2    1    2    0    0 -0.12741706276E+02  0.32999346262E+02  0.11970543265E+03  0.17666116328E+03  0.12501387152E+03 0.  0.
          5    1    4    4  502    0  0.22394156663E+02  0.17696960547E+02 -0.17714469832E+02  0.33920098860E+02  0.47000000000E+01 0.  1.
         -5    1    4    4    0  502 -0.35135862939E+02  0.15302385715E+02  0.13741990248E+03  0.14274106442E+03  0.47000000000E+01 0.  1.
          5    1    3    3  503    0 -0.33827558372E+02 -0.89800309110E+00 -0.37543387154E+02  0.50761265094E+02  0.47000000000E+01 0. -1.
         -5    1    3    3    0  503  0.46569264647E+02 -0.32101343171E+02  0.57285073992E+02  0.80640327042E+02  0.47000000000E+01 0. -1.
<mgrwt>
<rscale>  0 0.12991918E+03</rscale>
<asrwt>0</asrwt>
<pdfrwt beam="1">  1        5 0.34423836E-01 0.12992219E+03</pdfrwt>
<pdfrwt beam="2">  1       -5 0.12970434E-01 0.12992219E+03</pdfrwt>
<totfact> 0.29559038E+02</totfact>
</mgrwt>
</event>
<event>
 8    1  0.3542708E-007  0.1263547E+03  0.7546771E-02  0.1232968E+00
         -5   -1    0    0    0  501 -0.00000000000E+00  0.00000000000E+00  0.45799695705E+02  0.46040222922E+02  0.47000000000E+01 0. -1.
          5   -1    0    0  501    0  0.00000000000E+00 -0.00000000000E+00 -0.41457413083E+03  0.41460077178E+03  0.47000000000E+01 0. -1.
         25    2    1    2    0    0 -0.17844299478E+02  0.46459106102E+01 -0.91720277167E+02  0.15613491845E+03  0.12500200001E+03 0.  0.
         25    2    1    2    0    0  0.17844299478E+02 -0.46459106102E+01 -0.27705415796E+03  0.30450607624E+03  0.12499976207E+03 0.  0.
          5    1    4    4  502    0  0.52808915055E+02  0.38886401402E+02 -0.10833795592E+03  0.12672859352E+03  0.47000000000E+01 0. -1.
         -5    1    4    4    0  502 -0.34964615576E+02 -0.43532312012E+02 -0.16871620204E+03  0.17777748272E+03  0.47000000000E+01 0. -1.
          5    1    3    3  503    0 -0.29723302823E+02  0.50229457613E+02 -0.91694080040E+02  0.10879507092E+03  0.47000000000E+01 0. -1.
         -5    1    3    3    0  503  0.11879003344E+02 -0.45583547003E+02 -0.26197127086E-01  0.47339847530E+02  0.47000000000E+01 0. -1.
<mgrwt>
<rscale>  0 0.12635412E+03</rscale>
<asrwt>0</asrwt>
<pdfrwt beam="2">  1        5 0.63801184E-01 0.12635467E+03</pdfrwt>
<pdfrwt beam="1">  1       -5 0.70666587E-02 0.12635467E+03</pdfrwt>
<totfact> 0.23047654E+02</totfact>
</mgrwt>
</event>
<event>
 8    1  0.3542708E-007  0.1354005E+03  0.7546771E-02  0.1219656E+00
         -5   -1    0    0    0  501 -0.00000000000E+00  0.00000000000E+00  0.60059038561E+02  0.60242660241E+02  0.47000000000E+01 0. -1.
          5   -1    0    0  501    0  0.00000000000E+00 -0.00000000000E+00 -0.35407286267E+03  0.35410405544E+03  0.47000000000E+01 0. -1.
         25    2    1    2    0    0 -0.49688977279E+02 -0.15473779747E+02 -0.69574669040E+02  0.15222799352E+03  0.12499718044E+03 0.  0.
         25    2    1    2    0    0  0.49688977279E+02  0.15473779747E+02 -0.22443915507E+03  0.26211872216E+03  0.12499943142E+03 0.  0.
          5    1    4    4  502    0  0.25956535978E+02 -0.13893097208E+02  0.44012379147E+01  0.30136701962E+02  0.47000000000E+01 0.  1.
         -5    1    4    4    0  502  0.23732441301E+02  0.29366876955E+02 -0.22884039298E+03  0.23198202019E+03  0.47000000000E+01 0.  1.
          5    1    3    3  503    0 -0.83826206350E+02 -0.97369540161E+01 -0.12682669166E+02  0.85466842937E+02  0.47000000000E+01 0.  1.
         -5    1    3    3    0  503  0.34137229071E+02 -0.57368257313E+01 -0.56891999874E+02  0.66761150587E+02  0.47000000000E+01 0.  1.
<mgrwt>
<rscale>  0 0.13539996E+03</rscale>
<asrwt>0</asrwt>
<pdfrwt beam="2">  1        5 0.54489271E-01 0.13540048E+03</pdfrwt>
<pdfrwt beam="1">  1       -5 0.92563765E-02 0.13540048E+03</pdfrwt>
<totfact> 0.20964593E+02</totfact>
</mgrwt>
</event>
<event>
 8    1  0.3542708E-007  0.1256846E+03  0.7546771E-02  0.1234006E+00
          5   -1    0    0  501    0  0.00000000000E+00  0.00000000000E+00  0.31313985150E+03  0.31317512129E+03  0.47000000000E+01 0.  1.
         -5   -1    0    0    0  501 -0.00000000000E+00 -0.00000000000E+00 -0.52542147389E+02  0.52751940744E+02  0.47000000000E+01 0.  1.
         25    2    1    2    0    0 -0.23556031992E+01 -0.12901595708E+02  0.92558627427E+02  0.15608884119E+03  0.12499850717E+03 0.  0.
         25    2    1    2    0    0  0.23556031992E+01  0.12901595708E+02  0.16803907668E+03  0.20983822084E+03  0.12499179012E+03 0.  0.
          5    1    3    3  502    0 -0.15223805423E+02 -0.24190049819E+02 -0.24349569334E+02  0.37840643342E+02  0.47000000000E+01 0.  1.
         -5    1    3    3    0  502  0.12868202224E+02  0.11288454111E+02  0.11690819676E+03  0.11824819785E+03  0.47000000000E+01 0.  1.
          5    1    4    4  503    0  0.60716090010E+02 -0.55676090662E+01  0.60581847628E+02  0.86079568533E+02  0.47000000000E+01 0.  1.
         -5    1    4    4    0  503 -0.58360486810E+02  0.18469204774E+02  0.10745722905E+03  0.12375865231E+03  0.47000000000E+01 0.  1.
<mgrwt>
<rscale>  0 0.12568296E+03</rscale>
<asrwt>0</asrwt>
<pdfrwt beam="1">  1        5 0.48194213E-01 0.12568463E+03</pdfrwt>
<pdfrwt beam="2">  1       -5 0.81022582E-02 0.12568463E+03</pdfrwt>
<totfact> 0.33344339E+02</totfact>
</mgrwt>
</event>
<event>
 8    1  0.3542708E-007  0.1262463E+03  0.7546771E-02  0.1233135E+00
         -5   -1    0    0    0  501 -0.00000000000E+00  0.00000000000E+00  0.23321055390E+02  0.23789947972E+02  0.47000000000E+01 0. -1.
          5   -1    0    0  501    0  0.00000000000E+00 -0.00000000000E+00 -0.69306770255E+03  0.69308363876E+03  0.47000000000E+01 0. -1.
         25    2    1    2    0    0 -0.17664576140E+02 -0.62271410615E+00 -0.27885617238E+03  0.30610176673E+03  0.12500040680E+03 0.  0.
         25    2    1    2    0    0  0.17664576140E+02  0.62271410615E+00 -0.39089047478E+03  0.41077182000E+03  0.12500279921E+03 0.  0.
          5    1    4    4  502    0 -0.43131662380E+02 -0.27145281030E+02 -0.10085226526E+03  0.11309498658E+03  0.47000000000E+01 0. -1.
         -5    1    4    4    0  502  0.60796238520E+02  0.27767995136E+02 -0.29003820953E+03  0.29767683342E+03  0.47000000000E+01 0. -1.
          5    1    3    3  503    0  0.60461322962E+01  0.36377277340E+02 -0.17594130032E+02  0.41127915507E+02  0.47000000000E+01 0.  1.
         -5    1    3    3    0  503 -0.23710708436E+02 -0.36999991446E+02 -0.26126204235E+03  0.26497385122E+03  0.47000000000E+01 0.  1.
<mgrwt>
<rscale>  0 0.12624569E+03</rscale>
<asrwt>0</asrwt>
<pdfrwt beam="2">  1        5 0.10666308E+00 0.12624629E+03</pdfrwt>
<pdfrwt beam="1">  1       -5 0.36251497E-02 0.12624629E+03</pdfrwt>
<totfact> 0.21092118E+02</totfact>
</mgrwt>
</event>
<event>
 8    1  0.3542708E-007  0.1428054E+03  0.7546771E-02  0.1209604E+00
         -5   -1    0    0    0  501 -0.00000000000E+00  0.00000000000E+00  0.17187521312E+03  0.17193946285E+03  0.47000000000E+01 0. -1.
          5   -1    0    0  501    0  0.00000000000E+00 -0.00000000000E+00 -0.11942222748E+03  0.11951467866E+03  0.47000000000E+01 0. -1.
         25    2    1    2    0    0  0.94624857393E+01 -0.68415463177E+02  0.38905587065E+02  0.14801020818E+03  0.12499265091E+03 0.  0.
         25    2    1    2    0    0 -0.94624857393E+01  0.68415463177E+02  0.13547398579E+02  0.14344393334E+03  0.12498966263E+03 0.  0.
          5    1    3    3  502    0  0.51969256553E+02 -0.73748994261E+02  0.59171062027E+00  0.90344661728E+02  0.47000000000E+01 0. -1.
         -5    1    3    3    0  502 -0.42506770814E+02  0.53335310840E+01  0.38313876444E+02  0.57665546447E+02  0.47000000000E+01 0. -1.
          5    1    4    4  503    0  0.40239129099E+02 -0.12887481154E+02 -0.12921206747E+02  0.44433346317E+02  0.47000000000E+01 0.  1.
         -5    1    4    4    0  503 -0.49701614838E+02  0.81302944331E+02  0.26468605326E+02  0.99010587022E+02  0.47000000000E+01 0.  1.
<mgrwt>
<rscale>  0 0.14280473E+03</rscale>
<asrwt>0</asrwt>
<pdfrwt beam="2">  1        5 0.18384704E-01 0.14280538E+03</pdfrwt>
<pdfrwt beam="1">  1       -5 0.26454394E-01 0.14280538E+03</pdfrwt>
<totfact> 0.27190084E+02</totfact>
</mgrwt>
</event>
<event>
 8    1  0.3542708E-007  0.1328686E+03  0.7546771E-02  0.1223263E+00
         -5   -1    0    0    0  501 -0.00000000000E+00  0.00000000000E+00  0.81879069102E+03  0.81880418032E+03  0.47000000000E+01 0. -1.
          5   -1    0    0  501    0  0.00000000000E+00 -0.00000000000E+00 -0.21836585685E+02  0.22336662114E+02  0.47000000000E+01 0. -1.
         25    2    1    2    0    0  0.43559086213E+02  0.11503501011E+02  0.33273463034E+03  0.35828258122E+03  0.12499739697E+03 0.  0.
         25    2    1    2    0    0 -0.43559086213E+02 -0.11503501011E+02  0.46421947499E+03  0.48285826121E+03  0.12499061936E+03 0.  0.
          5    1    3    3  502    0  0.53537563137E+02 -0.25675920218E+02  0.30460546603E+03  0.31037413468E+03  0.47000000000E+01 0.  1.
         -5    1    3    3    0  502 -0.99784769243E+01  0.37179421229E+02  0.28129164315E+02  0.47908446538E+02  0.47000000000E+01 0.  1.
          5    1    4    4  503    0 -0.39068445429E+01  0.76354482542E+01  0.42056214699E+03  0.42067585263E+03  0.47000000000E+01 0.  1.
         -5    1    4    4    0  503 -0.39652241670E+02 -0.19138949265E+02  0.43657328003E+02  0.62182408580E+02  0.47000000000E+01 0.  1.
<mgrwt>
<rscale>  0 0.13286704E+03</rscale>
<asrwt>0</asrwt>
<pdfrwt beam="2">  1        5 0.33989795E-02 0.13286863E+03</pdfrwt>
<pdfrwt beam="1">  1       -5 0.12600731E+00 0.13286863E+03</pdfrwt>
<totfact> 0.15667634E+02</totfact>
</mgrwt>
</event>
<event>
 8    1  0.3542708E-007  0.1299296E+03  0.7546771E-02  0.1227564E+00
         -5   -1    0    0    0  501 -0.00000000000E+00  0.00000000000E+00  0.84189301588E+02  0.84320391970E+02  0.47000000000E+01 0. -1.
          5   -1    0    0  501    0  0.00000000000E+00 -0.00000000000E+00 -0.20129194850E+03  0.20134681158E+03  0.47000000000E+01 0. -1.
         25    2    1    2    0    0  0.23098915780E+01  0.35371329147E+02 -0.69122748990E+02  0.14717215897E+03  0.12500089369E+03 0.  0.
         25    2    1    2    0    0 -0.23098915780E+01 -0.35371329147E+02 -0.47979897925E+02  0.13849504458E+03  0.12498936052E+03 0.  0.
          5    1    4    4  502    0 -0.27841021328E+02  0.26709489999E+02 -0.58654974305E+02  0.70363451701E+02  0.47000000000E+01 0. -1.
         -5    1    4    4    0  502  0.25531129750E+02 -0.62080819146E+02  0.10675076380E+02  0.68131592876E+02  0.47000000000E+01 0. -1.
          5    1    3    3  503    0 -0.35274698211E+02  0.61425792157E+01  0.23386138776E+02  0.43023680690E+02  0.47000000000E+01 0. -1.
         -5    1    3    3    0  503  0.37584589789E+02  0.29228749932E+02 -0.92508887766E+02  0.10414847828E+03  0.47000000000E+01 0. -1.
<mgrwt>
<rscale>  0 0.12992678E+03</rscale>
<asrwt>0</asrwt>
<pdfrwt beam="2">  1        5 0.30982296E-01 0.12992956E+03</pdfrwt>
<pdfrwt beam="1">  1       -5 0.12966504E-01 0.12992956E+03</pdfrwt>
<totfact> 0.36446365E+02</totfact>
</mgrwt>
</event>
<event>
 8    1  0.3542708E-007  0.1366791E+03  0.7546771E-02  0.1217869E+00
         -5   -1    0    0    0  501 -0.00000000000E+00  0.00000000000E+00  0.14001012048E+03  0.14008898542E+03  0.47000000000E+01 0. -1.
          5   -1    0    0  501    0  0.00000000000E+00 -0.00000000000E+00 -0.19205139804E+03  0.19210890008E+03  0.47000000000E+01 0. -1.
         25    2    1    2    0    0 -0.49417085379E+02 -0.24792066167E+02  0.65837640755E+02  0.15170950239E+03  0.12499793320E+03 0.  0.
         25    2    1    2    0    0  0.49417085379E+02  0.24792066167E+02 -0.11787891832E+03  0.18048838311E+03  0.12499568866E+03 0.  0.
          5    1    3    3  502    0 -0.14140261072E+02  0.40153708109E+02  0.64763278044E+02  0.77644313643E+02  0.47000000000E+01 0.  1.
         -5    1    3    3    0  502 -0.35276824308E+02 -0.64945774276E+02  0.10743627111E+01  0.74065188751E+02  0.47000000000E+01 0.  1.
          5    1    4    4  503    0  0.72770917292E+02  0.46573421501E+02 -0.38322344760E+02  0.94632880659E+02  0.47000000000E+01 0.  1.
         -5    1    4    4    0  503 -0.23353831913E+02 -0.21781355335E+02 -0.79556573558E+02  0.85855502453E+02  0.47000000000E+01 0.  1.
<mgrwt>
<rscale>  0 0.13667859E+03</rscale>
<asrwt>0</asrwt>
<pdfrwt beam="2">  1        5 0.29556859E-01 0.13667911E+03</pdfrwt>
<pdfrwt beam="1">  1       -5 0.21550508E-01 0.13667911E+03</pdfrwt>
<totfact> 0.16055700E+02</totfact>
</mgrwt>
</event>
<event>
 8    1  0.3542708E-007  0.1320948E+03  0.7546771E-02  0.1224380E+00
         -5   -1    0    0    0  501 -0.00000000000E+00  0.00000000000E+00  0.16559183250E+03  0.16565851922E+03  0.47000000000E+01 0.  1.
          5   -1    0    0  501    0  0.00000000000E+00 -0.00000000000E+00 -0.12494358030E+03  0.12503194895E+03  0.47000000000E+01 0.  1.
         25    2    1    2    0    0 -0.42196740035E+02  0.65637051852E+01  0.78015617124E+02  0.15341274447E+03  0.12500154621E+03 0.  0.
         25    2    1    2    0    0  0.42196740035E+02 -0.65637051852E+01 -0.37367364921E+02  0.13727772370E+03  0.12500082547E+03 0.  0.
          5    1    3    3  502    0 -0.17039222516E+02  0.13740853037E+02  0.10975409683E+03  0.11201427550E+03  0.47000000000E+01 0.  1.
         -5    1    3    3    0  502 -0.25157517519E+02 -0.71771478523E+01 -0.31738479702E+02  0.41398468967E+02  0.47000000000E+01 0.  1.
          5    1    4    4  503    0  0.58770990741E+02  0.47124076090E+02 -0.25410077900E+02  0.79639625557E+02  0.47000000000E+01 0. -1.
         -5    1    4    4    0  503 -0.16574250705E+02 -0.53687781275E+02 -0.11957287021E+02  0.57638098144E+02  0.47000000000E+01 0. -1.
<mgrwt>
<rscale>  0 0.13209462E+03</rscale>
<asrwt>0</asrwt>
<pdfrwt beam="2">  1        5 0.19234017E-01 0.13209479E+03</pdfrwt>
<pdfrwt beam="1">  1       -5 0.25487594E-01 0.13209479E+03</pdfrwt>
<totfact> 0.26159408E+02</totfact>
</mgrwt>
</event>
<event>
 8    1  0.3542708E-007  0.1484922E+03  0.7546771E-02  0.1202340E+00
         -5   -1    0    0    0  501 -0.00000000000E+00  0.00000000000E+00  0.21919067705E+03  0.21924106118E+03  0.47000000000E+01 0. -1.
          5   -1    0    0  501    0  0.00000000000E+00 -0.00000000000E+00 -0.11919895438E+03  0.11929157860E+03  0.47000000000E+01 0. -1.
         25    2    1    2    0    0  0.50885239905E+02 -0.61943818059E+02  0.11703780993E+03  0.18907082975E+03  0.12499434177E+03 0.  0.
         25    2    1    2    0    0 -0.50885239905E+02  0.61943818059E+02 -0.17046087257E+02  0.14946181002E+03  0.12498767670E+03 0.  0.
          5    1    4    4  502    0 -0.72621144881E+02 -0.93689924279E+01 -0.28767642113E+01  0.73430065200E+02  0.47000000000E+01 0.  1.
         -5    1    4    4    0  502  0.21735904976E+02  0.71312810487E+02 -0.14169323046E+02  0.76031744819E+02  0.47000000000E+01 0.  1.
          5    1    3    3  503    0  0.44288745136E+02  0.29148138934E+02  0.23273848624E+02  0.58093622532E+02  0.47000000000E+01 0.  1.
         -5    1    3    3    0  503  0.65964947686E+01 -0.91091956993E+02  0.93763961306E+02  0.13097720722E+03  0.47000000000E+01 0.  1.
<mgrwt>
<rscale>  0 0.14849078E+03</rscale>
<asrwt>0</asrwt>
<pdfrwt beam="2">  1        5 0.18349301E-01 0.14849219E+03</pdfrwt>
<pdfrwt beam="1">  1       -5 0.33732643E-01 0.14849219E+03</pdfrwt>
<totfact> 0.17153240E+02</totfact>
</mgrwt>
</event>
<event>
 8    1  0.3542708E-007  0.1426847E+03  0.7546771E-02  0.1209762E+00
          5   -1    0    0  501    0  0.00000000000E+00  0.00000000000E+00  0.93177548662E+02  0.93296010497E+02  0.47000000000E+01 0.  1.
         -5   -1    0    0    0  501 -0.00000000000E+00 -0.00000000000E+00 -0.23987170688E+03  0.23991774790E+03  0.47000000000E+01 0.  1.
         25    2    1    2    0    0  0.18547168810E+02 -0.66257498552E+02 -0.12339608272E+03  0.18863945906E+03  0.12499679476E+03 0.  0.
         25    2    1    2    0    0 -0.18547168810E+02  0.66257498552E+02 -0.23298075496E+02  0.14457429934E+03  0.12499949649E+03 0.  0.
          5    1    4    4  502    0  0.22937698557E+02  0.37768494558E+02 -0.65211460135E+02  0.78912747571E+02  0.47000000000E+01 0.  1.
         -5    1    4    4    0  502 -0.41484867367E+02  0.28489003994E+02  0.41913384639E+02  0.65661551771E+02  0.47000000000E+01 0.  1.
          5    1    3    3  503    0  0.54084758662E+02 -0.80313193993E+02 -0.58627779969E+02  0.11329023273E+03  0.47000000000E+01 0. -1.
         -5    1    3    3    0  503 -0.35537589852E+02  0.14055695442E+02 -0.64768302750E+02  0.75349226326E+02  0.47000000000E+01 0. -1.
<mgrwt>
<rscale>  0 0.14268412E+03</rscale>
<asrwt>0</asrwt>
<pdfrwt beam="1">  1        5 0.14347662E-01 0.14268471E+03</pdfrwt>
<pdfrwt beam="2">  1       -5 0.36915993E-01 0.14268471E+03</pdfrwt>
<totfact> 0.22134856E+02</totfact>
</mgrwt>
</event>
<event>
 8    1  0.3542708E-007  0.1286694E+03  0.7546771E-02  0.1229446E+00
         -5   -1    0    0    0  501 -0.00000000000E+00  0.00000000000E+00  0.85295131784E+02  0.85424525202E+02  0.47000000000E+01 0. -1.
          5   -1    0    0  501    0  0.00000000000E+00 -0.00000000000E+00 -0.19397901269E+03  0.19403594349E+03  0.47000000000E+01 0. -1.
         25    2    1    2    0    0 -0.25033239615E+02  0.17426495047E+02 -0.58761028487E+02  0.14145202796E+03  0.12500188771E+03 0.  0.
         25    2    1    2    0    0  0.25033239615E+02 -0.17426495047E+02 -0.49922852421E+02  0.13800844073E+03  0.12499477070E+03 0.  0.
          5    1    3    3  502    0 -0.21318577505E+01 -0.15184688462E+02 -0.89487485459E+02  0.90913253351E+02  0.47000000000E+01 0.  1.
         -5    1    3    3    0  502 -0.22901381864E+02  0.32611183509E+02  0.30726456971E+02  0.50538774611E+02  0.47000000000E+01 0.  1.
          5    1    4    4  503    0  0.62537420570E+02 -0.36491615376E+02 -0.65873073621E-02  0.72557956198E+02  0.47000000000E+01 0.  1.
         -5    1    4    4    0  503 -0.37504180955E+02  0.19065120329E+02 -0.49916265114E+02  0.65450484530E+02  0.47000000000E+01 0.  1.
<mgrwt>
<rscale>  0 0.12866768E+03</rscale>
<asrwt>0</asrwt>
<pdfrwt beam="2">  1        5 0.29857258E-01 0.12866941E+03</pdfrwt>
<pdfrwt beam="1">  1       -5 0.13136661E-01 0.12866941E+03</pdfrwt>
<totfact> 0.38153525E+02</totfact>
</mgrwt>
</event>
<event>
 8    1  0.3542708E-007  0.1661939E+03  0.7546771E-02  0.1181877E+00
         -5   -1    0    0    0  501 -0.00000000000E+00  0.00000000000E+00  0.11152325372E+02  0.12102246122E+02  0.47000000000E+01 0. -1.
          5   -1    0    0  501    0  0.00000000000E+00 -0.00000000000E+00 -0.25027061393E+04  0.25027105525E+04  0.47000000000E+01 0. -1.
         25    2    1    2    0    0 -0.62811679690E+02  0.89722551874E+02 -0.96122236903E+03  0.97548390638E+03  0.12499986179E+03 0.  0.
         25    2    1    2    0    0  0.62811679690E+02 -0.89722551874E+02 -0.15303314449E+04  0.15393288923E+04  0.12499465553E+03 0.  0.
          5    1    4    4  502    0  0.17330507148E+02  0.94805239175E+00 -0.95066721712E+03  0.95083725894E+03  0.47000000000E+01 0. -1.
         -5    1    4    4    0  502  0.45481172542E+02 -0.90670604266E+02 -0.57966422778E+03  0.58849163333E+03  0.47000000000E+01 0. -1.
          5    1    3    3  503    0 -0.41132128293E+02  0.11361445240E+03 -0.87477411550E+03  0.88309225958E+03  0.47000000000E+01 0. -1.
         -5    1    3    3    0  503 -0.21679551397E+02 -0.23891900526E+02 -0.86448253534E+02  0.92391646801E+02  0.47000000000E+01 0. -1.
<mgrwt>
<rscale>  0 0.16619291E+03</rscale>
<asrwt>0</asrwt>
<pdfrwt beam="2">  1        5 0.38510470E+00 0.16619389E+03</pdfrwt>
<pdfrwt beam="1">  1       -5 0.17891547E-02 0.16619389E+03</pdfrwt>
<totfact> 0.79561743E+00</totfact>
</mgrwt>
</event>
<event>
 8    1  0.3542708E-007  0.1251956E+03  0.7546771E-02  0.1234765E+00
         -5   -1    0    0    0  501 -0.00000000000E+00  0.00000000000E+00  0.37983376500E+02  0.38273056977E+02  0.47000000000E+01 0.  1.
          5   -1    0    0  501    0  0.00000000000E+00 -0.00000000000E+00 -0.67685177446E+03  0.67686809246E+03  0.47000000000E+01 0.  1.
         25    2    1    2    0    0 -0.66114181964E+01  0.20936904417E+01 -0.95295352176E+02  0.15733766846E+03  0.12500337347E+03 0.  0.
         25    2    1    2    0    0  0.66114181964E+01 -0.20936904417E+01 -0.54357304579E+03  0.55780348098E+03  0.12499989160E+03 0.  0.
          5    1    3    3  502    0  0.39049528142E+02  0.44083906953E+02 -0.65983201963E+02  0.88567090059E+02  0.47000000000E+01 0.  1.
         -5    1    3    3    0  502 -0.45660946338E+02 -0.41990216511E+02 -0.29312150214E+02  0.68770578399E+02  0.47000000000E+01 0.  1.
          5    1    4    4  503    0  0.54623568772E+02  0.78659241830E+01 -0.12999804114E+03  0.14130529972E+03  0.47000000000E+01 0.  1.
         -5    1    4    4    0  503 -0.48012150576E+02 -0.99596146248E+01 -0.41357500465E+03  0.41649818126E+03  0.47000000000E+01 0.  1.
<mgrwt>
<rscale>  0 0.12519473E+03</rscale>
<asrwt>0</asrwt>
<pdfrwt beam="2">  1        5 0.10415457E+00 0.12519560E+03</pdfrwt>
<pdfrwt beam="1">  1       -5 0.58671352E-02 0.12519560E+03</pdfrwt>
<totfact> 0.10072372E+02</totfact>
</mgrwt>
</event>
<event>
 8    1  0.3542708E-007  0.1436623E+03  0.7546771E-02  0.1208484E+00
          5   -1    0    0  501    0  0.00000000000E+00  0.00000000000E+00  0.20924859492E+03  0.20930137237E+03  0.47000000000E+01 0. -1.
         -5   -1    0    0    0  501 -0.00000000000E+00 -0.00000000000E+00 -0.15293076070E+03  0.15300296588E+03  0.47000000000E+01 0. -1.
         25    2    1    2    0    0  0.57252502276E+02 -0.41666438251E+02 -0.79851433471E+02  0.16436272169E+03  0.12499964705E+03 0.  0.
         25    2    1    2    0    0 -0.57252502276E+02  0.41666438251E+02  0.13616926769E+03  0.19794161656E+03  0.12499949204E+03 0.  0.
          5    1    3    3  502    0 -0.32836885017E+02 -0.25773715892E+02 -0.55453375139E+02  0.69568040527E+02  0.47000000000E+01 0.  1.
         -5    1    3    3    0  502  0.90089387293E+02 -0.15892722360E+02 -0.24398058332E+02  0.94794681165E+02  0.47000000000E+01 0.  1.
          5    1    4    4  503    0  0.30320055594E+02  0.39138655983E+02  0.23123616460E+02  0.54844615064E+02  0.47000000000E+01 0. -1.
         -5    1    4    4    0  503 -0.87572557870E+02  0.25277822686E+01  0.11304565123E+03  0.14309700150E+03  0.47000000000E+01 0. -1.
<mgrwt>
<rscale>  0 0.14366225E+03</rscale>
<asrwt>0</asrwt>
<pdfrwt beam="1">  1        5 0.32201706E-01 0.14366229E+03</pdfrwt>
<pdfrwt beam="2">  1       -5 0.23537423E-01 0.14366229E+03</pdfrwt>
<totfact> 0.11664514E+02</totfact>
</mgrwt>
</event>
<event>
 8    1  0.3542708E-007  0.1482120E+03  0.7546771E-02  0.1202689E+00
         -5   -1    0    0    0  501 -0.00000000000E+00  0.00000000000E+00  0.35492336802E+03  0.35495448605E+03  0.47000000000E+01 0. -1.
          5   -1    0    0  501    0  0.00000000000E+00 -0.00000000000E+00 -0.74081959622E+02  0.74230901527E+02  0.47000000000E+01 0. -1.
         25    2    1    2    0    0  0.41967211995E+02  0.67677090301E+02  0.22779751108E+03  0.27176735387E+03  0.12499741255E+03 0.  0.
         25    2    1    2    0    0 -0.41967211995E+02 -0.67677090301E+02  0.53043897322E+02  0.15741803370E+03  0.12500138742E+03 0.  0.
          5    1    3    3  502    0  0.31922366419E+01  0.91481550546E+02  0.19504898219E+03  0.21551162363E+03  0.47000000000E+01 0. -1.
         -5    1    3    3    0  502  0.38774975353E+02 -0.23804460246E+02  0.32748528881E+02  0.56255730242E+02  0.47000000000E+01 0. -1.
          5    1    4    4  503    0  0.42492790087E+02 -0.41454092753E+02  0.24172048325E+02  0.64268631038E+02  0.47000000000E+01 0. -1.
         -5    1    4    4    0  503 -0.84460002082E+02 -0.26222997548E+02  0.28871848998E+02  0.93149402664E+02  0.47000000000E+01 0. -1.
<mgrwt>
<rscale>  0 0.14821111E+03</rscale>
<asrwt>0</asrwt>
<pdfrwt beam="2">  1        5 0.11411075E-01 0.14821195E+03</pdfrwt>
<pdfrwt beam="1">  1       -5 0.54617445E-01 0.14821195E+03</pdfrwt>
<totfact> 0.14899784E+02</totfact>
</mgrwt>
</event>
<event>
 8    1  0.3542708E-007  0.1630950E+03  0.7546771E-02  0.1185246E+00
         -5   -1    0    0    0  501 -0.00000000000E+00  0.00000000000E+00  0.13154685127E+03  0.13163078697E+03  0.47000000000E+01 0. -1.
          5   -1    0    0  501    0  0.00000000000E+00 -0.00000000000E+00 -0.20442784041E+03  0.20448186211E+03  0.47000000000E+01 0. -1.
         25    2    1    2    0    0 -0.25309133414E+02  0.10165958426E+03 -0.54622936351E+02  0.17199900711E+03  0.12499907986E+03 0.  0.
         25    2    1    2    0    0  0.25309133414E+02 -0.10165958426E+03 -0.18258052783E+02  0.16411364197E+03  0.12499883073E+03 0.  0.
          5    1    4    4  502    0  0.11986710477E+02 -0.12945865905E+03 -0.48983784321E+01  0.13018951471E+03  0.47000000000E+01 0.  1.
         -5    1    4    4    0  502  0.13322422937E+02  0.27799074782E+02 -0.13359674351E+02  0.33924127260E+02  0.47000000000E+01 0.  1.
          5    1    3    3  503    0 -0.65731975019E+02  0.32138209526E+02 -0.54645409994E+02  0.91442702742E+02  0.47000000000E+01 0. -1.
         -5    1    3    3    0  503  0.40422841605E+02  0.69521374738E+02  0.22473643197E-01  0.80556304371E+02  0.47000000000E+01 0. -1.
<mgrwt>
<rscale>  0 0.16309500E+03</rscale>
<asrwt>0</asrwt>
<pdfrwt beam="2">  1        5 0.31461049E-01 0.16309504E+03</pdfrwt>
<pdfrwt beam="1">  1       -5 0.20248589E-01 0.16309504E+03</pdfrwt>
<totfact> 0.16903366E+02</totfact>
</mgrwt>
</event>
<event>
 8    1  0.3542708E-007  0.1257772E+03  0.7546771E-02  0.1233862E+00
         -5   -1    0    0    0  501 -0.00000000000E+00  0.00000000000E+00  0.42904048685E+02  0.43160715860E+02  0.47000000000E+01 0. -1.
          5   -1    0    0  501    0  0.00000000000E+00 -0.00000000000E+00 -0.36785215318E+03  0.36788217760E+03  0.47000000000E+01 0. -1.
         25    2    1    2    0    0  0.87793073206E+01 -0.10832087766E+02 -0.15480897606E+03  0.19946020185E+03  0.12499657072E+03 0.  0.
         25    2    1    2    0    0 -0.87793073206E+01  0.10832087766E+02 -0.17013912844E+03  0.21158269162E+03  0.12500200800E+03 0.  0.
          5    1    3    3  502    0 -0.15328063929E+02 -0.38215059818E+02 -0.15722663045E+03  0.16259656720E+03  0.47000000000E+01 0. -1.
         -5    1    3    3    0  502  0.24107371249E+02  0.27382972053E+02  0.24176543954E+01  0.36863634652E+02  0.47000000000E+01 0. -1.
          5    1    4    4  503    0 -0.21523183301E+02  0.61815859908E+02 -0.12880068987E+03  0.14455502643E+03  0.47000000000E+01 0.  1.
         -5    1    4    4    0  503  0.12743875980E+02 -0.50983772142E+02 -0.41338438569E+02  0.67027665185E+02  0.47000000000E+01 0.  1.
<mgrwt>
<rscale>  0 0.12577588E+03</rscale>
<asrwt>0</asrwt>
<pdfrwt beam="2">  1        5 0.56614690E-01 0.12577723E+03</pdfrwt>
<pdfrwt beam="1">  1       -5 0.66226763E-02 0.12577723E+03</pdfrwt>
<totfact> 0.33344899E+02</totfact>
</mgrwt>
</event>
<event>
 8    1  0.3542708E-007  0.1433549E+03  0.7546771E-02  0.1208888E+00
         -5   -1    0    0    0  501 -0.00000000000E+00  0.00000000000E+00  0.45785525069E+02  0.46026126340E+02  0.47000000000E+01 0.  1.
          5   -1    0    0  501    0  0.00000000000E+00 -0.00000000000E+00 -0.48690664564E+03  0.48692932913E+03  0.47000000000E+01 0.  1.
         25    2    1    2    0    0  0.69885859041E+02  0.62029060962E+01 -0.14465071109E+03  0.20364506911E+03  0.12499990646E+03 0.  0.
         25    2    1    2    0    0 -0.69885859041E+02 -0.62029060962E+01 -0.29647040948E+03  0.32931038636E+03  0.12501246950E+03 0.  0.
          5    1    3    3  502    0  0.97506046414E+02 -0.24994593848E+02 -0.11067118353E+03  0.14967417838E+03  0.47000000000E+01 0.  1.
         -5    1    3    3    0  502 -0.27620187372E+02  0.31197499944E+02 -0.33979527563E+02  0.53970890734E+02  0.47000000000E+01 0.  1.
          5    1    4    4  503    0  0.83380209722E+01 -0.48282731477E+02 -0.15080456096E+03  0.15863432907E+03  0.47000000000E+01 0.  1.
         -5    1    4    4    0  503 -0.78223880014E+02  0.42079825381E+02 -0.14566584852E+03  0.17067605729E+03  0.47000000000E+01 0.  1.
<mgrwt>
<rscale>  0 0.14335216E+03</rscale>
<asrwt>0</asrwt>
<pdfrwt beam="2">  1        5 0.74928964E-01 0.14335490E+03</pdfrwt>
<pdfrwt beam="1">  1       -5 0.70641799E-02 0.14335490E+03</pdfrwt>
<totfact> 0.16776690E+02</totfact>
</mgrwt>
</event>
<event>
 8    1  0.3542708E-007  0.1933296E+03  0.7546771E-02  0.1155493E+00
          5   -1    0    0  501    0  0.00000000000E+00  0.00000000000E+00  0.34423817442E+03  0.34427025827E+03  0.47000000000E+01 0.  1.
         -5   -1    0    0    0  501 -0.00000000000E+00 -0.00000000000E+00 -0.10866305066E+03  0.10876464765E+03  0.47000000000E+01 0.  1.
         25    2    1    2    0    0  0.12471779786E+03 -0.78714599061E+02  0.10866789577E+03  0.22177698761E+03  0.12500321378E+03 0.  0.
         25    2    1    2    0    0 -0.12471779786E+03  0.78714599061E+02  0.12690722800E+03  0.23125791831E+03  0.12499705218E+03 0.  0.
          5    1    4    4  502    0 -0.12945471252E+03  0.18670775225E+02  0.70762399108E+02  0.14878349226E+03  0.47000000000E+01 0. -1.
         -5    1    4    4    0  502  0.47369146563E+01  0.60043823836E+02  0.56144828891E+02  0.82474426051E+02  0.47000000000E+01 0. -1.
          5    1    3    3  503    0  0.12215491816E+01  0.14484905228E+02 -0.16665793525E+02  0.22608479287E+02  0.47000000000E+01 0. -1.
         -5    1    3    3    0  503  0.12349624868E+03 -0.93199504289E+02  0.12533368929E+03  0.19916850833E+03  0.47000000000E+01 0. -1.
<mgrwt>
<rscale>  0 0.19332857E+03</rscale>
<asrwt>0</asrwt>
<pdfrwt beam="1">  1        5 0.52970002E-01 0.19332956E+03</pdfrwt>
<pdfrwt beam="2">  1       -5 0.16727676E-01 0.19332956E+03</pdfrwt>
<totfact> 0.86496707E+01</totfact>
</mgrwt>
</event>
<event>
 8    1  0.3542708E-007  0.1861031E+03  0.7546771E-02  0.1162025E+00
          5   -1    0    0  501    0  0.00000000000E+00  0.00000000000E+00  0.23106229264E+02  0.23579394199E+02  0.47000000000E+01 0.  1.
         -5   -1    0    0    0  501 -0.00000000000E+00 -0.00000000000E+00 -0.14923119431E+04  0.14923193444E+04  0.47000000000E+01 0.  1.
         25    2    1    2    0    0  0.98152380298E+02  0.96827978554E+02 -0.79375718574E+03  0.81528110113E+03  0.12499302685E+03 0.  0.
         25    2    1    2    0    0 -0.98152380298E+02 -0.96827978554E+02 -0.67544852814E+03  0.70061763746E+03  0.12499925025E+03 0.  0.
          5    1    4    4  502    0 -0.12066329503E+03 -0.10521251880E+03 -0.55198327910E+03  0.57474945436E+03  0.47000000000E+01 0. -1.
         -5    1    4    4    0  502  0.22510914727E+02  0.83845402442E+01 -0.12346524904E+03  0.12586818310E+03  0.47000000000E+01 0. -1.
          5    1    3    3  503    0 -0.17420274506E+02  0.48269816840E+02 -0.36264611514E+03  0.36628914263E+03  0.47000000000E+01 0. -1.
         -5    1    3    3    0  503  0.11557265480E+03  0.48558161714E+02 -0.43111107060E+03  0.44899195850E+03  0.47000000000E+01 0. -1.
<mgrwt>
<rscale>  0 0.18610204E+03</rscale>
<asrwt>0</asrwt>
<pdfrwt beam="1">  1        5 0.35917723E-02 0.18610309E+03</pdfrwt>
<pdfrwt beam="2">  1       -5 0.22962334E+00 0.18610309E+03</pdfrwt>
<totfact> 0.27232880E+01</totfact>
</mgrwt>
</event>
<event>
 8    1  0.3542708E-007  0.1294731E+03  0.7546771E-02  0.1228241E+00
          5   -1    0    0  501    0  0.00000000000E+00  0.00000000000E+00  0.56513772521E+03  0.56515726878E+03  0.47000000000E+01 0. -1.
         -5   -1    0    0    0  501 -0.00000000000E+00 -0.00000000000E+00 -0.34857644301E+02  0.35173077293E+02  0.47000000000E+01 0. -1.
         25    2    1    2    0    0 -0.20867840497E+02 -0.26512156423E+02  0.14758205992E+03  0.19632559310E+03  0.12499965156E+03 0.  0.
         25    2    1    2    0    0  0.20867840497E+02  0.26512156423E+02  0.38269802099E+03  0.40400475298E+03  0.12499481570E+03 0.  0.
          5    1    3    3  502    0  0.38147718401E+02  0.18651730686E+02  0.16952005634E+02  0.45962984801E+02  0.47000000000E+01 0. -1.
         -5    1    3    3    0  502 -0.59015558898E+02 -0.45163887109E+02  0.13063005428E+03  0.15036260829E+03  0.47000000000E+01 0. -1.
          5    1    4    4  503    0 -0.42938958181E+02  0.41200924296E+02  0.23339811224E+03  0.24091085299E+03  0.47000000000E+01 0. -1.
         -5    1    4    4    0  503  0.63806798679E+02 -0.14688767873E+02  0.14929990875E+03  0.16309389998E+03  0.47000000000E+01 0. -1.
<mgrwt>
<rscale>  0 0.12947190E+03</rscale>
<asrwt>0</asrwt>
<pdfrwt beam="1">  1        5 0.86970030E-01 0.12947306E+03</pdfrwt>
<pdfrwt beam="2">  1       -5 0.53884821E-02 0.12947306E+03</pdfrwt>
<totfact> 0.18109768E+02</totfact>
</mgrwt>
</event>
<event>
 8    1  0.3542708E-007  0.1889142E+03  0.7546771E-02  0.1159447E+00
          5   -1    0    0  501    0  0.00000000000E+00  0.00000000000E+00  0.30658636692E+03  0.30662239054E+03  0.47000000000E+01 0.  1.
         -5   -1    0    0    0  501 -0.00000000000E+00 -0.00000000000E+00 -0.12020875191E+03  0.12030059865E+03  0.47000000000E+01 0.  1.
         25    2    1    2    0    0  0.14163620828E+03 -0.16366649681E+01  0.54761028480E+02  0.19668070608E+03  0.12498414193E+03 0.  0.
         25    2    1    2    0    0 -0.14163620828E+03  0.16366649681E+01  0.13161658654E+03  0.23024228312E+03  0.12500035566E+03 0.  0.
          5    1    4    4  502    0 -0.61684135387E+02 -0.22057878758E+02 -0.94003367631E+01  0.66347109243E+02  0.47000000000E+01 0. -1.
         -5    1    4    4    0  502 -0.79952072890E+02  0.23694543726E+02  0.14101692330E+03  0.16389517387E+03  0.47000000000E+01 0. -1.
          5    1    3    3  503    0  0.15801521859E+03 -0.22885967873E+02  0.56389452481E+02  0.16939432453E+03  0.47000000000E+01 0. -1.
         -5    1    3    3    0  503 -0.16379010318E+02  0.21249302905E+02 -0.16284240016E+01  0.27286381542E+02  0.47000000000E+01 0. -1.
<mgrwt>
<rscale>  0 0.18891154E+03</rscale>
<asrwt>0</asrwt>
<pdfrwt beam="1">  1        5 0.47176969E-01 0.18891422E+03</pdfrwt>
<pdfrwt beam="2">  1       -5 0.18503491E-01 0.18891422E+03</pdfrwt>
<totfact> 0.91270684E+01</totfact>
</mgrwt>
</event>
<event>
 8    1  0.3542708E-007  0.1306265E+03  0.7546771E-02  0.1226530E+00
         -5   -1    0    0    0  501 -0.00000000000E+00  0.00000000000E+00  0.31059428348E+03  0.31062984230E+03  0.47000000000E+01 0. -1.
          5   -1    0    0  501    0  0.00000000000E+00 -0.00000000000E+00 -0.54801245359E+02  0.55002422609E+02  0.47000000000E+01 0. -1.
         25    2    1    2    0    0  0.29724018245E+02  0.23540319359E+02  0.12641270620E+03  0.18177752391E+03  0.12500092806E+03 0.  0.
         25    2    1    2    0    0 -0.29724018245E+02 -0.23540319359E+02  0.12938033192E+03  0.18385474100E+03  0.12500252639E+03 0.  0.
          5    1    4    4  502    0  0.32173022814E+02  0.33118731459E+02  0.41590771236E+02  0.62320430217E+02  0.47000000000E+01 0.  1.
         -5    1    4    4    0  502 -0.61897041059E+02 -0.56659050819E+02  0.87789560686E+02  0.12153431078E+03  0.47000000000E+01 0.  1.
          5    1    3    3  503    0  0.11799628279E+02  0.71477609522E+02  0.44728585666E+02  0.85270254287E+02  0.47000000000E+01 0.  1.
         -5    1    3    3    0  503  0.17924389966E+02 -0.47937290162E+02  0.81684120533E+02  0.96507269628E+02  0.47000000000E+01 0.  1.
<mgrwt>
<rscale>  0 0.13062617E+03</rscale>
<asrwt>0</asrwt>
<pdfrwt beam="2">  1        5 0.84491713E-02 0.13062655E+03</pdfrwt>
<pdfrwt beam="1">  1       -5 0.47801946E-01 0.13062655E+03</pdfrwt>
<totfact> 0.32014990E+02</totfact>
</mgrwt>
</event>
<event>
 8    1  0.3542708E-007  0.1265048E+03  0.7546771E-02  0.1232738E+00
         -5   -1    0    0    0  501 -0.00000000000E+00  0.00000000000E+00  0.14447959171E+03  0.14455601828E+03  0.47000000000E+01 0.  1.
          5   -1    0    0  501    0  0.00000000000E+00 -0.00000000000E+00 -0.11065095107E+03  0.11075072448E+03  0.47000000000E+01 0.  1.
         25    2    1    2    0    0  0.18085843539E+02  0.71089034725E+01  0.14383118858E+02  0.12731980610E+03  0.12500329865E+03 0.  0.
         25    2    1    2    0    0 -0.18085843539E+02 -0.71089034725E+01  0.19445521783E+02  0.12798693665E+03  0.12499957356E+03 0.  0.
          5    1    3    3  502    0 -0.25796825298E+02 -0.14178124236E+02  0.55733513712E+02  0.63204508961E+02  0.47000000000E+01 0. -1.
         -5    1    3    3    0  502  0.43882668837E+02  0.21287027709E+02 -0.41350394854E+02  0.64115297141E+02  0.47000000000E+01 0. -1.
          5    1    4    4  503    0  0.30952529592E+02 -0.15836969257E+02  0.55959777720E+02  0.66048886485E+02  0.47000000000E+01 0. -1.
         -5    1    4    4    0  503 -0.49038373132E+02  0.87280657848E+01 -0.36514255937E+02  0.61938050166E+02  0.47000000000E+01 0. -1.
<mgrwt>
<rscale>  0 0.12650386E+03</rscale>
<asrwt>0</asrwt>
<pdfrwt beam="2">  1        5 0.17036777E-01 0.12650478E+03</pdfrwt>
<pdfrwt beam="1">  1       -5 0.22241183E-01 0.12650478E+03</pdfrwt>
<totfact> 0.41728873E+02</totfact>
</mgrwt>
</event>
<event>
 8    1  0.3542708E-007  0.1258177E+03  0.7546771E-02  0.1233800E+00
          5   -1    0    0  501    0  0.00000000000E+00  0.00000000000E+00  0.19850796645E+03  0.19856359874E+03  0.47000000000E+01 0.  1.
         -5   -1    0    0    0  501 -0.00000000000E+00 -0.00000000000E+00 -0.83036259202E+02  0.83169167017E+02  0.47000000000E+01 0.  1.
         25    2    1    2    0    0 -0.47473191359E+01  0.13463300407E+02  0.29133419691E+02  0.12914658964E+03  0.12500515180E+03 0.  0.
         25    2    1    2    0    0  0.47473191359E+01 -0.13463300407E+02  0.86338287556E+02  0.15258617611E+03  0.12499777496E+03 0.  0.
          5    1    4    4  502    0 -0.14681498130E+01  0.47650345708E+02  0.17445903871E+01  0.47935837383E+02  0.47000000000E+01 0.  1.
         -5    1    4    4    0  502  0.62154689489E+01 -0.61113646115E+02  0.84593697169E+02  0.10465033873E+03  0.47000000000E+01 0.  1.
          5    1    3    3  503    0 -0.65596939915E+01 -0.28928794827E+02  0.66146227652E+02  0.72645152543E+02  0.47000000000E+01 0. -1.
         -5    1    3    3    0  503  0.18123748556E+01  0.42392095234E+02 -0.37012807961E+02  0.56501437098E+02  0.47000000000E+01 0. -1.
<mgrwt>
<rscale>  0 0.12581584E+03</rscale>
<asrwt>0</asrwt>
<pdfrwt beam="1">  1        5 0.30554190E-01 0.12581767E+03</pdfrwt>
<pdfrwt beam="2">  1       -5 0.12789312E-01 0.12581767E+03</pdfrwt>
<totfact> 0.37933608E+02</totfact>
</mgrwt>
</event>
<event>
 8    1  0.3542708E-007  0.1359695E+03  0.7546771E-02  0.1218858E+00
          5   -1    0    0  501    0  0.00000000000E+00  0.00000000000E+00  0.13986755583E+03  0.13994650112E+03  0.47000000000E+01 0.  1.
         -5   -1    0    0    0  501 -0.00000000000E+00 -0.00000000000E+00 -0.13389520320E+03  0.13397766770E+03  0.47000000000E+01 0.  1.
         25    2    1    2    0    0  0.24031362666E+02 -0.47805648045E+02 -0.13205529722E+02  0.13660889950E+03  0.12499887612E+03 0.  0.
         25    2    1    2    0    0 -0.24031362666E+02  0.47805648045E+02  0.19177882350E+02  0.13731526931E+03  0.12499922255E+03 0.  0.
          5    1    4    4  502    0  0.24671548037E+02 -0.30316526178E+02 -0.10016676426E+02  0.40622664224E+02  0.47000000000E+01 0.  1.
         -5    1    4    4    0  502 -0.48702910703E+02  0.78122174223E+02  0.29194558776E+02  0.96692605086E+02  0.47000000000E+01 0.  1.
          5    1    3    3  503    0  0.10469778475E+02  0.22352873267E+02  0.40109516543E+02  0.47330017134E+02  0.47000000000E+01 0.  1.
         -5    1    3    3    0  503  0.13561584191E+02 -0.70158521312E+02 -0.53315046265E+02  0.89278882367E+02  0.47000000000E+01 0.  1.
<mgrwt>
<rscale>  0 0.13596937E+03</rscale>
<asrwt>0</asrwt>
<pdfrwt beam="1">  1        5 0.21530502E-01 0.13596945E+03</pdfrwt>
<pdfrwt beam="2">  1       -5 0.20611678E-01 0.13596945E+03</pdfrwt>
<totfact> 0.32002340E+02</totfact>
</mgrwt>
</event>
<event>
 8    1  0.3542708E-007  0.1425145E+03  0.7546771E-02  0.1209986E+00
          5   -1    0    0  501    0  0.00000000000E+00  0.00000000000E+00  0.33659557457E+02  0.33986111990E+02  0.47000000000E+01 0.  1.
         -5   -1    0    0    0  501 -0.00000000000E+00 -0.00000000000E+00 -0.60384481811E+03  0.60386310896E+03  0.47000000000E+01 0.  1.
         25    2    1    2    0    0 -0.64359867331E+02 -0.23289512305E+02 -0.31004620768E+03  0.34123043235E+03  0.12499985264E+03 0.  0.
         25    2    1    2    0    0  0.64359867331E+02  0.23289512305E+02 -0.26013905297E+03  0.29661878859E+03  0.12500313980E+03 0.  0.
          5    1    4    4  502    0 -0.16946394629E+02  0.24219052077E+02 -0.17959454287E+03  0.18207150410E+03  0.47000000000E+01 0. -1.
         -5    1    4    4    0  502  0.81306261961E+02 -0.92953977191E+00 -0.80544510096E+02  0.11454728449E+03  0.47000000000E+01 0. -1.
          5    1    3    3  503    0 -0.83196774383E+02  0.23052752399E+02 -0.14618462503E+03  0.16983865065E+03  0.47000000000E+01 0. -1.
         -5    1    3    3    0  503  0.18836907051E+02 -0.46342264704E+02 -0.16386158265E+03  0.17139178170E+03  0.47000000000E+01 0. -1.
<mgrwt>
<rscale>  0 0.14251377E+03</rscale>
<asrwt>0</asrwt>
<pdfrwt beam="1">  1        5 0.52049204E-02 0.14251449E+03</pdfrwt>
<pdfrwt beam="2">  1       -5 0.92925722E-01 0.14251449E+03</pdfrwt>
<totfact> 0.16931535E+02</totfact>
</mgrwt>
</event>
<event>
 8    1  0.3542708E-007  0.2270352E+03  0.7546771E-02  0.1128745E+00
          5   -1    0    0  501    0  0.00000000000E+00  0.00000000000E+00  0.12002370683E+03  0.12011569506E+03  0.47000000000E+01 0.  1.
         -5   -1    0    0    0  501 -0.00000000000E+00 -0.00000000000E+00 -0.43406419089E+03  0.43408963569E+03  0.47000000000E+01 0.  1.
         25    2    1    2    0    0 -0.15493640995E+03  0.10914718987E+03 -0.12763366895E+03  0.26044951459E+03  0.12500078407E+03 0.  0.
         25    2    1    2    0    0  0.15493640995E+03 -0.10914718987E+03 -0.18640681511E+03  0.29375581616E+03  0.12500631434E+03 0.  0.
          5    1    3    3  502    0  0.66935564123E+01  0.53158650885E+02 -0.46383887657E+02  0.71022537940E+02  0.47000000000E+01 0.  1.
         -5    1    3    3    0  502 -0.16162996636E+03  0.55988538981E+02 -0.81249781292E+02  0.18942697665E+03  0.47000000000E+01 0.  1.
          5    1    4    4  503    0  0.14174211245E+03 -0.12935899773E+03 -0.18855467465E+03  0.26907161141E+03  0.47000000000E+01 0.  1.
         -5    1    4    4    0  503  0.13194297493E+02  0.20211807862E+02  0.21478595373E+01  0.24684204747E+02  0.47000000000E+01 0.  1.
<mgrwt>
<rscale>  0 0.22703443E+03</rscale>
<asrwt>0</asrwt>
<pdfrwt beam="1">  1        5 0.18474219E-01 0.22703519E+03</pdfrwt>
<pdfrwt beam="2">  1       -5 0.66788139E-01 0.22703519E+03</pdfrwt>
<totfact> 0.45019570E+01</totfact>
</mgrwt>
</event>
<event>
 8    1  0.3542708E-007  0.1297072E+03  0.7546771E-02  0.1227892E+00
         -5   -1    0    0    0  501 -0.00000000000E+00  0.00000000000E+00  0.49553228409E+03  0.49555457275E+03  0.47000000000E+01 0.  1.
          5   -1    0    0  501    0  0.00000000000E+00 -0.00000000000E+00 -0.35210759247E+02  0.35523056833E+02  0.47000000000E+01 0.  1.
         25    2    1    2    0    0 -0.34307703276E+02 -0.46166004738E+01  0.28371747343E+03  0.31195906203E+03  0.12499808059E+03 0.  0.
         25    2    1    2    0    0  0.34307703276E+02  0.46166004738E+01  0.17660405141E+03  0.21911856755E+03  0.12500249664E+03 0.  0.
          5    1    3    3  502    0  0.76285949832E+01  0.58535910793E+01 -0.10234759786E+02  0.14808791234E+02  0.47000000000E+01 0. -1.
         -5    1    3    3    0  502 -0.41936298259E+02 -0.10470191553E+02  0.29395223322E+03  0.29715027080E+03  0.47000000000E+01 0. -1.
          5    1    4    4  503    0  0.17578562926E+02  0.23089477886E+02 -0.98069455716E+01  0.30990257260E+02  0.47000000000E+01 0. -1.
         -5    1    4    4    0  503  0.16729140350E+02 -0.18472877412E+02  0.18641099698E+03  0.18812831029E+03  0.47000000000E+01 0. -1.
<mgrwt>
<rscale>  0 0.12970613E+03</rscale>
<asrwt>0</asrwt>
<pdfrwt beam="2">  1        5 0.54427771E-02 0.12970719E+03</pdfrwt>
<pdfrwt beam="1">  1       -5 0.76261476E-01 0.12970719E+03</pdfrwt>
<totfact> 0.24169502E+02</totfact>
</mgrwt>
</event>
<event>
 8    1  0.3542708E-007  0.1283475E+03  0.7546771E-02  0.1229932E+00
          5   -1    0    0  501    0  0.00000000000E+00  0.00000000000E+00  0.28340893621E+03  0.28344790548E+03  0.47000000000E+01 0. -1.
         -5   -1    0    0    0  501 -0.00000000000E+00 -0.00000000000E+00 -0.66282526150E+02  0.66448952383E+02  0.47000000000E+01 0. -1.
         25    2    1    2    0    0  0.23581641672E+02  0.17079353943E+02  0.46754376032E+02  0.13659022590E+03  0.12499247969E+03 0.  0.
         25    2    1    2    0    0 -0.23581641672E+02 -0.17079353943E+02  0.17037203402E+03  0.21330663196E+03  0.12500116443E+03 0.  0.
          5    1    4    4  502    0 -0.38409448356E+02  0.31905484642E+02  0.14975558363E+03  0.15793058760E+03  0.47000000000E+01 0.  1.
         -5    1    4    4    0  502  0.14827806683E+02 -0.48984838585E+02  0.20616450397E+02  0.55376044362E+02  0.47000000000E+01 0.  1.
          5    1    3    3  503    0 -0.10689903204E+02 -0.13804890129E+02 -0.36815573709E+02  0.41016161321E+02  0.47000000000E+01 0. -1.
         -5    1    3    3    0  503  0.34271544876E+02  0.30884244072E+02  0.83569949742E+02  0.95574064578E+02  0.47000000000E+01 0. -1.
<mgrwt>
<rscale>  0 0.12834542E+03</rscale>
<asrwt>0</asrwt>
<pdfrwt beam="1">  1        5 0.43617175E-01 0.12834753E+03</pdfrwt>
<pdfrwt beam="2">  1       -5 0.10213111E-01 0.12834753E+03</pdfrwt>
<totfact> 0.27724993E+02</totfact>
</mgrwt>
</event>
<event>
 8    1  0.3542708E-007  0.1544570E+03  0.7546771E-02  0.1195102E+00
         -5   -1    0    0    0  501 -0.00000000000E+00  0.00000000000E+00  0.24508152404E+03  0.24512658653E+03  0.47000000000E+01 0. -1.
          5   -1    0    0  501    0  0.00000000000E+00 -0.00000000000E+00 -0.10105429766E+03  0.10116353629E+03  0.47000000000E+01 0. -1.
         25    2    1    2    0    0  0.76234020172E+02  0.49185458732E+02  0.10567578935E+03  0.18714791773E+03  0.12500454181E+03 0.  0.
         25    2    1    2    0    0 -0.76234020172E+02 -0.49185458732E+02  0.38351437030E+02  0.15914220510E+03  0.12499829414E+03 0.  0.
          5    1    4    4  502    0 -0.10109503381E+03 -0.40420177300E+02  0.60274630357E+02  0.12453560799E+03  0.47000000000E+01 0. -1.
         -5    1    4    4    0  502  0.24861013635E+02 -0.87652814321E+01 -0.21923193327E+02  0.34606597106E+02  0.47000000000E+01 0. -1.
          5    1    3    3  503    0  0.17866350409E+01  0.72873408154E+02  0.32315471465E+02  0.79875561825E+02  0.47000000000E+01 0. -1.
         -5    1    3    3    0  503  0.74447385131E+02 -0.23687949422E+02  0.73360317884E+02  0.10727235590E+03  0.47000000000E+01 0. -1.
<mgrwt>
<rscale>  0 0.15445575E+03</rscale>
<asrwt>0</asrwt>
<pdfrwt beam="2">  1        5 0.15558685E-01 0.15445702E+03</pdfrwt>
<pdfrwt beam="1">  1       -5 0.37716718E-01 0.15445702E+03</pdfrwt>
<totfact> 0.18784446E+02</totfact>
</mgrwt>
</event>
<event>
 8    1  0.3542708E-007  0.1262118E+03  0.7546771E-02  0.1233198E+00
          5   -1    0    0  501    0  0.00000000000E+00  0.00000000000E+00  0.14197126492E+03  0.14204904105E+03  0.47000000000E+01 0.  1.
         -5   -1    0    0    0  501 -0.00000000000E+00 -0.00000000000E+00 -0.11355660936E+03  0.11365383201E+03  0.47000000000E+01 0.  1.
         25    2    1    2    0    0  0.12053870776E+02 -0.12585385748E+02 -0.64795859407E+00  0.12621342597E+03  0.12500288520E+03 0.  0.
         25    2    1    2    0    0 -0.12053870776E+02  0.12585385748E+02  0.29062614152E+02  0.12948944709E+03  0.12497677236E+03 0.  0.
          5    1    4    4  502    0  0.33954788253E+02  0.43834016358E+02  0.44865811369E+02  0.71479924910E+02  0.47000000000E+01 0. -1.
         -5    1    4    4    0  502 -0.46008659029E+02 -0.31248630611E+02 -0.15803197217E+02  0.58009522175E+02  0.47000000000E+01 0. -1.
          5    1    3    3  503    0 -0.36771309591E+02  0.34897146421E+02 -0.20854046296E+02  0.55017463449E+02  0.47000000000E+01 0. -1.
         -5    1    3    3    0  503  0.48825180367E+02 -0.47482532169E+02  0.20206087702E+02  0.71195962521E+02  0.47000000000E+01 0. -1.
<mgrwt>
<rscale>  0 0.12620530E+03</rscale>
<asrwt>0</asrwt>
<pdfrwt beam="1">  1        5 0.21855194E-01 0.12621176E+03</pdfrwt>
<pdfrwt beam="2">  1       -5 0.17483709E-01 0.12621176E+03</pdfrwt>
<totfact> 0.41093364E+02</totfact>
</mgrwt>
</event>
<event>
 8    1  0.3542708E-007  0.1616089E+03  0.7546771E-02  0.1186900E+00
          5   -1    0    0  501    0  0.00000000000E+00  0.00000000000E+00  0.39668733689E+03  0.39671517900E+03  0.47000000000E+01 0. -1.
         -5   -1    0    0    0  501 -0.00000000000E+00 -0.00000000000E+00 -0.10720235608E+03  0.10730533607E+03  0.47000000000E+01 0. -1.
         25    2    1    2    0    0  0.91555504496E+02  0.45925416849E+02 -0.11906862089E+02  0.16204696270E+03  0.12500356171E+03 0.  0.
         25    2    1    2    0    0 -0.91555504496E+02 -0.45925416849E+02  0.30139184291E+03  0.34197355237E+03  0.12496924915E+03 0.  0.
          5    1    4    4  502    0 -0.84473845979E+02  0.22204855004E+02  0.12389716505E+03  0.15166240057E+03  0.47000000000E+01 0. -1.
         -5    1    4    4    0  502 -0.70816585170E+01 -0.68130271853E+02  0.17749467786E+03  0.19031115180E+03  0.47000000000E+01 0. -1.
          5    1    3    3  503    0  0.41107149286E+02  0.83931134052E+02 -0.26084238630E+02  0.97142732568E+02  0.47000000000E+01 0.  1.
         -5    1    3    3    0  503  0.50448355209E+02 -0.38005717203E+02  0.14177376542E+02  0.64904230132E+02  0.47000000000E+01 0.  1.
<mgrwt>
<rscale>  0 0.16160229E+03</rscale>
<asrwt>0</asrwt>
<pdfrwt beam="1">  1        5 0.61038884E-01 0.16160893E+03</pdfrwt>
<pdfrwt beam="2">  1       -5 0.16502733E-01 0.16160893E+03</pdfrwt>
<totfact> 0.61871322E+01</totfact>
</mgrwt>
</event>
<event>
 8    1  0.3542708E-007  0.1601747E+03  0.7546771E-02  0.1188507E+00
         -5   -1    0    0    0  501 -0.00000000000E+00  0.00000000000E+00  0.12144735744E+03  0.12153826816E+03  0.47000000000E+01 0. -1.
          5   -1    0    0  501    0  0.00000000000E+00 -0.00000000000E+00 -0.22058666537E+03  0.22063673071E+03  0.47000000000E+01 0. -1.
         25    2    1    2    0    0 -0.88295505131E+01  0.99723829301E+02 -0.13959870389E+02  0.16078184183E+03  0.12503247413E+03 0.  0.
         25    2    1    2    0    0  0.88295505131E+01 -0.99723829301E+02 -0.85179437542E+02  0.18139315705E+03  0.12500055100E+03 0.  0.
          5    1    4    4  502    0 -0.59718412886E+01 -0.67455142491E+02 -0.11583044043E+03  0.13425587535E+03  0.47000000000E+01 0.  1.
         -5    1    4    4    0  502  0.14801391802E+02 -0.32268686810E+02  0.30651002885E+02  0.47137281695E+02  0.47000000000E+01 0.  1.
          5    1    3    3  503    0  0.46375672795E+02  0.93231827941E+02 -0.12465125918E+02  0.10497783639E+03  0.47000000000E+01 0.  1.
         -5    1    3    3    0  503 -0.55205223308E+02  0.64920013604E+01 -0.14947444707E+01  0.55804005440E+02  0.47000000000E+01 0.  1.
<mgrwt>
<rscale>  0 0.16016843E+03</rscale>
<asrwt>0</asrwt>
<pdfrwt beam="2">  1        5 0.33947254E-01 0.16017466E+03</pdfrwt>
<pdfrwt beam="1">  1       -5 0.18695053E-01 0.16017466E+03</pdfrwt>
<totfact> 0.16768396E+02</totfact>
</mgrwt>
</event>
<event>
 8    1  0.3542708E-007  0.2113320E+03  0.7546771E-02  0.1140517E+00
          5   -1    0    0  501    0  0.00000000000E+00  0.00000000000E+00  0.14170716780E+03  0.14178508880E+03  0.47000000000E+01 0. -1.
         -5   -1    0    0    0  501 -0.00000000000E+00 -0.00000000000E+00 -0.35611252774E+03  0.35614354187E+03  0.47000000000E+01 0. -1.
         25    2    1    2    0    0  0.14634121962E+03 -0.87278721375E+02 -0.19180929022E+03  0.28539800486E+03  0.12501155786E+03 0.  0.
         25    2    1    2    0    0 -0.14634121962E+03  0.87278721375E+02 -0.22596069724E+02  0.21253062580E+03  0.12500142708E+03 0.  0.
          5    1    3    3  502    0  0.68334623651E+02 -0.13918218333E+02 -0.50652522244E+01  0.70079129355E+02  0.47000000000E+01 0.  1.
         -5    1    3    3    0  502  0.78006595972E+02 -0.73360503042E+02 -0.18674403799E+03  0.21531887550E+03  0.47000000000E+01 0.  1.
          5    1    4    4  503    0 -0.84078205370E+02  0.57906380800E+02 -0.74260534139E+02  0.12632897722E+03  0.47000000000E+01 0.  1.
         -5    1    4    4    0  503 -0.62263014254E+02  0.29372340575E+02  0.51664464415E+02  0.86201648581E+02  0.47000000000E+01 0.  1.
<mgrwt>
<rscale>  0 0.21133051E+03</rscale>
<asrwt>0</asrwt>
<pdfrwt beam="1">  1        5 0.21809482E-01 0.21133201E+03</pdfrwt>
<pdfrwt beam="2">  1       -5 0.54794922E-01 0.21133201E+03</pdfrwt>
<totfact> 0.50111902E+01</totfact>
</mgrwt>
</event>
<event>
 8    1  0.3542708E-007  0.1396123E+03  0.7546771E-02  0.1213852E+00
         -5   -1    0    0    0  501 -0.00000000000E+00  0.00000000000E+00  0.21502429730E+03  0.21507565746E+03  0.47000000000E+01 0.  1.
          5   -1    0    0  501    0  0.00000000000E+00 -0.00000000000E+00 -0.10487744791E+03  0.10498270848E+03  0.47000000000E+01 0.  1.
         25    2    1    2    0    0  0.62183176541E+02  0.53642280558E+00  0.11422986100E+03  0.18038859784E+03  0.12499819956E+03 0.  0.
         25    2    1    2    0    0 -0.62183176541E+02 -0.53642280558E+00 -0.40830116077E+01  0.13966976809E+03  0.12499575169E+03 0.  0.
          5    1    4    4  502    0 -0.22245410242E+02 -0.61838950021E+02  0.33982692428E+01  0.65973875514E+02  0.47000000000E+01 0.  1.
         -5    1    4    4    0  502 -0.39937766299E+02  0.61302527215E+02 -0.74812808505E+01  0.73695892579E+02  0.47000000000E+01 0.  1.
          5    1    3    3  503    0  0.59505188165E+02 -0.53060938519E+02  0.92743820200E+02  0.12239214354E+03  0.47000000000E+01 0.  1.
         -5    1    3    3    0  503  0.26779883762E+01  0.53597361325E+02  0.21486040799E+02  0.57996454305E+02  0.47000000000E+01 0.  1.
<mgrwt>
<rscale>  0 0.13961172E+03</rscale>
<asrwt>0</asrwt>
<pdfrwt beam="2">  1        5 0.16147040E-01 0.13961227E+03</pdfrwt>
<pdfrwt beam="1">  1       -5 0.33092709E-01 0.13961227E+03</pdfrwt>
<totfact> 0.22083066E+02</totfact>
</mgrwt>
</event>
<event>
 8    1  0.3542708E-007  0.2006944E+03  0.7546771E-02  0.1149155E+00
          5   -1    0    0  501    0  0.00000000000E+00  0.00000000000E+00  0.23249951391E+03  0.23254701453E+03  0.47000000000E+01 0.  1.
         -5   -1    0    0    0  501 -0.00000000000E+00 -0.00000000000E+00 -0.20943488751E+03  0.20948761803E+03  0.47000000000E+01 0.  1.
         25    2    1    2    0    0  0.59115497037E+02  0.14545812256E+03 -0.80449324293E+02  0.21621826305E+03  0.12500214434E+03 0.  0.
         25    2    1    2    0    0 -0.59115497037E+02 -0.14545812256E+03  0.10351395069E+03  0.22581636951E+03  0.12500074938E+03 0.  0.
          5    1    3    3  502    0  0.74199044836E+02  0.97396581483E+02 -0.16081161238E+01  0.12254088451E+03  0.47000000000E+01 0. -1.
         -5    1    3    3    0  502 -0.15083547800E+02  0.48061541074E+02 -0.78841208169E+02  0.93677378540E+02  0.47000000000E+01 0. -1.
          5    1    4    4  503    0  0.36152521577E+02 -0.31655106741E+02  0.45664376916E+02  0.66455819296E+02  0.47000000000E+01 0.  1.
         -5    1    4    4    0  503 -0.95268018613E+02 -0.11380301582E+03  0.57849573772E+02  0.15936055022E+03  0.47000000000E+01 0.  1.
<mgrwt>
<rscale>  0 0.20069419E+03</rscale>
<asrwt>0</asrwt>
<pdfrwt beam="1">  1        5 0.35776866E-01 0.20069440E+03</pdfrwt>
<pdfrwt beam="2">  1       -5 0.32228462E-01 0.20069440E+03</pdfrwt>
<totfact> 0.56501076E+01</totfact>
</mgrwt>
</event>
<event>
 8    1  0.3542708E-007  0.1409634E+03  0.7546771E-02  0.1212042E+00
          5   -1    0    0  501    0  0.00000000000E+00  0.00000000000E+00  0.23044076319E+03  0.23048868810E+03  0.47000000000E+01 0. -1.
         -5   -1    0    0    0  501 -0.00000000000E+00 -0.00000000000E+00 -0.87915929660E+02  0.88041471409E+02  0.47000000000E+01 0. -1.
         25    2    1    2    0    0 -0.15739862477E+02 -0.63217290111E+02  0.48413462880E+02  0.14904540749E+03  0.12500600412E+03 0.  0.
         25    2    1    2    0    0  0.15739862477E+02  0.63217290111E+02  0.94111370653E+02  0.16948475201E+03  0.12499584809E+03 0.  0.
          5    1    4    4  502    0  0.88067705754E+01 -0.30462592636E+02  0.62534085800E+02  0.70271833937E+02  0.47000000000E+01 0. -1.
         -5    1    4    4    0  502  0.69330919015E+01  0.93679882747E+02  0.31577284853E+02  0.99212918077E+02  0.47000000000E+01 0. -1.
          5    1    3    3  503    0 -0.12858900023E+02  0.31268776193E+02  0.42084234724E+02  0.54187272368E+02  0.47000000000E+01 0. -1.
         -5    1    3    3    0  503 -0.28809624537E+01 -0.94486066303E+02  0.63292281558E+01  0.94858135124E+02  0.47000000000E+01 0. -1.
<mgrwt>
<rscale>  0 0.14096111E+03</rscale>
<asrwt>0</asrwt>
<pdfrwt beam="1">  1        5 0.35465768E-01 0.14096336E+03</pdfrwt>
<pdfrwt beam="2">  1       -5 0.13538871E-01 0.14096336E+03</pdfrwt>
<totfact> 0.26527975E+02</totfact>
</mgrwt>
</event>
<event>
 8    1  0.3542708E-007  0.1260579E+03  0.7546771E-02  0.1233433E+00
         -5   -1    0    0    0  501 -0.00000000000E+00  0.00000000000E+00  0.55150404787E+02  0.55350312991E+02  0.47000000000E+01 0. -1.
          5   -1    0    0  501    0  0.00000000000E+00 -0.00000000000E+00 -0.35916145533E+03  0.35919220620E+03  0.47000000000E+01 0. -1.
         25    2    1    2    0    0  0.58138289063E+01 -0.15201242727E+02 -0.59360892289E+02  0.13933524024E+03  0.12500286097E+03 0.  0.
         25    2    1    2    0    0 -0.58138289063E+01  0.15201242727E+02 -0.24465015825E+03  0.27520727895E+03  0.12498187096E+03 0.  0.
          5    1    4    4  502    0  0.35885364711E+02 -0.30498537257E+02 -0.42017199870E+02  0.63288666127E+02  0.47000000000E+01 0. -1.
         -5    1    4    4    0  502 -0.41699193617E+02  0.45699779984E+02 -0.20263295838E+03  0.21191861282E+03  0.47000000000E+01 0. -1.
          5    1    3    3  503    0  0.35111277076E+02 -0.25139229191E+02  0.24468681156E+02  0.49855681519E+02  0.47000000000E+01 0. -1.
         -5    1    3    3    0  503 -0.29297448170E+02  0.99379864648E+01 -0.83829573445E+02  0.89479558717E+02  0.47000000000E+01 0. -1.
<mgrwt>
<rscale>  0 0.12605269E+03</rscale>
<asrwt>0</asrwt>
<pdfrwt beam="2">  1        5 0.55273350E-01 0.12605790E+03</pdfrwt>
<pdfrwt beam="1">  1       -5 0.85024209E-02 0.12605790E+03</pdfrwt>
<totfact> 0.22958026E+02</totfact>
</mgrwt>
</event>
<event>
 8    1  0.3542708E-007  0.1308302E+03  0.7546771E-02  0.1226231E+00
         -5   -1    0    0    0  501 -0.00000000000E+00  0.00000000000E+00  0.43875463969E+02  0.44126481147E+02  0.47000000000E+01 0. -1.
          5   -1    0    0  501    0  0.00000000000E+00 -0.00000000000E+00 -0.39837445070E+03  0.39840217490E+03  0.47000000000E+01 0. -1.
         25    2    1    2    0    0 -0.38033462062E+02  0.66334080445E+01 -0.14282196043E+03  0.19368393877E+03  0.12499923768E+03 0.  0.
         25    2    1    2    0    0  0.38033462062E+02 -0.66334080445E+01 -0.21167702630E+03  0.24884471728E+03  0.12500393400E+03 0.  0.
          5    1    4    4  502    0 -0.27272439800E+02  0.42940485536E+00 -0.16697017454E+03  0.16924863233E+03  0.47000000000E+01 0. -1.
         -5    1    4    4    0  502  0.65305901862E+02 -0.70628128998E+01 -0.44706851765E+02  0.79596084947E+02  0.47000000000E+01 0. -1.
          5    1    3    3  503    0 -0.35848561325E+02  0.36009815099E+02 -0.34386443765E+01  0.51144309632E+02  0.47000000000E+01 0.  1.
         -5    1    3    3    0  503 -0.21849007374E+01 -0.29376407055E+02 -0.13938331605E+03  0.14253962914E+03  0.47000000000E+01 0.  1.
<mgrwt>
<rscale>  0 0.13082903E+03</rscale>
<asrwt>0</asrwt>
<pdfrwt beam="2">  1        5 0.61309816E-01 0.13083016E+03</pdfrwt>
<pdfrwt beam="1">  1       -5 0.67715133E-02 0.13083016E+03</pdfrwt>
<totfact> 0.27387966E+02</totfact>
</mgrwt>
</event>
<event>
 8    1  0.3542708E-007  0.1350792E+03  0.7546771E-02  0.1220120E+00
         -5   -1    0    0    0  501 -0.00000000000E+00  0.00000000000E+00  0.63190883251E+02  0.63365430055E+02  0.47000000000E+01 0.  1.
          5   -1    0    0  501    0  0.00000000000E+00 -0.00000000000E+00 -0.41115053103E+03  0.41117739380E+03  0.47000000000E+01 0.  1.
         25    2    1    2    0    0  0.48846798657E+02  0.15052763517E+02 -0.44187549435E+02  0.14209152325E+03  0.12499946411E+03 0.  0.
         25    2    1    2    0    0 -0.48846798657E+02 -0.15052763517E+02 -0.30377209835E+03  0.33245130060E+03  0.12503513149E+03 0.  0.
          5    1    4    4  502    0 -0.38049921066E+02  0.43444906943E+02 -0.23193866553E+03  0.23906670827E+03  0.47000000000E+01 0.  1.
         -5    1    4    4    0  502 -0.10796877591E+02 -0.58497670460E+02 -0.71833432815E+02  0.93384592332E+02  0.47000000000E+01 0.  1.
          5    1    3    3  503    0  0.81870010868E+02 -0.34916743294E+01 -0.59073325862E+02  0.10112684262E+03  0.47000000000E+01 0.  1.
         -5    1    3    3    0  503 -0.33023212211E+02  0.18544437846E+02  0.14885776427E+02  0.40964680636E+02  0.47000000000E+01 0.  1.
<mgrwt>
<rscale>  0 0.13507091E+03</rscale>
<asrwt>0</asrwt>
<pdfrwt beam="2">  1        5 0.63269419E-01 0.13507916E+03</pdfrwt>
<pdfrwt beam="1">  1       -5 0.97371677E-02 0.13507916E+03</pdfrwt>
<totfact> 0.13853093E+02</totfact>
</mgrwt>
</event>
<event>
 8    1  0.3542708E-007  0.1500460E+03  0.7546771E-02  0.1200418E+00
          5   -1    0    0  501    0  0.00000000000E+00  0.00000000000E+00  0.52353284090E+02  0.52563831244E+02  0.47000000000E+01 0.  1.
         -5   -1    0    0    0  501 -0.00000000000E+00 -0.00000000000E+00 -0.43755678302E+03  0.43758202473E+03  0.47000000000E+01 0.  1.
         25    2    1    2    0    0  0.27650978052E+02 -0.78229900113E+02 -0.15819915182E+03  0.21803413547E+03  0.12500967456E+03 0.  0.
         25    2    1    2    0    0 -0.27650978052E+02  0.78229900113E+02 -0.22700434711E+03  0.27211172051E+03  0.12501728270E+03 0.  0.
          5    1    4    4  502    0  0.25274349947E+02 -0.10413983099E+01 -0.14199874962E+03  0.14431081792E+03  0.47000000000E+01 0. -1.
         -5    1    4    4    0  502 -0.52925328000E+02  0.79271298423E+02 -0.85005597489E+02  0.12780090259E+03  0.47000000000E+01 0. -1.
          5    1    3    3  503    0  0.57019527420E+02 -0.16504804306E+02 -0.18361422746E+02  0.62312654555E+02  0.47000000000E+01 0. -1.
         -5    1    3    3    0  503 -0.29368549368E+02 -0.61725095807E+02 -0.13983772908E+03  0.15572148091E+03  0.47000000000E+01 0. -1.
<mgrwt>
<rscale>  0 0.15004446E+03</rscale>
<asrwt>0</asrwt>
<pdfrwt beam="1">  1        5 0.80724893E-02 0.15004604E+03</pdfrwt>
<pdfrwt beam="2">  1       -5 0.67334563E-01 0.15004604E+03</pdfrwt>
<totfact> 0.17262221E+02</totfact>
</mgrwt>
</event>
<event>
 8    1  0.3542708E-007  0.1318620E+03  0.7546771E-02  0.1224719E+00
          5   -1    0    0  501    0  0.00000000000E+00  0.00000000000E+00  0.13486448854E+03  0.13494636071E+03  0.47000000000E+01 0.  1.
         -5   -1    0    0    0  501 -0.00000000000E+00 -0.00000000000E+00 -0.13456530735E+03  0.13464736143E+03  0.47000000000E+01 0.  1.
         25    2    1    2    0    0 -0.38267555827E+02  0.17248978082E+02 -0.27828917905E+02  0.13476502821E+03  0.12500092433E+03 0.  0.
         25    2    1    2    0    0  0.38267555827E+02 -0.17248978082E+02  0.28128099094E+02  0.13482869393E+03  0.12500261467E+03 0.  0.
          5    1    4    4  502    0 -0.35908770462E+02 -0.31474457644E+02  0.34183685502E+02  0.58912610149E+02  0.47000000000E+01 0.  1.
         -5    1    4    4    0  502  0.74176326288E+02  0.14225479562E+02 -0.60555864074E+01  0.75916083784E+02  0.47000000000E+01 0.  1.
          5    1    3    3  503    0  0.41437149797E+02  0.24120881616E+02 -0.25690778464E+02  0.54598172234E+02  0.47000000000E+01 0. -1.
         -5    1    3    3    0  503 -0.79704705623E+02 -0.68719035332E+01 -0.21381394407E+01  0.80166855975E+02  0.47000000000E+01 0. -1.
<mgrwt>
<rscale>  0 0.13186160E+03</rscale>
<asrwt>0</asrwt>
<pdfrwt beam="1">  1        5 0.20760993E-01 0.13186200E+03</pdfrwt>
<pdfrwt beam="2">  1       -5 0.20714965E-01 0.13186200E+03</pdfrwt>
<totfact> 0.33584387E+02</totfact>
</mgrwt>
</event>
<event>
 8    1  0.3542708E-007  0.1969497E+03  0.7546771E-02  0.1152339E+00
          5   -1    0    0  501    0  0.00000000000E+00  0.00000000000E+00  0.35558850105E+03  0.35561956088E+03  0.47000000000E+01 0. -1.
         -5   -1    0    0    0  501 -0.00000000000E+00 -0.00000000000E+00 -0.10964910560E+03  0.10974978979E+03  0.47000000000E+01 0. -1.
         25    2    1    2    0    0  0.56742187151E+02  0.14122416565E+03  0.10503176465E+03  0.22320385141E+03  0.12499738770E+03 0.  0.
         25    2    1    2    0    0 -0.56742187151E+02 -0.14122416565E+03  0.14090763080E+03  0.24216549925E+03  0.12500091137E+03 0.  0.
          5    1    3    3  502    0  0.60383097403E+02  0.62166515045E+02 -0.57425385388E+01  0.86981956714E+02  0.47000000000E+01 0.  1.
         -5    1    3    3    0  502 -0.36409102520E+01  0.79057650607E+02  0.11077430319E+03  0.13622189469E+03  0.47000000000E+01 0.  1.
          5    1    4    4  503    0 -0.48937793073E+02 -0.71276701214E+02  0.14779545816E+03  0.17129174872E+03  0.47000000000E+01 0.  1.
         -5    1    4    4    0  503 -0.78043940783E+01 -0.69947464439E+02 -0.68878273630E+01  0.70873750530E+02  0.47000000000E+01 0.  1.
<mgrwt>
<rscale>  0 0.19694910E+03</rscale>
<asrwt>0</asrwt>
<pdfrwt beam="1">  1        5 0.54716058E-01 0.19694966E+03</pdfrwt>
<pdfrwt beam="2">  1       -5 0.16879227E-01 0.19694966E+03</pdfrwt>
<totfact> 0.79709267E+01</totfact>
</mgrwt>
</event>
<event>
 8    1  0.3542708E-007  0.2470905E+03  0.7546771E-02  0.1115158E+00
         -5   -1    0    0    0  501 -0.00000000000E+00  0.00000000000E+00  0.10454119582E+03  0.10464679462E+03  0.47000000000E+01 0. -1.
          5   -1    0    0  501    0  0.00000000000E+00 -0.00000000000E+00 -0.60524946862E+03  0.60526771701E+03  0.47000000000E+01 0. -1.
         25    2    1    2    0    0  0.21302382998E+03 -0.68303189749E+01 -0.31749429303E+03  0.40231370751E+03  0.12501155046E+03 0.  0.
         25    2    1    2    0    0 -0.21302382998E+03  0.68303189749E+01 -0.18321397977E+03  0.30760080412E+03  0.12500034768E+03 0.  0.
          5    1    3    3  502    0  0.10456376786E+03  0.54605523405E+02 -0.19185164153E+03  0.22526537038E+03  0.47000000000E+01 0. -1.
         -5    1    3    3    0  502  0.10846006212E+03 -0.61435842380E+02 -0.12564265150E+03  0.17704833713E+03  0.47000000000E+01 0. -1.
          5    1    4    4  503    0 -0.11613981487E+03  0.31371266615E+02 -0.16756274113E+03  0.20632977290E+03  0.47000000000E+01 0.  1.
         -5    1    4    4    0  503 -0.96884015113E+02 -0.24540947640E+02 -0.15651238631E+02  0.10127103123E+03  0.47000000000E+01 0.  1.
<mgrwt>
<rscale>  0 0.24708904E+03</rscale>
<asrwt>0</asrwt>
<pdfrwt beam="2">  1        5 0.93124828E-01 0.24709046E+03</pdfrwt>
<pdfrwt beam="1">  1       -5 0.16092788E-01 0.24709046E+03</pdfrwt>
<totfact> 0.27297375E+01</totfact>
</mgrwt>
</event>
<event>
 8    1  0.3542708E-007  0.1412245E+03  0.7546771E-02  0.1211692E+00
          5   -1    0    0  501    0  0.00000000000E+00  0.00000000000E+00  0.18233862227E+02  0.18829862764E+02  0.47000000000E+01 0.  1.
         -5   -1    0    0    0  501 -0.00000000000E+00 -0.00000000000E+00 -0.10757430387E+04  0.10757533060E+04  0.47000000000E+01 0.  1.
         25    2    1    2    0    0 -0.27979219050E+02 -0.59469613713E+02 -0.52208201735E+03  0.54084441569E+03  0.12499430982E+03 0.  0.
         25    2    1    2    0    0  0.27979219050E+02  0.59469613713E+02 -0.53542715914E+03  0.55373875307E+03  0.12499956899E+03 0.  0.
          5    1    3    3  502    0  0.44652210283E+02 -0.50287929751E+02 -0.27150949075E+03  0.27975380127E+03  0.47000000000E+01 0. -1.
         -5    1    3    3    0  502 -0.72631429333E+02 -0.91816839622E+01 -0.25057252660E+03  0.26109061441E+03  0.47000000000E+01 0. -1.
          5    1    4    4  503    0  0.75597123531E+02  0.43238670883E+02 -0.27654820446E+03  0.28997501123E+03  0.47000000000E+01 0.  1.
         -5    1    4    4    0  503 -0.47617904482E+02  0.16230942830E+02 -0.25887895468E+03  0.26376374184E+03  0.47000000000E+01 0.  1.
<mgrwt>
<rscale>  0 0.14122335E+03</rscale>
<asrwt>0</asrwt>
<pdfrwt beam="1">  1        5 0.28518464E-02 0.14122452E+03</pdfrwt>
<pdfrwt beam="2">  1       -5 0.16554552E+00 0.14122452E+03</pdfrwt>
<totfact> 0.10158535E+02</totfact>
</mgrwt>
</event>
<event>
 8    1  0.3542708E-007  0.1328736E+03  0.7546771E-02  0.1223256E+00
         -5   -1    0    0    0  501 -0.00000000000E+00  0.00000000000E+00  0.28334197674E+03  0.28338095522E+03  0.47000000000E+01 0.  1.
          5   -1    0    0  501    0  0.00000000000E+00 -0.00000000000E+00 -0.65853333180E+02  0.66020841338E+02  0.47000000000E+01 0.  1.
         25    2    1    2    0    0 -0.44382529947E+02  0.78103976679E+01  0.14996180956E+03  0.20035392786E+03  0.12498936277E+03 0.  0.
         25    2    1    2    0    0  0.44382529947E+02 -0.78103976679E+01  0.67526833997E+02  0.14904786870E+03  0.12499833030E+03 0.  0.
          5    1    3    3  502    0 -0.42404373997E+02  0.17645430850E+02 -0.36779016916E+01  0.46315322787E+02  0.47000000000E+01 0.  1.
         -5    1    3    3    0  502 -0.19781559495E+01 -0.98350331823E+01  0.15363971125E+03  0.15403860507E+03  0.47000000000E+01 0.  1.
          5    1    4    4  503    0 -0.35332493950E+02  0.16107053976E+02  0.50655718613E+02  0.63999329252E+02  0.47000000000E+01 0.  1.
         -5    1    4    4    0  503  0.79715023896E+02 -0.23917451644E+02  0.16871115383E+02  0.85048539448E+02  0.47000000000E+01 0.  1.
<mgrwt>
<rscale>  0 0.13287149E+03</rscale>
<asrwt>0</asrwt>
<pdfrwt beam="2">  1        5 0.10147165E-01 0.13287360E+03</pdfrwt>
<pdfrwt beam="1">  1       -5 0.43606958E-01 0.13287360E+03</pdfrwt>
<totfact> 0.28406968E+02</totfact>
</mgrwt>
</event>
<event>
 8    1  0.3542708E-007  0.1332416E+03  0.7546771E-02  0.1222726E+00
          5   -1    0    0  501    0  0.00000000000E+00  0.00000000000E+00  0.22342174784E+03  0.22347117803E+03  0.47000000000E+01 0. -1.
         -5   -1    0    0    0  501 -0.00000000000E+00 -0.00000000000E+00 -0.79329890252E+02  0.79468997021E+02  0.47000000000E+01 0. -1.
         25    2    1    2    0    0  0.19107086629E+01 -0.46077700197E+02  0.71857642014E+02  0.15138307262E+03  0.12500603464E+03 0.  0.
         25    2    1    2    0    0 -0.19107086629E+01  0.46077700197E+02  0.72234215575E+02  0.15155710243E+03  0.12499987254E+03 0.  0.
          5    1    4    4  502    0  0.86382105606E+01  0.88140925695E+02  0.56651671352E+02  0.10523755666E+03  0.47000000000E+01 0. -1.
         -5    1    4    4    0  502 -0.10548919224E+02 -0.42063225499E+02  0.15582544223E+02  0.46319545773E+02  0.47000000000E+01 0. -1.
          5    1    3    3  503    0 -0.22604216690E+02 -0.36229508219E+02 -0.25795543929E+02  0.50110158297E+02  0.47000000000E+01 0.  1.
         -5    1    3    3    0  503  0.24514925353E+02 -0.98481919775E+01  0.97653185943E+02  0.10127291432E+03  0.47000000000E+01 0.  1.
<mgrwt>
<rscale>  0 0.13324012E+03</rscale>
<asrwt>0</asrwt>
<pdfrwt beam="1">  1        5 0.34387079E-01 0.13324156E+03</pdfrwt>
<pdfrwt beam="2">  1       -5 0.12219101E-01 0.13324156E+03</pdfrwt>
<totfact> 0.33239725E+02</totfact>
</mgrwt>
</event>
<event>
 8    1  0.3542708E-007  0.1601556E+03  0.7546771E-02  0.1188521E+00
         -5   -1    0    0    0  501 -0.00000000000E+00  0.00000000000E+00  0.30654973131E+03  0.30658575924E+03  0.47000000000E+01 0.  1.
          5   -1    0    0  501    0  0.00000000000E+00 -0.00000000000E+00 -0.83879054749E+02  0.84010629242E+02  0.47000000000E+01 0.  1.
         25    2    1    2    0    0 -0.21635092427E+02 -0.97761486070E+02  0.12326839698E+03  0.20210122679E+03  0.12499769116E+03 0.  0.
         25    2    1    2    0    0  0.21635092427E+02  0.97761486070E+02  0.99402279590E+02  0.18849516169E+03  0.12499690960E+03 0.  0.
          5    1    4    4  502    0 -0.10658658494E+02  0.41257350345E+00 -0.24768130759E+02  0.27373847356E+02  0.47000000000E+01 0.  1.
         -5    1    4    4    0  502  0.32293750921E+02  0.97348912566E+02  0.12417041035E+03  0.16112131433E+03  0.47000000000E+01 0.  1.
          5    1    3    3  503    0  0.18262222465E+02  0.68858208922E+01 -0.14299558485E+02  0.24647325850E+02  0.47000000000E+01 0.  1.
         -5    1    3    3    0  503 -0.39897314891E+02 -0.10464730696E+03  0.13756795546E+03  0.17745390094E+03  0.47000000000E+01 0.  1.
<mgrwt>
<rscale>  0 0.16015542E+03</rscale>
<asrwt>0</asrwt>
<pdfrwt beam="2">  1        5 0.12917362E-01 0.16015557E+03</pdfrwt>
<pdfrwt beam="1">  1       -5 0.47174390E-01 0.16015557E+03</pdfrwt>
<totfact> 0.16742244E+02</totfact>
</mgrwt>
</event>
<event>
 8    1  0.3542708E-007  0.1637735E+03  0.7546771E-02  0.1184501E+00
          5   -1    0    0  501    0  0.00000000000E+00  0.00000000000E+00  0.13072487163E+03  0.13080933477E+03  0.47000000000E+01 0.  1.
         -5   -1    0    0    0  501 -0.00000000000E+00 -0.00000000000E+00 -0.20561375118E+03  0.20566746139E+03  0.47000000000E+01 0.  1.
         25    2    1    2    0    0  0.90504133991E+02 -0.54824960774E+02 -0.28250638645E+02  0.16619227856E+03  0.12500000110E+03 0.  0.
         25    2    1    2    0    0 -0.90504133991E+02  0.54824960774E+02 -0.46638240904E+02  0.17028451760E+03  0.12499966731E+03 0.  0.
          5    1    4    4  502    0 -0.11933605157E+03  0.27745346070E+02 -0.25661768532E+02  0.12526577265E+03  0.47000000000E+01 0. -1.
         -5    1    4    4    0  502  0.28831917581E+02  0.27079614704E+02 -0.20976472373E+02  0.45018744953E+02  0.47000000000E+01 0. -1.
          5    1    3    3  503    0  0.96384826680E+02 -0.89921786389E+01  0.20280394263E+02  0.99016556606E+02  0.47000000000E+01 0.  1.
         -5    1    3    3    0  503 -0.58806926890E+01 -0.45832782135E+02 -0.48531032907E+02  0.67175721952E+02  0.47000000000E+01 0.  1.
<mgrwt>
<rscale>  0 0.16377348E+03</rscale>
<asrwt>0</asrwt>
<pdfrwt beam="1">  1        5 0.20122148E-01 0.16377355E+03</pdfrwt>
<pdfrwt beam="2">  1       -5 0.31643513E-01 0.16377355E+03</pdfrwt>
<totfact> 0.16929491E+02</totfact>
</mgrwt>
</event>
<event>
 8    1  0.3542708E-007  0.1441746E+03  0.7546771E-02  0.1207821E+00
         -5   -1    0    0    0  501 -0.00000000000E+00  0.00000000000E+00  0.39398648749E+02  0.39677997975E+02  0.47000000000E+01 0. -1.
          5   -1    0    0  501    0  0.00000000000E+00 -0.00000000000E+00 -0.54101095481E+03  0.54103136990E+03  0.47000000000E+01 0. -1.
         25    2    1    2    0    0 -0.50362125434E+02  0.51232203942E+02 -0.20153304065E+03  0.24779212524E+03  0.12499715381E+03 0.  0.
         25    2    1    2    0    0  0.50362125434E+02 -0.51232203942E+02 -0.30007926541E+03  0.33291724264E+03  0.12500097006E+03 0.  0.
          5    1    3    3  502    0 -0.31657917708E+02 -0.35170746189E+02 -0.34504131687E+02  0.58752278633E+02  0.47000000000E+01 0. -1.
         -5    1    3    3    0  502 -0.18704207726E+02  0.86402950130E+02 -0.16702890896E+03  0.18903984661E+03  0.47000000000E+01 0. -1.
          5    1    4    4  503    0  0.76686593848E+02 -0.60660642679E+02 -0.14298109366E+03  0.17328078482E+03  0.47000000000E+01 0.  1.
         -5    1    4    4    0  503 -0.26324468414E+02  0.94284387373E+01 -0.15709817175E+03  0.15963645781E+03  0.47000000000E+01 0.  1.
<mgrwt>
<rscale>  0 0.14417381E+03</rscale>
<asrwt>0</asrwt>
<pdfrwt beam="2">  1        5 0.83255508E-01 0.14417463E+03</pdfrwt>
<pdfrwt beam="1">  1       -5 0.60843898E-02 0.14417463E+03</pdfrwt>
<totfact> 0.16963978E+02</totfact>
</mgrwt>
</event>
<event>
 8    1  0.3542708E-007  0.1645612E+03  0.7546771E-02  0.1183641E+00
         -5   -1    0    0    0  501 -0.00000000000E+00  0.00000000000E+00  0.26909905115E+03  0.26914009239E+03  0.47000000000E+01 0. -1.
          5   -1    0    0  501    0  0.00000000000E+00 -0.00000000000E+00 -0.10102371165E+03  0.10113298333E+03  0.47000000000E+01 0. -1.
         25    2    1    2    0    0  0.85874405910E+02  0.63883584228E+02  0.96972805478E+02  0.19100813402E+03  0.12499942534E+03 0.  0.
         25    2    1    2    0    0 -0.85874405910E+02 -0.63883584228E+02  0.71102534023E+02  0.17926494170E+03  0.12499929221E+03 0.  0.
          5    1    4    4  502    0 -0.42680793197E+01  0.35394976536E+02  0.15843723869E+02  0.39295476217E+02  0.47000000000E+01 0.  1.
         -5    1    4    4    0  502 -0.81606326590E+02 -0.99278560764E+02  0.55258810153E+02  0.13996946548E+03  0.47000000000E+01 0.  1.
          5    1    3    3  503    0 -0.21559418207E+02  0.95386852058E+01 -0.13474058169E+02  0.27557853190E+02  0.47000000000E+01 0. -1.
         -5    1    3    3    0  503  0.10743382412E+03  0.54344899023E+02  0.11044686365E+03  0.16345028083E+03  0.47000000000E+01 0. -1.
<mgrwt>
<rscale>  0 0.16456116E+03</rscale>
<asrwt>0</asrwt>
<pdfrwt beam="2">  1        5 0.15553672E-01 0.16456118E+03</pdfrwt>
<pdfrwt beam="1">  1       -5 0.41411417E-01 0.16456118E+03</pdfrwt>
<totfact> 0.15836771E+02</totfact>
</mgrwt>
</event>
<event>
 8    1  0.3542708E-007  0.1641813E+03  0.7546771E-02  0.1184062E+00
          5   -1    0    0  501    0  0.00000000000E+00  0.00000000000E+00  0.95848329112E+03  0.95849481446E+03  0.47000000000E+01 0.  1.
         -5   -1    0    0    0  501 -0.00000000000E+00 -0.00000000000E+00 -0.27925512776E+02  0.28318267317E+02  0.47000000000E+01 0.  1.
         25    2    1    2    0    0 -0.53470212794E+02 -0.92004546183E+02  0.47664332748E+03  0.50412732279E+03  0.12502638032E+03 0.  0.
         25    2    1    2    0    0  0.53470212794E+02  0.92004546183E+02  0.45391445086E+03  0.48268575899E+03  0.12499325205E+03 0.  0.
          5    1    4    4  502    0  0.87518161533E+02  0.31637024451E+02  0.29175838488E+03  0.30627663159E+03  0.47000000000E+01 0. -1.
         -5    1    4    4    0  502 -0.34047948739E+02  0.60367521732E+02  0.16215606598E+03  0.17640912739E+03  0.47000000000E+01 0. -1.
          5    1    3    3  503    0 -0.89487824379E+02 -0.85763178099E+02  0.31980995225E+03  0.34302170337E+03  0.47000000000E+01 0.  1.
         -5    1    3    3    0  503  0.36017611585E+02 -0.62413680843E+01  0.15683337524E+03  0.16110561942E+03  0.47000000000E+01 0.  1.
<mgrwt>
<rscale>  0 0.16417498E+03</rscale>
<asrwt>0</asrwt>
<pdfrwt beam="1">  1        5 0.14749005E+00 0.16418129E+03</pdfrwt>
<pdfrwt beam="2">  1       -5 0.43273316E-02 0.16418129E+03</pdfrwt>
<totfact> 0.74164327E+01</totfact>
</mgrwt>
</event>
<event>
 8    1  0.3542708E-007  0.1311062E+03  0.7546771E-02  0.1225845E+00
          5   -1    0    0  501    0  0.00000000000E+00  0.00000000000E+00  0.13985501363E+04  0.13985580337E+04  0.47000000000E+01 0.  1.
         -5   -1    0    0    0  501 -0.00000000000E+00 -0.00000000000E+00 -0.12026894926E+02  0.12912637282E+02  0.47000000000E+01 0.  1.
         25    2    1    2    0    0  0.10039664933E+00 -0.39370808823E+02  0.60540046158E+03  0.61942166677E+03  0.12499364671E+03 0.  0.
         25    2    1    2    0    0 -0.10039664933E+00  0.39370808823E+02  0.78112277977E+03  0.79204900422E+03  0.12505501732E+03 0.  0.
          5    1    4    4  502    0  0.50004666858E+01 -0.43923409002E+02  0.35801536328E+03  0.36076496625E+03  0.47000000000E+01 0. -1.
         -5    1    4    4    0  502 -0.51008633352E+01  0.83294217825E+02  0.42310741648E+03  0.43128403798E+03  0.47000000000E+01 0. -1.
          5    1    3    3  503    0  0.21479074995E+02  0.29455133481E+02  0.68988068348E+02  0.78169041988E+02  0.47000000000E+01 0. -1.
         -5    1    3    3    0  503 -0.21378678346E+02 -0.68825942304E+02  0.53641239323E+03  0.54125262478E+03  0.47000000000E+01 0. -1.
<mgrwt>
<rscale>  0 0.13109153E+03</rscale>
<asrwt>0</asrwt>
<pdfrwt beam="1">  1        5 0.21523031E+00 0.13110617E+03</pdfrwt>
<pdfrwt beam="2">  1       -5 0.19190330E-02 0.13110617E+03</pdfrwt>
<totfact> 0.84554647E+01</totfact>
</mgrwt>
</event>
<event>
 8    1  0.3542708E-007  0.1622321E+03  0.7546771E-02  0.1186200E+00
          5   -1    0    0  501    0  0.00000000000E+00  0.00000000000E+00  0.13646351654E+03  0.13654442993E+03  0.47000000000E+01 0. -1.
         -5   -1    0    0    0  501 -0.00000000000E+00 -0.00000000000E+00 -0.27120034931E+03  0.27124107260E+03  0.47000000000E+01 0. -1.
         25    2    1    2    0    0 -0.10053708253E+03 -0.24229963847E+02 -0.17704191226E+03  0.24013142913E+03  0.12499787378E+03 0.  0.
         25    2    1    2    0    0  0.10053708253E+03  0.24229963847E+02  0.42305079488E+02  0.16765407340E+03  0.12499348969E+03 0.  0.
          5    1    3    3  502    0  0.13907614122E+02  0.16399447543E+02 -0.84653910117E+02  0.87468497806E+02  0.47000000000E+01 0.  1.
         -5    1    3    3    0  502 -0.11444469665E+03 -0.40629411391E+02 -0.92388002144E+02  0.15266293133E+03  0.47000000000E+01 0.  1.
          5    1    4    4  503    0  0.70711383997E+02  0.72476107544E+02  0.91300777777E+01  0.10177590241E+03  0.47000000000E+01 0.  1.
         -5    1    4    4    0  503  0.29825698532E+02 -0.48246143696E+02  0.33175001710E+02  0.65878170990E+02  0.47000000000E+01 0.  1.
<mgrwt>
<rscale>  0 0.16223129E+03</rscale>
<asrwt>0</asrwt>
<pdfrwt beam="1">  1        5 0.21003744E-01 0.16223213E+03</pdfrwt>
<pdfrwt beam="2">  1       -5 0.41732487E-01 0.16223213E+03</pdfrwt>
<totfact> 0.88989677E+01</totfact>
</mgrwt>
</event>
<event>
 8    1  0.3542708E-007  0.1349126E+03  0.7546771E-02  0.1220344E+00
          5   -1    0    0  501    0  0.00000000000E+00  0.00000000000E+00  0.25424446241E+02  0.25855221265E+02  0.47000000000E+01 0.  1.
         -5   -1    0    0    0  501 -0.00000000000E+00 -0.00000000000E+00 -0.71351142575E+03  0.71352690536E+03  0.47000000000E+01 0.  1.
         25    2    1    2    0    0  0.36732087339E+02  0.35016950000E+02 -0.31610024280E+03  0.34368703520E+03  0.12500392648E+03 0.  0.
         25    2    1    2    0    0 -0.36732087339E+02 -0.35016950000E+02 -0.37198673671E+03  0.39569509143E+03  0.12500016027E+03 0.  0.
          5    1    4    4  502    0 -0.87909834469E+01 -0.90816527152E-01 -0.34084769310E+03  0.34099344499E+03  0.47000000000E+01 0.  1.
         -5    1    4    4    0  502 -0.27941103892E+02 -0.34926133472E+02 -0.31139043610E+02  0.54701646438E+02  0.47000000000E+01 0.  1.
          5    1    3    3  503    0  0.62117640792E+02  0.37630455707E+02 -0.30803164472E+03  0.31651261687E+03  0.47000000000E+01 0. -1.
         -5    1    3    3    0  503 -0.25385553452E+02 -0.26135057077E+01 -0.80685980861E+01  0.27174418324E+02  0.47000000000E+01 0. -1.
<mgrwt>
<rscale>  0 0.13491175E+03</rscale>
<asrwt>0</asrwt>
<pdfrwt beam="1">  1        5 0.39457811E-02 0.13491262E+03</pdfrwt>
<pdfrwt beam="2">  1       -5 0.10980530E+00 0.13491262E+03</pdfrwt>
<totfact> 0.17485906E+02</totfact>
</mgrwt>
</event>
<event>
 8    1  0.3542708E-007  0.1527799E+03  0.7546771E-02  0.1197099E+00
         -5   -1    0    0    0  501 -0.00000000000E+00  0.00000000000E+00  0.62673341176E+02  0.62849325328E+02  0.47000000000E+01 0. -1.
          5   -1    0    0  501    0  0.00000000000E+00 -0.00000000000E+00 -0.37393449588E+03  0.37396403197E+03  0.47000000000E+01 0. -1.
         25    2    1    2    0    0  0.46735921810E+02  0.74375689762E+02 -0.13879974305E+03  0.20641230172E+03  0.12499872006E+03 0.  0.
         25    2    1    2    0    0 -0.46735921810E+02 -0.74375689762E+02 -0.17246141166E+03  0.23040105558E+03  0.12500287311E+03 0.  0.
          5    1    3    3  502    0  0.82503850752E+02  0.52208486224E+02 -0.13085256994E+03  0.16333124772E+03  0.47000000000E+01 0.  1.
         -5    1    3    3    0  502 -0.35767928942E+02  0.22167203538E+02 -0.79471731099E+01  0.43081054002E+02  0.47000000000E+01 0.  1.
          5    1    4    4  503    0 -0.83079459913E+01  0.35160183991E+02 -0.36626244329E+02  0.51660742141E+02  0.47000000000E+01 0.  1.
         -5    1    4    4    0  503 -0.38427975819E+02 -0.10953587375E+03 -0.13583516733E+03  0.17874031344E+03  0.47000000000E+01 0.  1.
<mgrwt>
<rscale>  0 0.15277908E+03</rscale>
<asrwt>0</asrwt>
<pdfrwt beam="2">  1        5 0.57544192E-01 0.15277993E+03</pdfrwt>
<pdfrwt beam="1">  1       -5 0.96578620E-02 0.15277993E+03</pdfrwt>
<totfact> 0.18010088E+02</totfact>
</mgrwt>
</event>
<event>
 8    1  0.3542708E-007  0.1292085E+03  0.7546771E-02  0.1228635E+00
          5   -1    0    0  501    0  0.00000000000E+00  0.00000000000E+00  0.15990833584E+03  0.15997739175E+03  0.47000000000E+01 0.  1.
         -5   -1    0    0    0  501 -0.00000000000E+00 -0.00000000000E+00 -0.12280237543E+03  0.12289228378E+03  0.47000000000E+01 0.  1.
         25    2    1    2    0    0  0.30119781407E+02  0.12772290538E+02 -0.36372654102E+02  0.13422940118E+03  0.12499691811E+03 0.  0.
         25    2    1    2    0    0 -0.30119781407E+02 -0.12772290538E+02  0.73478614508E+02  0.14864027435E+03  0.12499796691E+03 0.  0.
          5    1    4    4  502    0 -0.40951260519E+02 -0.62086441962E+02  0.25320069097E+02  0.78707864364E+02  0.47000000000E+01 0.  1.
         -5    1    4    4    0  502  0.10831479112E+02  0.49314151424E+02  0.48158545411E+02  0.69932409986E+02  0.47000000000E+01 0.  1.
          5    1    3    3  503    0  0.44389047440E+02  0.52322648757E+02  0.12162477365E+02  0.69843131096E+02  0.47000000000E+01 0. -1.
         -5    1    3    3    0  503 -0.14269266033E+02 -0.39550358219E+02 -0.48535131468E+02  0.64386270081E+02  0.47000000000E+01 0. -1.
<mgrwt>
<rscale>  0 0.12920820E+03</rscale>
<asrwt>0</asrwt>
<pdfrwt beam="1">  1        5 0.24613510E-01 0.12920845E+03</pdfrwt>
<pdfrwt beam="2">  1       -5 0.18904901E-01 0.12920845E+03</pdfrwt>
<totfact> 0.28646395E+02</totfact>
</mgrwt>
</event>
<event>
 8    1  0.3542708E-007  0.1490298E+03  0.7546771E-02  0.1201676E+00
         -5   -1    0    0    0  501 -0.00000000000E+00  0.00000000000E+00  0.19135018804E+04  0.19135076525E+04  0.47000000000E+01 0. -1.
          5   -1    0    0  501    0  0.00000000000E+00 -0.00000000000E+00 -0.11563174955E+02  0.12481867450E+02  0.47000000000E+01 0. -1.
         25    2    1    2    0    0  0.60865072830E+02 -0.53655443030E+02  0.11315621073E+04  0.11413337307E+04  0.12500567413E+03 0.  0.
         25    2    1    2    0    0 -0.60865072830E+02  0.53655443030E+02  0.77037659816E+03  0.78465578926E+03  0.12498456298E+03 0.  0.
          5    1    3    3  502    0  0.23284803689E+00  0.38034934757E+02  0.34255400094E+03  0.34469123000E+03  0.47000000000E+01 0. -1.
         -5    1    3    3    0  502  0.60632224793E+02 -0.91690377787E+02  0.78900810636E+03  0.79664250073E+03  0.47000000000E+01 0. -1.
          5    1    4    4  503    0 -0.61321271643E+02  0.13552747767E+02  0.70504827549E+03  0.70785530732E+03  0.47000000000E+01 0.  1.
         -5    1    4    4    0  503  0.45619881333E+00  0.40102695263E+02  0.65328322664E+02  0.76800481943E+02  0.47000000000E+01 0.  1.
<mgrwt>
<rscale>  0 0.14902538E+03</rscale>
<asrwt>0</asrwt>
<pdfrwt beam="2">  1        5 0.18500646E-02 0.14902980E+03</pdfrwt>
<pdfrwt beam="1">  1       -5 0.29445572E+00 0.14902980E+03</pdfrwt>
<totfact> 0.29065715E+01</totfact>
</mgrwt>
</event>
<event>
 8    1  0.3542708E-007  0.1432615E+03  0.7546771E-02  0.1209011E+00
          5   -1    0    0  501    0  0.00000000000E+00  0.00000000000E+00  0.38810499800E+03  0.38813345575E+03  0.47000000000E+01 0. -1.
         -5   -1    0    0    0  501 -0.00000000000E+00 -0.00000000000E+00 -0.62473474543E+02  0.62650020124E+02  0.47000000000E+01 0. -1.
         25    2    1    2    0    0  0.48238783330E+02 -0.50689751953E+02  0.74024748510E+02  0.16125609099E+03  0.12500972890E+03 0.  0.
         25    2    1    2    0    0 -0.48238783330E+02  0.50689751953E+02  0.25160677495E+03  0.28952738488E+03  0.12499482480E+03 0.  0.
          5    1    4    4  502    0 -0.23333785896E+02 -0.45953226655E+01  0.21934883333E+03  0.22068435205E+03  0.47000000000E+01 0. -1.
         -5    1    4    4    0  502 -0.24904997434E+02  0.55285074619E+02  0.32257941616E+02  0.68843032837E+02  0.47000000000E+01 0. -1.
          5    1    3    3  503    0  0.55587849755E+01  0.35947666901E+02 -0.41533098867E+01  0.36911716691E+02  0.47000000000E+01 0. -1.
         -5    1    3    3    0  503  0.42679998355E+02 -0.86637418855E+02  0.78178058396E+02  0.12434437430E+03  0.47000000000E+01 0. -1.
<mgrwt>
<rscale>  0 0.14325827E+03</rscale>
<asrwt>0</asrwt>
<pdfrwt beam="1">  1        5 0.59724230E-01 0.14326152E+03</pdfrwt>
<pdfrwt beam="2">  1       -5 0.96270734E-02 0.14326152E+03</pdfrwt>
<totfact> 0.16352009E+02</totfact>
</mgrwt>
</event>
<event>
 8    1  0.3542708E-007  0.1274210E+03  0.7546771E-02  0.1231339E+00
          5   -1    0    0  501    0  0.00000000000E+00  0.00000000000E+00  0.85987674005E+01  0.97994285960E+01  0.47000000000E+01 0.  1.
         -5   -1    0    0    0  501 -0.00000000000E+00 -0.00000000000E+00 -0.17638379703E+04  0.17638442322E+04  0.47000000000E+01 0.  1.
         25    2    1    2    0    0 -0.15242849957E+01  0.24594764871E+02 -0.86668442302E+03  0.87600113802E+03  0.12501551427E+03 0.  0.
         25    2    1    2    0    0  0.15242849957E+01 -0.24594764871E+02 -0.88855477985E+03  0.89764252275E+03  0.12500110377E+03 0.  0.
          5    1    3    3  502    0  0.41256821471E+02  0.49636133593E+02 -0.28813700757E+03  0.29531491024E+03  0.47000000000E+01 0. -1.
         -5    1    3    3    0  502 -0.42781106466E+02 -0.25041368722E+02 -0.57854741545E+03  0.58068622779E+03  0.47000000000E+01 0. -1.
          5    1    4    4  503    0  0.53573638658E+02 -0.18068263899E+02 -0.22653724863E+03  0.23353332082E+03  0.47000000000E+01 0. -1.
         -5    1    4    4    0  503 -0.52049353662E+02 -0.65265009713E+01 -0.66201753122E+03  0.66410920192E+03  0.47000000000E+01 0. -1.
<mgrwt>
<rscale>  0 0.12741744E+03</rscale>
<asrwt>0</asrwt>
<pdfrwt beam="1">  1        5 0.14157289E-02 0.12742097E+03</pdfrwt>
<pdfrwt beam="2">  1       -5 0.27145226E+00 0.12742097E+03</pdfrwt>
<totfact> 0.59331941E+01</totfact>
</mgrwt>
</event>
<event>
 8    1  0.3542708E-007  0.1971918E+03  0.7546771E-02  0.1152131E+00
         -5   -1    0    0    0  501 -0.00000000000E+00  0.00000000000E+00  0.24129214861E+03  0.24133791865E+03  0.47000000000E+01 0.  1.
          5   -1    0    0  501    0  0.00000000000E+00 -0.00000000000E+00 -0.17037148836E+03  0.17043630495E+03  0.47000000000E+01 0.  1.
         25    2    1    2    0    0  0.11142559853E+03  0.10413197765E+03  0.83595157553E+02  0.21417928675E+03  0.12500193490E+03 0.  0.
         25    2    1    2    0    0 -0.11142559853E+03 -0.10413197765E+03 -0.12674497305E+02  0.19759493686E+03  0.12499593358E+03 0.  0.
          5    1    3    3  502    0 -0.71478290378E+01 -0.14354865624E+02 -0.12532801326E+02  0.20888148221E+02  0.47000000000E+01 0. -1.
         -5    1    3    3    0  502  0.11857342757E+03  0.11848684327E+03  0.96127958879E+02  0.19329113853E+03  0.47000000000E+01 0. -1.
          5    1    4    4  503    0 -0.50722889179E+02 -0.11452811023E+03 -0.37789550134E+02  0.13091844644E+03  0.47000000000E+01 0.  1.
         -5    1    4    4    0  503 -0.60702709351E+02  0.10396132581E+02  0.25115052829E+02  0.66676490413E+02  0.47000000000E+01 0.  1.
<mgrwt>
<rscale>  0 0.19719088E+03</rscale>
<asrwt>0</asrwt>
<pdfrwt beam="2">  1        5 0.26219505E-01 0.19719183E+03</pdfrwt>
<pdfrwt beam="1">  1       -5 0.37130375E-01 0.19719183E+03</pdfrwt>
<totfact> 0.78270127E+01</totfact>
</mgrwt>
</event>
<event>
 8    1  0.3542708E-007  0.1270186E+03  0.7546771E-02  0.1231957E+00
         -5   -1    0    0    0  501 -0.00000000000E+00  0.00000000000E+00  0.31178006883E+03  0.31181549243E+03  0.47000000000E+01 0.  1.
          5   -1    0    0  501    0  0.00000000000E+00 -0.00000000000E+00 -0.54438087762E+02  0.54640602112E+02  0.47000000000E+01 0.  1.
         25    2    1    2    0    0 -0.19751823299E+02  0.10597345192E+02  0.17048265621E+03  0.21259834658E+03  0.12502512808E+03 0.  0.
         25    2    1    2    0    0  0.19751823299E+02 -0.10597345192E+02  0.86859324856E+02  0.15385774796E+03  0.12500090417E+03 0.  0.
          5    1    3    3  502    0  0.49696977965E+02  0.23060312060E+02  0.89942327959E+02  0.10541954264E+03  0.47000000000E+01 0. -1.
         -5    1    3    3    0  502 -0.69448801264E+02 -0.12462966868E+02  0.80540328250E+02  0.10717880394E+03  0.47000000000E+01 0. -1.
          5    1    4    4  503    0  0.37524326334E+02 -0.11332560148E+02 -0.20809959406E+02  0.44627865698E+02  0.47000000000E+01 0.  1.
         -5    1    4    4    0  503 -0.17772503035E+02  0.73521495548E+00  0.10766928426E+03  0.10922988226E+03  0.47000000000E+01 0.  1.
<mgrwt>
<rscale>  0 0.12701262E+03</rscale>
<asrwt>0</asrwt>
<pdfrwt beam="2">  1        5 0.83933933E-02 0.12701858E+03</pdfrwt>
<pdfrwt beam="1">  1       -5 0.47984468E-01 0.12701858E+03</pdfrwt>
<totfact> 0.31796562E+02</totfact>
</mgrwt>
</event>
<event>
 8    1  0.3542708E-007  0.1354097E+03  0.7546771E-02  0.1219660E+00
          5   -1    0    0  501    0  0.00000000000E+00  0.00000000000E+00  0.65998485869E+03  0.66000159371E+03  0.47000000000E+01 0.  1.
         -5   -1    0    0    0  501 -0.00000000000E+00 -0.00000000000E+00 -0.27559009540E+02  0.27956913400E+02  0.47000000000E+01 0.  1.
         25    2    1    2    0    0 -0.67127989817E+01  0.51509849670E+02  0.32002778051E+03  0.34749615753E+03  0.12504988171E+03 0.  0.
         25    2    1    2    0    0  0.67127989817E+01 -0.51509849670E+02  0.31239806864E+03  0.34046234959E+03  0.12499492753E+03 0.  0.
          5    1    3    3  502    0 -0.37231746206E+02 -0.89062882338E+01  0.27926697245E+02  0.47618434609E+02  0.47000000000E+01 0. -1.
         -5    1    3    3    0  502  0.30518947224E+02  0.60416137904E+02  0.29210108326E+03  0.29987772292E+03  0.47000000000E+01 0. -1.
          5    1    4    4  503    0  0.54395671024E+02  0.76066719153E+01  0.91475532280E+02  0.10680174853E+03  0.47000000000E+01 0.  1.
         -5    1    4    4    0  503 -0.47682872042E+02 -0.59116521586E+02  0.22092253637E+03  0.23366060105E+03  0.47000000000E+01 0.  1.
<mgrwt>
<rscale>  0 0.13539706E+03</rscale>
<asrwt>0</asrwt>
<pdfrwt beam="1">  1        5 0.10156802E+00 0.13540975E+03</pdfrwt>
<pdfrwt beam="2">  1       -5 0.42717433E-02 0.13540975E+03</pdfrwt>
<totfact> 0.18629451E+02</totfact>
</mgrwt>
</event>
<event>
 8    1  0.3542708E-007  0.1386162E+03  0.7546771E-02  0.1215207E+00
          5   -1    0    0  501    0  0.00000000000E+00  0.00000000000E+00  0.26301588066E+03  0.26305787097E+03  0.47000000000E+01 0. -1.
         -5   -1    0    0    0  501 -0.00000000000E+00 -0.00000000000E+00 -0.80456536131E+02  0.80593698304E+02  0.47000000000E+01 0. -1.
         25    2    1    2    0    0  0.43624052917E+02 -0.41064983587E+02  0.38765876914E+02  0.14392423453E+03  0.12498800423E+03 0.  0.
         25    2    1    2    0    0 -0.43624052917E+02  0.41064983587E+02  0.14379346762E+03  0.19972733475E+03  0.12500022419E+03 0.  0.
          5    1    4    4  502    0  0.10412210741E+02 -0.19318929088E+02  0.10922125967E+03  0.11150340227E+03  0.47000000000E+01 0. -1.
         -5    1    4    4    0  502 -0.54036263658E+02  0.60383912675E+02  0.34572207949E+02  0.88223932481E+02  0.47000000000E+01 0. -1.
          5    1    3    3  503    0  0.44056482864E+02  0.29334763540E+02  0.49419861267E+02  0.72566622644E+02  0.47000000000E+01 0. -1.
         -5    1    3    3    0  503 -0.43242994693E+00 -0.70399747126E+02 -0.10653984353E+02  0.71357611884E+02  0.47000000000E+01 0. -1.
<mgrwt>
<rscale>  0 0.13861343E+03</rscale>
<asrwt>0</asrwt>
<pdfrwt beam="1">  1        5 0.40477764E-01 0.13861619E+03</pdfrwt>
<pdfrwt beam="2">  1       -5 0.12391709E-01 0.13861619E+03</pdfrwt>
<totfact> 0.23627683E+02</totfact>
</mgrwt>
</event>
<event>
 8    1  0.3542708E-007  0.1817693E+03  0.7546771E-02  0.1166104E+00
          5   -1    0    0  501    0  0.00000000000E+00  0.00000000000E+00  0.15600406452E+03  0.15607484790E+03  0.47000000000E+01 0. -1.
         -5   -1    0    0    0  501 -0.00000000000E+00 -0.00000000000E+00 -0.25584619305E+03  0.25588935988E+03  0.47000000000E+01 0. -1.
         25    2    1    2    0    0  0.64022279969E+01  0.13179493539E+03 -0.13553279599E+03  0.22673604453E+03  0.12501680520E+03 0.  0.
         25    2    1    2    0    0 -0.64022279969E+01 -0.13179493539E+03  0.35690667458E+02  0.18522816325E+03  0.12499902079E+03 0.  0.
          5    1    4    4  502    0  0.41780059017E+02 -0.11208258008E+03 -0.37179888044E+01  0.11976640401E+03  0.47000000000E+01 0.  1.
         -5    1    4    4    0  502 -0.48182287014E+02 -0.19712355306E+02  0.39408656262E+02  0.65461759234E+02  0.47000000000E+01 0.  1.
          5    1    3    3  503    0  0.46247030145E+02  0.76265481363E+02 -0.13037562051E+03  0.15803513492E+03  0.47000000000E+01 0.  1.
         -5    1    3    3    0  503 -0.39844802148E+02  0.55529454026E+02 -0.51571754793E+01  0.68700909612E+02  0.47000000000E+01 0.  1.
<mgrwt>
<rscale>  0 0.18176629E+03</rscale>
<asrwt>0</asrwt>
<pdfrwt beam="1">  1        5 0.24009391E-01 0.18176935E+03</pdfrwt>
<pdfrwt beam="2">  1       -5 0.39369718E-01 0.18176935E+03</pdfrwt>
<totfact> 0.80436407E+01</totfact>
</mgrwt>
</event>
<event>
 8    1  0.3542708E-007  0.1287681E+03  0.7546771E-02  0.1229303E+00
          5   -1    0    0  501    0  0.00000000000E+00  0.00000000000E+00  0.24796773513E+03  0.24801227321E+03  0.47000000000E+01 0.  1.
         -5   -1    0    0    0  501 -0.00000000000E+00 -0.00000000000E+00 -0.67071986454E+02  0.67236458614E+02  0.47000000000E+01 0.  1.
         25    2    1    2    0    0  0.28218459056E+02 -0.12645514248E+02  0.79119882215E+02  0.15111603665E+03  0.12497963958E+03 0.  0.
         25    2    1    2    0    0 -0.28218459056E+02  0.12645514248E+02  0.10177586646E+03  0.16413269517E+03  0.12500009668E+03 0.  0.
          5    1    4    4  502    0  0.29645714832E+02  0.31115917173E+02  0.93030911098E+02  0.10258610593E+03  0.47000000000E+01 0. -1.
         -5    1    4    4    0  502 -0.57864173887E+02 -0.18470402925E+02  0.87449553599E+01  0.61546589249E+02  0.47000000000E+01 0. -1.
          5    1    3    3  503    0  0.47187240087E+02  0.23485588776E+00  0.10560950393E+03  0.11576764705E+03  0.47000000000E+01 0.  1.
         -5    1    3    3    0  503 -0.18968781031E+02 -0.12880370135E+02 -0.26489621713E+02  0.35348389598E+02  0.47000000000E+01 0.  1.
<mgrwt>
<rscale>  0 0.12876310E+03</rscale>
<asrwt>0</asrwt>
<pdfrwt beam="1">  1        5 0.38164959E-01 0.12876807E+03</pdfrwt>
<pdfrwt beam="2">  1       -5 0.10334845E-01 0.12876807E+03</pdfrwt>
<totfact> 0.35745127E+02</totfact>
</mgrwt>
</event>
<event>
 8    1  0.3542708E-007  0.1374698E+03  0.7546771E-02  0.1216775E+00
         -5   -1    0    0    0  501 -0.00000000000E+00  0.00000000000E+00  0.25936375361E+03  0.25940633509E+03  0.47000000000E+01 0. -1.
          5   -1    0    0  501    0  0.00000000000E+00 -0.00000000000E+00 -0.74995366031E+02  0.75142497471E+02  0.47000000000E+01 0. -1.
         25    2    1    2    0    0 -0.54746323916E+02  0.16603548702E+02  0.12117320710E+03  0.18324924371E+03  0.12499800554E+03 0.  0.
         25    2    1    2    0    0  0.54746323916E+02 -0.16603548702E+02  0.63195180477E+02  0.15129958885E+03  0.12500038776E+03 0.  0.
          5    1    3    3  502    0 -0.82144225562E+01  0.56617684447E+02  0.13101892499E+02  0.58879440530E+02  0.47000000000E+01 0. -1.
         -5    1    3    3    0  502 -0.46531901360E+02 -0.40014135745E+02  0.10807131460E+03  0.12436980318E+03  0.47000000000E+01 0. -1.
          5    1    4    4  503    0  0.83326318582E+02 -0.38354240231E+02  0.68649352050E+02  0.11466972856E+03  0.47000000000E+01 0. -1.
         -5    1    4    4    0  503 -0.28579994666E+02  0.21750691529E+02 -0.54541715736E+01  0.36629860287E+02  0.47000000000E+01 0. -1.
<mgrwt>
<rscale>  0 0.13746922E+03</rscale>
<asrwt>0</asrwt>
<pdfrwt beam="2">  1        5 0.11552342E-01 0.13746976E+03</pdfrwt>
<pdfrwt beam="1">  1       -5 0.39916710E-01 0.13746976E+03</pdfrwt>
<totfact> 0.27452654E+02</totfact>
</mgrwt>
</event>
<event>
 8    1  0.3542708E-007  0.1410035E+03  0.7546771E-02  0.1211986E+00
          5   -1    0    0  501    0  0.00000000000E+00  0.00000000000E+00  0.25972421856E+03  0.25976674096E+03  0.47000000000E+01 0.  1.
         -5   -1    0    0    0  501 -0.00000000000E+00 -0.00000000000E+00 -0.77163790598E+02  0.77306795170E+02  0.47000000000E+01 0.  1.
         25    2    1    2    0    0 -0.38306898743E+02 -0.52820827759E+02  0.10771739612E+03  0.17743812580E+03  0.12499517080E+03 0.  0.
         25    2    1    2    0    0  0.38306898743E+02  0.52820827759E+02  0.74843031846E+02  0.15963541033E+03  0.12499810590E+03 0.  0.
          5    1    4    4  502    0  0.48755295016E+02  0.29465426767E+02  0.10515755518E+03  0.11968914561E+03  0.47000000000E+01 0. -1.
         -5    1    4    4    0  502 -0.10448396273E+02  0.23355400993E+02 -0.30314523332E+02  0.39946264719E+02  0.47000000000E+01 0. -1.
          5    1    3    3  503    0  0.35484804062E+02  0.15792190578E+02  0.20930947203E+02  0.44370701520E+02  0.47000000000E+01 0. -1.
         -5    1    3    3    0  503 -0.73791702805E+02 -0.68613018337E+02  0.86786448916E+02  0.13306742428E+03  0.47000000000E+01 0. -1.
<mgrwt>
<rscale>  0 0.14100284E+03</rscale>
<asrwt>0</asrwt>
<pdfrwt beam="1">  1        5 0.39971843E-01 0.14100349E+03</pdfrwt>
<pdfrwt beam="2">  1       -5 0.11885624E-01 0.14100349E+03</pdfrwt>
<totfact> 0.26257139E+02</totfact>
</mgrwt>
</event>
<event>
 8    1  0.3542708E-007  0.1852668E+03  0.7546771E-02  0.1162806E+00
          5   -1    0    0  501    0  0.00000000000E+00  0.00000000000E+00  0.23626856693E+02  0.24089797783E+02  0.47000000000E+01 0. -1.
         -5   -1    0    0    0  501 -0.00000000000E+00 -0.00000000000E+00 -0.15844546404E+04  0.15844616112E+04  0.47000000000E+01 0. -1.
         25    2    1    2    0    0  0.13616429343E+03 -0.12550322432E+02 -0.10249194112E+04  0.10415294412E+04  0.12500220820E+03 0.  0.
         25    2    1    2    0    0 -0.13616429343E+03  0.12550322432E+02 -0.53590837252E+03  0.56702196782E+03  0.12497160821E+03 0.  0.
          5    1    4    4  502    0  0.13718092555E+01  0.23343494468E+02 -0.23212082114E+03  0.23334302261E+03  0.47000000000E+01 0. -1.
         -5    1    4    4    0  502 -0.13753610268E+03 -0.10793172036E+02 -0.30378755138E+03  0.33367894521E+03  0.47000000000E+01 0. -1.
          5    1    3    3  503    0  0.13305508186E+03 -0.51532210961E+02 -0.87252732577E+03  0.88412965553E+03  0.47000000000E+01 0. -1.
         -5    1    3    3    0  503  0.31092115704E+01  0.38981888529E+02 -0.15239208540E+03  0.15739978565E+03  0.47000000000E+01 0. -1.
<mgrwt>
<rscale>  0 0.18526161E+03</rscale>
<asrwt>0</asrwt>
<pdfrwt beam="1">  1        5 0.36710494E-02 0.18526677E+03</pdfrwt>
<pdfrwt beam="2">  1       -5 0.24379832E+00 0.18526677E+03</pdfrwt>
<totfact> 0.21254608E+01</totfact>
</mgrwt>
</event>
<event>
 8    1  0.3542708E-007  0.1368712E+03  0.7546771E-02  0.1217605E+00
          5   -1    0    0  501    0  0.00000000000E+00  0.00000000000E+00  0.51161613694E+02  0.51377044639E+02  0.47000000000E+01 0.  1.
         -5   -1    0    0    0  501 -0.00000000000E+00 -0.00000000000E+00 -0.60842630413E+03  0.60844445725E+03  0.47000000000E+01 0.  1.
         25    2    1    2    0    0 -0.55390178863E+02 -0.63782264998E+01 -0.48721269073E+03  0.50607305224E+03  0.12499989805E+03 0.  0.
         25    2    1    2    0    0  0.55390178863E+02  0.63782264998E+01 -0.70051999702E+02  0.15374844964E+03  0.12499019728E+03 0.  0.
          5    1    3    3  502    0  0.84960337816E+01 -0.44932190501E+02 -0.31491988474E+03  0.31825729864E+03  0.47000000000E+01 0. -1.
         -5    1    3    3    0  502 -0.63886212644E+02  0.38553964001E+02 -0.17229280599E+03  0.18781575361E+03  0.47000000000E+01 0. -1.
          5    1    4    4  503    0 -0.29027883128E+02 -0.25159413100E+01  0.15331525633E+02  0.33257986075E+02  0.47000000000E+01 0. -1.
         -5    1    4    4    0  503  0.84418061991E+02  0.88941678098E+01 -0.85383525335E+02  0.12049046356E+03  0.47000000000E+01 0. -1.
<mgrwt>
<rscale>  0 0.13686900E+03</rscale>
<asrwt>0</asrwt>
<pdfrwt beam="1">  1        5 0.78889859E-02 0.13687121E+03</pdfrwt>
<pdfrwt beam="2">  1       -5 0.93622010E-01 0.13687121E+03</pdfrwt>
<totfact> 0.81348373E+01</totfact>
</mgrwt>
</event>
<event>
 8    1  0.3542708E-007  0.1283336E+03  0.7546771E-02  0.1229960E+00
         -5   -1    0    0    0  501 -0.00000000000E+00  0.00000000000E+00  0.97928176435E+03  0.97929304296E+03  0.47000000000E+01 0. -1.
          5   -1    0    0  501    0  0.00000000000E+00 -0.00000000000E+00 -0.16500052100E+02  0.17156390043E+02  0.47000000000E+01 0. -1.
         25    2    1    2    0    0 -0.27699068513E+02  0.89192032445E+01  0.50068881940E+03  0.51687408122E+03  0.12499092518E+03 0.  0.
         25    2    1    2    0    0  0.27699068513E+02 -0.89192032445E+01  0.46209289285E+03  0.47957535179E+03  0.12496353803E+03 0.  0.
          5    1    3    3  502    0 -0.30403477640E+02  0.57537563287E+02  0.16159733802E+03  0.17427200664E+03  0.47000000000E+01 0. -1.
         -5    1    3    3    0  502  0.27044091271E+01 -0.48618360042E+02  0.33909148138E+03  0.34260207458E+03  0.47000000000E+01 0. -1.
          5    1    4    4  503    0 -0.81556410577E+00 -0.58339749561E+02  0.33645176247E+03  0.34150559291E+03  0.47000000000E+01 0. -1.
         -5    1    4    4    0  503  0.28514632619E+02  0.49420546316E+02  0.12564113038E+03  0.13806975887E+03  0.47000000000E+01 0. -1.
<mgrwt>
<rscale>  0 0.12832697E+03</rscale>
<asrwt>0</asrwt>
<pdfrwt beam="2">  1        5 0.25898239E-02 0.12833364E+03</pdfrwt>
<pdfrwt beam="1">  1       -5 0.15071013E+00 0.12833364E+03</pdfrwt>
<totfact> 0.14941154E+02</totfact>
</mgrwt>
</event>
<event>
 8    1  0.3542708E-007  0.1330561E+03  0.7546771E-02  0.1222991E+00
          5   -1    0    0  501    0  0.00000000000E+00  0.00000000000E+00  0.60091742567E+02  0.60275264618E+02  0.47000000000E+01 0.  1.
         -5   -1    0    0    0  501 -0.00000000000E+00 -0.00000000000E+00 -0.39818453736E+03  0.39821227479E+03  0.47000000000E+01 0.  1.
         25    2    1    2    0    0 -0.45239032212E+02 -0.56665742216E+01 -0.28630157675E+03  0.31570955482E+03  0.12500100023E+03 0.  0.
         25    2    1    2    0    0  0.45239032212E+02  0.56665742216E+01 -0.51791218044E+02  0.14277798459E+03  0.12499817005E+03 0.  0.
          5    1    3    3  502    0 -0.35468311878E+02  0.57683483671E+02 -0.12861670884E+03  0.14542947854E+03  0.47000000000E+01 0.  1.
         -5    1    3    3    0  502 -0.97707203337E+01 -0.63350057893E+02 -0.15768486791E+03  0.17028007628E+03  0.47000000000E+01 0.  1.
          5    1    4    4  503    0  0.59911665367E+02 -0.38597077612E+02  0.19767763339E+01  0.71450260265E+02  0.47000000000E+01 0. -1.
         -5    1    4    4    0  503 -0.14672633155E+02  0.44263651833E+02 -0.53767994378E+02  0.71327724321E+02  0.47000000000E+01 0. -1.
<mgrwt>
<rscale>  0 0.13305545E+03</rscale>
<asrwt>0</asrwt>
<pdfrwt beam="1">  1        5 0.92611345E-02 0.13305612E+03</pdfrwt>
<pdfrwt beam="2">  1       -5 0.61275409E-01 0.13305612E+03</pdfrwt>
<totfact> 0.16137122E+02</totfact>
</mgrwt>
</event>
<event>
 8    1  0.3542708E-007  0.1395116E+03  0.7546771E-02  0.1214005E+00
         -5   -1    0    0    0  501 -0.00000000000E+00  0.00000000000E+00  0.39777274078E+03  0.39780050692E+03  0.47000000000E+01 0. -1.
          5   -1    0    0  501    0  0.00000000000E+00 -0.00000000000E+00 -0.49577308829E+02  0.49799593881E+02  0.47000000000E+01 0. -1.
         25    2    1    2    0    0 -0.60832961558E+02  0.11092276505E+02  0.20253405953E+03  0.24590545284E+03  0.12500303461E+03 0.  0.
         25    2    1    2    0    0  0.60832961558E+02 -0.11092276505E+02  0.14566137242E+03  0.20169464795E+03  0.12505921713E+03 0.  0.
          5    1    3    3  502    0 -0.42435048379E+02 -0.46634065938E+02  0.46585813109E+02  0.78535325936E+02  0.47000000000E+01 0. -1.
         -5    1    3    3    0  502 -0.18397913179E+02  0.57726342442E+02  0.15594824642E+03  0.16737012691E+03  0.47000000000E+01 0. -1.
          5    1    4    4  503    0 -0.21429232779E+02  0.23510900002E+01 -0.10638855323E+02  0.24495201249E+02  0.47000000000E+01 0.  1.
         -5    1    4    4    0  503  0.82262194336E+02 -0.13443366505E+02  0.15630022774E+03  0.17719944671E+03  0.47000000000E+01 0.  1.
<mgrwt>
<rscale>  0 0.13949904E+03</rscale>
<asrwt>0</asrwt>
<pdfrwt beam="2">  1        5 0.76465129E-02 0.13951163E+03</pdfrwt>
<pdfrwt beam="1">  1       -5 0.61215041E-01 0.13951163E+03</pdfrwt>
<totfact> 0.22845966E+02</totfact>
</mgrwt>
</event>
<event>
 8    1  0.3542708E-007  0.1251371E+03  0.7546771E-02  0.1234855E+00
         -5   -1    0    0    0  501 -0.00000000000E+00  0.00000000000E+00  0.16628251617E+02  0.17279720826E+02  0.47000000000E+01 0.  1.
          5   -1    0    0  501    0  0.00000000000E+00 -0.00000000000E+00 -0.10130730745E+04  0.10130839769E+04  0.47000000000E+01 0.  1.
         25    2    1    2    0    0 -0.25795073354E+01  0.54190208871E+01 -0.34463542228E+03  0.36665088610E+03  0.12499311318E+03 0.  0.
         25    2    1    2    0    0  0.25795073354E+01 -0.54190208871E+01 -0.65180940056E+03  0.66371281159E+03  0.12499272768E+03 0.  0.
          5    1    4    4  502    0 -0.13483967703E+02 -0.17939782460E+02 -0.16961211580E+02  0.28520621977E+02  0.47000000000E+01 0.  1.
         -5    1    4    4    0  502  0.16063475038E+02  0.12520761573E+02 -0.63484818898E+03  0.63519218962E+03  0.47000000000E+01 0.  1.
          5    1    3    3  503    0  0.17639807571E+02  0.26578066428E+02 -0.33339372419E+03  0.33494928236E+03  0.47000000000E+01 0.  1.
         -5    1    3    3    0  503 -0.20219314907E+02 -0.21159045541E+02 -0.11241698088E+02  0.31701603736E+02  0.47000000000E+01 0.  1.
<mgrwt>
<rscale>  0 0.12513702E+03</rscale>
<asrwt>0</asrwt>
<pdfrwt beam="2">  1        5 0.15590830E+00 0.12513712E+03</pdfrwt>
<pdfrwt beam="1">  1       -5 0.26091450E-02 0.12513712E+03</pdfrwt>
<totfact> 0.13340947E+02</totfact>
</mgrwt>
</event>
<event>
 8    1  0.3542708E-007  0.1491852E+03  0.7546771E-02  0.1201479E+00
          5   -1    0    0  501    0  0.00000000000E+00  0.00000000000E+00  0.89173419152E+02  0.89297193031E+02  0.47000000000E+01 0. -1.
         -5   -1    0    0    0  501 -0.00000000000E+00 -0.00000000000E+00 -0.30059517487E+03  0.30063191640E+03  0.47000000000E+01 0. -1.
         25    2    1    2    0    0  0.73702997187E+02 -0.34628680031E+02 -0.18626174836E+03  0.23864127799E+03  0.12499977354E+03 0.  0.
         25    2    1    2    0    0 -0.73702997187E+02  0.34628680031E+02 -0.25160007361E+02  0.15128783144E+03  0.12499481867E+03 0.  0.
          5    1    3    3  502    0  0.29947709344E+02 -0.19374999248E+02  0.96666290312E+01  0.37253048300E+02  0.47000000000E+01 0. -1.
         -5    1    3    3    0  502  0.43755287842E+02 -0.15253680782E+02 -0.19592837739E+03  0.20138822969E+03  0.47000000000E+01 0. -1.
          5    1    4    4  503    0 -0.84889978254E+02  0.48570051567E+02  0.22242083021E+02  0.10040995257E+03  0.47000000000E+01 0.  1.
         -5    1    4    4    0  503  0.11186981068E+02 -0.13941371536E+02 -0.47402090383E+02  0.50877878870E+02  0.47000000000E+01 0.  1.
<mgrwt>
<rscale>  0 0.14918415E+03</rscale>
<asrwt>0</asrwt>
<pdfrwt beam="1">  1        5 0.13731335E-01 0.14918519E+03</pdfrwt>
<pdfrwt beam="2">  1       -5 0.46257758E-01 0.14918519E+03</pdfrwt>
<totfact> 0.15281302E+02</totfact>
</mgrwt>
</event>
<event>
 8    1  0.3542708E-007  0.1351455E+03  0.7546771E-02  0.1220015E+00
          5   -1    0    0  501    0  0.00000000000E+00  0.00000000000E+00  0.66029715026E+02  0.66196776858E+02  0.47000000000E+01 0.  1.
         -5   -1    0    0    0  501 -0.00000000000E+00 -0.00000000000E+00 -0.30951004992E+03  0.30954573330E+03  0.47000000000E+01 0.  1.
         25    2    1    2    0    0 -0.40481962710E+02  0.31617428500E+02 -0.18347360180E+03  0.22787470119E+03  0.12500346314E+03 0.  0.
         25    2    1    2    0    0  0.40481962710E+02 -0.31617428500E+02 -0.60006733099E+02  0.14786780896E+03  0.12500251926E+03 0.  0.
          5    1    3    3  502    0  0.12482358685E+02  0.68859466765E+02 -0.99404129161E+02  0.12165815359E+03  0.47000000000E+01 0.  1.
         -5    1    3    3    0  502 -0.52964321395E+02 -0.37242038265E+02 -0.84069472635E+02  0.10621654760E+03  0.47000000000E+01 0.  1.
          5    1    4    4  503    0 -0.37673531609E+02 -0.41412266322E+02 -0.22858646845E+02  0.60653759334E+02  0.47000000000E+01 0.  1.
         -5    1    4    4    0  503  0.78155494318E+02  0.97948378217E+01 -0.37148086254E+02  0.87214049627E+02  0.47000000000E+01 0.  1.
<mgrwt>
<rscale>  0 0.13514532E+03</rscale>
<asrwt>0</asrwt>
<pdfrwt beam="1">  1        5 0.10174014E-01 0.13514554E+03</pdfrwt>
<pdfrwt beam="2">  1       -5 0.47632526E-01 0.13514554E+03</pdfrwt>
<totfact> 0.23654665E+02</totfact>
</mgrwt>
</event>
<event>
 8    1  0.3542708E-007  0.1851553E+03  0.7546771E-02  0.1162905E+00
         -5   -1    0    0    0  501 -0.00000000000E+00  0.00000000000E+00  0.24186535783E+03  0.24191101942E+03  0.47000000000E+01 0. -1.
          5   -1    0    0  501    0  0.00000000000E+00 -0.00000000000E+00 -0.16082102658E+03  0.16088969075E+03  0.47000000000E+01 0. -1.
         25    2    1    2    0    0  0.12107399738E+03  0.63232509301E+02  0.11004718911E+03  0.21539006580E+03  0.12500093416E+03 0.  0.
         25    2    1    2    0    0 -0.12107399738E+03 -0.63232509301E+02 -0.29002857868E+02  0.18741064437E+03  0.12499728312E+03 0.  0.
          5    1    4    4  502    0 -0.12314164130E+03 -0.79118025365E+02 -0.55070146769E+02  0.15645554265E+03  0.47000000000E+01 0.  1.
         -5    1    4    4    0  502  0.20676439284E+01  0.15885516063E+02  0.26067288901E+02  0.30955101723E+02  0.47000000000E+01 0.  1.
          5    1    3    3  503    0 -0.19928168852E+02  0.30318548695E+02  0.61069004138E+01  0.37090841746E+02  0.47000000000E+01 0. -1.
         -5    1    3    3    0  503  0.14100216623E+03  0.32913960606E+02  0.10394028870E+03  0.17829922405E+03  0.47000000000E+01 0. -1.
<mgrwt>
<rscale>  0 0.18515471E+03</rscale>
<asrwt>0</asrwt>
<pdfrwt beam="2">  1        5 0.24750491E-01 0.18515533E+03</pdfrwt>
<pdfrwt beam="1">  1       -5 0.37218849E-01 0.18515533E+03</pdfrwt>
<totfact> 0.85550729E+01</totfact>
</mgrwt>
</event>
<event>
 8    1  0.3542708E-007  0.1566270E+03  0.7546771E-02  0.1192559E+00
         -5   -1    0    0    0  501 -0.00000000000E+00  0.00000000000E+00  0.37676592713E+02  0.37968613860E+02  0.47000000000E+01 0. -1.
          5   -1    0    0  501    0  0.00000000000E+00 -0.00000000000E+00 -0.65093421646E+03  0.65095118416E+03  0.47000000000E+01 0. -1.
         25    2    1    2    0    0  0.59667939763E+02  0.73120147702E+02 -0.28473097614E+03  0.32496731537E+03  0.12500083302E+03 0.  0.
         25    2    1    2    0    0 -0.59667939763E+02 -0.73120147702E+02 -0.32852664762E+03  0.36395248265E+03  0.12499932959E+03 0.  0.
          5    1    4    4  502    0  0.71857221318E+01 -0.87141455193E+02 -0.16851422594E+03  0.18990629837E+03  0.47000000000E+01 0.  1.
         -5    1    4    4    0  502 -0.66853661894E+02  0.14021307491E+02 -0.16001242168E+03  0.17404618428E+03  0.47000000000E+01 0.  1.
          5    1    3    3  503    0 -0.19451888735E+02  0.22938728379E+02 -0.62038323873E+01  0.31066682657E+02  0.47000000000E+01 0. -1.
         -5    1    3    3    0  503  0.79119828498E+02  0.50181419323E+02 -0.27852714375E+03  0.29390063272E+03  0.47000000000E+01 0. -1.
<mgrwt>
<rscale>  0 0.15662673E+03</rscale>
<asrwt>0</asrwt>
<pdfrwt beam="2">  1        5 0.10016749E+00 0.15662703E+03</pdfrwt>
<pdfrwt beam="1">  1       -5 0.58201677E-02 0.15662703E+03</pdfrwt>
<totfact> 0.12074588E+02</totfact>
</mgrwt>
</event>
<event>
 8    1  0.3542708E-007  0.2693341E+03  0.7546771E-02  0.1101662E+00
          5   -1    0    0  501    0  0.00000000000E+00  0.00000000000E+00  0.88989174036E+02  0.89113203823E+02  0.47000000000E+01 0. -1.
         -5   -1    0    0    0  501 -0.00000000000E+00 -0.00000000000E+00 -0.90187639206E+03  0.90188863866E+03  0.47000000000E+01 0. -1.
         25    2    1    2    0    0  0.53282853241E+02 -0.23253568981E+03 -0.56070677347E+03  0.62203596728E+03  0.12499899716E+03 0.  0.
         25    2    1    2    0    0 -0.53282853241E+02  0.23253568981E+03 -0.25218044455E+03  0.36896587521E+03  0.12501572288E+03 0.  0.
          5    1    4    4  502    0 -0.51955746616E+02  0.93567791444E+02 -0.38125148988E+02  0.11370993003E+03  0.47000000000E+01 0. -1.
         -5    1    4    4    0  502 -0.13271066251E+01  0.13896789837E+03 -0.21405529556E+03  0.25525594518E+03  0.47000000000E+01 0. -1.
          5    1    3    3  503    0 -0.23280757839E+00 -0.11946969870E+03 -0.40483311155E+03  0.42211965285E+03  0.47000000000E+01 0. -1.
         -5    1    3    3    0  503  0.53515660819E+02 -0.11306599111E+03 -0.15587366191E+03  0.19991631443E+03  0.47000000000E+01 0. -1.
<mgrwt>
<rscale>  0 0.26933213E+03</rscale>
<asrwt>0</asrwt>
<pdfrwt beam="1">  1        5 0.13701126E-01 0.26933407E+03</pdfrwt>
<pdfrwt beam="2">  1       -5 0.13876069E+00 0.26933407E+03</pdfrwt>
<totfact> 0.13478773E+01</totfact>
</mgrwt>
</event>
<event>
 8    1  0.3542708E-007  0.1291940E+03  0.7546771E-02  0.1228659E+00
         -5   -1    0    0    0  501 -0.00000000000E+00  0.00000000000E+00  0.36658965744E+03  0.36661978526E+03  0.47000000000E+01 0. -1.
          5   -1    0    0  501    0  0.00000000000E+00 -0.00000000000E+00 -0.57965583731E+02  0.58155815679E+02  0.47000000000E+01 0. -1.
         25    2    1    2    0    0  0.24896533481E+02 -0.21104977564E+02  0.25309048253E+03  0.28415821888E+03  0.12500337416E+03 0.  0.
         25    2    1    2    0    0 -0.24896533481E+02  0.21104977564E+02  0.55533591174E+02  0.14061738205E+03  0.12499604365E+03 0.  0.
          5    1    3    3  502    0  0.24219408307E+02  0.40580636192E+02  0.18980212564E+03  0.19565353222E+03  0.47000000000E+01 0. -1.
         -5    1    3    3    0  502  0.67712517361E+00 -0.61685613756E+02  0.63288356890E+02  0.88504686660E+02  0.47000000000E+01 0. -1.
          5    1    4    4  503    0  0.40768918042E+02  0.21639683029E+02  0.58561419258E+02  0.74712183648E+02  0.47000000000E+01 0. -1.
         -5    1    4    4    0  503 -0.65665451523E+02 -0.53470546446E+00 -0.30278280837E+01  0.65905198403E+02  0.47000000000E+01 0. -1.
<mgrwt>
<rscale>  0 0.12919227E+03</rscale>
<asrwt>0</asrwt>
<pdfrwt beam="2">  1        5 0.89347330E-02 0.12919404E+03</pdfrwt>
<pdfrwt beam="1">  1       -5 0.56415358E-01 0.12919404E+03</pdfrwt>
<totfact> 0.20346124E+02</totfact>
</mgrwt>
</event>
<event>
 8    1  0.3542708E-007  0.1333045E+03  0.7546771E-02  0.1222649E+00
          5   -1    0    0  501    0  0.00000000000E+00  0.00000000000E+00  0.61462934098E+02  0.61642373965E+02  0.47000000000E+01 0.  1.
         -5   -1    0    0    0  501 -0.00000000000E+00 -0.00000000000E+00 -0.31390562454E+03  0.31394080831E+03  0.47000000000E+01 0.  1.
         25    2    1    2    0    0 -0.42548400474E+02 -0.18225092088E+02 -0.17971060937E+03  0.22372783942E+03  0.12496288509E+03 0.  0.
         25    2    1    2    0    0  0.42548400474E+02  0.18225092088E+02 -0.72732081079E+02  0.15185534285E+03  0.12501027625E+03 0.  0.
          5    1    3    3  502    0  0.21364794069E+01 -0.65022174033E+02 -0.65878026119E+02  0.92706267240E+02  0.47000000000E+01 0.  1.
         -5    1    3    3    0  502 -0.44684879881E+02  0.46797081945E+02 -0.11383258325E+03  0.13102157218E+03  0.47000000000E+01 0.  1.
          5    1    4    4  503    0  0.41900156801E+02  0.13347482176E+02 -0.10759766632E+03  0.11633196558E+03  0.47000000000E+01 0. -1.
         -5    1    4    4    0  503  0.64824367295E+00  0.48776099118E+01  0.34865585236E+02  0.35523377263E+02  0.47000000000E+01 0. -1.
<mgrwt>
<rscale>  0 0.13329339E+03</rscale>
<asrwt>0</asrwt>
<pdfrwt beam="1">  1        5 0.94723457E-02 0.13330450E+03</pdfrwt>
<pdfrwt beam="2">  1       -5 0.48309682E-01 0.13330450E+03</pdfrwt>
<totfact> 0.25885073E+02</totfact>
</mgrwt>
</event>
<event>
 8    1  0.3542708E-007  0.2057906E+03  0.7546771E-02  0.1144948E+00
          5   -1    0    0  501    0  0.00000000000E+00  0.00000000000E+00  0.74296855410E+03  0.74298341999E+03  0.47000000000E+01 0. -1.
         -5   -1    0    0    0  501 -0.00000000000E+00 -0.00000000000E+00 -0.61298432780E+02  0.61478352786E+02  0.47000000000E+01 0. -1.
         25    2    1    2    0    0  0.16327095775E+03 -0.81445955774E+01  0.23306348266E+03  0.31091533544E+03  0.12500407504E+03 0.  0.
         25    2    1    2    0    0 -0.16327095775E+03  0.81445955774E+01  0.44860663865E+03  0.49354643733E+03  0.12496571322E+03 0.  0.
          5    1    4    4  502    0  0.14073931892E+02 -0.18733139729E+02  0.31969780169E+02  0.39914445093E+02  0.47000000000E+01 0. -1.
         -5    1    4    4    0  502 -0.17734488965E+03  0.26877735307E+02  0.41663685848E+03  0.45363199224E+03  0.47000000000E+01 0. -1.
          5    1    3    3  503    0  0.31691173543E+02 -0.10503354912E+02  0.15328563783E+03  0.15694976174E+03  0.47000000000E+01 0.  1.
         -5    1    3    3    0  503  0.13157978421E+03  0.23587593347E+01  0.79777844836E+02  0.15396557370E+03  0.47000000000E+01 0.  1.
<mgrwt>
<rscale>  0 0.20578475E+03</rscale>
<asrwt>0</asrwt>
<pdfrwt beam="1">  1        5 0.11431784E+00 0.20579057E+03</pdfrwt>
<pdfrwt beam="2">  1       -5 0.94455116E-02 0.20579057E+03</pdfrwt>
<totfact> 0.40868284E+01</totfact>
</mgrwt>
</event>
<event>
 8    1  0.3542708E-007  0.1626060E+03  0.7546771E-02  0.1185787E+00
          5   -1    0    0  501    0  0.00000000000E+00  0.00000000000E+00  0.18564159581E+03  0.18570108264E+03  0.47000000000E+01 0. -1.
         -5   -1    0    0    0  501 -0.00000000000E+00 -0.00000000000E+00 -0.16883492573E+03  0.16890033199E+03  0.47000000000E+01 0. -1.
         25    2    1    2    0    0  0.74892761008E+02  0.72151563039E+02 -0.61852899022E+02  0.17396912440E+03  0.12499880570E+03 0.  0.
         25    2    1    2    0    0 -0.74892761008E+02 -0.72151563039E+02  0.78659569101E+02  0.18063229023E+03  0.12500369099E+03 0.  0.
          5    1    4    4  502    0 -0.43387712118E+02 -0.97225101711E+02  0.88943419324E+02  0.13881007098E+03  0.47000000000E+01 0. -1.
         -5    1    4    4    0  502 -0.31505048890E+02  0.25073538672E+02 -0.10283850223E+02  0.41822219244E+02  0.47000000000E+01 0. -1.
          5    1    3    3  503    0 -0.16928738623E+02  0.39059486152E+02  0.19273486238E+02  0.46965763291E+02  0.47000000000E+01 0.  1.
         -5    1    3    3    0  503  0.91821499631E+02  0.33092076888E+02 -0.81126385260E+02  0.12700336111E+03  0.47000000000E+01 0.  1.
<mgrwt>
<rscale>  0 0.16260502E+03</rscale>
<asrwt>0</asrwt>
<pdfrwt beam="1">  1        5 0.28569853E-01 0.16260595E+03</pdfrwt>
<pdfrwt beam="2">  1       -5 0.25984211E-01 0.16260595E+03</pdfrwt>
<totfact> 0.12704004E+02</totfact>
</mgrwt>
</event>
<event>
 8    1  0.3542708E-007  0.1262210E+03  0.7546771E-02  0.1233184E+00
         -5   -1    0    0    0  501 -0.00000000000E+00  0.00000000000E+00  0.18681779318E+03  0.18687690561E+03  0.47000000000E+01 0. -1.
          5   -1    0    0  501    0  0.00000000000E+00 -0.00000000000E+00 -0.89836780096E+02  0.89959641274E+02  0.47000000000E+01 0. -1.
         25    2    1    2    0    0 -0.10599435590E+02 -0.13647013392E+02  0.80169395333E+02  0.14952885181E+03  0.12503262201E+03 0.  0.
         25    2    1    2    0    0  0.10599435590E+02  0.13647013392E+02  0.16811617754E+02  0.12730769507E+03  0.12500411883E+03 0.  0.
          5    1    4    4  502    0  0.17990706624E+02 -0.31705286097E+02  0.55830048428E+02  0.66842912853E+02  0.47000000000E+01 0. -1.
         -5    1    4    4    0  502 -0.73912710334E+01  0.45352299489E+02 -0.39018430674E+02  0.60464782218E+02  0.47000000000E+01 0. -1.
          5    1    3    3  503    0  0.70449379379E+01 -0.15759325722E+02 -0.31570383201E+02  0.36287278670E+02  0.47000000000E+01 0. -1.
         -5    1    3    3    0  503 -0.17644373528E+02  0.21123123300E+01  0.11173977853E+03  0.11324157314E+03  0.47000000000E+01 0. -1.
<mgrwt>
<rscale>  0 0.12621396E+03</rscale>
<asrwt>0</asrwt>
<pdfrwt beam="2">  1        5 0.13835041E-01 0.12622102E+03</pdfrwt>
<pdfrwt beam="1">  1       -5 0.28755197E-01 0.12622102E+03</pdfrwt>
<totfact> 0.37162202E+02</totfact>
</mgrwt>
</event>
<event>
 8    1  0.3542708E-007  0.1271594E+03  0.7546771E-02  0.1231770E+00
         -5   -1    0    0    0  501 -0.00000000000E+00  0.00000000000E+00  0.54596159030E+02  0.54798089208E+02  0.47000000000E+01 0.  1.
          5   -1    0    0  501    0  0.00000000000E+00 -0.00000000000E+00 -0.29517063454E+03  0.29520805120E+03  0.47000000000E+01 0.  1.
         25    2    1    2    0    0  0.15077051280E+02 -0.17719477050E+02 -0.12001780213E+03  0.17485363652E+03  0.12501289547E+03 0.  0.
         25    2    1    2    0    0 -0.15077051280E+02  0.17719477050E+02 -0.12055667338E+03  0.17515250389E+03  0.12491273266E+03 0.  0.
          5    1    4    4  502    0 -0.35139711654E+02  0.21188357433E+02  0.10357917787E+02  0.42580773674E+02  0.47000000000E+01 0. -1.
         -5    1    4    4    0  502  0.20062660374E+02 -0.34688803832E+01 -0.13091459117E+03  0.13257173022E+03  0.47000000000E+01 0. -1.
          5    1    3    3  503    0 -0.10975319454E+02 -0.28581243309E+02 -0.13775043349E+03  0.14119000330E+03  0.47000000000E+01 0.  1.
         -5    1    3    3    0  503  0.26052370734E+02  0.10861766259E+02  0.17732631353E+02  0.33663633223E+02  0.47000000000E+01 0.  1.
<mgrwt>
<rscale>  0 0.12713481E+03</rscale>
<asrwt>0</asrwt>
<pdfrwt beam="2">  1        5 0.45429277E-01 0.12715943E+03</pdfrwt>
<pdfrwt beam="1">  1       -5 0.84178205E-02 0.12715943E+03</pdfrwt>
<totfact> 0.35490782E+02</totfact>
</mgrwt>
</event>
<event>
 8    1  0.3542708E-007  0.1418016E+03  0.7546771E-02  0.1210937E+00
          5   -1    0    0  501    0  0.00000000000E+00  0.00000000000E+00  0.13549796848E+03  0.13557945811E+03  0.47000000000E+01 0. -1.
         -5   -1    0    0    0  501 -0.00000000000E+00 -0.00000000000E+00 -0.15286017540E+03  0.15293241391E+03  0.47000000000E+01 0. -1.
         25    2    1    2    0    0  0.23150967800E+02  0.62734510737E+02 -0.33866634168E+02  0.14578967671E+03  0.12504437124E+03 0.  0.
         25    2    1    2    0    0 -0.23150967800E+02 -0.62734510737E+02  0.16504427247E+02  0.14272219531E+03  0.12500257105E+03 0.  0.
          5    1    3    3  502    0 -0.48322019027E+01  0.75613650869E+02  0.24379229020E+02  0.79732121385E+02  0.47000000000E+01 0.  1.
         -5    1    3    3    0  502  0.27983169703E+02 -0.12879140132E+02 -0.58245863188E+02  0.66057555326E+02  0.47000000000E+01 0.  1.
          5    1    4    4  503    0 -0.65991281171E+02 -0.39372214392E+02 -0.22353519574E+02  0.80167264479E+02  0.47000000000E+01 0.  1.
         -5    1    4    4    0  503  0.42840313371E+02 -0.23362296345E+02  0.38857946821E+02  0.62554930832E+02  0.47000000000E+01 0.  1.
<mgrwt>
<rscale>  0 0.14179234E+03</rscale>
<asrwt>0</asrwt>
<pdfrwt beam="1">  1        5 0.20857667E-01 0.14180155E+03</pdfrwt>
<pdfrwt beam="2">  1       -5 0.23528775E-01 0.14180155E+03</pdfrwt>
<totfact> 0.26842186E+02</totfact>
</mgrwt>
</event>
<event>
 8    1  0.3542708E-007  0.1524152E+03  0.7546771E-02  0.1197538E+00
         -5   -1    0    0    0  501 -0.00000000000E+00  0.00000000000E+00  0.84041176473E+02  0.84172497545E+02  0.47000000000E+01 0.  1.
          5   -1    0    0  501    0  0.00000000000E+00 -0.00000000000E+00 -0.28943723272E+03  0.28947539047E+03  0.47000000000E+01 0.  1.
         25    2    1    2    0    0 -0.77698938997E+02 -0.39581442851E+02 -0.62515615814E+02  0.16473353407E+03  0.12500047714E+03 0.  0.
         25    2    1    2    0    0  0.77698938997E+02  0.39581442851E+02 -0.14288044043E+03  0.20891435394E+03  0.12500628499E+03 0.  0.
          5    1    4    4  502    0 -0.14764233468E+02  0.49528398374E+02 -0.22094578530E+02  0.56403060518E+02  0.47000000000E+01 0.  1.
         -5    1    4    4    0  502  0.92463172465E+02 -0.99469555228E+01 -0.12078586190E+03  0.15251129343E+03  0.47000000000E+01 0.  1.
          5    1    3    3  503    0  0.22081598270E+02 -0.60836548955E+01 -0.54223120732E+02  0.59049510252E+02  0.47000000000E+01 0.  1.
         -5    1    3    3    0  503 -0.99780537266E+02 -0.33497787956E+02 -0.82924950820E+01  0.10568402382E+03  0.47000000000E+01 0.  1.
<mgrwt>
<rscale>  0 0.15241399E+03</rscale>
<asrwt>0</asrwt>
<pdfrwt beam="2">  1        5 0.44541841E-01 0.15241518E+03</pdfrwt>
<pdfrwt beam="1">  1       -5 0.12942449E-01 0.15241518E+03</pdfrwt>
<totfact> 0.18516992E+02</totfact>
</mgrwt>
</event>
<event>
 8    1  0.3542708E-007  0.1461078E+03  0.7546771E-02  0.1205347E+00
          5   -1    0    0  501    0  0.00000000000E+00  0.00000000000E+00  0.53843805541E+02  0.54048546652E+02  0.47000000000E+01 0. -1.
         -5   -1    0    0    0  501 -0.00000000000E+00 -0.00000000000E+00 -0.40305066397E+03  0.40307806654E+03  0.47000000000E+01 0. -1.
         25    2    1    2    0    0  0.66422950628E+02 -0.36119182743E+02 -0.14320741292E+03  0.20458699572E+03  0.12502348568E+03 0.  0.
         25    2    1    2    0    0 -0.66422950628E+02  0.36119182743E+02 -0.20599944551E+03  0.25253961747E+03  0.12499553236E+03 0.  0.
          5    1    3    3  502    0  0.79023914168E+02 -0.26103579640E+01 -0.28251886945E+02  0.84094304772E+02  0.47000000000E+01 0. -1.
         -5    1    3    3    0  502 -0.12600963540E+02 -0.33508824779E+02 -0.11495552597E+03  0.12049269095E+03  0.47000000000E+01 0. -1.
          5    1    4    4  503    0  0.95205386147E+01 -0.14314321884E+02 -0.13688767282E+03  0.13804298402E+03  0.47000000000E+01 0. -1.
         -5    1    4    4    0  503 -0.75943489243E+02  0.50433504627E+02 -0.69111772685E+02  0.11449663345E+03  0.47000000000E+01 0. -1.
<mgrwt>
<rscale>  0 0.14610177E+03</rscale>
<asrwt>0</asrwt>
<pdfrwt beam="1">  1        5 0.83015199E-02 0.14610775E+03</pdfrwt>
<pdfrwt beam="2">  1       -5 0.62025650E-01 0.14610775E+03</pdfrwt>
<totfact> 0.19573778E+02</totfact>
</mgrwt>
</event>
<event>
 8    1  0.3542708E-007  0.1608710E+03  0.7546771E-02  0.1187718E+00
         -5   -1    0    0    0  501 -0.00000000000E+00  0.00000000000E+00  0.50849261406E+02  0.51066010080E+02  0.47000000000E+01 0. -1.
          5   -1    0    0  501    0  0.00000000000E+00 -0.00000000000E+00 -0.51140017814E+03  0.51142177525E+03  0.47000000000E+01 0. -1.
         25    2    1    2    0    0 -0.53791605296E+02 -0.85790290754E+02 -0.20611215999E+03  0.26145863437E+03  0.12499953682E+03 0.  0.
         25    2    1    2    0    0  0.53791605296E+02  0.85790290754E+02 -0.25443875674E+03  0.30102915096E+03  0.12500383196E+03 0.  0.
          5    1    3    3  502    0 -0.12983990732E+02  0.65672558204E+01  0.13054689408E+02  0.20105416680E+02  0.47000000000E+01 0. -1.
         -5    1    3    3    0  502 -0.40807614564E+02 -0.92357546574E+02 -0.21916684940E+03  0.24135321769E+03  0.47000000000E+01 0. -1.
          5    1    4    4  503    0  0.92148139238E+02  0.78393437816E+02 -0.18195828389E+03  0.21855827080E+03  0.47000000000E+01 0. -1.
         -5    1    4    4    0  503 -0.38356533942E+02  0.73968529380E+01 -0.72480472856E+02  0.82470880163E+02  0.47000000000E+01 0. -1.
<mgrwt>
<rscale>  0 0.16087014E+03</rscale>
<asrwt>0</asrwt>
<pdfrwt beam="2">  1        5 0.78695281E-01 0.16087097E+03</pdfrwt>
<pdfrwt beam="1">  1       -5 0.78412980E-02 0.16087097E+03</pdfrwt>
<totfact> 0.13010745E+02</totfact>
</mgrwt>
</event>
<event>
 8    1  0.3542708E-007  0.1594233E+03  0.7546771E-02  0.1189351E+00
          5   -1    0    0  501    0  0.00000000000E+00  0.00000000000E+00  0.22175314589E+03  0.22180294793E+03  0.47000000000E+01 0. -1.
         -5   -1    0    0    0  501 -0.00000000000E+00 -0.00000000000E+00 -0.12140945726E+03  0.12150039635E+03  0.47000000000E+01 0. -1.
         25    2    1    2    0    0  0.65990251163E+02  0.73727311995E+02  0.92426961537E+01  0.15968643449E+03  0.12499560051E+03 0.  0.
         25    2    1    2    0    0 -0.65990251163E+02 -0.73727311995E+02  0.91100992477E+02  0.18361690979E+03  0.12500139578E+03 0.  0.
          5    1    4    4  502    0 -0.80959755541E+02 -0.13092478960E+02  0.12465068645E+02  0.83086478797E+02  0.47000000000E+01 0. -1.
         -5    1    4    4    0  502  0.14969504378E+02 -0.60634833035E+02  0.78635923832E+02  0.10053043099E+03  0.47000000000E+01 0. -1.
          5    1    3    3  503    0  0.62243673767E+02 -0.19207437522E+02  0.12526463055E+02  0.66499645540E+02  0.47000000000E+01 0. -1.
         -5    1    3    3    0  503  0.37465773962E+01  0.92934749517E+02 -0.32837669015E+01  0.93186788952E+02  0.47000000000E+01 0. -1.
<mgrwt>
<rscale>  0 0.15942213E+03</rscale>
<asrwt>0</asrwt>
<pdfrwt beam="1">  1        5 0.34126694E-01 0.15942327E+03</pdfrwt>
<pdfrwt beam="2">  1       -5 0.18689205E-01 0.15942327E+03</pdfrwt>
<totfact> 0.16577122E+02</totfact>
</mgrwt>
</event>
<event>
 8    1  0.3542708E-007  0.1290042E+03  0.7546771E-02  0.1228942E+00
          5   -1    0    0  501    0  0.00000000000E+00  0.00000000000E+00  0.14181033464E+02  0.14939602074E+02  0.47000000000E+01 0.  1.
         -5   -1    0    0    0  501 -0.00000000000E+00 -0.00000000000E+00 -0.18805600281E+04  0.18805659013E+04  0.47000000000E+01 0.  1.
         25    2    1    2    0    0 -0.10337290321E+02  0.30163338267E+02 -0.15269305051E+04  0.15323700548E+04  0.12499812388E+03 0.  0.
         25    2    1    2    0    0  0.10337290321E+02 -0.30163338267E+02 -0.33944848948E+03  0.36313544854E+03  0.12500156169E+03 0.  0.
          5    1    4    4  502    0 -0.38326508850E+02 -0.51367389347E+02 -0.25739402998E+03  0.26529475426E+03  0.47000000000E+01 0.  1.
         -5    1    4    4    0  502  0.48663799171E+02  0.21204051080E+02 -0.82054459498E+02  0.97840694272E+02  0.47000000000E+01 0.  1.
          5    1    3    3  503    0 -0.28764796915E+02 -0.33017573330E+01 -0.84871139623E+02  0.89797079484E+02  0.47000000000E+01 0. -1.
         -5    1    3    3    0  503  0.18427506594E+02  0.33465095600E+02 -0.14420593655E+04  0.14425729753E+04  0.47000000000E+01 0. -1.
<mgrwt>
<rscale>  0 0.12900334E+03</rscale>
<asrwt>0</asrwt>
<pdfrwt beam="1">  1        5 0.22405022E-02 0.12900417E+03</pdfrwt>
<pdfrwt beam="2">  1       -5 0.28937554E+00 0.12900417E+03</pdfrwt>
<totfact> 0.22294994E+01</totfact>
</mgrwt>
</event>
<event>
 8    1  0.3542708E-007  0.1916512E+03  0.7546771E-02  0.1156982E+00
          5   -1    0    0  501    0  0.00000000000E+00  0.00000000000E+00  0.75630470074E+02  0.75776368371E+02  0.47000000000E+01 0. -1.
         -5   -1    0    0    0  501 -0.00000000000E+00 -0.00000000000E+00 -0.63496090642E+03  0.63497830096E+03  0.47000000000E+01 0. -1.
         25    2    1    2    0    0 -0.14503019932E+03 -0.83347379551E+01 -0.45233653168E+03  0.49126007999E+03  0.12499960693E+03 0.  0.
         25    2    1    2    0    0  0.14503019932E+03  0.83347379551E+01 -0.10699390467E+03  0.21949458933E+03  0.12500780991E+03 0.  0.
          5    1    4    4  502    0  0.59275441677E+02 -0.57041687486E+02 -0.33683947770E+02  0.89017023286E+02  0.47000000000E+01 0. -1.
         -5    1    4    4    0  502  0.85754757640E+02  0.65376425441E+02 -0.73309956901E+02  0.13047756605E+03  0.47000000000E+01 0. -1.
          5    1    3    3  503    0 -0.26635657221E+02 -0.27858100175E+01 -0.39822926596E+01  0.27480313460E+02  0.47000000000E+01 0. -1.
         -5    1    3    3    0  503 -0.11839454210E+03 -0.55489279376E+01 -0.44835423902E+03  0.46377976653E+03  0.47000000000E+01 0. -1.
<mgrwt>
<rscale>  0 0.19164985E+03</rscale>
<asrwt>0</asrwt>
<pdfrwt beam="1">  1        5 0.11648018E-01 0.19165119E+03</pdfrwt>
<pdfrwt beam="2">  1       -5 0.97698851E-01 0.19165119E+03</pdfrwt>
<totfact> 0.41005482E+01</totfact>
</mgrwt>
</event>
<event>
 8    1  0.3542708E-007  0.1291610E+03  0.7546771E-02  0.1228709E+00
          5   -1    0    0  501    0  0.00000000000E+00  0.00000000000E+00  0.10592232872E+02  0.11588157628E+02  0.47000000000E+01 0. -1.
         -5   -1    0    0    0  501 -0.00000000000E+00 -0.00000000000E+00 -0.16149147931E+04  0.16149216325E+04  0.47000000000E+01 0. -1.
         25    2    1    2    0    0  0.29359367935E+02 -0.13995731557E+02 -0.10159992981E+04  0.10241753213E+04  0.12499064705E+03 0.  0.
         25    2    1    2    0    0 -0.29359367935E+02  0.13995731557E+02 -0.58832326211E+03  0.60233446885E+03  0.12499879457E+03 0.  0.
          5    1    3    3  502    0  0.75618711415E+02 -0.24406111544E+02 -0.71673789995E+03  0.72114433716E+03  0.47000000000E+01 0. -1.
         -5    1    3    3    0  502 -0.46259343480E+02  0.10410379987E+02 -0.29926139819E+03  0.30303098409E+03  0.47000000000E+01 0. -1.
          5    1    4    4  503    0 -0.74358609576E+02  0.29539996812E+02 -0.32788752790E+03  0.33754130885E+03  0.47000000000E+01 0.  1.
         -5    1    4    4    0  503  0.44999241641E+02 -0.15544265254E+02 -0.26043573421E+03  0.26479316001E+03  0.47000000000E+01 0.  1.
<mgrwt>
<rscale>  0 0.12915898E+03</rscale>
<asrwt>0</asrwt>
<pdfrwt beam="1">  1        5 0.17067113E-02 0.12916095E+03</pdfrwt>
<pdfrwt beam="2">  1       -5 0.24852538E+00 0.12916095E+03</pdfrwt>
<totfact> 0.61928071E+01</totfact>
</mgrwt>
</event>
<event>
 8    1  0.3542708E-007  0.1404836E+03  0.7546771E-02  0.1212680E+00
          5   -1    0    0  501    0  0.00000000000E+00  0.00000000000E+00  0.10125958133E+04  0.10126067208E+04  0.47000000000E+01 0.  1.
         -5   -1    0    0    0  501 -0.00000000000E+00 -0.00000000000E+00 -0.29404659870E+02  0.29777911647E+02  0.47000000000E+01 0.  1.
         25    2    1    2    0    0  0.63331570246E+02  0.99638765513E+01  0.18697349400E+03  0.23386858282E+03  0.12500103977E+03 0.  0.
         25    2    1    2    0    0 -0.63331570246E+02 -0.99638765513E+01  0.79621765939E+03  0.80851604964E+03  0.12500189910E+03 0.  0.
          5    1    3    3  502    0  0.85861700822E+02  0.27005874588E+02  0.71932372841E+02  0.11531654345E+03  0.47000000000E+01 0.  1.
         -5    1    3    3    0  502 -0.22530130576E+02 -0.17041998037E+02  0.11504112116E+03  0.11855203937E+03  0.47000000000E+01 0.  1.
          5    1    4    4  503    0  0.41539986897E+01  0.46125901190E+02  0.39825858416E+03  0.40096987957E+03  0.47000000000E+01 0.  1.
         -5    1    4    4    0  503 -0.67485568936E+02 -0.56089777741E+02  0.39795907523E+03  0.40754617007E+03  0.47000000000E+01 0.  1.
<mgrwt>
<rscale>  0 0.14048341E+03</rscale>
<asrwt>0</asrwt>
<pdfrwt beam="1">  1        5 0.15581349E+00 0.14048360E+03</pdfrwt>
<pdfrwt beam="2">  1       -5 0.45533456E-02 0.14048360E+03</pdfrwt>
<totfact> 0.56044506E+01</totfact>
</mgrwt>
</event>
<event>
 8    1  0.3542708E-007  0.1323553E+03  0.7546771E-02  0.1224004E+00
          5   -1    0    0  501    0  0.00000000000E+00  0.00000000000E+00  0.15583189262E+03  0.15590275417E+03  0.47000000000E+01 0.  1.
         -5   -1    0    0    0  501 -0.00000000000E+00 -0.00000000000E+00 -0.11285127040E+03  0.11294910018E+03  0.47000000000E+01 0.  1.
         25    2    1    2    0    0 -0.42589934223E+02 -0.89927334198E+01  0.11822945633E+02  0.13287862265E+03  0.12498869773E+03 0.  0.
         25    2    1    2    0    0  0.42589934223E+02  0.89927334198E+01  0.31157676590E+02  0.13597323171E+03  0.12499258849E+03 0.  0.
          5    1    4    4  502    0  0.71864936241E+02 -0.34326093152E+02  0.21109187965E+02  0.82525981052E+02  0.47000000000E+01 0.  1.
         -5    1    4    4    0  502 -0.29275002018E+02  0.43318826572E+02  0.10048488626E+02  0.53447250653E+02  0.47000000000E+01 0.  1.
          5    1    3    3  503    0  0.37213437432E+02 -0.70401302408E+01  0.32673007119E+02  0.50239613389E+02  0.47000000000E+01 0.  1.
         -5    1    3    3    0  503 -0.79803371656E+02 -0.19526031790E+01 -0.20850061486E+02  0.82639009256E+02  0.47000000000E+01 0.  1.
<mgrwt>
<rscale>  0 0.13235436E+03</rscale>
<asrwt>0</asrwt>
<pdfrwt beam="1">  1        5 0.23987114E-01 0.13235528E+03</pdfrwt>
<pdfrwt beam="2">  1       -5 0.17374710E-01 0.13235528E+03</pdfrwt>
<totfact> 0.35467840E+02</totfact>
</mgrwt>
</event>
<event>
 8    1  0.3542708E-007  0.1383736E+03  0.7546771E-02  0.1215535E+00
          5   -1    0    0  501    0  0.00000000000E+00  0.00000000000E+00  0.34788758981E+03  0.34791933713E+03  0.47000000000E+01 0. -1.
         -5   -1    0    0    0  501 -0.00000000000E+00 -0.00000000000E+00 -0.58100700971E+02  0.58290491963E+02  0.47000000000E+01 0. -1.
         25    2    1    2    0    0  0.21350057108E+02  0.55372229843E+02  0.97337276064E+02  0.16917979392E+03  0.12500139433E+03 0.  0.
         25    2    1    2    0    0 -0.21350057108E+02 -0.55372229843E+02  0.19244961278E+03  0.23703003517E+03  0.12499790132E+03 0.  0.
          5    1    3    3  502    0  0.42040037646E+02  0.72545640687E+02  0.11056970772E+03  0.13884518362E+03  0.47000000000E+01 0.  1.
         -5    1    3    3    0  502 -0.20689980538E+02 -0.17173410844E+02 -0.13232431661E+02  0.30334610305E+02  0.47000000000E+01 0.  1.
          5    1    4    4  503    0 -0.56335429106E+02 -0.15826775232E+01  0.33928419158E+02  0.65950080116E+02  0.47000000000E+01 0. -1.
         -5    1    4    4    0  503  0.34985371998E+02 -0.53789552320E+02  0.15852119362E+03  0.17107995505E+03  0.47000000000E+01 0. -1.
<mgrwt>
<rscale>  0 0.13837283E+03</rscale>
<asrwt>0</asrwt>
<pdfrwt beam="1">  1        5 0.53538209E-01 0.13837362E+03</pdfrwt>
<pdfrwt beam="2">  1       -5 0.89556107E-02 0.13837362E+03</pdfrwt>
<totfact> 0.23223222E+02</totfact>
</mgrwt>
</event>
<event>
 8    1  0.3542708E-007  0.1702654E+03  0.7546771E-02  0.1177575E+00
         -5   -1    0    0    0  501 -0.00000000000E+00  0.00000000000E+00  0.27318471868E+03  0.27322514621E+03  0.47000000000E+01 0.  1.
          5   -1    0    0  501    0  0.00000000000E+00 -0.00000000000E+00 -0.10604333230E+03  0.10614743673E+03  0.47000000000E+01 0.  1.
         25    2    1    2    0    0  0.42062000929E+02  0.10768724123E+03  0.80273338939E+02  0.18822773956E+03  0.12498047508E+03 0.  0.
         25    2    1    2    0    0 -0.42062000929E+02 -0.10768724123E+03  0.86868047446E+02  0.19114484339E+03  0.12499815855E+03 0.  0.
          5    1    4    4  502    0  0.38172431628E+02 -0.71419633934E+02  0.31453213563E+02  0.87001685565E+02  0.47000000000E+01 0. -1.
         -5    1    4    4    0  502 -0.80234432557E+02 -0.36267607293E+02  0.55414833883E+02  0.10414315782E+03  0.47000000000E+01 0. -1.
          5    1    3    3  503    0 -0.21369351887E+02 -0.13635920405E+02 -0.58260730115E+01  0.26431433032E+02  0.47000000000E+01 0. -1.
         -5    1    3    3    0  503  0.63431352816E+02  0.12132316163E+03  0.86099411950E+02  0.16179630653E+03  0.47000000000E+01 0. -1.
<mgrwt>
<rscale>  0 0.17026212E+03</rscale>
<asrwt>0</asrwt>
<pdfrwt beam="2">  1        5 0.16325477E-01 0.17026536E+03</pdfrwt>
<pdfrwt beam="1">  1       -5 0.42039535E-01 0.17026536E+03</pdfrwt>
<totfact> 0.14196451E+02</totfact>
</mgrwt>
</event>
<event>
 8    1  0.3542708E-007  0.1345891E+03  0.7546771E-02  0.1220804E+00
          5   -1    0    0  501    0  0.00000000000E+00  0.00000000000E+00  0.57703992582E+03  0.57705906629E+03  0.47000000000E+01 0. -1.
         -5   -1    0    0    0  501 -0.00000000000E+00 -0.00000000000E+00 -0.31440391092E+02  0.31789749795E+02  0.47000000000E+01 0. -1.
         25    2    1    2    0    0 -0.49574722632E+02 -0.54362168569E+01  0.29958907914E+03  0.32843241659E+03  0.12500812114E+03 0.  0.
         25    2    1    2    0    0  0.49574722632E+02  0.54362168569E+01  0.24601045559E+03  0.28041639950E+03  0.12500002908E+03 0.  0.
          5    1    4    4  502    0  0.48339884369E+01  0.59037313405E+02  0.15214402274E+03  0.16333605075E+03  0.47000000000E+01 0.  1.
         -5    1    4    4    0  502  0.44740734195E+02 -0.53601096548E+02  0.93866432853E+02  0.11708034875E+03  0.47000000000E+01 0.  1.
          5    1    3    3  503    0 -0.38527244481E+02  0.44588932202E+02  0.63314146232E+02  0.86621547870E+02  0.47000000000E+01 0. -1.
         -5    1    3    3    0  503 -0.11047478150E+02 -0.50025149059E+02  0.23627493290E+03  0.24181086872E+03  0.47000000000E+01 0. -1.
<mgrwt>
<rscale>  0 0.13458726E+03</rscale>
<asrwt>0</asrwt>
<pdfrwt beam="1">  1        5 0.88803713E-01 0.13458914E+03</pdfrwt>
<pdfrwt beam="2">  1       -5 0.48653297E-02 0.13458914E+03</pdfrwt>
<totfact> 0.20704520E+02</totfact>
</mgrwt>
</event>
<event>
 8    1  0.3542708E-007  0.1292212E+03  0.7546771E-02  0.1228616E+00
         -5   -1    0    0    0  501 -0.00000000000E+00  0.00000000000E+00  0.11350262441E+03  0.11359989326E+03  0.47000000000E+01 0. -1.
          5   -1    0    0  501    0  0.00000000000E+00 -0.00000000000E+00 -0.14736953573E+03  0.14744446433E+03  0.47000000000E+01 0. -1.
         25    2    1    2    0    0  0.40636475078E+01 -0.32492362163E+02 -0.97068378952E+01  0.12958525799E+03  0.12500339818E+03 0.  0.
         25    2    1    2    0    0 -0.40636475078E+01  0.32492362163E+02 -0.24160073427E+02  0.13145909960E+03  0.12500207554E+03 0.  0.
          5    1    3    3  502    0  0.14977726819E+02 -0.76299651729E+02 -0.24801708629E+02  0.81750742538E+02  0.47000000000E+01 0.  1.
         -5    1    3    3    0  502 -0.10914079311E+02  0.43807289565E+02  0.15094870734E+02  0.47834515454E+02  0.47000000000E+01 0.  1.
          5    1    4    4  503    0  0.58201627830E+02 -0.91256488755E+00 -0.11518637681E+02  0.59523367435E+02  0.47000000000E+01 0.  1.
         -5    1    4    4    0  503 -0.62265275338E+02  0.33404927051E+02 -0.12641435745E+02  0.71935732163E+02  0.47000000000E+01 0.  1.
<mgrwt>
<rscale>  0 0.12922087E+03</rscale>
<asrwt>0</asrwt>
<pdfrwt beam="2">  1        5 0.22685482E-01 0.12922119E+03</pdfrwt>
<pdfrwt beam="1">  1       -5 0.17475188E-01 0.12922119E+03</pdfrwt>
<totfact> 0.38672389E+02</totfact>
</mgrwt>
</event>
<event>
 8    1  0.3542708E-007  0.1583642E+03  0.7546771E-02  0.1190561E+00
         -5   -1    0    0    0  501 -0.00000000000E+00  0.00000000000E+00  0.13284468413E+03  0.13292780033E+03  0.47000000000E+01 0.  1.
          5   -1    0    0  501    0  0.00000000000E+00 -0.00000000000E+00 -0.19350913337E+03  0.19356620236E+03  0.47000000000E+01 0.  1.
         25    2    1    2    0    0  0.49983219997E+02  0.83389008121E+02 -0.43212543320E+01  0.15840537100E+03  0.12498615670E+03 0.  0.
         25    2    1    2    0    0 -0.49983219997E+02 -0.83389008121E+02 -0.56343194904E+02  0.16808863170E+03  0.12500873384E+03 0.  0.
          5    1    3    3  502    0  0.68044183482E+02  0.10700158422E+03 -0.11660965317E+02  0.12742612779E+03  0.47000000000E+01 0.  1.
         -5    1    3    3    0  502 -0.18060963485E+02 -0.23612576103E+02  0.73397109848E+01  0.30979243205E+02  0.47000000000E+01 0.  1.
          5    1    4    4  503    0 -0.29461662942E+02 -0.24037034989E+02 -0.89183666740E+02  0.97064849702E+02  0.47000000000E+01 0.  1.
         -5    1    4    4    0  503 -0.20521557054E+02 -0.59351973131E+02  0.32840471836E+02  0.71023781995E+02  0.47000000000E+01 0.  1.
<mgrwt>
<rscale>  0 0.15835978E+03</rscale>
<asrwt>0</asrwt>
<pdfrwt beam="2">  1        5 0.29781419E-01 0.15836424E+03</pdfrwt>
<pdfrwt beam="1">  1       -5 0.20448427E-01 0.15836424E+03</pdfrwt>
<totfact> 0.18323133E+02</totfact>
</mgrwt>
</event>
<event>
 8    1  0.3542708E-007  0.1332748E+03  0.7546771E-02  0.1222676E+00
          5   -1    0    0  501    0  0.00000000000E+00  0.00000000000E+00  0.67489344024E+02  0.67652801545E+02  0.47000000000E+01 0.  1.
         -5   -1    0    0    0  501 -0.00000000000E+00 -0.00000000000E+00 -0.32181072651E+03  0.32184504609E+03  0.47000000000E+01 0.  1.
         25    2    1    2    0    0 -0.12488357693E+02  0.44506895326E+02 -0.21061424893E+03  0.24923920646E+03  0.12499998949E+03 0.  0.
         25    2    1    2    0    0  0.12488357693E+02 -0.44506895326E+02 -0.43707133551E+02  0.14025864118E+03  0.12500140036E+03 0.  0.
          5    1    3    3  502    0 -0.42008204055E+02  0.73576910391E+02 -0.10071576728E+03  0.13169664661E+03  0.47000000000E+01 0.  1.
         -5    1    3    3    0  502  0.29519846362E+02 -0.29070015066E+02 -0.10989848165E+03  0.11754255985E+03  0.47000000000E+01 0.  1.
          5    1    4    4  503    0  0.34782386776E+02 -0.77453620204E+02 -0.60013878764E+01  0.85246609135E+02  0.47000000000E+01 0. -1.
         -5    1    4    4    0  503 -0.22294029083E+02  0.32946724878E+02 -0.37705745674E+02  0.55012032046E+02  0.47000000000E+01 0. -1.
<mgrwt>
<rscale>  0 0.13327447E+03</rscale>
<asrwt>0</asrwt>
<pdfrwt beam="1">  1        5 0.10398190E-01 0.13327480E+03</pdfrwt>
<pdfrwt beam="2">  1       -5 0.49524555E-01 0.13327480E+03</pdfrwt>
<totfact> 0.20876486E+02</totfact>
</mgrwt>
</event>
<event>
 8    1  0.3542708E-007  0.1346670E+03  0.7546771E-02  0.1220691E+00
          5   -1    0    0  501    0  0.00000000000E+00  0.00000000000E+00  0.92207968562E+02  0.92327674433E+02  0.47000000000E+01 0. -1.
         -5   -1    0    0    0  501 -0.00000000000E+00 -0.00000000000E+00 -0.21655629124E+03  0.21660728814E+03  0.47000000000E+01 0. -1.
         25    2    1    2    0    0  0.48391217826E+02  0.13010236782E+02 -0.10928217108E+03  0.17342779442E+03  0.12499452283E+03 0.  0.
         25    2    1    2    0    0 -0.48391217826E+02 -0.13010236782E+02 -0.15066151604E+02  0.13550716816E+03  0.12499690986E+03 0.  0.
          5    1    3    3  502    0  0.71375075573E+02  0.37992570656E+02 -0.11292141166E+03  0.13896464316E+03  0.47000000000E+01 0. -1.
         -5    1    3    3    0  502 -0.22983857747E+02 -0.24982333874E+02  0.36392405813E+01  0.34463151259E+02  0.47000000000E+01 0. -1.
          5    1    4    4  503    0  0.30076860377E+02 -0.26698417457E+02 -0.34711297413E+02  0.53332796597E+02  0.47000000000E+01 0. -1.
         -5    1    4    4    0  503 -0.78468078204E+02  0.13688180675E+02  0.19645145809E+02  0.82174371558E+02  0.47000000000E+01 0. -1.
<mgrwt>
<rscale>  0 0.13466646E+03</rscale>
<asrwt>0</asrwt>
<pdfrwt beam="1">  1        5 0.14198972E-01 0.13466701E+03</pdfrwt>
<pdfrwt beam="2">  1       -5 0.33329483E-01 0.13466701E+03</pdfrwt>
<totfact> 0.27149457E+02</totfact>
</mgrwt>
</event>
<event>
 8    1  0.3542708E-007  0.1284567E+03  0.7546771E-02  0.1229775E+00
         -5   -1    0    0    0  501 -0.00000000000E+00  0.00000000000E+00  0.17900642845E+02  0.18507377293E+02  0.47000000000E+01 0.  1.
          5   -1    0    0  501    0  0.00000000000E+00 -0.00000000000E+00 -0.91116800113E+03  0.91118012285E+03  0.47000000000E+01 0.  1.
         25    2    1    2    0    0 -0.29527235281E+02 -0.23000000088E+01 -0.48292974080E+03  0.49972219083E+03  0.12499594324E+03 0.  0.
         25    2    1    2    0    0  0.29527235281E+02  0.23000000088E+01 -0.41033761748E+03  0.42996530932E+03  0.12496423199E+03 0.  0.
          5    1    3    3  502    0  0.46896258453E+02  0.35519682163E+01 -0.12476035060E+03  0.13341330750E+03  0.47000000000E+01 0. -1.
         -5    1    3    3    0  502 -0.76423493735E+02 -0.58519682251E+01 -0.35816939020E+03  0.36630888333E+03  0.47000000000E+01 0. -1.
          5    1    4    4  503    0 -0.48202791396E+02 -0.40847848805E+01 -0.12479046288E+03  0.13392141051E+03  0.47000000000E+01 0. -1.
         -5    1    4    4    0  503  0.77730026678E+02  0.63847848893E+01 -0.28554715460E+03  0.29604389881E+03  0.47000000000E+01 0. -1.
<mgrwt>
<rscale>  0 0.12844902E+03</rscale>
<asrwt>0</asrwt>
<pdfrwt beam="2">  1        5 0.14022726E+00 0.12845674E+03</pdfrwt>
<pdfrwt beam="1">  1       -5 0.28015501E-02 0.12845674E+03</pdfrwt>
<totfact> 0.16001610E+02</totfact>
</mgrwt>
</event>
<event>
 8    1  0.3542708E-007  0.1280776E+03  0.7546771E-02  0.1230336E+00
          5   -1    0    0  501    0  0.00000000000E+00  0.00000000000E+00  0.60877306220E+03  0.60879120498E+03  0.47000000000E+01 0.  1.
         -5   -1    0    0    0  501 -0.00000000000E+00 -0.00000000000E+00 -0.28240953428E+02  0.28629380897E+02  0.47000000000E+01 0.  1.
         25    2    1    2    0    0  0.25513373798E+02  0.11291565357E+02  0.21689546688E+03  0.25188789365E+03  0.12500174289E+03 0.  0.
         25    2    1    2    0    0 -0.25513373798E+02 -0.11291565357E+02  0.36363664189E+03  0.38553269222E+03  0.12500167101E+03 0.  0.
          5    1    4    4  502    0 -0.13480670693E+02  0.21553848127E+02  0.65019849059E+01  0.26658256866E+02  0.47000000000E+01 0.  1.
         -5    1    4    4    0  502 -0.12032703105E+02 -0.32845413484E+02  0.35713465699E+03  0.35887443536E+03  0.47000000000E+01 0.  1.
          5    1    3    3  503    0 -0.45889864455E+02 -0.18775834182E+02  0.72601083346E+02  0.88042142817E+02  0.47000000000E+01 0. -1.
         -5    1    3    3    0  503  0.71403238253E+02  0.30067399539E+02  0.14429438353E+03  0.16384575084E+03  0.47000000000E+01 0. -1.
<mgrwt>
<rscale>  0 0.12807757E+03</rscale>
<asrwt>0</asrwt>
<pdfrwt beam="1">  1        5 0.93688673E-01 0.12807758E+03</pdfrwt>
<pdfrwt beam="2">  1       -5 0.43760365E-02 0.12807758E+03</pdfrwt>
<totfact> 0.21348913E+02</totfact>
</mgrwt>
</event>
<event>
 8    1  0.3542708E-007  0.1338629E+03  0.7546771E-02  0.1221834E+00
         -5   -1    0    0    0  501 -0.00000000000E+00  0.00000000000E+00  0.26285889021E+03  0.26290090560E+03  0.47000000000E+01 0.  1.
          5   -1    0    0  501    0  0.00000000000E+00 -0.00000000000E+00 -0.68221104541E+02  0.68382812934E+02  0.47000000000E+01 0.  1.
         25    2    1    2    0    0  0.61943380452E+01 -0.47495786128E+02  0.88829390850E+02  0.16065471205E+03  0.12500022521E+03 0.  0.
         25    2    1    2    0    0 -0.61943380452E+01  0.47495786128E+02  0.10580839482E+03  0.17062900648E+03  0.12499848764E+03 0.  0.
          5    1    3    3  502    0 -0.48034806656E+02 -0.21654170069E+01  0.16715457430E+01  0.48341656430E+02  0.47000000000E+01 0. -1.
         -5    1    3    3    0  502  0.54229144701E+02 -0.45330369121E+02  0.87157845107E+02  0.11231305562E+03  0.47000000000E+01 0. -1.
          5    1    4    4  503    0 -0.60607026121E+02  0.21452185099E+02  0.84924659915E+02  0.10661939656E+03  0.47000000000E+01 0. -1.
         -5    1    4    4    0  503  0.54412688076E+02  0.26043601029E+02  0.20883734905E+02  0.64009609918E+02  0.47000000000E+01 0. -1.
<mgrwt>
<rscale>  0 0.13386249E+03</rscale>
<asrwt>0</asrwt>
<pdfrwt beam="2">  1        5 0.10511226E-01 0.13386290E+03</pdfrwt>
<pdfrwt beam="1">  1       -5 0.40455500E-01 0.13386290E+03</pdfrwt>
<totfact> 0.31250530E+02</totfact>
</mgrwt>
</event>
<event>
 8    1  0.3542708E-007  0.1711156E+03  0.7546771E-02  0.1176691E+00
          5   -1    0    0  501    0  0.00000000000E+00  0.00000000000E+00  0.27498703231E+03  0.27502719491E+03  0.47000000000E+01 0.  1.
         -5   -1    0    0    0  501 -0.00000000000E+00 -0.00000000000E+00 -0.11708953456E+03  0.11718382612E+03  0.47000000000E+01 0.  1.
         25    2    1    2    0    0  0.79161735441E+02  0.85949378043E+02  0.19667586341E+02  0.17224217516E+03  0.12500670785E+03 0.  0.
         25    2    1    2    0    0 -0.79161735441E+02 -0.85949378043E+02  0.13822991141E+03  0.21996884587E+03  0.12499963520E+03 0.  0.
          5    1    3    3  502    0 -0.14599732077E+02  0.29962419036E+02  0.48649737867E+02  0.59158986855E+02  0.47000000000E+01 0. -1.
         -5    1    3    3    0  502  0.93761467518E+02  0.55986959007E+02 -0.28982151526E+02  0.11308318830E+03  0.47000000000E+01 0. -1.
          5    1    4    4  503    0  0.26968371656E+01 -0.29981391510E+02 -0.17613408808E+02  0.35192029459E+02  0.47000000000E+01 0.  1.
         -5    1    4    4    0  503 -0.81858572606E+02 -0.55967986534E+02  0.15584332022E+03  0.18477681641E+03  0.47000000000E+01 0.  1.
<mgrwt>
<rscale>  0 0.17111432E+03</rscale>
<asrwt>0</asrwt>
<pdfrwt beam="1">  1        5 0.42316040E-01 0.17111561E+03</pdfrwt>
<pdfrwt beam="2">  1       -5 0.18024117E-01 0.17111561E+03</pdfrwt>
<totfact> 0.11688048E+02</totfact>
</mgrwt>
</event>
<event>
 8    1  0.3542708E-007  0.1283995E+03  0.7546771E-02  0.1229851E+00
          5   -1    0    0  501    0  0.00000000000E+00  0.00000000000E+00  0.31141036660E+02  0.31493716266E+02  0.47000000000E+01 0. -1.
         -5   -1    0    0    0  501 -0.00000000000E+00 -0.00000000000E+00 -0.57480519524E+03  0.57482441012E+03  0.47000000000E+01 0. -1.
         25    2    1    2    0    0 -0.22926321996E+02  0.18218199085E+02 -0.36009021415E+03  0.38229750365E+03  0.12501559883E+03 0.  0.
         25    2    1    2    0    0  0.22926321996E+02 -0.18218199085E+02 -0.18357394443E+03  0.22402062274E+03  0.12501330858E+03 0.  0.
          5    1    4    4  502    0  0.57573040945E+02  0.31753667167E+02 -0.11227766789E+03  0.13019721629E+03  0.47000000000E+01 0.  1.
         -5    1    4    4    0  502 -0.34646718949E+02 -0.49971866251E+02 -0.71296276543E+02  0.93823406459E+02  0.47000000000E+01 0.  1.
          5    1    3    3  503    0 -0.53163053666E+02  0.11318605342E+02 -0.34150830001E+03  0.34583873421E+03  0.47000000000E+01 0. -1.
         -5    1    3    3    0  503  0.30236731671E+02  0.68995937423E+01 -0.18581914139E+02  0.36458769439E+02  0.47000000000E+01 0. -1.
<mgrwt>
<rscale>  0 0.12839889E+03</rscale>
<asrwt>0</asrwt>
<pdfrwt beam="1">  1        5 0.48195364E-02 0.12839945E+03</pdfrwt>
<pdfrwt beam="2">  1       -5 0.88460168E-01 0.12839945E+03</pdfrwt>
<totfact> 0.20881610E+02</totfact>
</mgrwt>
</event>
<event>
 8    1  0.3542708E-007  0.1448264E+03  0.7546771E-02  0.1206983E+00
         -5   -1    0    0    0  501 -0.00000000000E+00  0.00000000000E+00  0.83097860339E+02  0.83230669786E+02  0.47000000000E+01 0.  1.
          5   -1    0    0  501    0  0.00000000000E+00 -0.00000000000E+00 -0.25593160221E+03  0.25597475463E+03  0.47000000000E+01 0.  1.
         25    2    1    2    0    0 -0.51462823146E+02 -0.51974434856E+02 -0.65475458487E+02  0.15892652698E+03  0.12498336396E+03 0.  0.
         25    2    1    2    0    0  0.51462823146E+02  0.51974434856E+02 -0.10735828338E+03  0.18027889744E+03  0.12499966323E+03 0.  0.
          5    1    3    3  502    0  0.63477047548E+01 -0.54180165850E+01 -0.82148966237E+02  0.82705446696E+02  0.47000000000E+01 0. -1.
         -5    1    3    3    0  502 -0.57810527901E+02 -0.46556418271E+02  0.16673507750E+02  0.76221080280E+02  0.47000000000E+01 0. -1.
          5    1    4    4  503    0 -0.10739032037E+02  0.51347564698E+02 -0.10544524609E+03  0.11786725216E+03  0.47000000000E+01 0. -1.
         -5    1    4    4    0  503  0.62201855183E+02  0.62687015828E+00 -0.19130372907E+01  0.62411645277E+02  0.47000000000E+01 0. -1.
<mgrwt>
<rscale>  0 0.14482286E+03</rscale>
<asrwt>0</asrwt>
<pdfrwt beam="2">  1        5 0.39387628E-01 0.14482638E+03</pdfrwt>
<pdfrwt beam="1">  1       -5 0.12797822E-01 0.14482638E+03</pdfrwt>
<totfact> 0.23940386E+02</totfact>
</mgrwt>
</event>
<event>
 8    1  0.3542708E-007  0.1252505E+03  0.7546771E-02  0.1234678E+00
          5   -1    0    0  501    0  0.00000000000E+00  0.00000000000E+00  0.42080621808E+02  0.42342280663E+02  0.47000000000E+01 0. -1.
         -5   -1    0    0    0  501 -0.00000000000E+00 -0.00000000000E+00 -0.39090300143E+03  0.39093125550E+03  0.47000000000E+01 0. -1.
         25    2    1    2    0    0 -0.20145445069E+01  0.76446205383E+01 -0.22282140380E+03  0.25561110152E+03  0.12500063446E+03 0.  0.
         25    2    1    2    0    0  0.20145445069E+01 -0.76446205383E+01 -0.12600097583E+03  0.17766243465E+03  0.12500078465E+03 0.  0.
          5    1    4    4  502    0  0.35419649887E+02 -0.62130868120E+00 -0.13692764969E+03  0.14151398825E+03  0.47000000000E+01 0.  1.
         -5    1    4    4    0  502 -0.33405105380E+02 -0.70233118571E+01  0.10926673861E+02  0.36148446392E+02  0.47000000000E+01 0.  1.
          5    1    3    3  503    0  0.51524930591E+02 -0.11705912355E+02 -0.47453041281E+02  0.71173927693E+02  0.47000000000E+01 0.  1.
         -5    1    3    3    0  503 -0.53539475097E+02  0.19350532894E+02 -0.17536836252E+03  0.18443717383E+03  0.47000000000E+01 0.  1.
<mgrwt>
<rscale>  0 0.12525049E+03</rscale>
<asrwt>0</asrwt>
<pdfrwt beam="1">  1        5 0.64962431E-02 0.12525053E+03</pdfrwt>
<pdfrwt beam="2">  1       -5 0.60161222E-01 0.12525053E+03</pdfrwt>
<totfact> 0.30139815E+02</totfact>
</mgrwt>
</event>
<event>
 8    1  0.3542708E-007  0.1481600E+03  0.7546771E-02  0.1202752E+00
         -5   -1    0    0    0  501 -0.00000000000E+00  0.00000000000E+00  0.69931869580E+02  0.70089631066E+02  0.47000000000E+01 0. -1.
          5   -1    0    0  501    0  0.00000000000E+00 -0.00000000000E+00 -0.31338857419E+03  0.31342381599E+03  0.47000000000E+01 0. -1.
         25    2    1    2    0    0  0.75965623548E+02  0.23582861554E+02 -0.12013418191E+03  0.19074490379E+03  0.12499787734E+03 0.  0.
         25    2    1    2    0    0 -0.75965623548E+02 -0.23582861554E+02 -0.12332252270E+03  0.19276854327E+03  0.12499735736E+03 0.  0.
          5    1    4    4  502    0 -0.52952963192E+02 -0.56978270726E+02 -0.18240155996E+02  0.80033323913E+02  0.47000000000E+01 0.  1.
         -5    1    4    4    0  502 -0.23012660356E+02  0.33395409171E+02 -0.10508236671E+03  0.11273521935E+03  0.47000000000E+01 0.  1.
          5    1    3    3  503    0  0.13558826270E+02  0.64985587705E+02 -0.84817364146E+02  0.10781022048E+03  0.47000000000E+01 0. -1.
         -5    1    3    3    0  503  0.62406797278E+02 -0.41402726151E+02 -0.35316817759E+02  0.82934683311E+02  0.47000000000E+01 0. -1.
<mgrwt>
<rscale>  0 0.14815993E+03</rscale>
<asrwt>0</asrwt>
<pdfrwt beam="2">  1        5 0.48228472E-01 0.14816004E+03</pdfrwt>
<pdfrwt beam="1">  1       -5 0.10773596E-01 0.14816004E+03</pdfrwt>
<totfact> 0.21494307E+02</totfact>
</mgrwt>
</event>
<event>
 8    1  0.3542708E-007  0.2151880E+03  0.7546771E-02  0.1137523E+00
         -5   -1    0    0    0  501 -0.00000000000E+00  0.00000000000E+00  0.39572502181E+03  0.39575293162E+03  0.47000000000E+01 0. -1.
          5   -1    0    0  501    0  0.00000000000E+00 -0.00000000000E+00 -0.13402538612E+03  0.13410777056E+03  0.47000000000E+01 0. -1.
         25    2    1    2    0    0  0.15596683218E+03  0.79717705207E+02  0.22541379763E+03  0.31163642246E+03  0.12500125750E+03 0.  0.
         25    2    1    2    0    0 -0.15596683218E+03 -0.79717705207E+02  0.36285838065E+02  0.21822427972E+03  0.12499843580E+03 0.  0.
          5    1    4    4  502    0 -0.17630717459E+03 -0.63723674863E+02  0.23542707790E+02  0.18900072920E+03  0.47000000000E+01 0.  1.
         -5    1    4    4    0  502  0.20340342406E+02 -0.15994030344E+02  0.12743130275E+02  0.29223550521E+02  0.47000000000E+01 0.  1.
          5    1    3    3  503    0  0.70034748981E+02 -0.61155785366E+01  0.15717221904E+03  0.17224245354E+03  0.47000000000E+01 0.  1.
         -5    1    3    3    0  503  0.85932083198E+02  0.85833283743E+02  0.68241578592E+02  0.13939396891E+03  0.47000000000E+01 0.  1.
<mgrwt>
<rscale>  0 0.21518760E+03</rscale>
<asrwt>0</asrwt>
<pdfrwt beam="2">  1        5 0.20627774E-01 0.21518801E+03</pdfrwt>
<pdfrwt beam="1">  1       -5 0.60889257E-01 0.21518801E+03</pdfrwt>
<totfact> 0.44398439E+01</totfact>
</mgrwt>
</event>
<event>
 8    1  0.3542708E-007  0.1805842E+03  0.7546771E-02  0.1167256E+00
         -5   -1    0    0    0  501 -0.00000000000E+00  0.00000000000E+00  0.16226823315E+03  0.16233628519E+03  0.47000000000E+01 0.  1.
          5   -1    0    0  501    0  0.00000000000E+00 -0.00000000000E+00 -0.21733024666E+03  0.21738106199E+03  0.47000000000E+01 0.  1.
         25    2    1    2    0    0 -0.12829214884E+03  0.22429337472E+02  0.24898358917E+02  0.18222220673E+03  0.12499221462E+03 0.  0.
         25    2    1    2    0    0  0.12829214884E+03 -0.22429337472E+02 -0.79960372428E+02  0.19749514045E+03  0.12509483885E+03 0.  0.
          5    1    4    4  502    0  0.55824081761E+02  0.41832360214E+02  0.28532769136E+01  0.69975035939E+02  0.47000000000E+01 0.  1.
         -5    1    4    4    0  502  0.72468067083E+02 -0.64261697686E+02 -0.82813649341E+02  0.12752010451E+03  0.47000000000E+01 0.  1.
          5    1    3    3  503    0 -0.14693264581E+03  0.23745465922E+02 -0.22506245324E+01  0.14893020133E+03  0.47000000000E+01 0.  1.
         -5    1    3    3    0  503  0.18640496969E+02 -0.13161284499E+01  0.27148983449E+02  0.33292005402E+02  0.47000000000E+01 0.  1.
<mgrwt>
<rscale>  0 0.18056647E+03</rscale>
<asrwt>0</asrwt>
<pdfrwt beam="2">  1        5 0.33444566E-01 0.18058424E+03</pdfrwt>
<pdfrwt beam="1">  1       -5 0.24973487E-01 0.18058424E+03</pdfrwt>
<totfact> 0.10358082E+02</totfact>
</mgrwt>
</event>
<event>
 8    1  0.3542708E-007  0.1309344E+03  0.7546771E-02  0.1226077E+00
         -5   -1    0    0    0  501 -0.00000000000E+00  0.00000000000E+00  0.17388341747E+03  0.17394692544E+03  0.47000000000E+01 0. -1.
          5   -1    0    0  501    0  0.00000000000E+00 -0.00000000000E+00 -0.10004994267E+03  0.10016027669E+03  0.47000000000E+01 0. -1.
         25    2    1    2    0    0  0.36779446764E+02  0.12859427439E+02  0.54209768347E+02  0.14171042072E+03  0.12500020711E+03 0.  0.
         25    2    1    2    0    0 -0.36779446764E+02 -0.12859427439E+02  0.19623706457E+02  0.13239678142E+03  0.12500290115E+03 0.  0.
          5    1    3    3  502    0  0.55429181844E+02  0.58761649988E+02  0.29314589789E+02  0.86062540537E+02  0.47000000000E+01 0. -1.
         -5    1    3    3    0  502 -0.18649735079E+02 -0.45902222549E+02  0.24895178557E+02  0.55647880183E+02  0.47000000000E+01 0. -1.
          5    1    4    4  503    0 -0.19488776064E+02  0.32683996244E+02 -0.39899634774E+02  0.55336487584E+02  0.47000000000E+01 0.  1.
         -5    1    4    4    0  503 -0.17290670700E+02 -0.45543423683E+02  0.59523341232E+02  0.77060293832E+02  0.47000000000E+01 0.  1.
<mgrwt>
<rscale>  0 0.13093376E+03</rscale>
<asrwt>0</asrwt>
<pdfrwt beam="2">  1        5 0.15405671E-01 0.13093440E+03</pdfrwt>
<pdfrwt beam="1">  1       -5 0.26764667E-01 0.13093440E+03</pdfrwt>
<totfact> 0.35659904E+02</totfact>
</mgrwt>
</event>
<event>
 8    1  0.3542708E-007  0.1334757E+03  0.7546771E-02  0.1222391E+00
         -5   -1    0    0    0  501 -0.00000000000E+00  0.00000000000E+00  0.37150859400E+03  0.37153832294E+03  0.47000000000E+01 0.  1.
          5   -1    0    0  501    0  0.00000000000E+00 -0.00000000000E+00 -0.67888203967E+02  0.68050703434E+02  0.47000000000E+01 0.  1.
         25    2    1    2    0    0  0.37506320046E+02  0.27977201159E+02  0.27115373523E+03  0.30222144854E+03  0.12499603194E+03 0.  0.
         25    2    1    2    0    0 -0.37506320046E+02 -0.27977201159E+02  0.32466654798E+02  0.13736757783E+03  0.12500527964E+03 0.  0.
          5    1    3    3  502    0  0.45891575781E+02 -0.38083877349E+02  0.17675292936E+03  0.18660146430E+03  0.47000000000E+01 0. -1.
         -5    1    3    3    0  502 -0.83852557347E+01  0.66061078508E+02  0.94400805873E+02  0.11561998425E+03  0.47000000000E+01 0. -1.
          5    1    4    4  503    0 -0.50863819434E+02 -0.20484540796E+01  0.71821605007E+02  0.88157570505E+02  0.47000000000E+01 0. -1.
         -5    1    4    4    0  503  0.13357499388E+02 -0.25928747079E+02 -0.39354950209E+02  0.49210007326E+02  0.47000000000E+01 0. -1.
<mgrwt>
<rscale>  0 0.13347355E+03</rscale>
<asrwt>0</asrwt>
<pdfrwt beam="2">  1        5 0.10459126E-01 0.13347572E+03</pdfrwt>
<pdfrwt beam="1">  1       -5 0.57169955E-01 0.13347572E+03</pdfrwt>
<totfact> 0.15204062E+02</totfact>
</mgrwt>
</event>
<event>
 8    1  0.3542708E-007  0.1300911E+03  0.7546771E-02  0.1227322E+00
          5   -1    0    0  501    0  0.00000000000E+00  0.00000000000E+00  0.24691806604E+03  0.24696279343E+03  0.47000000000E+01 0. -1.
         -5   -1    0    0    0  501 -0.00000000000E+00 -0.00000000000E+00 -0.71185028878E+02  0.71340019178E+02  0.47000000000E+01 0. -1.
         25    2    1    2    0    0 -0.30173087848E+02  0.19701164038E+02  0.56468545851E+02  0.14181563870E+03  0.12499771044E+03 0.  0.
         25    2    1    2    0    0  0.30173087848E+02 -0.19701164038E+02  0.11926449131E+03  0.17648717391E+03  0.12500061028E+03 0.  0.
          5    1    4    4  502    0  0.52609910851E+02  0.26748183796E+02  0.10846997004E+03  0.12357626170E+03  0.47000000000E+01 0.  1.
         -5    1    4    4    0  502 -0.22436823003E+02 -0.46449347834E+02  0.10794521274E+02  0.52910912203E+02  0.47000000000E+01 0.  1.
          5    1    3    3  503    0  0.28152679329E+02 -0.24735697639E+02 -0.13738736388E+02  0.40190433795E+02  0.47000000000E+01 0. -1.
         -5    1    3    3    0  503 -0.58325767177E+02  0.44436861678E+02  0.70207282239E+02  0.10162520490E+03  0.47000000000E+01 0. -1.
<mgrwt>
<rscale>  0 0.13009044E+03</rscale>
<asrwt>0</asrwt>
<pdfrwt beam="1">  1        5 0.38002757E-01 0.13009114E+03</pdfrwt>
<pdfrwt beam="2">  1       -5 0.10966906E-01 0.13009114E+03</pdfrwt>
<totfact> 0.32615191E+02</totfact>
</mgrwt>
</event>
<event>
 8    1  0.3542708E-007  0.1604641E+03  0.7546771E-02  0.1188174E+00
         -5   -1    0    0    0  501 -0.00000000000E+00  0.00000000000E+00  0.43035995146E+03  0.43038561526E+03  0.47000000000E+01 0.  1.
          5   -1    0    0  501    0  0.00000000000E+00 -0.00000000000E+00 -0.72783452004E+02  0.72935045661E+02  0.47000000000E+01 0.  1.
         25    2    1    2    0    0  0.84755798431E+02 -0.54229737351E+02  0.28530166511E+03  0.32733130167E+03  0.12499732459E+03 0.  0.
         25    2    1    2    0    0 -0.84755798431E+02  0.54229737351E+02  0.72274834341E+02  0.17598935925E+03  0.12499677239E+03 0.  0.
          5    1    3    3  502    0  0.73182338469E+02 -0.73231231648E+02  0.28639070975E+03  0.30456558667E+03  0.47000000000E+01 0.  1.
         -5    1    3    3    0  502  0.11573459962E+02  0.19001494297E+02 -0.10890446401E+01  0.22765714995E+02  0.47000000000E+01 0.  1.
          5    1    4    4  503    0  0.11213721558E+02  0.46131673940E+02 -0.10568932480E+02  0.48863802814E+02  0.47000000000E+01 0.  1.
         -5    1    4    4    0  503 -0.95969519989E+02  0.80980634115E+01  0.82843766821E+02  0.12712555644E+03  0.47000000000E+01 0.  1.
<mgrwt>
<rscale>  0 0.16046403E+03</rscale>
<asrwt>0</asrwt>
<pdfrwt beam="2">  1        5 0.11211089E-01 0.16046414E+03</pdfrwt>
<pdfrwt beam="1">  1       -5 0.66222859E-01 0.16046414E+03</pdfrwt>
<totfact> 0.10329107E+02</totfact>
</mgrwt>
</event>
<event>
 8    1  0.3542708E-007  0.1298880E+03  0.7546771E-02  0.1227622E+00
         -5   -1    0    0    0  501 -0.00000000000E+00  0.00000000000E+00  0.13236312621E+03  0.13244654461E+03  0.47000000000E+01 0.  1.
          5   -1    0    0  501    0  0.00000000000E+00 -0.00000000000E+00 -0.13681608420E+03  0.13689678921E+03  0.47000000000E+01 0.  1.
         25    2    1    2    0    0 -0.28740918763E+02  0.20495327503E+02  0.33283721459E+02  0.13408449556E+03  0.12499898789E+03 0.  0.
         25    2    1    2    0    0  0.28740918763E+02 -0.20495327503E+02 -0.37736679456E+02  0.13525883827E+03  0.12499918997E+03 0.  0.
          5    1    3    3  502    0 -0.57517782644E+02 -0.14648110180E+01 -0.26906467626E+02  0.63690572235E+02  0.47000000000E+01 0. -1.
         -5    1    3    3    0  502  0.28776863881E+02  0.21960138521E+02  0.60190189085E+02  0.70393923322E+02  0.47000000000E+01 0. -1.
          5    1    4    4  503    0  0.59543494243E+02 -0.11505915600E+02 -0.67765814344E+02  0.91061020169E+02  0.47000000000E+01 0.  1.
         -5    1    4    4    0  503 -0.30802575479E+02 -0.89894119032E+01  0.30029134888E+02  0.44197818098E+02  0.47000000000E+01 0.  1.
<mgrwt>
<rscale>  0 0.12988797E+03</rscale>
<asrwt>0</asrwt>
<pdfrwt beam="2">  1        5 0.21061253E-01 0.12988801E+03</pdfrwt>
<pdfrwt beam="1">  1       -5 0.20376183E-01 0.12988801E+03</pdfrwt>
<totfact> 0.33531083E+02</totfact>
</mgrwt>
</event>
<event>
 8    1  0.3542708E-007  0.1376567E+03  0.7546771E-02  0.1216521E+00
          5   -1    0    0  501    0  0.00000000000E+00  0.00000000000E+00  0.13550118217E+03  0.13558266987E+03  0.47000000000E+01 0.  1.
         -5   -1    0    0    0  501 -0.00000000000E+00 -0.00000000000E+00 -0.14707639817E+03  0.14715147604E+03  0.47000000000E+01 0.  1.
         25    2    1    2    0    0  0.18232330109E+02 -0.54698829733E+02 -0.37491051071E+02  0.14267073266E+03  0.12499991685E+03 0.  0.
         25    2    1    2    0    0 -0.18232330109E+02  0.54698829733E+02  0.25915835068E+02  0.14006341325E+03  0.12498699688E+03 0.  0.
          5    1    3    3  502    0  0.39696384092E+02 -0.97574272690E+01  0.35389985648E+02  0.54272934148E+02  0.47000000000E+01 0. -1.
         -5    1    3    3    0  502 -0.21464053983E+02 -0.44941402464E+02 -0.72881036719E+02  0.88397798514E+02  0.47000000000E+01 0. -1.
          5    1    4    4  503    0  0.45387689296E+02  0.26360904486E+02 -0.20161639453E+02  0.56422702260E+02  0.47000000000E+01 0.  1.
         -5    1    4    4    0  503 -0.63620019405E+02  0.28337925247E+02  0.46077474521E+02  0.83640710988E+02  0.47000000000E+01 0.  1.
<mgrwt>
<rscale>  0 0.13765374E+03</rscale>
<asrwt>0</asrwt>
<pdfrwt beam="1">  1        5 0.20858379E-01 0.13765667E+03</pdfrwt>
<pdfrwt beam="2">  1       -5 0.22639182E-01 0.13765667E+03</pdfrwt>
<totfact> 0.28587668E+02</totfact>
</mgrwt>
</event>
<event>
 8    1  0.3542708E-007  0.1348545E+03  0.7546771E-02  0.1220429E+00
         -5   -1    0    0    0  501 -0.00000000000E+00  0.00000000000E+00  0.38704339137E+03  0.38707192717E+03  0.47000000000E+01 0. -1.
          5   -1    0    0  501    0  0.00000000000E+00 -0.00000000000E+00 -0.47445241651E+02  0.47677468004E+02  0.47000000000E+01 0. -1.
         25    2    1    2    0    0 -0.15861150524E+02 -0.48021696113E+02  0.19440554461E+03  0.23659933602E+03  0.12501228194E+03 0.  0.
         25    2    1    2    0    0  0.15861150524E+02  0.48021696113E+02  0.14519260510E+03  0.19815005915E+03  0.12499957588E+03 0.  0.
          5    1    3    3  502    0  0.53003606159E+02 -0.13190100140E+02  0.10461234997E+03  0.11810670927E+03  0.47000000000E+01 0.  1.
         -5    1    3    3    0  502 -0.68864756683E+02 -0.34831595973E+02  0.89793194639E+02  0.11849262675E+03  0.47000000000E+01 0.  1.
          5    1    4    4  503    0 -0.53529749184E+02  0.99102291853E+01  0.48211351753E+02  0.72870234857E+02  0.47000000000E+01 0. -1.
         -5    1    4    4    0  503  0.69390899708E+02  0.38111466928E+02  0.96981253352E+02  0.12527982429E+03  0.47000000000E+01 0. -1.
<mgrwt>
<rscale>  0 0.13485153E+03</rscale>
<asrwt>0</asrwt>
<pdfrwt beam="2">  1        5 0.73193270E-02 0.13485448E+03</pdfrwt>
<pdfrwt beam="1">  1       -5 0.59565192E-01 0.13485448E+03</pdfrwt>
<totfact> 0.25836705E+02</totfact>
</mgrwt>
</event>
<event>
 8    1  0.3542708E-007  0.1369283E+03  0.7546771E-02  0.1217525E+00
          5   -1    0    0  501    0  0.00000000000E+00  0.00000000000E+00  0.91176270014E+03  0.91177481396E+03  0.47000000000E+01 0. -1.
         -5   -1    0    0    0  501 -0.00000000000E+00 -0.00000000000E+00 -0.20586912985E+02  0.21116604515E+02  0.47000000000E+01 0. -1.
         25    2    1    2    0    0  0.80216923034E+01 -0.55316294182E+02  0.38958118878E+03  0.41294413232E+03  0.12500045525E+03 0.  0.
         25    2    1    2    0    0 -0.80216923034E+01  0.55316294182E+02  0.50159459837E+03  0.51994728615E+03  0.12499519716E+03 0.  0.
          5    1    4    4  502    0 -0.13108758741E+02  0.39586059396E+02  0.39810435791E+02  0.57843378637E+02  0.47000000000E+01 0. -1.
         -5    1    4    4    0  502  0.50870664372E+01  0.15730234786E+02  0.46178416258E+03  0.46210390752E+03  0.47000000000E+01 0. -1.
          5    1    3    3  503    0 -0.27296004402E+01 -0.45397425234E+02  0.33867571482E+02  0.56898851786E+02  0.47000000000E+01 0. -1.
         -5    1    3    3    0  503  0.10751292744E+02 -0.99188689476E+01  0.35571361730E+03  0.35604528053E+03  0.47000000000E+01 0. -1.
<mgrwt>
<rscale>  0 0.13692708E+03</rscale>
<asrwt>0</asrwt>
<pdfrwt beam="1">  1        5 0.14031284E+00 0.13692828E+03</pdfrwt>
<pdfrwt beam="2">  1       -5 0.32088952E-02 0.13692828E+03</pdfrwt>
<totfact> 0.13103072E+02</totfact>
</mgrwt>
</event>
<event>
 8    1  0.3542708E-007  0.1267685E+03  0.7546771E-02  0.1232331E+00
         -5   -1    0    0    0  501 -0.00000000000E+00  0.00000000000E+00  0.11214754325E+03  0.11224598638E+03  0.47000000000E+01 0. -1.
          5   -1    0    0  501    0  0.00000000000E+00 -0.00000000000E+00 -0.15384687302E+03  0.15391864844E+03  0.47000000000E+01 0. -1.
         25    2    1    2    0    0 -0.42468380841E+01  0.20643222803E+02  0.14312089369E+02  0.12757388533E+03  0.12500432806E+03 0.  0.
         25    2    1    2    0    0  0.42468380841E+01 -0.20643222803E+02 -0.56011419131E+02  0.13859074949E+03  0.12500375390E+03 0.  0.
          5    1    4    4  502    0  0.51505977667E+02 -0.28796953704E+02  0.66221090884E+01  0.59565699919E+02  0.47000000000E+01 0.  1.
         -5    1    4    4    0  502 -0.47259139583E+02  0.81537309010E+01 -0.62633528219E+02  0.79025049566E+02  0.47000000000E+01 0.  1.
          5    1    3    3  503    0  0.19790241975E+01 -0.37383970932E+02  0.47194721345E+02  0.60422756825E+02  0.47000000000E+01 0.  1.
         -5    1    3    3    0  503 -0.62258622816E+01  0.58027193735E+02 -0.32882631977E+02  0.67151128506E+02  0.47000000000E+01 0.  1.
<mgrwt>
<rscale>  0 0.12676839E+03</rscale>
<asrwt>0</asrwt>
<pdfrwt beam="2">  1        5 0.23681843E-01 0.12676853E+03</pdfrwt>
<pdfrwt beam="1">  1       -5 0.17266562E-01 0.12676853E+03</pdfrwt>
<totfact> 0.36182962E+02</totfact>
</mgrwt>
</event>
<event>
 8    1  0.3542708E-007  0.1563387E+03  0.7546771E-02  0.1192894E+00
         -5   -1    0    0    0  501 -0.00000000000E+00  0.00000000000E+00  0.25066018756E+03  0.25070424732E+03  0.47000000000E+01 0. -1.
          5   -1    0    0  501    0  0.00000000000E+00 -0.00000000000E+00 -0.10337113730E+03  0.10347793014E+03  0.47000000000E+01 0. -1.
         25    2    1    2    0    0  0.64743336906E+02  0.67998741739E+02  0.11617949550E+03  0.19477834399E+03  0.12500159823E+03 0.  0.
         25    2    1    2    0    0 -0.64743336906E+02 -0.67998741739E+02  0.31109554757E+02  0.15940383347E+03  0.12500499661E+03 0.  0.
          5    1    4    4  502    0  0.21017053919E+02 -0.65893952880E+02  0.45319103140E+01  0.69471992865E+02  0.47000000000E+01 0. -1.
         -5    1    4    4    0  502 -0.85760390825E+02 -0.21047888592E+01  0.26577644443E+02  0.89931840606E+02  0.47000000000E+01 0. -1.
          5    1    3    3  503    0  0.93513628181E+02  0.18250978401E+02  0.91080611379E+02  0.13189262541E+03  0.47000000000E+01 0. -1.
         -5    1    3    3    0  503 -0.28770291274E+02  0.49747763338E+02  0.25098884125E+02  0.62885718581E+02  0.47000000000E+01 0. -1.
<mgrwt>
<rscale>  0 0.15633798E+03</rscale>
<asrwt>0</asrwt>
<pdfrwt beam="2">  1        5 0.15914856E-01 0.15633866E+03</pdfrwt>
<pdfrwt beam="1">  1       -5 0.38574710E-01 0.15633866E+03</pdfrwt>
<totfact> 0.17286829E+02</totfact>
</mgrwt>
</event>
<event>
 8    1  0.3542708E-007  0.1442650E+03  0.7546771E-02  0.1207704E+00
          5   -1    0    0  501    0  0.00000000000E+00  0.00000000000E+00  0.42703277549E+02  0.42961144228E+02  0.47000000000E+01 0.  1.
         -5   -1    0    0    0  501 -0.00000000000E+00 -0.00000000000E+00 -0.49596620280E+03  0.49598847196E+03  0.47000000000E+01 0.  1.
         25    2    1    2    0    0 -0.71120562744E+02  0.11330129484E+02 -0.26553283526E+03  0.30219031357E+03  0.12499917094E+03 0.  0.
         25    2    1    2    0    0  0.71120562744E+02 -0.11330129484E+02 -0.18773008999E+03  0.23675930262E+03  0.12500349759E+03 0.  0.
          5    1    4    4  502    0  0.27203676152E+02 -0.64639241466E+02 -0.12465210955E+03  0.14310314444E+03  0.47000000000E+01 0.  1.
         -5    1    4    4    0  502  0.43916886592E+02  0.53309111983E+02 -0.63077980446E+02  0.93656158182E+02  0.47000000000E+01 0.  1.
          5    1    3    3  503    0  0.21866491188E+02 -0.29179434845E+02 -0.37214696193E+02  0.52312584217E+02  0.47000000000E+01 0.  1.
         -5    1    3    3    0  503 -0.92987053932E+02  0.40509564329E+02 -0.22831813907E+03  0.24987772936E+03  0.47000000000E+01 0.  1.
<mgrwt>
<rscale>  0 0.14426403E+03</rscale>
<asrwt>0</asrwt>
<pdfrwt beam="1">  1        5 0.65912842E-02 0.14426497E+03</pdfrwt>
<pdfrwt beam="2">  1       -5 0.76324038E-01 0.14426497E+03</pdfrwt>
<totfact> 0.18126638E+02</totfact>
</mgrwt>
</event>
<event>
 8    1  0.3542708E-007  0.1269280E+03  0.7546771E-02  0.1232095E+00
         -5   -1    0    0    0  501 -0.00000000000E+00  0.00000000000E+00  0.10345920393E+03  0.10356590596E+03  0.47000000000E+01 0. -1.
          5   -1    0    0  501    0  0.00000000000E+00 -0.00000000000E+00 -0.15558961556E+03  0.15566058740E+03  0.47000000000E+01 0. -1.
         25    2    1    2    0    0  0.13375279493E+02 -0.17554942057E+02 -0.22470352004E+02  0.12890167744E+03  0.12499460643E+03 0.  0.
         25    2    1    2    0    0 -0.13375279493E+02  0.17554942057E+02 -0.29660059627E+02  0.13032481593E+03  0.12497105432E+03 0.  0.
          5    1    4    4  502    0  0.13268894566E+02  0.48612679349E+02  0.29241496521E+02  0.58450075067E+02  0.47000000000E+01 0. -1.
         -5    1    4    4    0  502 -0.26644174059E+02 -0.31057737293E+02 -0.58901556148E+02  0.71874740860E+02  0.47000000000E+01 0. -1.
          5    1    3    3  503    0 -0.22829387018E+02  0.47162348333E+02 -0.83160823100E+01  0.53260822720E+02  0.47000000000E+01 0.  1.
         -5    1    3    3    0  503  0.36204666511E+02 -0.64717290389E+02 -0.14154269694E+02  0.75640854722E+02  0.47000000000E+01 0.  1.
<mgrwt>
<rscale>  0 0.12692223E+03</rscale>
<asrwt>0</asrwt>
<pdfrwt beam="2">  1        5 0.23950531E-01 0.12692803E+03</pdfrwt>
<pdfrwt beam="1">  1       -5 0.15930468E-01 0.12692803E+03</pdfrwt>
<totfact> 0.41044303E+02</totfact>
</mgrwt>
</event>
<event>
 8    1  0.3542708E-007  0.1262657E+03  0.7546771E-02  0.1233104E+00
          5   -1    0    0  501    0  0.00000000000E+00  0.00000000000E+00  0.22549735960E+02  0.23034335065E+02  0.47000000000E+01 0. -1.
         -5   -1    0    0    0  501 -0.00000000000E+00 -0.00000000000E+00 -0.79250393529E+03  0.79251787201E+03  0.47000000000E+01 0. -1.
         25    2    1    2    0    0 -0.25624254372E+01  0.17667685929E+02 -0.52499519267E+03  0.53996571476E+03  0.12499723055E+03 0.  0.
         25    2    1    2    0    0  0.25624254372E+01 -0.17667685929E+02 -0.24495900666E+03  0.27558649231E+03  0.12499714656E+03 0.  0.
          5    1    3    3  502    0  0.17802831377E+02  0.68566854984E+02 -0.31235978381E+03  0.32032651927E+03  0.47000000000E+01 0. -1.
         -5    1    3    3    0  502 -0.20365256814E+02 -0.50899169055E+02 -0.21263540886E+03  0.21963919549E+03  0.47000000000E+01 0. -1.
          5    1    4    4  503    0 -0.21266352838E+02  0.13631103369E+02 -0.23270268209E+03  0.23411683620E+03  0.47000000000E+01 0. -1.
         -5    1    4    4    0  503  0.23828778275E+02 -0.31298789298E+02 -0.12256324574E+02  0.41469656107E+02  0.47000000000E+01 0. -1.
<mgrwt>
<rscale>  0 0.12626565E+03</rscale>
<asrwt>0</asrwt>
<pdfrwt beam="1">  1        5 0.35075397E-02 0.12626568E+03</pdfrwt>
<pdfrwt beam="2">  1       -5 0.12196201E+00 0.12626568E+03</pdfrwt>
<totfact> 0.15910013E+02</totfact>
</mgrwt>
</event>
<event>
 8    1  0.3542708E-007  0.1253427E+03  0.7546771E-02  0.1234547E+00
         -5   -1    0    0    0  501 -0.00000000000E+00  0.00000000000E+00  0.42489915972E+03  0.42492515333E+03  0.47000000000E+01 0. -1.
          5   -1    0    0  501    0  0.00000000000E+00 -0.00000000000E+00 -0.36965001783E+02  0.37262599974E+02  0.47000000000E+01 0. -1.
         25    2    1    2    0    0  0.44345625006E+01 -0.81592558318E+01  0.20984183452E+03  0.24442664933E+03  0.12499821034E+03 0.  0.
         25    2    1    2    0    0 -0.44345625006E+01  0.81592558318E+01  0.17809232342E+03  0.21776110397E+03  0.12496713145E+03 0.  0.
          5    1    4    4  502    0 -0.48851576478E+02 -0.15672187557E+02  0.15263612075E+03  0.16109614938E+03  0.47000000000E+01 0. -1.
         -5    1    4    4    0  502  0.44417013978E+02  0.23831443389E+02  0.25456202670E+02  0.56664954593E+02  0.47000000000E+01 0. -1.
          5    1    3    3  503    0  0.35253974952E+01 -0.75869799239E+01 -0.15933458053E+02  0.18599886489E+02  0.47000000000E+01 0. -1.
         -5    1    3    3    0  503  0.90916500542E+00 -0.57227590783E+00  0.22577529257E+03  0.22582676284E+03  0.47000000000E+01 0. -1.
<mgrwt>
<rscale>  0 0.12533495E+03</rscale>
<asrwt>0</asrwt>
<pdfrwt beam="2">  1        5 0.57118152E-02 0.12534270E+03</pdfrwt>
<pdfrwt beam="1">  1       -5 0.65393991E-01 0.12534270E+03</pdfrwt>
<totfact> 0.31141899E+02</totfact>
</mgrwt>
</event>
<event>
 8    1  0.3542708E-007  0.2180930E+03  0.7546771E-02  0.1135315E+00
          5   -1    0    0  501    0  0.00000000000E+00  0.00000000000E+00  0.76896517723E+02  0.77040018419E+02  0.47000000000E+01 0.  1.
         -5   -1    0    0    0  501 -0.00000000000E+00 -0.00000000000E+00 -0.61865288024E+03  0.61867073329E+03  0.47000000000E+01 0.  1.
         25    2    1    2    0    0  0.17280567156E+03  0.45520185784E+02 -0.28388151069E+03  0.35797711853E+03  0.12500007135E+03 0.  0.
         25    2    1    2    0    0 -0.17280567156E+03 -0.45520185784E+02 -0.25787485183E+03  0.33773363318E+03  0.12502271930E+03 0.  0.
          5    1    3    3  502    0  0.28337946781E+01 -0.30378307674E+02 -0.53335880723E+02  0.61625304396E+02  0.47000000000E+01 0.  1.
         -5    1    3    3    0  502  0.16997187688E+03  0.75898493457E+02 -0.23054562997E+03  0.29635181413E+03  0.47000000000E+01 0.  1.
          5    1    4    4  503    0 -0.80793218243E+02 -0.59960886404E+02 -0.55725070195E+02  0.11510962367E+03  0.47000000000E+01 0. -1.
         -5    1    4    4    0  503 -0.92012453318E+02  0.14440700620E+02 -0.20214978163E+03  0.22262400952E+03  0.47000000000E+01 0. -1.
<mgrwt>
<rscale>  0 0.21808978E+03</rscale>
<asrwt>0</asrwt>
<pdfrwt beam="1">  1        5 0.11842646E-01 0.21809303E+03</pdfrwt>
<pdfrwt beam="2">  1       -5 0.95189775E-01 0.21809303E+03</pdfrwt>
<totfact> 0.43813319E+01</totfact>
</mgrwt>
</event>
<event>
 8    1  0.3542708E-007  0.1536977E+03  0.7546771E-02  0.1196002E+00
         -5   -1    0    0    0  501 -0.00000000000E+00  0.00000000000E+00  0.29786101580E+02  0.30154632270E+02  0.47000000000E+01 0.  1.
          5   -1    0    0  501    0  0.00000000000E+00 -0.00000000000E+00 -0.11463179275E+04  0.11463275626E+04  0.47000000000E+01 0.  1.
         25    2    1    2    0    0 -0.19013745613E+02  0.87388736694E+02 -0.22936465283E+03  0.27609986223E+03  0.12499870452E+03 0.  0.
         25    2    1    2    0    0  0.19013745613E+02 -0.87388736694E+02 -0.88716717305E+03  0.90038233265E+03  0.12499775278E+03 0.  0.
          5    1    4    4  502    0  0.41656183978E+02 -0.98146663871E+01 -0.97572028604E+02  0.10664875108E+03  0.47000000000E+01 0.  1.
         -5    1    4    4    0  502 -0.22642438365E+02 -0.77574070307E+02 -0.78959514444E+03  0.79373358158E+03  0.47000000000E+01 0.  1.
          5    1    3    3  503    0 -0.40230017367E+02  0.34036987711E+02 -0.20805650162E+03  0.21467782535E+03  0.47000000000E+01 0.  1.
         -5    1    3    3    0  503  0.21216271754E+02  0.53351748983E+02 -0.21308151208E+02  0.61422036881E+02  0.47000000000E+01 0.  1.
<mgrwt>
<rscale>  0 0.15369753E+03</rscale>
<asrwt>0</asrwt>
<pdfrwt beam="2">  1        5 0.17638566E+00 0.15369772E+03</pdfrwt>
<pdfrwt beam="1">  1       -5 0.46115677E-02 0.15369772E+03</pdfrwt>
<totfact> 0.39560289E+01</totfact>
</mgrwt>
</event>
<event>
 8    1  0.3542708E-007  0.1253242E+03  0.7546771E-02  0.1234568E+00
         -5   -1    0    0    0  501 -0.00000000000E+00  0.00000000000E+00  0.19619721655E+03  0.19625350387E+03  0.47000000000E+01 0. -1.
          5   -1    0    0  501    0  0.00000000000E+00 -0.00000000000E+00 -0.91036784644E+02  0.91158028491E+02  0.47000000000E+01 0. -1.
         25    2    1    2    0    0  0.82649569625E+01  0.36418778312E+01  0.10276895153E+03  0.16206455948E+03  0.12498756439E+03 0.  0.
         25    2    1    2    0    0 -0.82649569625E+01 -0.36418778312E+01  0.23914803705E+01  0.12534697289E+03  0.12499828657E+03 0.  0.
          5    1    3    3  502    0  0.28032975244E+02  0.36954629829E+02 -0.55317901259E+01  0.46948728086E+02  0.47000000000E+01 0. -1.
         -5    1    3    3    0  502 -0.19768018282E+02 -0.33312751998E+02  0.10830074166E+03  0.11511583139E+03  0.47000000000E+01 0. -1.
          5    1    4    4  503    0 -0.17795940731E+02  0.53110937705E+02 -0.24905506162E+02  0.61480415154E+02  0.47000000000E+01 0.  1.
         -5    1    4    4    0  503  0.95309837682E+01 -0.56752815536E+02  0.27296986532E+02  0.63866557732E+02  0.47000000000E+01 0.  1.
<mgrwt>
<rscale>  0 0.12532148E+03</rscale>
<asrwt>0</asrwt>
<pdfrwt beam="2">  1        5 0.14019315E-01 0.12532416E+03</pdfrwt>
<pdfrwt beam="1">  1       -5 0.30197844E-01 0.12532416E+03</pdfrwt>
<totfact> 0.32892515E+02</totfact>
</mgrwt>
</event>
<event>
 8    1  0.3542708E-007  0.1447904E+03  0.7546771E-02  0.1207048E+00
         -5   -1    0    0    0  501 -0.00000000000E+00  0.00000000000E+00  0.15393648893E+03  0.15400822259E+03  0.47000000000E+01 0. -1.
          5   -1    0    0  501    0  0.00000000000E+00 -0.00000000000E+00 -0.13936262378E+03  0.13944185493E+03  0.47000000000E+01 0. -1.
         25    2    1    2    0    0 -0.70222387747E+02  0.20239330855E+02  0.30154834624E+02  0.14789713105E+03  0.12499373211E+03 0.  0.
         25    2    1    2    0    0  0.70222387747E+02 -0.20239330855E+02 -0.15580969469E+02  0.14555294647E+03  0.12490828381E+03 0.  0.
          5    1    3    3  502    0 -0.85670502580E+02  0.17197524725E+02  0.65243864430E+02  0.10915146227E+03  0.47000000000E+01 0. -1.
         -5    1    3    3    0  502  0.15448114833E+02  0.30418061294E+01 -0.35089029806E+02  0.38745668779E+02  0.47000000000E+01 0. -1.
          5    1    4    4  503    0  0.46302719851E+02  0.42252563712E+02 -0.39612646550E+02  0.74299884068E+02  0.47000000000E+01 0.  1.
         -5    1    4    4    0  503  0.23919667896E+02 -0.62491894567E+02  0.24031677081E+02  0.71253062406E+02  0.47000000000E+01 0.  1.
<mgrwt>
<rscale>  0 0.14477191E+03</rscale>
<asrwt>0</asrwt>
<pdfrwt beam="2">  1        5 0.21452016E-01 0.14479036E+03</pdfrwt>
<pdfrwt beam="1">  1       -5 0.23694149E-01 0.14479036E+03</pdfrwt>
<totfact> 0.25301452E+02</totfact>
</mgrwt>
</event>
<event>
 8    1  0.3542708E-007  0.1297665E+03  0.7546771E-02  0.1227807E+00
         -5   -1    0    0    0  501 -0.00000000000E+00  0.00000000000E+00  0.37380298520E+02  0.37674616354E+02  0.47000000000E+01 0.  1.
          5   -1    0    0  501    0  0.00000000000E+00 -0.00000000000E+00 -0.44860706728E+03  0.44863168726E+03  0.47000000000E+01 0.  1.
         25    2    1    2    0    0  0.34785026531E+02 -0.14884896168E+01 -0.21111606971E+03  0.24780906583E+03  0.12500849788E+03 0.  0.
         25    2    1    2    0    0 -0.34785026531E+02  0.14884896168E+01 -0.20011069905E+03  0.23849723779E+03  0.12499770752E+03 0.  0.
          5    1    4    4  502    0 -0.15476297929E+02  0.25600221607E+02 -0.20468998168E+03  0.20691777533E+03  0.47000000000E+01 0.  1.
         -5    1    4    4    0  502 -0.19308728602E+02 -0.24111731990E+02  0.45792826370E+01  0.31579462460E+02  0.47000000000E+01 0.  1.
          5    1    3    3  503    0  0.43730307924E+02  0.51459958448E+02 -0.73050401133E+02  0.99593766172E+02  0.47000000000E+01 0. -1.
         -5    1    3    3    0  503 -0.89452813932E+01 -0.52948448065E+02 -0.13806566858E+03  0.14821529966E+03  0.47000000000E+01 0. -1.
<mgrwt>
<rscale>  0 0.12976388E+03</rscale>
<asrwt>0</asrwt>
<pdfrwt beam="2">  1        5 0.69041002E-01 0.12976648E+03</pdfrwt>
<pdfrwt beam="1">  1       -5 0.57753491E-02 0.12976648E+03</pdfrwt>
<totfact> 0.27426660E+02</totfact>
</mgrwt>
</event>
<event>
 8    1  0.3542708E-007  0.1443591E+03  0.7546771E-02  0.1207588E+00
         -5   -1    0    0    0  501 -0.00000000000E+00  0.00000000000E+00  0.82380059627E+02  0.82514024408E+02  0.47000000000E+01 0. -1.
          5   -1    0    0  501    0  0.00000000000E+00 -0.00000000000E+00 -0.26753952771E+03  0.26758080814E+03  0.47000000000E+01 0. -1.
         25    2    1    2    0    0 -0.66374956020E+02 -0.28345267090E+02 -0.51193201704E+02  0.15316750045E+03  0.12502179946E+03 0.  0.
         25    2    1    2    0    0  0.66374956020E+02  0.28345267090E+02 -0.13396626638E+03  0.19692733210E+03  0.12499729856E+03 0.  0.
          5    1    4    4  502    0 -0.86968094898E+01  0.59644759448E+02 -0.75115953638E+02  0.96424210217E+02  0.47000000000E+01 0.  1.
         -5    1    4    4    0  502  0.75071765510E+02 -0.31299492358E+02 -0.58850312740E+02  0.10050312188E+03  0.47000000000E+01 0.  1.
          5    1    3    3  503    0 -0.46904740767E+02  0.16938005716E+02  0.29765763129E+02  0.58266983779E+02  0.47000000000E+01 0. -1.
         -5    1    3    3    0  503 -0.19470215253E+02 -0.45283272806E+02 -0.80958964833E+02  0.94900516673E+02  0.47000000000E+01 0. -1.
<mgrwt>
<rscale>  0 0.14435376E+03</rscale>
<asrwt>0</asrwt>
<pdfrwt beam="2">  1        5 0.41173407E-01 0.14435906E+03</pdfrwt>
<pdfrwt beam="1">  1       -5 0.12687336E-01 0.14435906E+03</pdfrwt>
<totfact> 0.22177588E+02</totfact>
</mgrwt>
</event>
<event>
 8    1  0.3542708E-007  0.1926961E+03  0.7546771E-02  0.1156053E+00
         -5   -1    0    0    0  501 -0.00000000000E+00  0.00000000000E+00  0.15439610496E+04  0.15439682033E+04  0.47000000000E+01 0. -1.
          5   -1    0    0  501    0  0.00000000000E+00 -0.00000000000E+00 -0.26727487621E+02  0.27137586380E+02  0.47000000000E+01 0. -1.
         25    2    1    2    0    0 -0.14635595382E+03 -0.93555024324E+01  0.10159378966E+04  0.10340498012E+04  0.12498636297E+03 0.  0.
         25    2    1    2    0    0  0.14635595382E+03  0.93555024324E+01  0.50129566543E+03  0.53705598851E+03  0.12499679985E+03 0.  0.
          5    1    4    4  502    0  0.11674910278E+03  0.51831709857E+02  0.43144091303E+03  0.44997803345E+03  0.47000000000E+01 0.  1.
         -5    1    4    4    0  502  0.29606851037E+02 -0.42476207425E+02  0.69854752393E+02  0.87077955060E+02  0.47000000000E+01 0.  1.
          5    1    3    3  503    0 -0.60238401354E+02 -0.77574065123E+00  0.12430060883E+03  0.13820997839E+03  0.47000000000E+01 0.  1.
         -5    1    3    3    0  503 -0.86117552462E+02 -0.85797617812E+01  0.89163728774E+03  0.89583982276E+03  0.47000000000E+01 0.  1.
<mgrwt>
<rscale>  0 0.19269442E+03</rscale>
<asrwt>0</asrwt>
<pdfrwt beam="2">  1        5 0.41440177E-02 0.19269611E+03</pdfrwt>
<pdfrwt beam="1">  1       -5 0.23756456E+00 0.19269611E+03</pdfrwt>
<totfact> 0.19266188E+01</totfact>
</mgrwt>
</event>
<event>
 8    1  0.3542708E-007  0.1415302E+03  0.7546771E-02  0.1211286E+00
         -5   -1    0    0    0  501 -0.00000000000E+00  0.00000000000E+00  0.38600955227E+02  0.38886035340E+02  0.47000000000E+01 0.  1.
          5   -1    0    0  501    0  0.00000000000E+00 -0.00000000000E+00 -0.59103178342E+03  0.59105047078E+03  0.47000000000E+01 0.  1.
         25    2    1    2    0    0 -0.23331449315E+02  0.62112363950E+02 -0.16453724796E+03  0.21702946784E+03  0.12500792639E+03 0.  0.
         25    2    1    2    0    0  0.23331449315E+02 -0.62112363950E+02 -0.38789358023E+03  0.41290703828E+03  0.12501396080E+03 0.  0.
          5    1    4    4  502    0 -0.37338185289E+02 -0.96925756969E+01 -0.39637739732E+02  0.55509697490E+02  0.47000000000E+01 0. -1.
         -5    1    4    4    0  502  0.60669634605E+02 -0.52419788254E+02 -0.34825584050E+03  0.35739734079E+03  0.47000000000E+01 0. -1.
          5    1    3    3  503    0  0.38236003166E+02 -0.85103080966E+01 -0.18782197299E+02  0.43695288274E+02  0.47000000000E+01 0. -1.
         -5    1    3    3    0  503 -0.61567452481E+02  0.70622672047E+02 -0.14575505066E+03  0.17333417957E+03  0.47000000000E+01 0. -1.
<mgrwt>
<rscale>  0 0.14152885E+03</rscale>
<asrwt>0</asrwt>
<pdfrwt beam="2">  1        5 0.90951327E-01 0.14153018E+03</pdfrwt>
<pdfrwt beam="1">  1       -5 0.59619756E-02 0.14153018E+03</pdfrwt>
<totfact> 0.14167325E+02</totfact>
</mgrwt>
</event>
<event>
 8    1  0.3542708E-007  0.1494934E+03  0.7546771E-02  0.1201100E+00
          5   -1    0    0  501    0  0.00000000000E+00  0.00000000000E+00  0.16610234274E+03  0.16616882459E+03  0.47000000000E+01 0. -1.
         -5   -1    0    0    0  501 -0.00000000000E+00 -0.00000000000E+00 -0.13929879130E+03  0.13937805874E+03  0.47000000000E+01 0. -1.
         25    2    1    2    0    0 -0.90156582540E+01 -0.81494847965E+02 -0.15230946511E+02  0.15025626645E+03  0.12498908567E+03 0.  0.
         25    2    1    2    0    0  0.90156582540E+01  0.81494847965E+02  0.42034497951E+02  0.15529061688E+03  0.12500233732E+03 0.  0.
          5    1    4    4  502    0 -0.27150437765E+02 -0.56930488432E+01 -0.26419232812E+02  0.38595633670E+02  0.47000000000E+01 0.  1.
         -5    1    4    4    0  502  0.36166096019E+02  0.87187896808E+02  0.68453730763E+02  0.11669498321E+03  0.47000000000E+01 0.  1.
          5    1    3    3  503    0 -0.49560973402E+02 -0.17949089196E+02 -0.44613772623E+02  0.69216606354E+02  0.47000000000E+01 0. -1.
         -5    1    3    3    0  503  0.40545315148E+02 -0.63545758769E+02  0.29382826112E+02  0.81039660095E+02  0.47000000000E+01 0. -1.
<mgrwt>
<rscale>  0 0.14949063E+03</rscale>
<asrwt>0</asrwt>
<pdfrwt beam="1">  1        5 0.25565418E-01 0.14949340E+03</pdfrwt>
<pdfrwt beam="2">  1       -5 0.21441795E-01 0.14949340E+03</pdfrwt>
<totfact> 0.22129153E+02</totfact>
</mgrwt>
</event>
<event>
 8    1  0.3542708E-007  0.1259561E+03  0.7546771E-02  0.1233585E+00
         -5   -1    0    0    0  501 -0.00000000000E+00  0.00000000000E+00  0.69104215064E+03  0.69105813356E+03  0.47000000000E+01 0.  1.
          5   -1    0    0  501    0  0.00000000000E+00 -0.00000000000E+00 -0.23058237584E+02  0.23532367507E+02  0.47000000000E+01 0.  1.
         25    2    1    2    0    0 -0.34351671942E+01 -0.15084711865E+02  0.37808791639E+03  0.39851651394E+03  0.12500236179E+03 0.  0.
         25    2    1    2    0    0  0.34351671942E+01  0.15084711865E+02  0.28989599666E+03  0.31607398713E+03  0.12499491011E+03 0.  0.
          5    1    3    3  502    0 -0.62966416919E+02 -0.43543262073E+01  0.15762535197E+03  0.16985750322E+03  0.47000000000E+01 0.  1.
         -5    1    3    3    0  502  0.59531249725E+02 -0.10730385658E+02  0.22046256443E+03  0.22865901072E+03  0.47000000000E+01 0.  1.
          5    1    4    4  503    0  0.63105289632E+02  0.18674874728E+02  0.15008847631E+03  0.16395020355E+03  0.47000000000E+01 0. -1.
         -5    1    4    4    0  503 -0.59670122438E+02 -0.35901628627E+01  0.13980752035E+03  0.15212378357E+03  0.47000000000E+01 0. -1.
<mgrwt>
<rscale>  0 0.12595425E+03</rscale>
<asrwt>0</asrwt>
<pdfrwt beam="2">  1        5 0.35851231E-02 0.12595610E+03</pdfrwt>
<pdfrwt beam="1">  1       -5 0.10635185E+00 0.12595610E+03</pdfrwt>
<totfact> 0.21614651E+02</totfact>
</mgrwt>
</event>
<event>
 8    1  0.3542708E-007  0.1330327E+03  0.7546771E-02  0.1223028E+00
         -5   -1    0    0    0  501 -0.00000000000E+00  0.00000000000E+00  0.10868816559E+04  0.10868918180E+04  0.47000000000E+01 0.  1.
          5   -1    0    0  501    0  0.00000000000E+00 -0.00000000000E+00 -0.16215162211E+02  0.16882579351E+02  0.47000000000E+01 0.  1.
         25    2    1    2    0    0  0.22900564278E+02  0.39301303648E+02  0.60681585477E+03  0.62122715226E+03  0.12501465832E+03 0.  0.
         25    2    1    2    0    0 -0.22900564278E+02 -0.39301303648E+02  0.46385063892E+03  0.48254724504E+03  0.12500160063E+03 0.  0.
          5    1    3    3  502    0  0.23966692513E+01 -0.16357484528E+02  0.71477093258E+01  0.18614270660E+02  0.47000000000E+01 0. -1.
         -5    1    3    3    0  502  0.20503895027E+02  0.55658788176E+02  0.59966814545E+03  0.60261288160E+03  0.47000000000E+01 0. -1.
          5    1    4    4  503    0  0.44168200722E+02 -0.42094753883E+02  0.28404745546E+03  0.29056470056E+03  0.47000000000E+01 0.  1.
         -5    1    4    4    0  503 -0.67068765000E+02  0.27934502350E+01  0.17980318346E+03  0.19198254448E+03  0.47000000000E+01 0.  1.
<mgrwt>
<rscale>  0 0.13302961E+03</rscale>
<asrwt>0</asrwt>
<pdfrwt beam="2">  1        5 0.25467611E-02 0.13303268E+03</pdfrwt>
<pdfrwt beam="1">  1       -5 0.16726473E+00 0.13303268E+03</pdfrwt>
<totfact> 0.11616966E+02</totfact>
</mgrwt>
</event>
<event>
 8    1  0.3542708E-007  0.1250412E+03  0.7546771E-02  0.1235008E+00
         -5   -1    0    0    0  501 -0.00000000000E+00  0.00000000000E+00  0.44457440985E+03  0.44459925314E+03  0.47000000000E+01 0. -1.
          5   -1    0    0  501    0  0.00000000000E+00 -0.00000000000E+00 -0.43113594570E+02  0.43369021625E+02  0.47000000000E+01 0. -1.
         25    2    1    2    0    0  0.86215806599E-01 -0.32316244483E+01  0.30630235060E+03  0.33084200070E+03  0.12499939446E+03 0.  0.
         25    2    1    2    0    0 -0.86215806599E-01  0.32316244483E+01  0.95158464680E+02  0.15712627407E+03  0.12499232685E+03 0.  0.
          5    1    3    3  502    0 -0.25128909922E+02 -0.37941347577E+02  0.27169995022E+03  0.27552488258E+03  0.47000000000E+01 0. -1.
         -5    1    3    3    0  502  0.25215125728E+02  0.34709723128E+02  0.34602400374E+02  0.55317118117E+02  0.47000000000E+01 0. -1.
          5    1    4    4  503    0 -0.14511776399E+02  0.57630150586E+02  0.77860025102E+02  0.98061712303E+02  0.47000000000E+01 0. -1.
         -5    1    4    4    0  503  0.14425560592E+02 -0.54398526138E+02  0.17298439578E+02  0.59064561763E+02  0.47000000000E+01 0. -1.
<mgrwt>
<rscale>  0 0.12503942E+03</rscale>
<asrwt>0</asrwt>
<pdfrwt beam="2">  1        5 0.66544201E-02 0.12504119E+03</pdfrwt>
<pdfrwt beam="1">  1       -5 0.68417621E-01 0.12504119E+03</pdfrwt>
<totfact> 0.21763434E+02</totfact>
</mgrwt>
</event>
<event>
 8    1  0.3542708E-007  0.1299002E+03  0.7546771E-02  0.1227605E+00
          5   -1    0    0  501    0  0.00000000000E+00  0.00000000000E+00  0.61702321676E+03  0.61704111696E+03  0.47000000000E+01 0.  1.
         -5   -1    0    0    0  501 -0.00000000000E+00 -0.00000000000E+00 -0.39257698150E+02  0.39538043250E+02  0.47000000000E+01 0.  1.
         25    2    1    2    0    0 -0.31271935507E+02 -0.16431882460E+02  0.10721828010E+03  0.16843086932E+03  0.12500102975E+03 0.  0.
         25    2    1    2    0    0  0.31271935507E+02  0.16431882460E+02  0.47054723851E+03  0.48814829089E+03  0.12500443801E+03 0.  0.
          5    1    4    4  502    0  0.54594367497E+02  0.14626518431E+02  0.86962356275E+02  0.10382206612E+03  0.47000000000E+01 0. -1.
         -5    1    4    4    0  502 -0.23322431990E+02  0.18053640289E+01  0.38358488223E+03  0.38432622478E+03  0.47000000000E+01 0. -1.
          5    1    3    3  503    0  0.26202526520E+02 -0.50330206996E+02  0.75057558232E+02  0.94209496231E+02  0.47000000000E+01 0.  1.
         -5    1    3    3    0  503 -0.57474462027E+02  0.33898324536E+02  0.32160721870E+02  0.74221373087E+02  0.47000000000E+01 0.  1.
<mgrwt>
<rscale>  0 0.12989933E+03</rscale>
<asrwt>0</asrwt>
<pdfrwt beam="1">  1        5 0.94949583E-01 0.12990015E+03</pdfrwt>
<pdfrwt beam="2">  1       -5 0.60625883E-02 0.12990015E+03</pdfrwt>
<totfact> 0.12085297E+02</totfact>
</mgrwt>
</event>
<event>
 8    1  0.3542708E-007  0.1752518E+03  0.7546771E-02  0.1172480E+00
          5   -1    0    0  501    0  0.00000000000E+00  0.00000000000E+00  0.94548977897E+03  0.94550146067E+03  0.47000000000E+01 0.  1.
         -5   -1    0    0    0  501 -0.00000000000E+00 -0.00000000000E+00 -0.32763054024E+02  0.33098454782E+02  0.47000000000E+01 0.  1.
         25    2    1    2    0    0  0.15904492889E+02  0.12180060907E+03  0.39858067513E+03  0.43540757454E+03  0.12499944047E+03 0.  0.
         25    2    1    2    0    0 -0.15904492889E+02 -0.12180060907E+03  0.51414604981E+03  0.54319234091E+03  0.12499366952E+03 0.  0.
          5    1    3    3  502    0  0.30951645261E+02  0.32175835469E+02  0.29125908528E+03  0.29469854681E+03  0.47000000000E+01 0. -1.
         -5    1    3    3    0  502 -0.15047152372E+02  0.89624773605E+02  0.10732158985E+03  0.14070902773E+03  0.47000000000E+01 0. -1.
          5    1    4    4  503    0 -0.55458344281E+02 -0.59533714652E+02  0.14155141698E+03  0.16333641597E+03  0.47000000000E+01 0. -1.
         -5    1    4    4    0  503  0.39553851392E+02 -0.62266894422E+02  0.37259463283E+03  0.37985592494E+03  0.47000000000E+01 0. -1.
<mgrwt>
<rscale>  0 0.17525079E+03</rscale>
<asrwt>0</asrwt>
<pdfrwt beam="1">  1        5 0.14548665E+00 0.17525182E+03</pdfrwt>
<pdfrwt beam="2">  1       -5 0.50671690E-02 0.17525182E+03</pdfrwt>
<totfact> 0.60295962E+01</totfact>
</mgrwt>
</event>
<event>
 8    1  0.3542708E-007  0.1266804E+03  0.7546771E-02  0.1232468E+00
          5   -1    0    0  501    0  0.00000000000E+00  0.00000000000E+00  0.13414237604E+03  0.13422468867E+03  0.47000000000E+01 0. -1.
         -5   -1    0    0    0  501 -0.00000000000E+00 -0.00000000000E+00 -0.12695171919E+03  0.12703869098E+03  0.47000000000E+01 0. -1.
         25    2    1    2    0    0 -0.20097738249E+02  0.42272051949E+01 -0.28108171454E+02  0.12976129492E+03  0.12500454395E+03 0.  0.
         25    2    1    2    0    0  0.20097738249E+02 -0.42272051949E+01  0.35298828295E+02  0.13150208474E+03  0.12500001066E+03 0.  0.
          5    1    4    4  502    0 -0.96124194560E+01  0.26903484978E+02  0.70174254372E+02  0.75912529193E+02  0.47000000000E+01 0. -1.
         -5    1    4    4    0  502  0.29710157705E+02 -0.31130690173E+02 -0.34875426077E+02  0.55589555544E+02  0.47000000000E+01 0. -1.
          5    1    3    3  503    0  0.92679516115E+01 -0.39605936752E+02  0.30279958373E+02  0.50926329459E+02  0.47000000000E+01 0.  1.
         -5    1    3    3    0  503 -0.29365689861E+02  0.43833141947E+02 -0.58388129827E+02  0.78834965457E+02  0.47000000000E+01 0.  1.
<mgrwt>
<rscale>  0 0.12667928E+03</rscale>
<asrwt>0</asrwt>
<pdfrwt beam="1">  1        5 0.20650310E-01 0.12668040E+03</pdfrwt>
<pdfrwt beam="2">  1       -5 0.19544056E-01 0.12668040E+03</pdfrwt>
<totfact> 0.37257959E+02</totfact>
</mgrwt>
</event>
<event>
 8    1  0.3542708E-007  0.1453847E+03  0.7546771E-02  0.1206263E+00
          5   -1    0    0  501    0  0.00000000000E+00  0.00000000000E+00  0.13709639494E+03  0.13717693504E+03  0.47000000000E+01 0. -1.
         -5   -1    0    0    0  501 -0.00000000000E+00 -0.00000000000E+00 -0.16001341343E+03  0.16008242401E+03  0.47000000000E+01 0. -1.
         25    2    1    2    0    0 -0.61331707999E+02  0.41809621723E+02 -0.40239121893E+02  0.15084640592E+03  0.12500331345E+03 0.  0.
         25    2    1    2    0    0  0.61331707999E+02 -0.41809621723E+02  0.17322103406E+02  0.14641295313E+03  0.12500829854E+03 0.  0.
          5    1    3    3  502    0 -0.27585689373E+02 -0.40907891118E+02  0.63732197611E+01  0.49971329221E+02  0.47000000000E+01 0.  1.
         -5    1    3    3    0  502 -0.33746018625E+02  0.82717512842E+02 -0.46612341654E+02  0.10087507670E+03  0.47000000000E+01 0.  1.
          5    1    4    4  503    0  0.44773621227E+02  0.39800133908E+02  0.18901989246E+02  0.62992880664E+02  0.47000000000E+01 0.  1.
         -5    1    4    4    0  503  0.16558086772E+02 -0.81609755631E+02 -0.15798858408E+01  0.83420072471E+02  0.47000000000E+01 0.  1.
<mgrwt>
<rscale>  0 0.14538358E+03</rscale>
<asrwt>0</asrwt>
<pdfrwt beam="1">  1        5 0.21103257E-01 0.14538465E+03</pdfrwt>
<pdfrwt beam="2">  1       -5 0.24628952E-01 0.14538465E+03</pdfrwt>
<totfact> 0.24268413E+02</totfact>
</mgrwt>
</event>
<event>
 8    1  0.3542708E-007  0.1250473E+03  0.7546771E-02  0.1235007E+00
         -5   -1    0    0    0  501 -0.00000000000E+00  0.00000000000E+00  0.14372171902E+03  0.14379854838E+03  0.47000000000E+01 0. -1.
          5   -1    0    0  501    0  0.00000000000E+00 -0.00000000000E+00 -0.10885079361E+03  0.10895221553E+03  0.47000000000E+01 0. -1.
         25    2    1    2    0    0 -0.25959783552E+01 -0.24496232093E+00  0.23281465837E+02  0.12719613955E+03  0.12502012699E+03 0.  0.
         25    2    1    2    0    0  0.25959783552E+01  0.24496232093E+00  0.11589459575E+02  0.12555462437E+03  0.12499139577E+03 0.  0.
          5    1    4    4  502    0 -0.15026459435E+02  0.57560790469E+02  0.23683500261E+02  0.64203093906E+02  0.47000000000E+01 0.  1.
         -5    1    4    4    0  502  0.17622437790E+02 -0.57315828148E+02 -0.12094040686E+02  0.61351530462E+02  0.47000000000E+01 0.  1.
          5    1    3    3  503    0  0.88615701403E+01 -0.35943979788E+02 -0.39234922965E+02  0.54147634191E+02  0.47000000000E+01 0. -1.
         -5    1    3    3    0  503 -0.11457548495E+02  0.35699017467E+02  0.62516388802E+02  0.73048505355E+02  0.47000000000E+01 0. -1.
<mgrwt>
<rscale>  0 0.12504013E+03</rscale>
<asrwt>0</asrwt>
<pdfrwt beam="2">  1        5 0.16759988E-01 0.12504732E+03</pdfrwt>
<pdfrwt beam="1">  1       -5 0.22124745E-01 0.12504732E+03</pdfrwt>
<totfact> 0.43238265E+02</totfact>
</mgrwt>
</event>
<event>
 8    1  0.3542708E-007  0.1418904E+03  0.7546771E-02  0.1210810E+00
         -5   -1    0    0    0  501 -0.00000000000E+00  0.00000000000E+00  0.86903064460E+02  0.87030067290E+02  0.47000000000E+01 0. -1.
          5   -1    0    0  501    0  0.00000000000E+00 -0.00000000000E+00 -0.25406494662E+03  0.25410841603E+03  0.47000000000E+01 0. -1.
         25    2    1    2    0    0 -0.65819998684E+02  0.13298677527E+02 -0.32584587744E+02  0.14557789639E+03  0.12498816548E+03 0.  0.
         25    2    1    2    0    0  0.65819998684E+02 -0.13298677527E+02 -0.13457729441E+03  0.19556058693E+03  0.12499507166E+03 0.  0.
          5    1    3    3  502    0 -0.22316554239E+02  0.53696869534E+02  0.24322407159E+02  0.63206422782E+02  0.47000000000E+01 0.  1.
         -5    1    3    3    0  502 -0.43503444445E+02 -0.40398192007E+02 -0.56906994903E+02  0.82371473612E+02  0.47000000000E+01 0.  1.
          5    1    4    4  503    0  0.70466324093E+01  0.10302737573E+02  0.22485434185E+02  0.26143568622E+02  0.47000000000E+01 0. -1.
         -5    1    4    4    0  503  0.58773366275E+02 -0.23601415100E+02 -0.15706272860E+03  0.16941701831E+03  0.47000000000E+01 0. -1.
<mgrwt>
<rscale>  0 0.14188891E+03</rscale>
<asrwt>0</asrwt>
<pdfrwt beam="2">  1        5 0.39100028E-01 0.14189043E+03</pdfrwt>
<pdfrwt beam="1">  1       -5 0.13382816E-01 0.14189043E+03</pdfrwt>
<totfact> 0.22281129E+02</totfact>
</mgrwt>
</event>
<event>
 8    1  0.3542708E-007  0.2340593E+03  0.7546771E-02  0.1123815E+00
          5   -1    0    0  501    0  0.00000000000E+00  0.00000000000E+00  0.37208659686E+03  0.37211627963E+03  0.47000000000E+01 0.  1.
         -5   -1    0    0    0  501 -0.00000000000E+00 -0.00000000000E+00 -0.22420419651E+03  0.22425345422E+03  0.47000000000E+01 0.  1.
         25    2    1    2    0    0 -0.19760321474E+03  0.10556238396E+02 -0.10081978009E+03  0.25484882494E+03  0.12499932349E+03 0.  0.
         25    2    1    2    0    0  0.19760321474E+03 -0.10556238396E+02  0.24870218045E+03  0.34152090891E+03  0.12500116809E+03 0.  0.
          5    1    4    4  502    0  0.18409805995E+03  0.21358911280E+02  0.24368484627E+03  0.30619061558E+03  0.47000000000E+01 0.  1.
         -5    1    4    4    0  502  0.13505154789E+02 -0.31915149676E+02  0.50173341735E+01  0.35330293332E+02  0.47000000000E+01 0.  1.
          5    1    3    3  503    0 -0.12431021941E+03 -0.50424796729E+02 -0.82767750789E+02  0.15769680195E+03  0.47000000000E+01 0.  1.
         -5    1    3    3    0  503 -0.73292995325E+02  0.60981035125E+02 -0.18052029300E+02  0.97152022987E+02  0.47000000000E+01 0.  1.
<mgrwt>
<rscale>  0 0.23405906E+03</rscale>
<asrwt>0</asrwt>
<pdfrwt beam="1">  1        5 0.57250163E-01 0.23405930E+03</pdfrwt>
<pdfrwt beam="2">  1       -5 0.34499026E-01 0.23405930E+03</pdfrwt>
<totfact> 0.19035541E+01</totfact>
</mgrwt>
</event>
<event>
 8    1  0.3542708E-007  0.1514094E+03  0.7546771E-02  0.1198752E+00
          5   -1    0    0  501    0  0.00000000000E+00  0.00000000000E+00  0.11801221032E+03  0.11810576524E+03  0.47000000000E+01 0.  1.
         -5   -1    0    0    0  501 -0.00000000000E+00 -0.00000000000E+00 -0.19588699695E+03  0.19594337339E+03  0.47000000000E+01 0.  1.
         25    2    1    2    0    0 -0.74681770535E+02  0.41500724249E+02 -0.54102430018E+02  0.16078489757E+03  0.12500013355E+03 0.  0.
         25    2    1    2    0    0  0.74681770535E+02 -0.41500724249E+02 -0.23772356618E+02  0.15326424106E+03  0.12500050274E+03 0.  0.
          5    1    4    4  502    0  0.20497144249E+02  0.46267604989E+01  0.47677571726E+02  0.52314249309E+02  0.47000000000E+01 0.  1.
         -5    1    4    4    0  502  0.54184626286E+02 -0.46127484748E+02 -0.71449928345E+02  0.10094999176E+03  0.47000000000E+01 0.  1.
          5    1    3    3  503    0 -0.50497670304E+02 -0.40997943864E+02 -0.26154602289E+02  0.70263783901E+02  0.47000000000E+01 0. -1.
         -5    1    3    3    0  503 -0.24184100231E+02  0.82498668113E+02 -0.27947827729E+02  0.90521113665E+02  0.47000000000E+01 0. -1.
<mgrwt>
<rscale>  0 0.15140931E+03</rscale>
<asrwt>0</asrwt>
<pdfrwt beam="1">  1        5 0.18167258E-01 0.15140939E+03</pdfrwt>
<pdfrwt beam="2">  1       -5 0.30147994E-01 0.15140939E+03</pdfrwt>
<totfact> 0.21970541E+02</totfact>
</mgrwt>
</event>
<event>
 8    1  0.3542708E-007  0.1574666E+03  0.7546771E-02  0.1191589E+00
          5   -1    0    0  501    0  0.00000000000E+00  0.00000000000E+00  0.16920346334E+03  0.16926872719E+03  0.47000000000E+01 0.  1.
         -5   -1    0    0    0  501 -0.00000000000E+00 -0.00000000000E+00 -0.17115578712E+03  0.17122030681E+03  0.47000000000E+01 0.  1.
         25    2    1    2    0    0  0.67177295799E+02  0.68254841342E+02 -0.65690416639E+02  0.17061931779E+03  0.12499683327E+03 0.  0.
         25    2    1    2    0    0 -0.67177295799E+02 -0.68254841342E+02  0.63738092858E+02  0.16986971621E+03  0.12498665356E+03 0.  0.
          5    1    3    3  502    0  0.97231255087E+01  0.65547135566E+02  0.18123735224E+02  0.68858738945E+02  0.47000000000E+01 0.  1.
         -5    1    3    3    0  502  0.57454170291E+02  0.27077057757E+01 -0.83814151863E+02  0.10176057884E+03  0.47000000000E+01 0.  1.
          5    1    4    4  503    0  0.10944433815E+02 -0.64672087700E+02 -0.45829178552E+01  0.65919289248E+02  0.47000000000E+01 0. -1.
         -5    1    4    4    0  503 -0.78121729614E+02 -0.35827536420E+01  0.68321010713E+02  0.10395042697E+03  0.47000000000E+01 0. -1.
<mgrwt>
<rscale>  0 0.15746455E+03</rscale>
<asrwt>0</asrwt>
<pdfrwt beam="1">  1        5 0.26041285E-01 0.15746657E+03</pdfrwt>
<pdfrwt beam="2">  1       -5 0.26341643E-01 0.15746657E+03</pdfrwt>
<totfact> 0.14666887E+02</totfact>
</mgrwt>
</event>
<event>
 8    1  0.3542708E-007  0.1269198E+03  0.7546771E-02  0.1232100E+00
          5   -1    0    0  501    0  0.00000000000E+00  0.00000000000E+00  0.62331419159E+02  0.62508365955E+02  0.47000000000E+01 0. -1.
         -5   -1    0    0    0  501 -0.00000000000E+00 -0.00000000000E+00 -0.25910303441E+03  0.25914565873E+03  0.47000000000E+01 0. -1.
         25    2    1    2    0    0  0.16608288572E+02 -0.14395439333E+02 -0.87285143460E+02  0.15403674821E+03  0.12500223841E+03 0.  0.
         25    2    1    2    0    0 -0.16608288572E+02  0.14395439333E+02 -0.10948647179E+03  0.16761727647E+03  0.12500079978E+03 0.  0.
          5    1    3    3  502    0  0.79431694666E+01  0.55061989121E+02 -0.29476278479E+02  0.63133648557E+02  0.47000000000E+01 0. -1.
         -5    1    3    3    0  502  0.86651191056E+01 -0.69457428455E+02 -0.57808864980E+02  0.90903099655E+02  0.47000000000E+01 0. -1.
          5    1    4    4  503    0 -0.14996779246E+02  0.48326165276E+02  0.21195443677E+01  0.50861617221E+02  0.47000000000E+01 0.  1.
         -5    1    4    4    0  503 -0.16115093261E+01 -0.33930725943E+02 -0.11160601616E+03  0.11675565925E+03  0.47000000000E+01 0.  1.
<mgrwt>
<rscale>  0 0.12691940E+03</rscale>
<asrwt>0</asrwt>
<pdfrwt beam="1">  1        5 0.96063393E-02 0.12691975E+03</pdfrwt>
<pdfrwt beam="2">  1       -5 0.39878895E-01 0.12691975E+03</pdfrwt>
<totfact> 0.36932262E+02</totfact>
</mgrwt>
</event>
<event>
 8    1  0.3542708E-007  0.1634046E+03  0.7546771E-02  0.1184906E+00
         -5   -1    0    0    0  501 -0.00000000000E+00  0.00000000000E+00  0.45001721214E+03  0.45004175497E+03  0.47000000000E+01 0. -1.
          5   -1    0    0  501    0  0.00000000000E+00 -0.00000000000E+00 -0.59423638162E+02  0.59609217176E+02  0.47000000000E+01 0. -1.
         25    2    1    2    0    0 -0.98280990531E+02  0.37614166598E+02  0.21043882346E+03  0.26643118642E+03  0.12500839991E+03 0.  0.
         25    2    1    2    0    0  0.98280990531E+02 -0.37614166598E+02  0.18015475051E+03  0.24321978573E+03  0.12500460555E+03 0.  0.
          5    1    3    3  502    0 -0.72842809698E+02 -0.23125773488E+02  0.17607597299E+03  0.19200446502E+03  0.47000000000E+01 0. -1.
         -5    1    3    3    0  502 -0.25438180833E+02  0.60739940086E+02  0.34362850474E+02  0.74426721401E+02  0.47000000000E+01 0. -1.
          5    1    4    4  503    0  0.27445709226E+02  0.72275252801E+01  0.15193915305E+03  0.15463861195E+03  0.47000000000E+01 0.  1.
         -5    1    4    4    0  503  0.70835281305E+02 -0.44841691878E+02  0.28215597467E+02  0.88581173782E+02  0.47000000000E+01 0.  1.
<mgrwt>
<rscale>  0 0.16340392E+03</rscale>
<asrwt>0</asrwt>
<pdfrwt beam="2">  1        5 0.91582617E-02 0.16340465E+03</pdfrwt>
<pdfrwt beam="1">  1       -5 0.69249578E-01 0.16340465E+03</pdfrwt>
<totfact> 0.13388199E+02</totfact>
</mgrwt>
</event>
<event>
 8    1  0.3542708E-007  0.1555502E+03  0.7546771E-02  0.1193815E+00
         -5   -1    0    0    0  501 -0.00000000000E+00  0.00000000000E+00  0.17774794035E+02  0.18385682010E+02  0.47000000000E+01 0. -1.
          5   -1    0    0  501    0  0.00000000000E+00 -0.00000000000E+00 -0.14121301669E+04  0.14121379884E+04  0.47000000000E+01 0. -1.
         25    2    1    2    0    0 -0.78882823880E+02  0.48443980099E+02 -0.53288779814E+03  0.55512533925E+03  0.12500167105E+03 0.  0.
         25    2    1    2    0    0  0.78882823880E+02 -0.48443980099E+02 -0.86146757474E+03  0.87539833116E+03  0.12500614692E+03 0.  0.
          5    1    3    3  502    0  0.10803836409E+01 -0.31524253775E+02 -0.51213911376E+02  0.60331588105E+02  0.47000000000E+01 0.  1.
         -5    1    3    3    0  502 -0.79963207520E+02  0.79968233873E+02 -0.48167388676E+03  0.49479375115E+03  0.47000000000E+01 0.  1.
          5    1    4    4  503    0 -0.30830864154E+02 -0.20210538141E+02 -0.32242646232E+03  0.32456112157E+03  0.47000000000E+01 0. -1.
         -5    1    4    4    0  503  0.10971368803E+03 -0.28233441958E+02 -0.53904111242E+03  0.55083720959E+03  0.47000000000E+01 0. -1.
<mgrwt>
<rscale>  0 0.15554927E+03</rscale>
<asrwt>0</asrwt>
<pdfrwt beam="2">  1        5 0.21729830E+00 0.15555017E+03</pdfrwt>
<pdfrwt beam="1">  1       -5 0.27821778E-02 0.15555017E+03</pdfrwt>
<totfact> 0.47519077E+01</totfact>
</mgrwt>
</event>
<event>
 8    1  0.3542708E-007  0.1262676E+03  0.7546771E-02  0.1233104E+00
         -5   -1    0    0    0  501 -0.00000000000E+00  0.00000000000E+00  0.70444990175E+02  0.70601605086E+02  0.47000000000E+01 0.  1.
          5   -1    0    0  501    0  0.00000000000E+00 -0.00000000000E+00 -0.39254832353E+03  0.39257645919E+03  0.47000000000E+01 0.  1.
         25    2    1    2    0    0  0.81975047104E+01  0.15827021915E+02 -0.10183448063E+02  0.12667022141E+03  0.12499579462E+03 0.  0.
         25    2    1    2    0    0 -0.81975047104E+01 -0.15827021915E+02 -0.31191988529E+03  0.33650784286E+03  0.12500327900E+03 0.  0.
          5    1    4    4  502    0 -0.10551895895E+02  0.50862512006E+02 -0.83123553063E+02  0.98132322445E+02  0.47000000000E+01 0.  1.
         -5    1    4    4    0  502  0.23543911849E+01 -0.66689533920E+02 -0.22879633223E+03  0.23837552042E+03  0.47000000000E+01 0.  1.
          5    1    3    3  503    0  0.32287221361E+02  0.62150946726E+02 -0.20737976700E+02  0.73193978713E+02  0.47000000000E+01 0. -1.
         -5    1    3    3    0  503 -0.24089716651E+02 -0.46323924812E+02  0.10554528638E+02  0.53476242698E+02  0.47000000000E+01 0. -1.
<mgrwt>
<rscale>  0 0.12626577E+03</rscale>
<asrwt>0</asrwt>
<pdfrwt beam="2">  1        5 0.60406260E-01 0.12626763E+03</pdfrwt>
<pdfrwt beam="1">  1       -5 0.10851903E-01 0.12626763E+03</pdfrwt>
<totfact> 0.12401479E+02</totfact>
</mgrwt>
</event>
<event>
 8    1  0.3542708E-007  0.1345643E+03  0.7546771E-02  0.1220839E+00
          5   -1    0    0  501    0  0.00000000000E+00  0.00000000000E+00  0.14452296580E+03  0.14459936944E+03  0.47000000000E+01 0. -1.
         -5   -1    0    0    0  501 -0.00000000000E+00 -0.00000000000E+00 -0.13242363167E+03  0.13250701198E+03  0.47000000000E+01 0. -1.
         25    2    1    2    0    0  0.39181425846E+02  0.30765075194E+02 -0.26443756183E+02  0.13713097250E+03  0.12499582951E+03 0.  0.
         25    2    1    2    0    0 -0.39181425846E+02 -0.30765075194E+02  0.38543090316E+02  0.13997540892E+03  0.12500348519E+03 0.  0.
          5    1    3    3  502    0  0.60335622122E+02 -0.62236852076E+00 -0.60807303146E+02  0.85792731366E+02  0.47000000000E+01 0.  1.
         -5    1    3    3    0  502 -0.21154196275E+02  0.31387443715E+02  0.34363546962E+02  0.51338241135E+02  0.47000000000E+01 0.  1.
          5    1    4    4  503    0  0.11772089625E+02 -0.19531597771E+02  0.73430412134E+02  0.77033634419E+02  0.47000000000E+01 0. -1.
         -5    1    4    4    0  503 -0.50953515472E+02 -0.11233477422E+02 -0.34887321818E+02  0.62941774503E+02  0.47000000000E+01 0. -1.
<mgrwt>
<rscale>  0 0.13456250E+03</rscale>
<asrwt>0</asrwt>
<pdfrwt beam="1">  1        5 0.22246594E-01 0.13456428E+03</pdfrwt>
<pdfrwt beam="2">  1       -5 0.20385157E-01 0.13456428E+03</pdfrwt>
<totfact> 0.30607005E+02</totfact>
</mgrwt>
</event>
<event>
 8    1  0.3542708E-007  0.1402144E+03  0.7546771E-02  0.1213048E+00
         -5   -1    0    0    0  501 -0.00000000000E+00  0.00000000000E+00  0.22281932213E+03  0.22286888593E+03  0.47000000000E+01 0.  1.
          5   -1    0    0  501    0  0.00000000000E+00 -0.00000000000E+00 -0.12155851015E+03  0.12164933781E+03  0.47000000000E+01 0.  1.
         25    2    1    2    0    0  0.63425122675E+02 -0.31707567921E+01  0.14094622920E+03  0.19879580714E+03  0.12498453315E+03 0.  0.
         25    2    1    2    0    0 -0.63425122675E+02  0.31707567921E+01 -0.39685417212E+02  0.14572241659E+03  0.12500916156E+03 0.  0.
          5    1    4    4  502    0 -0.34314213300E+02 -0.42912941386E+02 -0.65167130436E+02  0.85368792085E+02  0.47000000000E+01 0. -1.
         -5    1    4    4    0  502 -0.29110909375E+02  0.46083698178E+02  0.25481713224E+02  0.60353624508E+02  0.47000000000E+01 0. -1.
          5    1    3    3  503    0  0.44830780703E+02  0.59010997270E+02  0.64076396477E+02  0.98081452287E+02  0.47000000000E+01 0. -1.
         -5    1    3    3    0  503  0.18594341972E+02 -0.62181754062E+02  0.76869832719E+02  0.10071435486E+03  0.47000000000E+01 0. -1.
<mgrwt>
<rscale>  0 0.14020895E+03</rscale>
<asrwt>0</asrwt>
<pdfrwt beam="2">  1        5 0.18712109E-01 0.14021444E+03</pdfrwt>
<pdfrwt beam="1">  1       -5 0.34290695E-01 0.14021444E+03</pdfrwt>
<totfact> 0.15710208E+02</totfact>
</mgrwt>
</event>
<event>
 8    1  0.3542708E-007  0.1294336E+03  0.7546771E-02  0.1228299E+00
          5   -1    0    0  501    0  0.00000000000E+00  0.00000000000E+00  0.61490312074E+03  0.61492108266E+03  0.47000000000E+01 0. -1.
         -5   -1    0    0    0  501 -0.00000000000E+00 -0.00000000000E+00 -0.30361481505E+02  0.30723111158E+02  0.47000000000E+01 0. -1.
         25    2    1    2    0    0  0.20926818094E+02  0.26270698229E+02  0.18593027422E+03  0.22654507145E+03  0.12499808488E+03 0.  0.
         25    2    1    2    0    0 -0.20926818094E+02 -0.26270698229E+02  0.39861136502E+03  0.41909912237E+03  0.12499989100E+03 0.  0.
          5    1    4    4  502    0 -0.12862622750E+02 -0.76631067797E+02  0.25569354558E+03  0.26728083894E+03  0.47000000000E+01 0. -1.
         -5    1    4    4    0  502 -0.80641953438E+01  0.50360369568E+02  0.14291781944E+03  0.15181828343E+03  0.47000000000E+01 0. -1.
          5    1    3    3  503    0  0.41825729709E+02 -0.14132591408E+01  0.51723754094E+01  0.42429146050E+02  0.47000000000E+01 0.  1.
         -5    1    3    3    0  503 -0.20898911616E+02  0.27683957370E+02  0.18075789881E+03  0.18411592540E+03  0.47000000000E+01 0.  1.
<mgrwt>
<rscale>  0 0.12943315E+03</rscale>
<asrwt>0</asrwt>
<pdfrwt beam="1">  1        5 0.94629678E-01 0.12943359E+03</pdfrwt>
<pdfrwt beam="2">  1       -5 0.47001966E-02 0.12943359E+03</pdfrwt>
<totfact> 0.18595405E+02</totfact>
</mgrwt>
</event>
<event>
 8    1  0.3542708E-007  0.1462452E+03  0.7546771E-02  0.1205165E+00
         -5   -1    0    0    0  501 -0.00000000000E+00  0.00000000000E+00  0.63641062543E+02  0.63814378016E+02  0.47000000000E+01 0.  1.
          5   -1    0    0  501    0  0.00000000000E+00 -0.00000000000E+00 -0.51399660882E+03  0.51401809684E+03  0.47000000000E+01 0.  1.
         25    2    1    2    0    0  0.48434091244E+02 -0.58450990665E+02 -0.54914081466E+02  0.15621526486E+03  0.12500109251E+03 0.  0.
         25    2    1    2    0    0 -0.48434091244E+02  0.58450990665E+02 -0.39544146481E+03  0.42161720999E+03  0.12499896065E+03 0.  0.
          5    1    3    3  502    0  0.27085023855E+02  0.15926102666E+02  0.28256356990E+02  0.42517654847E+02  0.47000000000E+01 0. -1.
         -5    1    3    3    0  502  0.21349067389E+02 -0.74377093331E+02 -0.83170438456E+02  0.11369761002E+03  0.47000000000E+01 0. -1.
          5    1    4    4  503    0 -0.10125367194E+02  0.12961681076E+02 -0.33919415931E+03  0.33962522866E+03  0.47000000000E+01 0. -1.
         -5    1    4    4    0  503 -0.38308724050E+02  0.45489309589E+02 -0.56247305500E+02  0.81991981323E+02  0.47000000000E+01 0. -1.
<mgrwt>
<rscale>  0 0.14624472E+03</rscale>
<asrwt>0</asrwt>
<pdfrwt beam="2">  1        5 0.79091383E-01 0.14624518E+03</pdfrwt>
<pdfrwt beam="1">  1       -5 0.98059179E-02 0.14624518E+03</pdfrwt>
<totfact> 0.84783187E+01</totfact>
</mgrwt>
</event>
<event>
 8    1  0.3542708E-007  0.1363225E+03  0.7546771E-02  0.1218366E+00
          5   -1    0    0  501    0  0.00000000000E+00  0.00000000000E+00  0.27538033109E+03  0.27542043634E+03  0.47000000000E+01 0. -1.
         -5   -1    0    0    0  501 -0.00000000000E+00 -0.00000000000E+00 -0.70838360715E+02  0.70994107846E+02  0.47000000000E+01 0. -1.
         25    2    1    2    0    0  0.51349693858E+02  0.17918448223E+02  0.63916897725E+02  0.15056293467E+03  0.12500386249E+03 0.  0.
         25    2    1    2    0    0 -0.51349693858E+02 -0.17918448223E+02  0.14062507265E+03  0.19585160951E+03  0.12499832016E+03 0.  0.
          5    1    3    3  502    0  0.43620415586E+01 -0.51147029823E+02  0.33804459824E+02  0.61643146985E+02  0.47000000000E+01 0. -1.
         -5    1    3    3    0  502  0.46987652299E+02  0.69065478046E+02  0.30112437902E+02  0.88919787689E+02  0.47000000000E+01 0. -1.
          5    1    4    4  503    0 -0.18914641194E+02  0.36227116936E+02 -0.54716691661E+00  0.41140698154E+02  0.47000000000E+01 0.  1.
         -5    1    4    4    0  503 -0.32435052664E+02 -0.54145565159E+02  0.14117223957E+03  0.15471091136E+03  0.47000000000E+01 0.  1.
<mgrwt>
<rscale>  0 0.13632124E+03</rscale>
<asrwt>0</asrwt>
<pdfrwt beam="1">  1        5 0.42381270E-01 0.13632251E+03</pdfrwt>
<pdfrwt beam="2">  1       -5 0.10913275E-01 0.13632251E+03</pdfrwt>
<totfact> 0.26757874E+02</totfact>
</mgrwt>
</event>
<event>
 8    1  0.3542708E-007  0.1304504E+03  0.7546771E-02  0.1226790E+00
          5   -1    0    0  501    0  0.00000000000E+00  0.00000000000E+00  0.52453130645E+02  0.52663278614E+02  0.47000000000E+01 0. -1.
         -5   -1    0    0    0  501 -0.00000000000E+00 -0.00000000000E+00 -0.32361396956E+03  0.32364809793E+03  0.47000000000E+01 0. -1.
         25    2    1    2    0    0 -0.27692753825E+02 -0.25001883378E+02 -0.13833998769E+03  0.19014535222E+03  0.12500127995E+03 0.  0.
         25    2    1    2    0    0  0.27692753825E+02  0.25001883378E+02 -0.13282085122E+03  0.18616602432E+03  0.12499770920E+03 0.  0.
          5    1    4    4  502    0  0.30270482193E+02  0.72119980873E+02 -0.57619035341E+02  0.97260665055E+02  0.47000000000E+01 0.  1.
         -5    1    4    4    0  502 -0.25777283679E+01 -0.47118097495E+02 -0.75201815877E+02  0.88905359266E+02  0.47000000000E+01 0.  1.
          5    1    3    3  503    0  0.21984996583E+02  0.26752438454E+02 -0.10544566332E+03  0.11108515180E+03  0.47000000000E+01 0. -1.
         -5    1    3    3    0  503 -0.49677750408E+02 -0.51754321833E+02 -0.32894324372E+02  0.79060200416E+02  0.47000000000E+01 0. -1.
<mgrwt>
<rscale>  0 0.13044953E+03</rscale>
<asrwt>0</asrwt>
<pdfrwt beam="1">  1        5 0.80885030E-02 0.13045038E+03</pdfrwt>
<pdfrwt beam="2">  1       -5 0.49805554E-01 0.13045038E+03</pdfrwt>
<totfact> 0.31627823E+02</totfact>
</mgrwt>
</event>
<event>
 8    1  0.3542708E-007  0.1398281E+03  0.7546771E-02  0.1213569E+00
         -5   -1    0    0    0  501 -0.00000000000E+00  0.00000000000E+00  0.98067287129E+02  0.98179849281E+02  0.47000000000E+01 0. -1.
          5   -1    0    0  501    0  0.00000000000E+00 -0.00000000000E+00 -0.22427442914E+03  0.22432367144E+03  0.47000000000E+01 0. -1.
         25    2    1    2    0    0  0.55897260080E+01  0.62355127731E+02 -0.90825950191E+01  0.14012273586E+03  0.12502991874E+03 0.  0.
         25    2    1    2    0    0 -0.55897260080E+01 -0.62355127731E+02 -0.11712454699E+03  0.18238078486E+03  0.12500073674E+03 0.  0.
          5    1    4    4  502    0 -0.49036242459E+02 -0.57099259106E+01 -0.95555531145E+02  0.10765735396E+03  0.47000000000E+01 0.  1.
         -5    1    4    4    0  502  0.43446516451E+02 -0.56645201820E+02 -0.21569015848E+02  0.74723430901E+02  0.47000000000E+01 0.  1.
          5    1    3    3  503    0 -0.17361663837E+02 -0.12918682923E+02 -0.47512179783E+02  0.52419623877E+02  0.47000000000E+01 0. -1.
         -5    1    3    3    0  503  0.22951389845E+02  0.75273810654E+02  0.38429584764E+02  0.87703111982E+02  0.47000000000E+01 0. -1.
<mgrwt>
<rscale>  0 0.13982154E+03</rscale>
<asrwt>0</asrwt>
<pdfrwt beam="2">  1        5 0.34516205E-01 0.13982806E+03</pdfrwt>
<pdfrwt beam="1">  1       -5 0.15099722E-01 0.13982806E+03</pdfrwt>
<totfact> 0.22947526E+02</totfact>
</mgrwt>
</event>
<event>
 8    1  0.3542708E-007  0.1324502E+03  0.7546771E-02  0.1223866E+00
         -5   -1    0    0    0  501 -0.00000000000E+00  0.00000000000E+00  0.24581724425E+02  0.25027008924E+02  0.47000000000E+01 0.  1.
          5   -1    0    0  501    0  0.00000000000E+00 -0.00000000000E+00 -0.72803328846E+03  0.72804845931E+03  0.47000000000E+01 0.  1.
         25    2    1    2    0    0 -0.15683631008E+02  0.40897890402E+02 -0.28742896189E+03  0.31647822175E+03  0.12499777194E+03 0.  0.
         25    2    1    2    0    0  0.15683631008E+02 -0.40897890402E+02 -0.41602260215E+03  0.43659724648E+03  0.12499494557E+03 0.  0.
          5    1    3    3  502    0 -0.45166537731E+02  0.16321177239E+02 -0.31458181473E+02  0.57602987237E+02  0.47000000000E+01 0. -1.
         -5    1    3    3    0  502  0.29482906723E+02  0.24576713162E+02 -0.25597078042E+03  0.25887523452E+03  0.47000000000E+01 0. -1.
          5    1    4    4  503    0 -0.48178952604E+02 -0.37757291032E+02 -0.27370235497E+03  0.28050292978E+03  0.47000000000E+01 0.  1.
         -5    1    4    4    0  503  0.63862583612E+02 -0.31405993695E+01 -0.14232024718E+03  0.15609431670E+03  0.47000000000E+01 0.  1.
<mgrwt>
<rscale>  0 0.13244954E+03</rscale>
<asrwt>0</asrwt>
<pdfrwt beam="2">  1        5 0.11204052E+00 0.13245020E+03</pdfrwt>
<pdfrwt beam="1">  1       -5 0.38172240E-02 0.13245020E+03</pdfrwt>
<totfact> 0.17450770E+02</totfact>
</mgrwt>
</event>
<event>
 8    1  0.3542708E-007  0.1432945E+03  0.7546771E-02  0.1208966E+00
          5   -1    0    0  501    0  0.00000000000E+00  0.00000000000E+00  0.78884191244E+03  0.78885591385E+03  0.47000000000E+01 0. -1.
         -5   -1    0    0    0  501 -0.00000000000E+00 -0.00000000000E+00 -0.26457473861E+02  0.26871693715E+02  0.47000000000E+01 0. -1.
         25    2    1    2    0    0  0.67179342561E+02 -0.19870442551E+02  0.31750623110E+03  0.34834132803E+03  0.12499430177E+03 0.  0.
         25    2    1    2    0    0 -0.67179342561E+02  0.19870442551E+02  0.44487820748E+03  0.46738627954E+03  0.12500166500E+03 0.  0.
          5    1    4    4  502    0 -0.50711978183E+02 -0.49984257773E+02  0.22452909289E+03  0.23559612542E+03  0.47000000000E+01 0. -1.
         -5    1    4    4    0  502 -0.16467364378E+02  0.69854700324E+02  0.22034911459E+03  0.23179015412E+03  0.47000000000E+01 0. -1.
          5    1    3    3  503    0  0.82367328351E+02 -0.27519057258E+02  0.31899285779E+03  0.33063606672E+03  0.47000000000E+01 0.  1.
         -5    1    3    3    0  503 -0.15187985790E+02  0.76486147077E+01 -0.14866266944E+01  0.17705261315E+02  0.47000000000E+01 0.  1.
<mgrwt>
<rscale>  0 0.14329290E+03</rscale>
<asrwt>0</asrwt>
<pdfrwt beam="1">  1        5 0.12139322E+00 0.14329450E+03</pdfrwt>
<pdfrwt beam="2">  1       -5 0.41033213E-02 0.14329450E+03</pdfrwt>
<totfact> 0.12988220E+02</totfact>
</mgrwt>
</event>
<event>
 8    1  0.3542708E-007  0.1465506E+03  0.7546771E-02  0.1204779E+00
          5   -1    0    0  501    0  0.00000000000E+00  0.00000000000E+00  0.10318279333E+03  0.10328978091E+03  0.47000000000E+01 0. -1.
         -5   -1    0    0    0  501 -0.00000000000E+00 -0.00000000000E+00 -0.20789460080E+03  0.20794772190E+03  0.47000000000E+01 0. -1.
         25    2    1    2    0    0 -0.40178121723E+01  0.76393856100E+02 -0.52562006913E+02  0.15568464390E+03  0.12499111852E+03 0.  0.
         25    2    1    2    0    0  0.40178121723E+01 -0.76393856100E+02 -0.52149800558E+02  0.15555285891E+03  0.12499970460E+03 0.  0.
          5    1    3    3  502    0 -0.22471326094E+02  0.99936450534E+02 -0.66640463007E+02  0.12229184745E+03  0.47000000000E+01 0. -1.
         -5    1    3    3    0  502  0.18453513922E+02 -0.23542594435E+02  0.14078456095E+02  0.33392796451E+02  0.47000000000E+01 0. -1.
          5    1    4    4  503    0  0.53754255653E+02 -0.67812171211E+01 -0.43101427749E+02  0.69392564302E+02  0.47000000000E+01 0.  1.
         -5    1    4    4    0  503 -0.49736443481E+02 -0.69612638979E+02 -0.90483728096E+01  0.86160294604E+02  0.47000000000E+01 0.  1.
<mgrwt>
<rscale>  0 0.14654881E+03</rscale>
<asrwt>0</asrwt>
<pdfrwt beam="1">  1        5 0.15886592E-01 0.14655064E+03</pdfrwt>
<pdfrwt beam="2">  1       -5 0.31996101E-01 0.14655064E+03</pdfrwt>
<totfact> 0.24720712E+02</totfact>
</mgrwt>
</event>
<event>
 8    1  0.3542708E-007  0.1736221E+03  0.7546771E-02  0.1174123E+00
          5   -1    0    0  501    0  0.00000000000E+00  0.00000000000E+00  0.48539871720E+03  0.48542147115E+03  0.47000000000E+01 0.  1.
         -5   -1    0    0    0  501 -0.00000000000E+00 -0.00000000000E+00 -0.62062524453E+02  0.62240235712E+02  0.47000000000E+01 0.  1.
         25    2    1    2    0    0  0.10455862662E+03  0.59893589752E+02  0.20226048994E+03  0.26655833265E+03  0.12499716165E+03 0.  0.
         25    2    1    2    0    0 -0.10455862662E+03 -0.59893589752E+02  0.22107570280E+03  0.28110337422E+03  0.12499956854E+03 0.  0.
          5    1    4    4  502    0 -0.67202054105E+02 -0.83001965969E+02  0.80699887586E+02  0.13394030121E+03  0.47000000000E+01 0. -1.
         -5    1    4    4    0  502 -0.37356572511E+02  0.23108376217E+02  0.14037581521E+03  0.14716307301E+03  0.47000000000E+01 0. -1.
          5    1    3    3  503    0  0.27880795847E+02  0.26370073051E+02  0.17378786994E+03  0.17803660654E+03  0.47000000000E+01 0. -1.
         -5    1    3    3    0  503  0.76677830768E+02  0.33523516701E+02  0.28472620002E+02  0.88521726108E+02  0.47000000000E+01 0. -1.
<mgrwt>
<rscale>  0 0.17362169E+03</rscale>
<asrwt>0</asrwt>
<pdfrwt beam="1">  1        5 0.74692143E-01 0.17362212E+03</pdfrwt>
<pdfrwt beam="2">  1       -5 0.95635014E-02 0.17362212E+03</pdfrwt>
<totfact> 0.10641964E+02</totfact>
</mgrwt>
</event>
<event>
 8    1  0.3542708E-007  0.1367546E+03  0.7546771E-02  0.1217771E+00
          5   -1    0    0  501    0  0.00000000000E+00  0.00000000000E+00  0.63070905167E+02  0.63245783089E+02  0.47000000000E+01 0.  1.
         -5   -1    0    0    0  501 -0.00000000000E+00 -0.00000000000E+00 -0.91206245238E+03  0.91207456221E+03  0.47000000000E+01 0.  1.
         25    2    1    2    0    0 -0.46574928836E+02  0.30038372419E+02 -0.82527343105E+03  0.83652419775E+03  0.12499987847E+03 0.  0.
         25    2    1    2    0    0  0.46574928836E+02 -0.30038372419E+02 -0.23718116164E+02  0.13879614755E+03  0.12502117312E+03 0.  0.
          5    1    4    4  502    0  0.14756111798E+01 -0.27375543742E+02  0.47078408869E+02  0.54681481373E+02  0.47000000000E+01 0. -1.
         -5    1    4    4    0  502  0.45099317656E+02 -0.26628286775E+01 -0.70796525033E+02  0.84114666179E+02  0.47000000000E+01 0. -1.
          5    1    3    3  503    0 -0.67321860029E+02  0.48241677700E+02 -0.32338437153E+03  0.33385480984E+03  0.47000000000E+01 0.  1.
         -5    1    3    3    0  503  0.20746931193E+02 -0.18203305281E+02 -0.50188905952E+03  0.50266938791E+03  0.47000000000E+01 0.  1.
<mgrwt>
<rscale>  0 0.13674974E+03</rscale>
<asrwt>0</asrwt>
<pdfrwt beam="1">  1        5 0.97176005E-02 0.13675460E+03</pdfrwt>
<pdfrwt beam="2">  1       -5 0.14033167E+00 0.13675460E+03</pdfrwt>
<totfact> 0.20464085E+01</totfact>
</mgrwt>
</event>
<event>
 8    1  0.3542708E-007  0.1475181E+03  0.7546771E-02  0.1203559E+00
          5   -1    0    0  501    0  0.00000000000E+00  0.00000000000E+00  0.68415075162E+02  0.68576326159E+02  0.47000000000E+01 0. -1.
         -5   -1    0    0    0  501 -0.00000000000E+00 -0.00000000000E+00 -0.32364591502E+03  0.32368004002E+03  0.47000000000E+01 0. -1.
         25    2    1    2    0    0  0.43453751137E+02 -0.65150098473E+02 -0.15460988566E+03  0.21368940074E+03  0.12500471762E+03 0.  0.
         25    2    1    2    0    0 -0.43453751137E+02  0.65150098473E+02 -0.10062095419E+03  0.17856696543E+03  0.12501528268E+03 0.  0.
          5    1    3    3  502    0  0.21509005865E+02 -0.75980855137E+02 -0.26875557762E+02  0.83547072274E+02  0.47000000000E+01 0.  1.
         -5    1    3    3    0  502  0.21944745272E+02  0.10830756664E+02 -0.12773432790E+03  0.13014232847E+03  0.47000000000E+01 0.  1.
          5    1    4    4  503    0 -0.57752847562E+01 -0.32072191187E+02 -0.56197770732E+02  0.65132624672E+02  0.47000000000E+01 0. -1.
         -5    1    4    4    0  503 -0.37678466381E+02  0.97222289659E+02 -0.44423183459E+02  0.11343434076E+03  0.47000000000E+01 0. -1.
<mgrwt>
<rscale>  0 0.14751584E+03</rscale>
<asrwt>0</asrwt>
<pdfrwt beam="1">  1        5 0.10540425E-01 0.14751808E+03</pdfrwt>
<pdfrwt beam="2">  1       -5 0.49806707E-01 0.14751808E+03</pdfrwt>
<totfact> 0.20835772E+02</totfact>
</mgrwt>
</event>
<event>
 8    1  0.3542708E-007  0.1468171E+03  0.7546771E-02  0.1204441E+00
          5   -1    0    0  501    0  0.00000000000E+00  0.00000000000E+00  0.48288765508E+02  0.48516954503E+02  0.47000000000E+01 0.  1.
         -5   -1    0    0    0  501 -0.00000000000E+00 -0.00000000000E+00 -0.44514193785E+03  0.44516674947E+03  0.47000000000E+01 0.  1.
         25    2    1    2    0    0 -0.54689110775E+02 -0.54216051101E+02 -0.20135782172E+03  0.24919921074E+03  0.12499998092E+03 0.  0.
         25    2    1    2    0    0  0.54689110775E+02  0.54216051101E+02 -0.19549535062E+03  0.24448449324E+03  0.12499582506E+03 0.  0.
          5    1    4    4  502    0  0.75623857251E+02  0.35841827542E+02 -0.19908361895E+03  0.21600921675E+03  0.47000000000E+01 0. -1.
         -5    1    4    4    0  502 -0.20934746476E+02  0.18374223560E+02  0.35882683245E+01  0.28475276487E+02  0.47000000000E+01 0. -1.
          5    1    3    3  503    0 -0.17115412595E+02  0.23611689525E+02 -0.14005874489E+03  0.14313976125E+03  0.47000000000E+01 0.  1.
         -5    1    3    3    0  503 -0.37573698179E+02 -0.77827740626E+02 -0.61299076834E+02  0.10605944949E+03  0.47000000000E+01 0.  1.
<mgrwt>
<rscale>  0 0.14681626E+03</rscale>
<asrwt>0</asrwt>
<pdfrwt beam="1">  1        5 0.74485028E-02 0.14681715E+03</pdfrwt>
<pdfrwt beam="2">  1       -5 0.68502834E-01 0.14681715E+03</pdfrwt>
<totfact> 0.18928085E+02</totfact>
</mgrwt>
</event>
<event>
 8    1  0.3542708E-007  0.1258089E+03  0.7546771E-02  0.1233811E+00
         -5   -1    0    0    0  501 -0.00000000000E+00  0.00000000000E+00  0.18624261982E+03  0.18630191474E+03  0.47000000000E+01 0. -1.
          5   -1    0    0  501    0  0.00000000000E+00 -0.00000000000E+00 -0.10230057067E+03  0.10240847992E+03  0.47000000000E+01 0. -1.
         25    2    1    2    0    0 -0.13720652442E+02 -0.38072248122E+01  0.10154664324E+03  0.16167745300E+03  0.12500050716E+03 0.  0.
         25    2    1    2    0    0  0.13720652442E+02  0.38072248122E+01 -0.17604594097E+02  0.12703294166E+03  0.12499878107E+03 0.  0.
          5    1    4    4  502    0 -0.50129153557E+02 -0.21484430330E+02  0.39943505601E+01  0.54886770896E+02  0.47000000000E+01 0.  1.
         -5    1    4    4    0  502  0.63849805999E+02  0.25291655142E+02 -0.21598944657E+02  0.72146170766E+02  0.47000000000E+01 0.  1.
          5    1    3    3  503    0  0.49442926152E+02  0.13696277688E+02  0.16286464163E+02  0.54032674225E+02  0.47000000000E+01 0.  1.
         -5    1    3    3    0  503 -0.63163578594E+02 -0.17503502500E+02  0.85260179079E+02  0.10764477877E+03  0.47000000000E+01 0.  1.
<mgrwt>
<rscale>  0 0.12580847E+03</rscale>
<asrwt>0</asrwt>
<pdfrwt beam="2">  1        5 0.15751411E-01 0.12580889E+03</pdfrwt>
<pdfrwt beam="1">  1       -5 0.28665573E-01 0.12580889E+03</pdfrwt>
<totfact> 0.29549341E+02</totfact>
</mgrwt>
</event>
<event>
 8    1  0.3542708E-007  0.1293879E+03  0.7546771E-02  0.1228368E+00
          5   -1    0    0  501    0  0.00000000000E+00  0.00000000000E+00  0.11121814144E+03  0.11131740648E+03  0.47000000000E+01 0.  1.
         -5   -1    0    0    0  501 -0.00000000000E+00 -0.00000000000E+00 -0.18274191152E+03  0.18280234196E+03  0.47000000000E+01 0.  1.
         25    2    1    2    0    0  0.26075238198E+02  0.20830001024E+02 -0.97678163468E+02  0.16211798810E+03  0.12500964546E+03 0.  0.
         25    2    1    2    0    0 -0.26075238198E+02 -0.20830001024E+02  0.26154393393E+02  0.13200176034E+03  0.12500642163E+03 0.  0.
          5    1    4    4  502    0 -0.94860655713E+01  0.45085247598E+02  0.41473735026E+02  0.62167722236E+02  0.47000000000E+01 0. -1.
         -5    1    4    4    0  502 -0.16589172627E+02 -0.65915248622E+02 -0.15319341633E+02  0.69834038101E+02  0.47000000000E+01 0. -1.
          5    1    3    3  503    0  0.31578810013E+02  0.30697952579E+02  0.16515985312E+02  0.47270004286E+02  0.47000000000E+01 0.  1.
         -5    1    3    3    0  503 -0.55035718154E+01 -0.98679515544E+01 -0.11419414878E+03  0.11484798381E+03  0.47000000000E+01 0.  1.
<mgrwt>
<rscale>  0 0.12938708E+03</rscale>
<asrwt>0</asrwt>
<pdfrwt beam="1">  1        5 0.17122768E-01 0.12938786E+03</pdfrwt>
<pdfrwt beam="2">  1       -5 0.28126425E-01 0.12938786E+03</pdfrwt>
<totfact> 0.26600569E+02</totfact>
</mgrwt>
</event>
<event>
 8    1  0.3542708E-007  0.1301251E+03  0.7546771E-02  0.1227273E+00
         -5   -1    0    0    0  501 -0.00000000000E+00  0.00000000000E+00  0.14020065604E+02  0.14786894182E+02  0.47000000000E+01 0. -1.
          5   -1    0    0  501    0  0.00000000000E+00 -0.00000000000E+00 -0.12796941314E+04  0.12797027624E+04  0.47000000000E+01 0. -1.
         25    2    1    2    0    0 -0.33396172571E+02 -0.13862020041E+02 -0.44755185996E+03  0.46608498739E+03  0.12500035269E+03 0.  0.
         25    2    1    2    0    0  0.33396172571E+02  0.13862020041E+02 -0.81812220586E+03  0.82840466915E+03  0.12499156859E+03 0.  0.
          5    1    3    3  502    0 -0.44146803224E+02 -0.26723810315E+02 -0.44555855066E+03  0.44856171742E+03  0.47000000000E+01 0. -1.
         -5    1    3    3    0  502  0.10750630652E+02  0.12861790274E+02 -0.19933093077E+01  0.17523269971E+02  0.47000000000E+01 0. -1.
          5    1    4    4  503    0  0.12269368832E+02 -0.34464967998E+02 -0.67152484390E+03  0.67253704538E+03  0.47000000000E+01 0.  1.
         -5    1    4    4    0  503  0.21126803740E+02  0.48326988039E+02 -0.14659736195E+03  0.15586762377E+03  0.47000000000E+01 0.  1.
<mgrwt>
<rscale>  0 0.13012302E+03</rscale>
<asrwt>0</asrwt>
<pdfrwt beam="2">  1        5 0.19693558E+00 0.13012512E+03</pdfrwt>
<pdfrwt beam="1">  1       -5 0.22165849E-02 0.13012512E+03</pdfrwt>
<totfact> 0.88865552E+01</totfact>
</mgrwt>
</event>
<event>
 8    1  0.3542708E-007  0.1722761E+03  0.7546771E-02  0.1175498E+00
          5   -1    0    0  501    0  0.00000000000E+00  0.00000000000E+00  0.99690730963E+03  0.99691838884E+03  0.47000000000E+01 0. -1.
         -5   -1    0    0    0  501 -0.00000000000E+00 -0.00000000000E+00 -0.30783492128E+02  0.31140221380E+02  0.47000000000E+01 0. -1.
         25    2    1    2    0    0 -0.11845671656E+03 -0.41320452029E+01  0.58444463814E+03  0.60930665414E+03  0.12501998336E+03 0.  0.
         25    2    1    2    0    0  0.11845671656E+03  0.41320452029E+01  0.38167917937E+03  0.41875195607E+03  0.12500054903E+03 0.  0.
          5    1    3    3  502    0 -0.42409515582E+02 -0.55949697128E+02  0.15705071820E+03  0.17209286362E+03  0.47000000000E+01 0. -1.
         -5    1    3    3    0  502 -0.76047200973E+02  0.51817651925E+02  0.42739391994E+03  0.43721379053E+03  0.47000000000E+01 0. -1.
          5    1    4    4  503    0  0.13947357674E+03 -0.18367860300E+02  0.32245662456E+03  0.35183891431E+03  0.47000000000E+01 0. -1.
         -5    1    4    4    0  503 -0.21016860188E+02  0.22499905503E+02  0.59222554811E+02  0.66913041764E+02  0.47000000000E+01 0. -1.
<mgrwt>
<rscale>  0 0.17227260E+03</rscale>
<asrwt>0</asrwt>
<pdfrwt beam="1">  1        5 0.15339865E+00 0.17227613E+03</pdfrwt>
<pdfrwt beam="2">  1       -5 0.47642149E-02 0.17227613E+03</pdfrwt>
<totfact> 0.57521767E+01</totfact>
</mgrwt>
</event>
<event>
 8    1  0.3542708E-007  0.1297011E+03  0.7546771E-02  0.1227909E+00
          5   -1    0    0  501    0  0.00000000000E+00  0.00000000000E+00  0.38626673918E+02  0.38911565606E+02  0.47000000000E+01 0. -1.
         -5   -1    0    0    0  501 -0.00000000000E+00 -0.00000000000E+00 -0.45632442019E+03  0.45634862382E+03  0.47000000000E+01 0. -1.
         25    2    1    2    0    0  0.34341070891E+02 -0.44156269026E+01 -0.26419002986E+03  0.29431062019E+03  0.12499424935E+03 0.  0.
         25    2    1    2    0    0 -0.34341070891E+02  0.44156269026E+01 -0.15350771641E+03  0.20094956923E+03  0.12496921007E+03 0.  0.
          5    1    4    4  502    0 -0.15737625716E+02  0.48135816760E+02 -0.14339102600E+03  0.15214403063E+03  0.47000000000E+01 0.  1.
         -5    1    4    4    0  502 -0.18603445174E+02 -0.43720189857E+02 -0.10116690411E+02  0.48805538603E+02  0.47000000000E+01 0.  1.
          5    1    3    3  503    0  0.77762127067E+02  0.18807332519E+02 -0.16875861355E+03  0.18682136872E+03  0.47000000000E+01 0. -1.
         -5    1    3    3    0  503 -0.43421056176E+02 -0.23222959422E+02 -0.95431416308E+02  0.10748925147E+03  0.47000000000E+01 0. -1.
<mgrwt>
<rscale>  0 0.12969504E+03</rscale>
<asrwt>0</asrwt>
<pdfrwt beam="1">  1        5 0.59663421E-02 0.12970108E+03</pdfrwt>
<pdfrwt beam="2">  1       -5 0.70227530E-01 0.12970108E+03</pdfrwt>
<totfact> 0.24990757E+02</totfact>
</mgrwt>
</event>
<event>
 8    1  0.3542708E-007  0.1343843E+03  0.7546771E-02  0.1221094E+00
         -5   -1    0    0    0  501 -0.00000000000E+00  0.00000000000E+00  0.57719199251E+02  0.57910240564E+02  0.47000000000E+01 0. -1.
          5   -1    0    0  501    0  0.00000000000E+00 -0.00000000000E+00 -0.35344365781E+03  0.35347490610E+03  0.47000000000E+01 0. -1.
         25    2    1    2    0    0 -0.39978815462E+02  0.28898614709E+02 -0.77563950870E+02  0.15515645210E+03  0.12499569007E+03 0.  0.
         25    2    1    2    0    0  0.39978815462E+02 -0.28898614709E+02 -0.21816050769E+03  0.25622869456E+03  0.12500280472E+03 0.  0.
          5    1    3    3  502    0  0.16809122704E+02  0.57692459068E+02 -0.67549788543E+02  0.90531930122E+02  0.47000000000E+01 0.  1.
         -5    1    3    3    0  502 -0.56787938166E+02 -0.28793844359E+02 -0.10014162327E+02  0.64624521981E+02  0.47000000000E+01 0.  1.
          5    1    4    4  503    0 -0.22552097969E+02 -0.50661263363E+02 -0.47688563389E+02  0.73290175375E+02  0.47000000000E+01 0. -1.
         -5    1    4    4    0  503  0.62530913431E+02  0.21762648654E+02 -0.17047194430E+03  0.18293851919E+03  0.47000000000E+01 0. -1.
<mgrwt>
<rscale>  0 0.13438263E+03</rscale>
<asrwt>0</asrwt>
<pdfrwt beam="2">  1        5 0.54393045E-01 0.13438429E+03</pdfrwt>
<pdfrwt beam="1">  1       -5 0.88969763E-02 0.13438429E+03</pdfrwt>
<totfact> 0.22480500E+02</totfact>
</mgrwt>
</event>
<event>
 8    1  0.3542708E-007  0.1912088E+03  0.7546771E-02  0.1157376E+00
         -5   -1    0    0    0  501 -0.00000000000E+00  0.00000000000E+00  0.42226510436E+02  0.42487270842E+02  0.47000000000E+01 0. -1.
          5   -1    0    0  501    0  0.00000000000E+00 -0.00000000000E+00 -0.86297302043E+03  0.86298581911E+03  0.47000000000E+01 0. -1.
         25    2    1    2    0    0  0.13091790625E+03 -0.61619589630E+02 -0.40599766111E+03  0.44877032627E+03  0.12499693161E+03 0.  0.
         25    2    1    2    0    0 -0.13091790625E+03  0.61619589630E+02 -0.41474884888E+03  0.45670276368E+03  0.12499733878E+03 0.  0.
          5    1    3    3  502    0  0.88427204494E+02 -0.34665565717E+02 -0.97631801279E+02  0.13629061069E+03  0.47000000000E+01 0. -1.
         -5    1    3    3    0  502  0.42490701757E+02 -0.26954023913E+02 -0.30836585983E+03  0.31247971558E+03  0.47000000000E+01 0. -1.
          5    1    4    4  503    0 -0.71441725803E+01  0.17073310492E+02 -0.22476418260E+03  0.22557385689E+03  0.47000000000E+01 0.  1.
         -5    1    4    4    0  503 -0.12377373367E+03  0.44546279138E+02 -0.18998466629E+03  0.23112890679E+03  0.47000000000E+01 0.  1.
<mgrwt>
<rscale>  0 0.19120874E+03</rscale>
<asrwt>0</asrwt>
<pdfrwt beam="2">  1        5 0.13278611E+00 0.19120880E+03</pdfrwt>
<pdfrwt beam="1">  1       -5 0.65174299E-02 0.19120880E+03</pdfrwt>
<totfact> 0.51609893E+01</totfact>
</mgrwt>
</event>
<event>
 8    1  0.3542708E-007  0.1354439E+03  0.7546771E-02  0.1219609E+00
         -5   -1    0    0    0  501 -0.00000000000E+00  0.00000000000E+00  0.56912751127E+03  0.56914691784E+03  0.47000000000E+01 0. -1.
          5   -1    0    0  501    0  0.00000000000E+00 -0.00000000000E+00 -0.35150506083E+02  0.35463334275E+02  0.47000000000E+01 0. -1.
         25    2    1    2    0    0 -0.33427602183E+02  0.39883416408E+02  0.35654807418E+03  0.38139270823E+03  0.12500310876E+03 0.  0.
         25    2    1    2    0    0  0.33427602183E+02 -0.39883416408E+02  0.17742893100E+03  0.22321754388E+03  0.12504781024E+03 0.  0.
          5    1    3    3  502    0 -0.17651451343E+02  0.79154958026E+02  0.15084327777E+03  0.17132678005E+03  0.47000000000E+01 0.  1.
         -5    1    3    3    0  502 -0.15776150841E+02 -0.39271541618E+02  0.20570479641E+03  0.21006592818E+03  0.47000000000E+01 0.  1.
          5    1    4    4  503    0  0.80438948920E+02 -0.33661399464E+02  0.10576920600E+03  0.13715950297E+03  0.47000000000E+01 0.  1.
         -5    1    4    4    0  503 -0.47011346737E+02 -0.62220169437E+01  0.71659725007E+02  0.86058040908E+02  0.47000000000E+01 0.  1.
<mgrwt>
<rscale>  0 0.13543357E+03</rscale>
<asrwt>0</asrwt>
<pdfrwt beam="2">  1        5 0.54333270E-02 0.13544389E+03</pdfrwt>
<pdfrwt beam="1">  1       -5 0.87583630E-01 0.13544389E+03</pdfrwt>
<totfact> 0.17839883E+02</totfact>
</mgrwt>
</event>
<event>
 8    1  0.3542708E-007  0.1910248E+03  0.7546771E-02  0.1157554E+00
         -5   -1    0    0    0  501 -0.00000000000E+00  0.00000000000E+00  0.65054474118E+03  0.65056171904E+03  0.47000000000E+01 0.  1.
          5   -1    0    0  501    0  0.00000000000E+00 -0.00000000000E+00 -0.60411507866E+02  0.60594061447E+02  0.47000000000E+01 0.  1.
         25    2    1    2    0    0  0.97948831823E+02  0.10605993547E+03  0.39140043700E+03  0.43550168028E+03  0.12499891151E+03 0.  0.
         25    2    1    2    0    0 -0.97948831823E+02 -0.10605993547E+03  0.19873279632E+03  0.27565410021E+03  0.12509106706E+03 0.  0.
          5    1    4    4  502    0 -0.21697189810E+02 -0.11209201649E+03  0.12374582164E+03  0.16843546711E+03  0.47000000000E+01 0. -1.
         -5    1    4    4    0  502 -0.76251642013E+02  0.60320810216E+01  0.74986974678E+02  0.10721863309E+03  0.47000000000E+01 0. -1.
          5    1    3    3  503    0  0.99683629739E+01  0.18744535555E+02 -0.30956106149E+01  0.21963576181E+02  0.47000000000E+01 0.  1.
         -5    1    3    3    0  503  0.87980468849E+02  0.87315399918E+02  0.39449604761E+03  0.41353810410E+03  0.47000000000E+01 0.  1.
<mgrwt>
<rscale>  0 0.19100967E+03</rscale>
<asrwt>0</asrwt>
<pdfrwt beam="2">  1        5 0.93094271E-02 0.19102476E+03</pdfrwt>
<pdfrwt beam="1">  1       -5 0.10009915E+00 0.19102476E+03</pdfrwt>
<totfact> 0.57296496E+01</totfact>
</mgrwt>
</event>
<event>
 8    1  0.3542708E-007  0.1274118E+03  0.7546771E-02  0.1231354E+00
          5   -1    0    0  501    0  0.00000000000E+00  0.00000000000E+00  0.35808147109E+02  0.36115279306E+02  0.47000000000E+01 0. -1.
         -5   -1    0    0    0  501 -0.00000000000E+00 -0.00000000000E+00 -0.54591282202E+03  0.54593305382E+03  0.47000000000E+01 0. -1.
         25    2    1    2    0    0 -0.16826512244E+02  0.18036490959E+02 -0.37632339979E+03  0.39730206441E+03  0.12498472961E+03 0.  0.
         25    2    1    2    0    0  0.16826512244E+02 -0.18036490959E+02 -0.13378127513E+03  0.18474626871E+03  0.12500123083E+03 0.  0.
          5    1    3    3  502    0  0.45471699031E+02  0.76534941829E+01 -0.66420148380E+02  0.80993688006E+02  0.47000000000E+01 0.  1.
         -5    1    3    3    0  502 -0.62298211275E+02  0.10382996776E+02 -0.30990325141E+03  0.31630837640E+03  0.47000000000E+01 0.  1.
          5    1    4    4  503    0 -0.10390004552E+02  0.26576525203E+02  0.10852446219E+02  0.30888986312E+02  0.47000000000E+01 0. -1.
         -5    1    4    4    0  503  0.27216516796E+02 -0.44613016162E+02 -0.14463372135E+03  0.15385728240E+03  0.47000000000E+01 0. -1.
<mgrwt>
<rscale>  0 0.12740770E+03</rscale>
<asrwt>0</asrwt>
<pdfrwt beam="1">  1        5 0.55341279E-02 0.12741175E+03</pdfrwt>
<pdfrwt beam="2">  1       -5 0.84011764E-01 0.12741175E+03</pdfrwt>
<totfact> 0.18678213E+02</totfact>
</mgrwt>
</event>
<event>
 8    1  0.3542708E-007  0.1578445E+03  0.7546771E-02  0.1191154E+00
          5   -1    0    0  501    0  0.00000000000E+00  0.00000000000E+00  0.34981920669E+02  0.35296243053E+02  0.47000000000E+01 0. -1.
         -5   -1    0    0    0  501 -0.00000000000E+00 -0.00000000000E+00 -0.71936526381E+03  0.71938061746E+03  0.47000000000E+01 0. -1.
         25    2    1    2    0    0 -0.41479683835E+02 -0.86992006308E+02 -0.38816340829E+03  0.41902948181E+03  0.12500680685E+03 0.  0.
         25    2    1    2    0    0  0.41479683835E+02  0.86992006308E+02 -0.29621993485E+03  0.33564737870E+03  0.12499895877E+03 0.  0.
          5    1    4    4  502    0  0.66145957432E+02  0.59614997947E+00 -0.10291943033E+03  0.12243423630E+03  0.47000000000E+01 0. -1.
         -5    1    4    4    0  502 -0.24666273597E+02  0.86395856328E+02 -0.19330050452E+03  0.21321314240E+03  0.47000000000E+01 0. -1.
          5    1    3    3  503    0 -0.30780513773E+02 -0.94811261952E+02 -0.39196078833E+03  0.40446503558E+03  0.47000000000E+01 0.  1.
         -5    1    3    3    0  503 -0.10699170061E+02  0.78192556441E+01  0.37973800379E+01  0.14564446230E+02  0.47000000000E+01 0.  1.
<mgrwt>
<rscale>  0 0.15784291E+03</rscale>
<asrwt>0</asrwt>
<pdfrwt beam="1">  1        5 0.54071942E-02 0.15784446E+03</pdfrwt>
<pdfrwt beam="2">  1       -5 0.11069693E+00 0.15784446E+03</pdfrwt>
<totfact> 0.10692348E+02</totfact>
</mgrwt>
</event>
<event>
 8    1  0.3542708E-007  0.1947210E+03  0.7546771E-02  0.1154272E+00
          5   -1    0    0  501    0  0.00000000000E+00  0.00000000000E+00  0.11674933087E+03  0.11684389697E+03  0.47000000000E+01 0.  1.
         -5   -1    0    0    0  501 -0.00000000000E+00 -0.00000000000E+00 -0.32856510083E+03  0.32859871497E+03  0.47000000000E+01 0.  1.
         25    2    1    2    0    0 -0.13444065748E+03 -0.64931283906E+02 -0.81190644960E+02  0.21096966113E+03  0.12500366025E+03 0.  0.
         25    2    1    2    0    0  0.13444065748E+03  0.64931283906E+02 -0.13062512500E+03  0.23447295082E+03  0.12499711746E+03 0.  0.
          5    1    4    4  502    0  0.21912202587E+02  0.12417561158E+02  0.24677521004E+02  0.35572608708E+02  0.47000000000E+01 0.  1.
         -5    1    4    4    0  502  0.11252845489E+03  0.52513722748E+02 -0.15530264600E+03  0.19890034211E+03  0.47000000000E+01 0.  1.
          5    1    3    3  503    0 -0.40757216661E+02  0.29526882652E+02  0.73699099615E+01  0.51082218843E+02  0.47000000000E+01 0. -1.
         -5    1    3    3    0  503 -0.93683440814E+02 -0.94458166558E+02 -0.88560554921E+02  0.15988744228E+03  0.47000000000E+01 0. -1.
<mgrwt>
<rscale>  0 0.19471997E+03</rscale>
<asrwt>0</asrwt>
<pdfrwt beam="1">  1        5 0.17971296E-01 0.19472102E+03</pdfrwt>
<pdfrwt beam="2">  1       -5 0.50558337E-01 0.19472102E+03</pdfrwt>
<totfact> 0.83888020E+01</totfact>
</mgrwt>
</event>
<event>
 8    1  0.3542708E-007  0.1540402E+03  0.7546771E-02  0.1195595E+00
          5   -1    0    0  501    0  0.00000000000E+00  0.00000000000E+00  0.54040175128E+02  0.54244175059E+02  0.47000000000E+01 0.  1.
         -5   -1    0    0    0  501 -0.00000000000E+00 -0.00000000000E+00 -0.43853304245E+03  0.43855822797E+03  0.47000000000E+01 0.  1.
         25    2    1    2    0    0 -0.89885997232E+02  0.49504701449E+01 -0.18399726858E+03  0.23996536854E+03  0.12499753437E+03 0.  0.
         25    2    1    2    0    0  0.89885997232E+02 -0.49504701449E+01 -0.20049559874E+03  0.25283703449E+03  0.12499632491E+03 0.  0.
          5    1    3    3  502    0 -0.50659586788E+02 -0.59505907262E+02 -0.98879811477E+02  0.12612158360E+03  0.47000000000E+01 0.  1.
         -5    1    3    3    0  502 -0.39226410445E+02  0.64456377407E+02 -0.85117457105E+02  0.11384378494E+03  0.47000000000E+01 0.  1.
          5    1    4    4  503    0 -0.15794277754E+02  0.36604238820E+02 -0.46246716345E+02  0.61238699219E+02  0.47000000000E+01 0.  1.
         -5    1    4    4    0  503  0.10568027499E+03 -0.41554708965E+02 -0.15424888239E+03  0.19159833527E+03  0.47000000000E+01 0.  1.
<mgrwt>
<rscale>  0 0.15403995E+03</rscale>
<asrwt>0</asrwt>
<pdfrwt beam="1">  1        5 0.83315030E-02 0.15404020E+03</pdfrwt>
<pdfrwt beam="2">  1       -5 0.67484249E-01 0.15404020E+03</pdfrwt>
<totfact> 0.16406879E+02</totfact>
</mgrwt>
</event>
<event>
 8    1  0.3542708E-007  0.1532610E+03  0.7546771E-02  0.1196524E+00
         -5   -1    0    0    0  501 -0.00000000000E+00  0.00000000000E+00  0.76621543093E+03  0.76622984580E+03  0.47000000000E+01 0. -1.
          5   -1    0    0  501    0  0.00000000000E+00 -0.00000000000E+00 -0.41501314621E+02  0.41766602870E+02  0.47000000000E+01 0. -1.
         25    2    1    2    0    0  0.84704336412E+02 -0.26219675182E+02  0.56993317001E+03  0.59018028093E+03  0.12500659883E+03 0.  0.
         25    2    1    2    0    0 -0.84704336412E+02  0.26219675182E+02  0.15478094630E+03  0.21781616774E+03  0.12499778245E+03 0.  0.
          5    1    4    4  502    0 -0.50673799288E+02  0.55523225608E+02  0.15536485299E+03  0.17265859394E+03  0.47000000000E+01 0. -1.
         -5    1    4    4    0  502 -0.34030537124E+02 -0.29303550426E+02 -0.58390668835E+00  0.45157573801E+02  0.47000000000E+01 0. -1.
          5    1    3    3  503    0  0.52332240930E+00 -0.68403511359E+01  0.39439047044E+03  0.39447813304E+03  0.47000000000E+01 0. -1.
         -5    1    3    3    0  503  0.84181014003E+02 -0.19379324046E+02  0.17554269956E+03  0.19570214789E+03  0.47000000000E+01 0. -1.
<mgrwt>
<rscale>  0 0.15325924E+03</rscale>
<asrwt>0</asrwt>
<pdfrwt beam="2">  1        5 0.64063335E-02 0.15326104E+03</pdfrwt>
<pdfrwt beam="1">  1       -5 0.11790081E+00 0.15326104E+03</pdfrwt>
<totfact> 0.68006567E+01</totfact>
</mgrwt>
</event>
<event>
 8    1  0.3542708E-007  0.1656588E+03  0.7546771E-02  0.1182459E+00
         -5   -1    0    0    0  501 -0.00000000000E+00  0.00000000000E+00  0.98962878270E+02  0.99074422913E+02  0.47000000000E+01 0.  1.
          5   -1    0    0  501    0  0.00000000000E+00 -0.00000000000E+00 -0.28804233074E+03  0.28808067324E+03  0.47000000000E+01 0.  1.
         25    2    1    2    0    0  0.38648571803E+02 -0.10160509800E+03 -0.56601854440E+02  0.17503916465E+03  0.12497052129E+03 0.  0.
         25    2    1    2    0    0 -0.38648571803E+02  0.10160509800E+03 -0.13247759803E+03  0.21211593151E+03  0.12500218550E+03 0.  0.
          5    1    4    4  502    0 -0.69469973587E+02  0.43795404213E+02 -0.11964425311E+03  0.14519280961E+03  0.47000000000E+01 0. -1.
         -5    1    4    4    0  502  0.30821401783E+02  0.57809693786E+02 -0.12833344923E+02  0.66923121905E+02  0.47000000000E+01 0. -1.
          5    1    3    3  503    0  0.55595639044E+01 -0.51845586719E+02 -0.91689135780E+02  0.10558343257E+03  0.47000000000E+01 0. -1.
         -5    1    3    3    0  503  0.33089007899E+02 -0.49759511279E+02  0.35087281340E+02  0.69455732077E+02  0.47000000000E+01 0. -1.
<mgrwt>
<rscale>  0 0.16565288E+03</rscale>
<asrwt>0</asrwt>
<pdfrwt beam="2">  1        5 0.44325734E-01 0.16565885E+03</pdfrwt>
<pdfrwt beam="1">  1       -5 0.15236588E-01 0.16565885E+03</pdfrwt>
<totfact> 0.14307404E+02</totfact>
</mgrwt>
</event>
<event>
 8    1  0.3542708E-007  0.1524242E+03  0.7546771E-02  0.1197528E+00
          5   -1    0    0  501    0  0.00000000000E+00  0.00000000000E+00  0.24326349831E+02  0.24776224412E+02  0.47000000000E+01 0.  1.
         -5   -1    0    0    0  501 -0.00000000000E+00 -0.00000000000E+00 -0.95097144184E+03  0.95098305621E+03  0.47000000000E+01 0.  1.
         25    2    1    2    0    0  0.66569828610E+02  0.56360518513E+02 -0.49925723420E+03  0.52200438598E+03  0.12499097148E+03 0.  0.
         25    2    1    2    0    0 -0.66569828610E+02 -0.56360518513E+02 -0.42738785781E+03  0.45375489464E+03  0.12500029313E+03 0.  0.
          5    1    4    4  502    0  0.13343824644E+02 -0.60199816065E+02 -0.27171577350E+03  0.27866400392E+03  0.47000000000E+01 0.  1.
         -5    1    4    4    0  502 -0.79913653254E+02  0.38392975520E+01 -0.15567208431E+03  0.17509089073E+03  0.47000000000E+01 0.  1.
          5    1    3    3  503    0  0.81504428144E+02 -0.71082775789E+01 -0.34240309972E+03  0.35207310621E+03  0.47000000000E+01 0. -1.
         -5    1    3    3    0  503 -0.14934599535E+02  0.63468796092E+02 -0.15685413448E+03  0.16993127977E+03  0.47000000000E+01 0. -1.
<mgrwt>
<rscale>  0 0.15242225E+03</rscale>
<asrwt>0</asrwt>
<pdfrwt beam="1">  1        5 0.37780152E-02 0.15242416E+03</pdfrwt>
<pdfrwt beam="2">  1       -5 0.14633877E+00 0.15242416E+03</pdfrwt>
<totfact> 0.92686246E+01</totfact>
</mgrwt>
</event>
<event>
 8    1  0.3542708E-007  0.1403534E+03  0.7546771E-02  0.1212856E+00
          5   -1    0    0  501    0  0.00000000000E+00  0.00000000000E+00  0.43358494918E+02  0.43612487679E+02  0.47000000000E+01 0.  1.
         -5   -1    0    0    0  501 -0.00000000000E+00 -0.00000000000E+00 -0.46547193814E+03  0.46549566615E+03  0.47000000000E+01 0.  1.
         25    2    1    2    0    0  0.51921354396E+02  0.37119927599E+02 -0.25317610108E+03  0.28947459972E+03  0.12499475850E+03 0.  0.
         25    2    1    2    0    0 -0.51921354396E+02 -0.37119927599E+02 -0.16893734214E+03  0.21963355411E+03  0.12500142580E+03 0.  0.
          5    1    4    4  502    0 -0.28347550139E+02  0.20334884132E+02  0.43727919796E+01  0.35472558707E+02  0.47000000000E+01 0.  1.
         -5    1    4    4    0  502 -0.23573804257E+02 -0.57454811730E+02 -0.17331013412E+03  0.18416099540E+03  0.47000000000E+01 0.  1.
          5    1    3    3  503    0 -0.33624033979E+02  0.15990363332E+02 -0.25704523985E+02  0.45487140312E+02  0.47000000000E+01 0.  1.
         -5    1    3    3    0  503  0.85545388375E+02  0.21129564267E+02 -0.22747157710E+03  0.24398745940E+03  0.47000000000E+01 0.  1.
<mgrwt>
<rscale>  0 0.14035190E+03</rscale>
<asrwt>0</asrwt>
<pdfrwt beam="1">  1        5 0.66919011E-02 0.14035338E+03</pdfrwt>
<pdfrwt beam="2">  1       -5 0.71632427E-01 0.14035338E+03</pdfrwt>
<totfact> 0.20231353E+02</totfact>
</mgrwt>
</event>
<event>
 8    1  0.3542708E-007  0.1572155E+03  0.7546771E-02  0.1191877E+00
          5   -1    0    0  501    0  0.00000000000E+00  0.00000000000E+00  0.12509763823E+03  0.12518589813E+03  0.47000000000E+01 0. -1.
         -5   -1    0    0    0  501 -0.00000000000E+00 -0.00000000000E+00 -0.20488589396E+03  0.20493979492E+03  0.47000000000E+01 0. -1.
         25    2    1    2    0    0 -0.86884691513E+02 -0.39288046537E+02 -0.71448414786E+02  0.17268926089E+03  0.12499681849E+03 0.  0.
         25    2    1    2    0    0  0.86884691513E+02  0.39288046537E+02 -0.83398409422E+01  0.15743643216E+03  0.12499670797E+03 0.  0.
          5    1    3    3  502    0 -0.77352661860E+02  0.26184586881E+00  0.13240052975E+02  0.78618648315E+02  0.47000000000E+01 0. -1.
         -5    1    3    3    0  502 -0.95320296529E+01 -0.39549892406E+02 -0.84688467761E+02  0.94070612576E+02  0.47000000000E+01 0. -1.
          5    1    4    4  503    0  0.71832568386E+02 -0.33078126422E+02  0.13175381628E+02  0.80310404118E+02  0.47000000000E+01 0. -1.
         -5    1    4    4    0  503  0.15052123126E+02  0.72366172959E+02 -0.21515222570E+02  0.77126028042E+02  0.47000000000E+01 0. -1.
<mgrwt>
<rscale>  0 0.15721545E+03</rscale>
<asrwt>0</asrwt>
<pdfrwt beam="1">  1        5 0.19256726E-01 0.15721547E+03</pdfrwt>
<pdfrwt beam="2">  1       -5 0.31531842E-01 0.15721547E+03</pdfrwt>
<totfact> 0.18271910E+02</totfact>
</mgrwt>
</event>
<event>
 8    1  0.3542708E-007  0.1670142E+03  0.7546771E-02  0.1180998E+00
         -5   -1    0    0    0  501 -0.00000000000E+00  0.00000000000E+00  0.60093987181E+03  0.60095825107E+03  0.47000000000E+01 0. -1.
          5   -1    0    0  501    0  0.00000000000E+00 -0.00000000000E+00 -0.52805546051E+02  0.53014297069E+02  0.47000000000E+01 0. -1.
         25    2    1    2    0    0 -0.30344314847E+02 -0.10652484583E+03  0.38876405137E+03  0.42312081842E+03  0.12500167647E+03 0.  0.
         25    2    1    2    0    0  0.30344314847E+02  0.10652484583E+03  0.15937027439E+03  0.23085172972E+03  0.12500126612E+03 0.  0.
          5    1    3    3  502    0 -0.57319804497E+01  0.28609102939E+02  0.71517070943E+02  0.77382929688E+02  0.47000000000E+01 0. -1.
         -5    1    3    3    0  502 -0.24612334398E+02 -0.13513394877E+03  0.31724698043E+03  0.34573788873E+03  0.47000000000E+01 0. -1.
          5    1    4    4  503    0  0.68264214578E+02  0.10887274548E+03  0.12673662558E+03  0.18054788829E+03  0.47000000000E+01 0. -1.
         -5    1    4    4    0  503 -0.37919899730E+02 -0.23478996498E+01  0.32633648804E+02  0.50303841430E+02  0.47000000000E+01 0. -1.
<mgrwt>
<rscale>  0 0.16701411E+03</rscale>
<asrwt>0</asrwt>
<pdfrwt beam="2">  1        5 0.81414018E-02 0.16701419E+03</pdfrwt>
<pdfrwt beam="1">  1       -5 0.92469759E-01 0.16701419E+03</pdfrwt>
<totfact> 0.84357616E+01</totfact>
</mgrwt>
</event>
<event>
 8    1  0.3542708E-007  0.1667528E+03  0.7546771E-02  0.1181279E+00
          5   -1    0    0  501    0  0.00000000000E+00  0.00000000000E+00  0.21817648381E+03  0.21822710210E+03  0.47000000000E+01 0. -1.
         -5   -1    0    0    0  501 -0.00000000000E+00 -0.00000000000E+00 -0.12735700704E+03  0.12744370225E+03  0.47000000000E+01 0. -1.
         25    2    1    2    0    0  0.94296487865E+02  0.57352290751E+02  0.43189730787E+02  0.17225515460E+03  0.12500149024E+03 0.  0.
         25    2    1    2    0    0 -0.94296487865E+02 -0.57352290751E+02  0.47629745988E+02  0.17341564975E+03  0.12499312780E+03 0.  0.
          5    1    4    4  502    0 -0.68257130808E+02 -0.31250024261E+01  0.79698562156E+02  0.10508450103E+03  0.47000000000E+01 0. -1.
         -5    1    4    4    0  502 -0.26039357057E+02 -0.54227288325E+02 -0.32068816168E+02  0.68331148720E+02  0.47000000000E+01 0. -1.
          5    1    3    3  503    0  0.15564934044E+02  0.66809703754E+02  0.59770366119E+02  0.91106478109E+02  0.47000000000E+01 0. -1.
         -5    1    3    3    0  503  0.78731553821E+02 -0.94574130022E+01 -0.16580635332E+02  0.81148676488E+02  0.47000000000E+01 0. -1.
<mgrwt>
<rscale>  0 0.16675120E+03</rscale>
<asrwt>0</asrwt>
<pdfrwt beam="1">  1        5 0.33576175E-01 0.16675277E+03</pdfrwt>
<pdfrwt beam="2">  1       -5 0.19603948E-01 0.16675277E+03</pdfrwt>
<totfact> 0.15883742E+02</totfact>
</mgrwt>
</event>
<event>
 8    1  0.3542708E-007  0.1260087E+03  0.7546771E-02  0.1233502E+00
         -5   -1    0    0    0  501 -0.00000000000E+00  0.00000000000E+00  0.10181476654E+02  0.11213940737E+02  0.47000000000E+01 0.  1.
          5   -1    0    0  501    0  0.00000000000E+00 -0.00000000000E+00 -0.16268591214E+04  0.16268659105E+04  0.47000000000E+01 0.  1.
         25    2    1    2    0    0 -0.33030759140E+01  0.15525127186E+02 -0.56502333545E+03  0.57890329287E+03  0.12500285200E+03 0.  0.
         25    2    1    2    0    0  0.33030759140E+01 -0.15525127186E+02 -0.10516543093E+04  0.10591765584E+04  0.12500502285E+03 0.  0.
          5    1    3    3  502    0 -0.34313546358E+02  0.61269809418E+02 -0.30139146761E+03  0.30950010623E+03  0.47000000000E+01 0.  1.
         -5    1    3    3    0  502  0.31010470444E+02 -0.45744682232E+02 -0.26363186785E+03  0.26940318664E+03  0.47000000000E+01 0.  1.
          5    1    4    4  503    0  0.58801386553E+02 -0.29621734115E+02 -0.66650104606E+03  0.66976173718E+03  0.47000000000E+01 0. -1.
         -5    1    4    4    0  503 -0.55498310639E+02  0.14096606929E+02 -0.38515326324E+03  0.38941482123E+03  0.47000000000E+01 0. -1.
<mgrwt>
<rscale>  0 0.12600817E+03</rscale>
<asrwt>0</asrwt>
<pdfrwt beam="2">  1        5 0.25036576E+00 0.12600871E+03</pdfrwt>
<pdfrwt beam="1">  1       -5 0.16463249E-02 0.12600871E+03</pdfrwt>
<totfact> 0.63347374E+01</totfact>
</mgrwt>
</event>
<event>
 8    1  0.3542708E-007  0.1574474E+03  0.7546771E-02  0.1191612E+00
         -5   -1    0    0    0  501 -0.00000000000E+00  0.00000000000E+00  0.42792293096E+03  0.42794874090E+03  0.47000000000E+01 0. -1.
          5   -1    0    0  501    0  0.00000000000E+00 -0.00000000000E+00 -0.57803997835E+02  0.57994759812E+02  0.47000000000E+01 0. -1.
         25    2    1    2    0    0  0.69435521680E+02  0.65880952791E+02  0.18419015290E+03  0.24231321611E+03  0.12501236205E+03 0.  0.
         25    2    1    2    0    0 -0.69435521680E+02 -0.65880952791E+02  0.18592878023E+03  0.24363028460E+03  0.12499845058E+03 0.  0.
          5    1    3    3  502    0  0.90675136168E+02  0.22784490201E+02  0.16628500150E+03  0.19082427790E+03  0.47000000000E+01 0. -1.
         -5    1    3    3    0  502 -0.21239614488E+02  0.43096462590E+02  0.17905151399E+02  0.51488938210E+02  0.47000000000E+01 0. -1.
          5    1    4    4  503    0 -0.10055353297E+01 -0.73145695336E+02  0.43141857118E+02  0.85056532278E+02  0.47000000000E+01 0. -1.
         -5    1    4    4    0  503 -0.68429986350E+02  0.72647425450E+01  0.14278692311E+03  0.15857375233E+03  0.47000000000E+01 0. -1.
<mgrwt>
<rscale>  0 0.15744463E+03</rscale>
<asrwt>0</asrwt>
<pdfrwt beam="2">  1        5 0.89095822E-02 0.15744740E+03</pdfrwt>
<pdfrwt beam="1">  1       -5 0.65850956E-01 0.15744740E+03</pdfrwt>
<totfact> 0.15543279E+02</totfact>
</mgrwt>
</event>
<event>
 8    1  0.3542708E-007  0.1280194E+03  0.7546771E-02  0.1230426E+00
         -5   -1    0    0    0  501 -0.00000000000E+00  0.00000000000E+00  0.25726632431E+02  0.26152430408E+02  0.47000000000E+01 0.  1.
          5   -1    0    0  501    0  0.00000000000E+00 -0.00000000000E+00 -0.63316816836E+03  0.63318561215E+03  0.47000000000E+01 0.  1.
         25    2    1    2    0    0  0.82901133173E+01 -0.26345367291E+02 -0.28609105848E+03  0.31342606847E+03  0.12500000918E+03 0.  0.
         25    2    1    2    0    0 -0.82901133173E+01  0.26345367291E+02 -0.32135047745E+03  0.34591197409E+03  0.12500464033E+03 0.  0.
          5    1    4    4  502    0 -0.35412434332E+01 -0.47564848068E+02 -0.78489245165E+02  0.91965247693E+02  0.47000000000E+01 0. -1.
         -5    1    4    4    0  502 -0.47488698841E+01  0.73910215358E+02 -0.24286123228E+03  0.25394672639E+03  0.47000000000E+01 0. -1.
          5    1    3    3  503    0 -0.56253857104E+02 -0.10850203754E+02 -0.94523879675E+02  0.11063036287E+03  0.47000000000E+01 0. -1.
         -5    1    3    3    0  503  0.64543970421E+02 -0.15495163537E+02 -0.19156717881E+03  0.20279570559E+03  0.47000000000E+01 0. -1.
<mgrwt>
<rscale>  0 0.12801826E+03</rscale>
<asrwt>0</asrwt>
<pdfrwt beam="2">  1        5 0.97444571E-01 0.12801939E+03</pdfrwt>
<pdfrwt beam="1">  1       -5 0.39920394E-02 0.12801939E+03</pdfrwt>
<totfact> 0.22584401E+02</totfact>
</mgrwt>
</event>
<event>
 8    1  0.3542708E-007  0.1450480E+03  0.7546771E-02  0.1206698E+00
         -5   -1    0    0    0  501 -0.00000000000E+00  0.00000000000E+00  0.82928621008E+03  0.82929952866E+03  0.47000000000E+01 0.  1.
          5   -1    0    0  501    0  0.00000000000E+00 -0.00000000000E+00 -0.27893836678E+02  0.28287031032E+02  0.47000000000E+01 0.  1.
         25    2    1    2    0    0  0.56585998649E+02  0.47000564759E+02  0.53451562374E+03  0.55384643398E+03  0.12501156777E+03 0.  0.
         25    2    1    2    0    0 -0.56585998649E+02 -0.47000564759E+02  0.26687674966E+03  0.30374012571E+03  0.12499534442E+03 0.  0.
          5    1    3    3  502    0 -0.11814198050E+02 -0.33719810804E+02  0.19119911535E+03  0.19456565120E+03  0.47000000000E+01 0. -1.
         -5    1    3    3    0  502  0.68400196699E+02  0.80720375564E+02  0.34331650840E+03  0.35928078279E+03  0.47000000000E+01 0. -1.
          5    1    4    4  503    0 -0.53190904180E+02  0.27175587254E+02  0.64088916561E+02  0.87734053001E+02  0.47000000000E+01 0.  1.
         -5    1    4    4    0  503 -0.33950944693E+01 -0.74176152013E+02  0.20278783310E+03  0.21600607271E+03  0.47000000000E+01 0.  1.
<mgrwt>
<rscale>  0 0.14504450E+03</rscale>
<asrwt>0</asrwt>
<pdfrwt beam="2">  1        5 0.43226301E-02 0.14504799E+03</pdfrwt>
<pdfrwt beam="1">  1       -5 0.12761375E+00 0.14504799E+03</pdfrwt>
<totfact> 0.10519941E+02</totfact>
</mgrwt>
</event>
<event>
 8    1  0.3542708E-007  0.1382823E+03  0.7546771E-02  0.1215660E+00
          5   -1    0    0  501    0  0.00000000000E+00  0.00000000000E+00  0.14547120134E+03  0.14554710722E+03  0.47000000000E+01 0. -1.
         -5   -1    0    0    0  501 -0.00000000000E+00 -0.00000000000E+00 -0.13145793795E+03  0.13154193039E+03  0.47000000000E+01 0. -1.
         25    2    1    2    0    0  0.59013167957E+02  0.37445285129E+01  0.21273774419E+01  0.13829866789E+03  0.12500168127E+03 0.  0.
         25    2    1    2    0    0 -0.59013167957E+02 -0.37445285129E+01  0.11885885946E+02  0.13879036971E+03  0.12499966782E+03 0.  0.
          5    1    3    3  502    0  0.22816558791E+02  0.27912018801E+01 -0.61008750134E+02  0.65364698086E+02  0.47000000000E+01 0. -1.
         -5    1    3    3    0  502  0.36196609166E+02  0.95332663279E+00  0.63136127575E+02  0.72933969808E+02  0.47000000000E+01 0. -1.
          5    1    4    4  503    0 -0.91740634304E+02  0.18862367401E+02 -0.79134515360E+01  0.94110815540E+02  0.47000000000E+01 0.  1.
         -5    1    4    4    0  503  0.32727466347E+02 -0.22606895914E+02  0.19799337482E+02  0.44679554173E+02  0.47000000000E+01 0.  1.
<mgrwt>
<rscale>  0 0.13828185E+03</rscale>
<asrwt>0</asrwt>
<pdfrwt beam="1">  1        5 0.22392485E-01 0.13828230E+03</pdfrwt>
<pdfrwt beam="2">  1       -5 0.20236598E-01 0.13828230E+03</pdfrwt>
<totfact> 0.30935840E+02</totfact>
</mgrwt>
</event>
<event>
 8    1  0.3542708E-007  0.1283060E+03  0.7546771E-02  0.1229993E+00
          5   -1    0    0  501    0  0.00000000000E+00  0.00000000000E+00  0.16809845654E+03  0.16816414924E+03  0.47000000000E+01 0.  1.
         -5   -1    0    0    0  501 -0.00000000000E+00 -0.00000000000E+00 -0.97976566872E+02  0.98089233129E+02  0.47000000000E+01 0.  1.
         25    2    1    2    0    0 -0.20681936428E+02 -0.20211428621E+02  0.29241902924E+02  0.13159229406E+03  0.12500079451E+03 0.  0.
         25    2    1    2    0    0  0.20681936428E+02  0.20211428621E+02  0.40879986742E+02  0.13466108831E+03  0.12500476410E+03 0.  0.
          5    1    4    4  502    0 -0.15661505566E+02  0.32087874475E+02  0.75001417579E+02  0.83199862282E+02  0.47000000000E+01 0. -1.
         -5    1    4    4    0  502  0.36343441994E+02 -0.11876445854E+02 -0.34121430837E+02  0.51461226030E+02  0.47000000000E+01 0. -1.
          5    1    3    3  503    0  0.12037059017E+01 -0.56641403716E+02  0.57088755910E+02  0.80566206154E+02  0.47000000000E+01 0.  1.
         -5    1    3    3    0  503 -0.21885642330E+02  0.36429975095E+02 -0.27846852986E+02  0.51026087905E+02  0.47000000000E+01 0.  1.
<mgrwt>
<rscale>  0 0.12830506E+03</rscale>
<asrwt>0</asrwt>
<pdfrwt beam="1">  1        5 0.25875021E-01 0.12830602E+03</pdfrwt>
<pdfrwt beam="2">  1       -5 0.15087038E-01 0.12830602E+03</pdfrwt>
<totfact> 0.39233065E+02</totfact>
</mgrwt>
</event>
<event>
 8    1  0.3542708E-007  0.1647679E+03  0.7546771E-02  0.1183418E+00
          5   -1    0    0  501    0  0.00000000000E+00  0.00000000000E+00  0.16663663804E+02  0.17313800605E+02  0.47000000000E+01 0. -1.
         -5   -1    0    0    0  501 -0.00000000000E+00 -0.00000000000E+00 -0.16065225821E+04  0.16065294572E+04  0.47000000000E+01 0. -1.
         25    2    1    2    0    0 -0.22136790875E+02 -0.10504082328E+03 -0.85637473811E+03  0.87208032719E+03  0.12499117138E+03 0.  0.
         25    2    1    2    0    0  0.22136790875E+02  0.10504082328E+03 -0.73348418021E+03  0.75176293063E+03  0.12499939673E+03 0.  0.
          5    1    3    3  502    0  0.41109054305E+02 -0.50600525860E+02 -0.20011541966E+03  0.21051992483E+03  0.47000000000E+01 0.  1.
         -5    1    3    3    0  502 -0.63245845181E+02 -0.54440297417E+02 -0.65625931845E+03  0.66156040236E+03  0.47000000000E+01 0.  1.
          5    1    4    4  503    0  0.25937121833E+01  0.95555645748E+02 -0.24885387136E+03  0.26662323243E+03  0.47000000000E+01 0.  1.
         -5    1    4    4    0  503  0.19543078692E+02  0.94851775294E+01 -0.48463030885E+03  0.48513969820E+03  0.47000000000E+01 0.  1.
<mgrwt>
<rscale>  0 0.16476634E+03</rscale>
<asrwt>0</asrwt>
<pdfrwt beam="1">  1        5 0.26141812E-02 0.16476790E+03</pdfrwt>
<pdfrwt beam="2">  1       -5 0.24720774E+00 0.16476790E+03</pdfrwt>
<totfact> 0.34154304E+01</totfact>
</mgrwt>
</event>
<event>
 8    1  0.3542708E-007  0.1691641E+03  0.7546771E-02  0.1178730E+00
         -5   -1    0    0    0  501 -0.00000000000E+00  0.00000000000E+00  0.22375391287E+02  0.22863685951E+02  0.47000000000E+01 0. -1.
          5   -1    0    0  501    0  0.00000000000E+00 -0.00000000000E+00 -0.13109964792E+04  0.13110049041E+04  0.47000000000E+01 0. -1.
         25    2    1    2    0    0 -0.78529353552E+02  0.82611646917E+02 -0.77008142434E+03  0.78844270374E+03  0.12499981359E+03 0.  0.
         25    2    1    2    0    0  0.78529353552E+02 -0.82611646917E+02 -0.51853966363E+03  0.54542588632E+03  0.12495787747E+03 0.  0.
          5    1    3    3  502    0 -0.77011798243E+02 -0.75934135781E+01 -0.30753499722E+03  0.31715665138E+03  0.47000000000E+01 0. -1.
         -5    1    3    3    0  502 -0.15175553096E+01  0.90205060495E+02 -0.46254642712E+03  0.47128605236E+03  0.47000000000E+01 0. -1.
          5    1    4    4  503    0  0.66000112595E+02 -0.11234178187E+02 -0.40586028821E+03  0.41137195477E+03  0.47000000000E+01 0. -1.
         -5    1    4    4    0  503  0.12529240957E+02 -0.71377468730E+02 -0.11267937541E+03  0.13405393155E+03  0.47000000000E+01 0. -1.
<mgrwt>
<rscale>  0 0.16915637E+03</rscale>
<asrwt>0</asrwt>
<pdfrwt beam="2">  1        5 0.20172992E+00 0.16916411E+03</pdfrwt>
<pdfrwt beam="1">  1       -5 0.34805781E-02 0.16916411E+03</pdfrwt>
<totfact> 0.42884281E+01</totfact>
</mgrwt>
</event>
<event>
 8    1  0.3542708E-007  0.1425276E+03  0.7546771E-02  0.1209971E+00
          5   -1    0    0  501    0  0.00000000000E+00  0.00000000000E+00  0.83048089677E+02  0.83180978589E+02  0.47000000000E+01 0.  1.
         -5   -1    0    0    0  501 -0.00000000000E+00 -0.00000000000E+00 -0.25741105542E+03  0.25745395987E+03  0.47000000000E+01 0.  1.
         25    2    1    2    0    0  0.59643195433E+02  0.33595361514E+02 -0.12569549405E+03  0.19002733855E+03  0.12500029239E+03 0.  0.
         25    2    1    2    0    0 -0.59643195433E+02 -0.33595361514E+02 -0.48667471695E+02  0.15060759991E+03  0.12501266844E+03 0.  0.
          5    1    3    3  502    0  0.81987091871E+01  0.26391797279E+02 -0.13427311710E+03  0.13716816603E+03  0.47000000000E+01 0.  1.
         -5    1    3    3    0  502  0.51444486246E+02  0.72035642351E+01  0.85776230513E+01  0.52859172525E+02  0.47000000000E+01 0.  1.
          5    1    4    4  503    0 -0.52743051227E+02 -0.48235050879E+02  0.24363038554E+02  0.75657763869E+02  0.47000000000E+01 0. -1.
         -5    1    4    4    0  503 -0.69001442060E+01  0.14639689364E+02 -0.73030510249E+02  0.74949836037E+02  0.47000000000E+01 0. -1.
<mgrwt>
<rscale>  0 0.14252492E+03</rscale>
<asrwt>0</asrwt>
<pdfrwt beam="1">  1        5 0.12790152E-01 0.14252763E+03</pdfrwt>
<pdfrwt beam="2">  1       -5 0.39615223E-01 0.14252763E+03</pdfrwt>
<totfact> 0.23558912E+02</totfact>
</mgrwt>
</event>
<event>
 8    1  0.3542708E-007  0.1257486E+03  0.7546771E-02  0.1233905E+00
          5   -1    0    0  501    0  0.00000000000E+00  0.00000000000E+00  0.18086640342E+03  0.18092746029E+03  0.47000000000E+01 0.  1.
         -5   -1    0    0    0  501 -0.00000000000E+00 -0.00000000000E+00 -0.12653023630E+03  0.12661749760E+03  0.47000000000E+01 0.  1.
         25    2    1    2    0    0  0.30863266125E+01  0.13313564314E+02 -0.58412807760E+02  0.13865344578E+03  0.12500378198E+03 0.  0.
         25    2    1    2    0    0 -0.30863266125E+01 -0.13313564314E+02  0.11274897488E+03  0.16889151211E+03  0.12500094047E+03 0.  0.
          5    1    4    4  502    0 -0.37846346606E+02 -0.51313550921E+02  0.28413511304E+02  0.69963162337E+02  0.47000000000E+01 0. -1.
         -5    1    4    4    0  502  0.34760019993E+02  0.37999986607E+02  0.84335463574E+02  0.98928349770E+02  0.47000000000E+01 0. -1.
          5    1    3    3  503    0  0.60723753126E+02 -0.12938834242E+01 -0.97900049201E+01  0.61700749788E+02  0.47000000000E+01 0.  1.
         -5    1    3    3    0  503 -0.57637426514E+02  0.14607447738E+02 -0.48622802840E+02  0.76952695993E+02  0.47000000000E+01 0.  1.
<mgrwt>
<rscale>  0 0.12574794E+03</rscale>
<asrwt>0</asrwt>
<pdfrwt beam="1">  1        5 0.27837010E-01 0.12574865E+03</pdfrwt>
<pdfrwt beam="2">  1       -5 0.19477599E-01 0.12574865E+03</pdfrwt>
<totfact> 0.21178469E+02</totfact>
</mgrwt>
</event>
<event>
 8    1  0.3542708E-007  0.1260447E+03  0.7546771E-02  0.1233448E+00
         -5   -1    0    0    0  501 -0.00000000000E+00  0.00000000000E+00  0.12966076705E+03  0.12974592291E+03  0.47000000000E+01 0.  1.
          5   -1    0    0  501    0  0.00000000000E+00 -0.00000000000E+00 -0.13641887957E+03  0.13649981942E+03  0.47000000000E+01 0.  1.
         25    2    1    2    0    0 -0.49266232538E+01  0.15409746930E+02  0.39339348808E+02  0.13204107291E+03  0.12500211460E+03 0.  0.
         25    2    1    2    0    0  0.49266232538E+01 -0.15409746930E+02 -0.46097461327E+02  0.13420466942E+03  0.12499674170E+03 0.  0.
          5    1    3    3  502    0  0.59762244308E+02  0.57744921931E+01  0.14690712200E+02  0.61990141391E+02  0.47000000000E+01 0. -1.
         -5    1    3    3    0  502 -0.64688867561E+02  0.96352547365E+01  0.24648636608E+02  0.70050931520E+02  0.47000000000E+01 0. -1.
          5    1    4    4  503    0 -0.19987385794E+02  0.50871151984E+02 -0.16210823899E+02  0.57203588231E+02  0.47000000000E+01 0.  1.
         -5    1    4    4    0  503  0.24914009048E+02 -0.66280898913E+02 -0.29886637428E+02  0.77001081190E+02  0.47000000000E+01 0.  1.
<mgrwt>
<rscale>  0 0.12604334E+03</rscale>
<asrwt>0</asrwt>
<pdfrwt beam="2">  1        5 0.21000297E-01 0.12604468E+03</pdfrwt>
<pdfrwt beam="1">  1       -5 0.19960587E-01 0.12604468E+03</pdfrwt>
<totfact> 0.34650134E+02</totfact>
</mgrwt>
</event>
<event>
 8    1  0.3542708E-007  0.1255065E+03  0.7546771E-02  0.1234280E+00
          5   -1    0    0  501    0  0.00000000000E+00  0.00000000000E+00  0.12415284922E+02  0.13275138406E+02  0.47000000000E+01 0. -1.
         -5   -1    0    0    0  501 -0.00000000000E+00 -0.00000000000E+00 -0.12793120861E+04  0.12793207196E+04  0.47000000000E+01 0. -1.
         25    2    1    2    0    0 -0.40385978171E+01  0.10473319191E+02 -0.76607803561E+03  0.77629082228E+03  0.12500353369E+03 0.  0.
         25    2    1    2    0    0  0.40385978171E+01 -0.10473319191E+02 -0.50081876559E+03  0.51630503575E+03  0.12500181317E+03 0.  0.
          5    1    4    4  502    0  0.41949284708E+01 -0.10354153362E+02 -0.50776839142E+03  0.50791301937E+03  0.47000000000E+01 0.  1.
         -5    1    4    4    0  502 -0.15633065372E+00 -0.11916582872E+00  0.69496258357E+01  0.83920163861E+01  0.47000000000E+01 0.  1.
          5    1    3    3  503    0 -0.12279574646E+02 -0.36006971316E+02 -0.81429807623E+02  0.90001075029E+02  0.47000000000E+01 0. -1.
         -5    1    3    3    0  503  0.82409768284E+01  0.46480290507E+02 -0.68464822798E+03  0.68628974725E+03  0.47000000000E+01 0. -1.
<mgrwt>
<rscale>  0 0.12550608E+03</rscale>
<asrwt>0</asrwt>
<pdfrwt beam="1">  1        5 0.19768515E-02 0.12550651E+03</pdfrwt>
<pdfrwt beam="2">  1       -5 0.19688395E+00 0.12550651E+03</pdfrwt>
<totfact> 0.10543347E+02</totfact>
</mgrwt>
</event>
<event>
 8    1  0.3542708E-007  0.1518559E+03  0.7546771E-02  0.1198215E+00
          5   -1    0    0  501    0  0.00000000000E+00  0.00000000000E+00  0.97521105599E+03  0.97522238168E+03  0.47000000000E+01 0.  1.
         -5   -1    0    0    0  501 -0.00000000000E+00 -0.00000000000E+00 -0.31809102639E+02  0.32154455534E+02  0.47000000000E+01 0.  1.
         25    2    1    2    0    0  0.69832077171E+02  0.50540171688E+02  0.21437398576E+03  0.26270106634E+03  0.12499926611E+03 0.  0.
         25    2    1    2    0    0 -0.69832077171E+02 -0.50540171688E+02  0.72902796759E+03  0.74467577087E+03  0.12501759170E+03 0.  0.
          5    1    3    3  502    0  0.16543417021E+02 -0.22477141363E+02  0.14742151382E+03  0.15011362119E+03  0.47000000000E+01 0. -1.
         -5    1    3    3    0  502  0.53288660151E+02  0.73017313050E+02  0.66952471936E+02  0.11258744514E+03  0.47000000000E+01 0. -1.
          5    1    4    4  503    0 -0.91592668975E+02 -0.43800206662E+02  0.70064977726E+03  0.70798296271E+03  0.47000000000E+01 0. -1.
         -5    1    4    4    0  503  0.21760591803E+02 -0.67399650260E+01  0.28378190329E+02  0.36692808158E+02  0.47000000000E+01 0. -1.
<mgrwt>
<rscale>  0 0.15185217E+03</rscale>
<asrwt>0</asrwt>
<pdfrwt beam="1">  1        5 0.15005989E+00 0.15185594E+03</pdfrwt>
<pdfrwt beam="2">  1       -5 0.49211456E-02 0.15185594E+03</pdfrwt>
<totfact> 0.55905171E+01</totfact>
</mgrwt>
</event>
<event>
 8    1  0.3542708E-007  0.1361021E+03  0.7546771E-02  0.1218677E+00
          5   -1    0    0  501    0  0.00000000000E+00  0.00000000000E+00  0.12780727403E+03  0.12789366401E+03  0.47000000000E+01 0. -1.
         -5   -1    0    0    0  501 -0.00000000000E+00 -0.00000000000E+00 -0.14536925006E+03  0.14544520915E+03  0.47000000000E+01 0. -1.
         25    2    1    2    0    0  0.53753395729E+02  0.28460619011E+01 -0.17725263815E+02  0.13725149203E+03  0.12500503777E+03 0.  0.
         25    2    1    2    0    0 -0.53753395729E+02 -0.28460619011E+01  0.16328777834E+00  0.13608738113E+03  0.12498888358E+03 0.  0.
          5    1    3    3  502    0  0.67349325850E+02 -0.44297374218E+02  0.88885343698E+01  0.81235984011E+02  0.47000000000E+01 0.  1.
         -5    1    3    3    0  502 -0.13595930120E+02  0.47143436119E+02 -0.26613798185E+02  0.56015508021E+02  0.47000000000E+01 0.  1.
          5    1    4    4  503    0 -0.77330648990E+02 -0.21024017867E+02  0.37083548787E+02  0.88426908750E+02  0.47000000000E+01 0.  1.
         -5    1    4    4    0  503  0.23577253260E+02  0.18177955966E+02 -0.36920261009E+02  0.47660472379E+02  0.47000000000E+01 0.  1.
<mgrwt>
<rscale>  0 0.13609841E+03</rscale>
<asrwt>0</asrwt>
<pdfrwt beam="1">  1        5 0.19675146E-01 0.13610212E+03</pdfrwt>
<pdfrwt beam="2">  1       -5 0.22376988E-01 0.13610212E+03</pdfrwt>
<totfact> 0.32468100E+02</totfact>
</mgrwt>
</event>
<event>
 8    1  0.3542708E-007  0.1251937E+03  0.7546771E-02  0.1234768E+00
          5   -1    0    0  501    0  0.00000000000E+00  0.00000000000E+00  0.70816538168E+02  0.70972333187E+02  0.47000000000E+01 0. -1.
         -5   -1    0    0    0  501 -0.00000000000E+00 -0.00000000000E+00 -0.22674910015E+03  0.22679780515E+03  0.47000000000E+01 0. -1.
         25    2    1    2    0    0  0.60505320365E+01 -0.34706073716E+01 -0.10188071307E+03  0.16140985191E+03  0.12499922618E+03 0.  0.
         25    2    1    2    0    0 -0.60505320365E+01  0.34706073716E+01 -0.54051848919E+02  0.13636028643E+03  0.12499548507E+03 0.  0.
          5    1    3    3  502    0  0.37601663217E+02  0.48569692873E+02 -0.34955865371E+02  0.70830097179E+02  0.47000000000E+01 0. -1.
         -5    1    3    3    0  502 -0.31551131181E+02 -0.52040300245E+02 -0.66924847695E+02  0.90579754732E+02  0.47000000000E+01 0. -1.
          5    1    4    4  503    0  0.30367227452E+02 -0.39339475989E+02  0.10111287849E+02  0.50932219823E+02  0.47000000000E+01 0. -1.
         -5    1    4    4    0  503 -0.36417759488E+02  0.42810083360E+02 -0.64163136768E+02  0.85428066602E+02  0.47000000000E+01 0. -1.
<mgrwt>
<rscale>  0 0.12519276E+03</rscale>
<asrwt>0</asrwt>
<pdfrwt beam="1">  1        5 0.10910583E-01 0.12519369E+03</pdfrwt>
<pdfrwt beam="2">  1       -5 0.34900207E-01 0.12519369E+03</pdfrwt>
<totfact> 0.38519384E+02</totfact>
</mgrwt>
</event>
<event>
 8    1  0.3542708E-007  0.1738385E+03  0.7546771E-02  0.1173904E+00
          5   -1    0    0  501    0  0.00000000000E+00  0.00000000000E+00  0.86038312033E+02  0.86166589450E+02  0.47000000000E+01 0.  1.
         -5   -1    0    0    0  501 -0.00000000000E+00 -0.00000000000E+00 -0.35082206648E+03  0.35085354826E+03  0.47000000000E+01 0.  1.
         25    2    1    2    0    0  0.13434772644E+02  0.12006039260E+03 -0.13238225494E+03  0.21850603837E+03  0.12499934557E+03 0.  0.
         25    2    1    2    0    0 -0.13434772644E+02 -0.12006039260E+03 -0.13240149950E+03  0.21851409934E+03  0.12499305401E+03 0.  0.
          5    1    4    4  502    0 -0.16282482790E+02  0.17402185068E+02 -0.56251852156E+02  0.61272474749E+02  0.47000000000E+01 0. -1.
         -5    1    4    4    0  502  0.28477101459E+01 -0.13746257767E+03 -0.76149647344E+02  0.15724162459E+03  0.47000000000E+01 0. -1.
          5    1    3    3  503    0 -0.21465027517E+02  0.63820850952E+02 -0.13623521220E+03  0.15203937473E+03  0.47000000000E+01 0.  1.
         -5    1    3    3    0  503  0.34899800161E+02  0.56239541651E+02  0.38529572624E+01  0.66466663645E+02  0.47000000000E+01 0.  1.
<mgrwt>
<rscale>  0 0.17383738E+03</rscale>
<asrwt>0</asrwt>
<pdfrwt beam="1">  1        5 0.13248953E-01 0.17383851E+03</pdfrwt>
<pdfrwt beam="2">  1       -5 0.53984914E-01 0.17383851E+03</pdfrwt>
<totfact> 0.12302156E+02</totfact>
</mgrwt>
</event>
<event>
 8    1  0.3542708E-007  0.1829669E+03  0.7546771E-02  0.1164963E+00
          5   -1    0    0  501    0  0.00000000000E+00  0.00000000000E+00  0.37753108019E+02  0.38044541857E+02  0.47000000000E+01 0. -1.
         -5   -1    0    0    0  501 -0.00000000000E+00 -0.00000000000E+00 -0.90117571715E+03  0.90118797328E+03  0.47000000000E+01 0. -1.
         25    2    1    2    0    0  0.11754216518E+03 -0.63529011858E+02 -0.49839987349E+03  0.53092309213E+03  0.12499919968E+03 0.  0.
         25    2    1    2    0    0 -0.11754216518E+03  0.63529011858E+02 -0.36502273565E+03  0.40830942301E+03  0.12499156546E+03 0.  0.
          5    1    3    3  502    0  0.30751005100E+02 -0.85418829322E+02 -0.29401092623E+03  0.30774423708E+03  0.47000000000E+01 0. -1.
         -5    1    3    3    0  502  0.86791160081E+02  0.21889817464E+02 -0.20438894726E+03  0.22317885504E+03  0.47000000000E+01 0. -1.
          5    1    4    4  503    0 -0.12082144825E+03  0.72787407162E+02 -0.37024640336E+03  0.39623265666E+03  0.47000000000E+01 0.  1.
         -5    1    4    4    0  503  0.32792830663E+01 -0.92583953038E+01  0.52236677194E+01  0.12076766350E+02  0.47000000000E+01 0.  1.
<mgrwt>
<rscale>  0 0.18296562E+03</rscale>
<asrwt>0</asrwt>
<pdfrwt beam="1">  1        5 0.58315319E-02 0.18296693E+03</pdfrwt>
<pdfrwt beam="2">  1       -5 0.13866576E+00 0.18296693E+03</pdfrwt>
<totfact> 0.54871613E+01</totfact>
</mgrwt>
</event>
<event>
 8    1  0.3542708E-007  0.1286205E+03  0.7546771E-02  0.1229518E+00
          5   -1    0    0  501    0  0.00000000000E+00  0.00000000000E+00  0.56798164763E+03  0.56800109334E+03  0.47000000000E+01 0. -1.
         -5   -1    0    0    0  501 -0.00000000000E+00 -0.00000000000E+00 -0.31324981228E+02  0.31675612842E+02  0.47000000000E+01 0. -1.
         25    2    1    2    0    0 -0.85535302043E+01  0.29056276096E+02  0.18568083801E+03  0.22587560397E+03  0.12499993922E+03 0.  0.
         25    2    1    2    0    0  0.85535302043E+01 -0.29056276096E+02  0.35097582839E+03  0.37380110222E+03  0.12500320735E+03 0.  0.
          5    1    4    4  502    0  0.51520875174E+02 -0.56949499625E+02  0.19906493429E+03  0.21341645708E+03  0.47000000000E+01 0. -1.
         -5    1    4    4    0  502 -0.42967344970E+02  0.27893223529E+02  0.15191089410E+03  0.16038464514E+03  0.47000000000E+01 0. -1.
          5    1    3    3  503    0  0.10191499623E+02 -0.14192464041E+02 -0.12578103881E+02  0.22036138440E+02  0.47000000000E+01 0.  1.
         -5    1    3    3    0  503 -0.18745029827E+02  0.43248740137E+02  0.19825894189E+03  0.20383946553E+03  0.47000000000E+01 0.  1.
<mgrwt>
<rscale>  0 0.12861970E+03</rscale>
<asrwt>0</asrwt>
<pdfrwt beam="1">  1        5 0.87410253E-01 0.12862050E+03</pdfrwt>
<pdfrwt beam="2">  1       -5 0.48476957E-02 0.12862050E+03</pdfrwt>
<totfact> 0.21284151E+02</totfact>
</mgrwt>
</event>
<event>
 8    1  0.3542708E-007  0.1260581E+03  0.7546771E-02  0.1233428E+00
         -5   -1    0    0    0  501 -0.00000000000E+00  0.00000000000E+00  0.14045114144E+03  0.14052975889E+03  0.47000000000E+01 0. -1.
          5   -1    0    0  501    0  0.00000000000E+00 -0.00000000000E+00 -0.12274060618E+03  0.12283055974E+03  0.47000000000E+01 0. -1.
         25    2    1    2    0    0  0.35361798129E+01 -0.15840878822E+02  0.45973890191E+02  0.13417985641E+03  0.12500878880E+03 0.  0.
         25    2    1    2    0    0 -0.35361798129E+01  0.15840878822E+02 -0.28263354928E+02  0.12918046221E+03  0.12500134630E+03 0.  0.
          5    1    4    4  502    0  0.44055319497E+02  0.30743569212E+02 -0.50951894140E+02  0.74190455857E+02  0.47000000000E+01 0.  1.
         -5    1    4    4    0  502 -0.47591499310E+02 -0.14902690389E+02  0.22688539212E+02  0.54990006355E+02  0.47000000000E+01 0.  1.
          5    1    3    3  503    0  0.23863129133E+02 -0.14233405172E+02  0.85190194133E+02  0.89730139480E+02  0.47000000000E+01 0. -1.
         -5    1    3    3    0  503 -0.20326949320E+02 -0.16074736500E+01 -0.39216303942E+02  0.44449716929E+02  0.47000000000E+01 0. -1.
<mgrwt>
<rscale>  0 0.12605622E+03</rscale>
<asrwt>0</asrwt>
<pdfrwt beam="2">  1        5 0.18896137E-01 0.12605806E+03</pdfrwt>
<pdfrwt beam="1">  1       -5 0.21620835E-01 0.12605806E+03</pdfrwt>
<totfact> 0.36323686E+02</totfact>
</mgrwt>
</event>
<event>
 8    1  0.3542708E-007  0.1270092E+03  0.7546771E-02  0.1231963E+00
         -5   -1    0    0    0  501 -0.00000000000E+00  0.00000000000E+00  0.10518222009E+03  0.10528717596E+03  0.47000000000E+01 0.  1.
          5   -1    0    0  501    0  0.00000000000E+00 -0.00000000000E+00 -0.15531879659E+03  0.15538989212E+03  0.47000000000E+01 0.  1.
         25    2    1    2    0    0  0.22437958541E+02 -0.17007445573E+01 -0.96591143779E+01  0.12737591162E+03  0.12499987942E+03 0.  0.
         25    2    1    2    0    0 -0.22437958541E+02  0.17007445573E+01 -0.40477462122E+02  0.13330115647E+03  0.12499767542E+03 0.  0.
          5    1    3    3  502    0  0.85934926423E+01 -0.52747973697E+02  0.29660825717E+02  0.61302947948E+02  0.47000000000E+01 0. -1.
         -5    1    3    3    0  502  0.13844465898E+02  0.51047229140E+02 -0.39319940095E+02  0.66072963668E+02  0.47000000000E+01 0. -1.
          5    1    4    4  503    0  0.45150469432E+02  0.15458415525E+02 -0.42586774224E+02  0.64134630577E+02  0.47000000000E+01 0.  1.
         -5    1    4    4    0  503 -0.67588427972E+02 -0.13757670968E+02  0.21093121019E+01  0.69166525890E+02  0.47000000000E+01 0.  1.
<mgrwt>
<rscale>  0 0.12700861E+03</rscale>
<asrwt>0</asrwt>
<pdfrwt beam="2">  1        5 0.23908742E-01 0.12700915E+03</pdfrwt>
<pdfrwt beam="1">  1       -5 0.16195422E-01 0.12700915E+03</pdfrwt>
<totfact> 0.39972517E+02</totfact>
</mgrwt>
</event>
<event>
 8    1  0.3542708E-007  0.1277305E+03  0.7546771E-02  0.1230874E+00
         -5   -1    0    0    0  501 -0.00000000000E+00  0.00000000000E+00  0.94892654830E+02  0.95008978211E+02  0.47000000000E+01 0.  1.
          5   -1    0    0  501    0  0.00000000000E+00 -0.00000000000E+00 -0.17213575926E+03  0.17219991178E+03  0.47000000000E+01 0.  1.
         25    2    1    2    0    0 -0.18694792379E+02  0.18251274153E+02 -0.31453933775E+02  0.13154630037E+03  0.12502989610E+03 0.  0.
         25    2    1    2    0    0  0.18694792379E+02 -0.18251274153E+02 -0.45789170657E+02  0.13566258962E+03  0.12500034321E+03 0.  0.
          5    1    4    4  502    0  0.96538623336E+01  0.20437895413E+02  0.37057824936E+02  0.43660932375E+02  0.47000000000E+01 0. -1.
         -5    1    4    4    0  502  0.90409300457E+01 -0.38689169566E+02 -0.82846995593E+02  0.92001657249E+02  0.47000000000E+01 0. -1.
          5    1    3    3  503    0  0.34223359618E+02  0.24316221029E+02  0.28692859460E+02  0.51067476271E+02  0.47000000000E+01 0.  1.
         -5    1    3    3    0  503 -0.52918151998E+02 -0.60649468759E+01 -0.60146793235E+02  0.80478824096E+02  0.47000000000E+01 0.  1.
<mgrwt>
<rscale>  0 0.12772326E+03</rscale>
<asrwt>0</asrwt>
<pdfrwt beam="2">  1        5 0.26496307E-01 0.12773049E+03</pdfrwt>
<pdfrwt beam="1">  1       -5 0.14612753E-01 0.12773049E+03</pdfrwt>
<totfact> 0.39641697E+02</totfact>
</mgrwt>
</event>
<event>
 8    1  0.3542708E-007  0.1453860E+03  0.7546771E-02  0.1206263E+00
          5   -1    0    0  501    0  0.00000000000E+00  0.00000000000E+00  0.14491372970E+03  0.14498992743E+03  0.47000000000E+01 0. -1.
         -5   -1    0    0    0  501 -0.00000000000E+00 -0.00000000000E+00 -0.16190337191E+03  0.16197157725E+03  0.47000000000E+01 0. -1.
         25    2    1    2    0    0 -0.54241895357E+02  0.50704379259E+02 -0.57029332463E+02  0.15617114671E+03  0.12499585999E+03 0.  0.
         25    2    1    2    0    0  0.54241895357E+02 -0.50704379259E+02  0.40039690252E+02  0.15079035797E+03  0.12498575108E+03 0.  0.
          5    1    4    4  502    0  0.42103345777E+02  0.29072734129E+02  0.47032031427E+02  0.69656425227E+02  0.47000000000E+01 0. -1.
         -5    1    4    4    0  502  0.12138549580E+02 -0.79777113388E+02 -0.69923411747E+01  0.81133932738E+02  0.47000000000E+01 0. -1.
          5    1    3    3  503    0 -0.35591154516E+02  0.38183935540E+02  0.33881501110E+02  0.62408247296E+02  0.47000000000E+01 0. -1.
         -5    1    3    3    0  503 -0.18650740841E+02  0.12520443718E+02 -0.90910833573E+02  0.93762899410E+02  0.47000000000E+01 0. -1.
<mgrwt>
<rscale>  0 0.14538380E+03</rscale>
<asrwt>0</asrwt>
<pdfrwt beam="1">  1        5 0.22305528E-01 0.14538598E+03</pdfrwt>
<pdfrwt beam="2">  1       -5 0.24919319E-01 0.14538598E+03</pdfrwt>
<totfact> 0.21375435E+02</totfact>
</mgrwt>
</event>
<event>
 8    1  0.3542708E-007  0.1359463E+03  0.7546771E-02  0.1218891E+00
         -5   -1    0    0    0  501 -0.00000000000E+00  0.00000000000E+00  0.65751796749E+02  0.65919562921E+02  0.47000000000E+01 0.  1.
          5   -1    0    0  501    0  0.00000000000E+00 -0.00000000000E+00 -0.29293847704E+03  0.29297617877E+03  0.47000000000E+01 0.  1.
         25    2    1    2    0    0 -0.23464399773E+02  0.48018008207E+02 -0.76670813888E+02  0.15607631552E+03  0.12500038157E+03 0.  0.
         25    2    1    2    0    0  0.23464399773E+02 -0.48018008207E+02 -0.15051586640E+03  0.20281942618E+03  0.12499754569E+03 0.  0.
          5    1    3    3  502    0  0.17613397149E+02  0.98714172301E+01  0.29421831153E+02  0.35991815537E+02  0.47000000000E+01 0. -1.
         -5    1    3    3    0  502 -0.41077796922E+02  0.38146590977E+02 -0.10609264504E+03  0.12008449998E+03  0.47000000000E+01 0. -1.
          5    1    4    4  503    0 -0.30161658721E+02 -0.51925447774E+02 -0.13311843767E+03  0.14611155406E+03  0.47000000000E+01 0.  1.
         -5    1    4    4    0  503  0.53626058494E+02  0.39074395671E+01 -0.17397428733E+02  0.56707872117E+02  0.47000000000E+01 0.  1.
<mgrwt>
<rscale>  0 0.13594567E+03</rscale>
<asrwt>0</asrwt>
<pdfrwt beam="2">  1        5 0.45083262E-01 0.13594632E+03</pdfrwt>
<pdfrwt beam="1">  1       -5 0.10131466E-01 0.13594632E+03</pdfrwt>
<totfact> 0.26788895E+02</totfact>
</mgrwt>
</event>
<event>
 8    1  0.3542708E-007  0.1383304E+03  0.7546771E-02  0.1215594E+00
          5   -1    0    0  501    0  0.00000000000E+00  0.00000000000E+00  0.13957805990E+02  0.14727876563E+02  0.47000000000E+01 0.  1.
         -5   -1    0    0    0  501 -0.00000000000E+00 -0.00000000000E+00 -0.13419855931E+04  0.13419938234E+04  0.47000000000E+01 0.  1.
         25    2    1    2    0    0 -0.56352673524E+02 -0.18282627966E+02 -0.60957977748E+03  0.62507823934E+03  0.12500168755E+03 0.  0.
         25    2    1    2    0    0  0.56352673524E+02  0.18282627966E+02 -0.71844800966E+03  0.73164346066E+03  0.12499893060E+03 0.  0.
          5    1    4    4  502    0 -0.21191542878E+02 -0.33571421166E+02 -0.13600635378E+03  0.14176014983E+03  0.47000000000E+01 0. -1.
         -5    1    4    4    0  502  0.77544216402E+02  0.51854049132E+02 -0.58244165587E+03  0.58988331084E+03  0.47000000000E+01 0. -1.
          5    1    3    3  503    0 -0.95081359879E+02 -0.22021983770E+02 -0.39182162352E+03  0.40382138059E+03  0.47000000000E+01 0. -1.
         -5    1    3    3    0  503  0.38728686355E+02  0.37393558037E+01 -0.21775815396E+03  0.22125685875E+03  0.47000000000E+01 0. -1.
<mgrwt>
<rscale>  0 0.13832978E+03</rscale>
<asrwt>0</asrwt>
<pdfrwt beam="1">  1        5 0.22072251E-02 0.13833040E+03</pdfrwt>
<pdfrwt beam="2">  1       -5 0.20651909E+00 0.13833040E+03</pdfrwt>
<totfact> 0.78542506E+01</totfact>
</mgrwt>
</event>
<event>
 8    1  0.3542708E-007  0.1295637E+03  0.7546771E-02  0.1228107E+00
         -5   -1    0    0    0  501 -0.00000000000E+00  0.00000000000E+00  0.26347360025E+03  0.26351551762E+03  0.47000000000E+01 0. -1.
          5   -1    0    0  501    0  0.00000000000E+00 -0.00000000000E+00 -0.81813584413E+02  0.81948475242E+02  0.47000000000E+01 0. -1.
         25    2    1    2    0    0 -0.30302698909E+02 -0.15584198695E+02  0.17228413784E+03  0.21556148574E+03  0.12499523661E+03 0.  0.
         25    2    1    2    0    0  0.30302698909E+02  0.15584198695E+02  0.93758779984E+01  0.12990250712E+03  0.12500253380E+03 0.  0.
          5    1    3    3  502    0  0.42752329684E+02 -0.29211250922E+02  0.48472284118E+02  0.71082425405E+02  0.47000000000E+01 0. -1.
         -5    1    3    3    0  502 -0.73055028594E+02  0.13627052227E+02  0.12381185372E+03  0.14447906034E+03  0.47000000000E+01 0. -1.
          5    1    4    4  503    0  0.50362236553E+02  0.46092749611E+02 -0.31118579074E+02  0.75175477390E+02  0.47000000000E+01 0.  1.
         -5    1    4    4    0  503 -0.20059537644E+02 -0.30508550916E+02  0.40494457072E+02  0.54727029730E+02  0.47000000000E+01 0.  1.
<mgrwt>
<rscale>  0 0.12956195E+03</rscale>
<asrwt>0</asrwt>
<pdfrwt beam="2">  1        5 0.12600306E-01 0.12956371E+03</pdfrwt>
<pdfrwt beam="1">  1       -5 0.40548001E-01 0.12956371E+03</pdfrwt>
<totfact> 0.22329051E+02</totfact>
</mgrwt>
</event>
<event>
 8    1  0.3542708E-007  0.1607568E+03  0.7546771E-02  0.1187845E+00
          5   -1    0    0  501    0  0.00000000000E+00  0.00000000000E+00  0.24569635187E+02  0.25015134884E+02  0.47000000000E+01 0. -1.
         -5   -1    0    0    0  501 -0.00000000000E+00 -0.00000000000E+00 -0.11556825735E+04  0.11556921306E+04  0.47000000000E+01 0. -1.
         25    2    1    2    0    0 -0.48268754127E+02  0.88813968246E+02 -0.75074612000E+03  0.76776461112E+03  0.12499987124E+03 0.  0.
         25    2    1    2    0    0  0.48268754127E+02 -0.88813968246E+02 -0.38036681834E+03  0.41294265437E+03  0.12499970291E+03 0.  0.
          5    1    3    3  502    0  0.16396919672E+02 -0.37918727039E+01 -0.13984531358E+02  0.22380670022E+02  0.47000000000E+01 0. -1.
         -5    1    3    3    0  502 -0.64665673799E+02  0.92605840950E+02 -0.73676158864E+03  0.74538394110E+03  0.47000000000E+01 0. -1.
          5    1    4    4  503    0  0.17842235638E+02 -0.42918395141E+02 -0.34314712998E+03  0.34631254211E+03  0.47000000000E+01 0. -1.
         -5    1    4    4    0  503  0.30426518489E+02 -0.45895573105E+02 -0.37219688360E+02  0.66630112259E+02  0.47000000000E+01 0. -1.
<mgrwt>
<rscale>  0 0.16075681E+03</rscale>
<asrwt>0</asrwt>
<pdfrwt beam="1">  1        5 0.38149491E-02 0.16075684E+03</pdfrwt>
<pdfrwt beam="2">  1       -5 0.17783228E+00 0.16075684E+03</pdfrwt>
<totfact> 0.53451162E+01</totfact>
</mgrwt>
</event>
<event>
 8    1  0.3542708E-007  0.1805212E+03  0.7546771E-02  0.1167300E+00
          5   -1    0    0  501    0  0.00000000000E+00  0.00000000000E+00  0.46526700150E+02  0.46763488181E+02  0.47000000000E+01 0. -1.
         -5   -1    0    0    0  501 -0.00000000000E+00 -0.00000000000E+00 -0.71254088664E+03  0.71255638734E+03  0.47000000000E+01 0. -1.
         25    2    1    2    0    0 -0.63326650933E+02 -0.11381509485E+03 -0.38650313480E+03  0.42658222005E+03  0.12499430675E+03 0.  0.
         25    2    1    2    0    0  0.63326650933E+02  0.11381509485E+03 -0.27951105169E+03  0.33273765546E+03  0.12499511516E+03 0.  0.
          5    1    3    3  502    0 -0.16931126553E+02 -0.75380717781E+01  0.37091650872E+01  0.19476485261E+02  0.47000000000E+01 0.  1.
         -5    1    3    3    0  502 -0.46395524379E+02 -0.10627702307E+03 -0.39021229989E+03  0.40710573479E+03  0.47000000000E+01 0.  1.
          5    1    4    4  503    0  0.97543114756E+02  0.76035677533E+02 -0.23175109600E+03  0.26272941211E+03  0.47000000000E+01 0. -1.
         -5    1    4    4    0  503 -0.34216463823E+02  0.37779417317E+02 -0.47759955694E+02  0.70008243352E+02  0.47000000000E+01 0. -1.
<mgrwt>
<rscale>  0 0.18052110E+03</rscale>
<asrwt>0</asrwt>
<pdfrwt beam="1">  1        5 0.71773612E-02 0.18052124E+03</pdfrwt>
<pdfrwt beam="2">  1       -5 0.10964107E+00 0.18052124E+03</pdfrwt>
<totfact> 0.70505960E+01</totfact>
</mgrwt>
</event>
<event>
 8    1  0.3542708E-007  0.1872747E+03  0.7546771E-02  0.1160943E+00
         -5   -1    0    0    0  501 -0.00000000000E+00  0.00000000000E+00  0.30784639248E+03  0.30788226868E+03  0.47000000000E+01 0.  1.
          5   -1    0    0  501    0  0.00000000000E+00 -0.00000000000E+00 -0.11406415101E+03  0.11416094142E+03  0.47000000000E+01 0.  1.
         25    2    1    2    0    0 -0.28634414874E+02  0.13647565060E+03  0.10635914064E+03  0.21536809087E+03  0.12500245936E+03 0.  0.
         25    2    1    2    0    0  0.28634414874E+02 -0.13647565060E+03  0.87423100829E+02  0.20667511923E+03  0.12500509361E+03 0.  0.
          5    1    4    4  502    0 -0.14503178957E+02  0.14943613813E+02  0.34381226317E+02  0.40469896426E+02  0.47000000000E+01 0.  1.
         -5    1    4    4    0  502  0.43137593832E+02 -0.15141926441E+03  0.53041874512E+02  0.16620522281E+03  0.47000000000E+01 0.  1.
          5    1    3    3  503    0  0.39475332087E+02  0.84972577937E+01  0.35337361832E+02  0.53863943178E+02  0.47000000000E+01 0. -1.
         -5    1    3    3    0  503 -0.68109746961E+02  0.12797839280E+03  0.71021778810E+02  0.16150414769E+03  0.47000000000E+01 0. -1.
<mgrwt>
<rscale>  0 0.18727424E+03</rscale>
<asrwt>0</asrwt>
<pdfrwt beam="2">  1        5 0.17558536E-01 0.18727468E+03</pdfrwt>
<pdfrwt beam="1">  1       -5 0.47371189E-01 0.18727468E+03</pdfrwt>
<totfact> 0.99471448E+01</totfact>
</mgrwt>
</event>
<event>
 8    1  0.3542708E-007  0.1291666E+03  0.7546771E-02  0.1228699E+00
          5   -1    0    0  501    0  0.00000000000E+00  0.00000000000E+00  0.13580096483E+03  0.13588227275E+03  0.47000000000E+01 0. -1.
         -5   -1    0    0    0  501 -0.00000000000E+00 -0.00000000000E+00 -0.12494565023E+03  0.12503401742E+03  0.47000000000E+01 0. -1.
         25    2    1    2    0    0 -0.28459500475E+02 -0.15770509026E+02 -0.12089442205E+02  0.12972758983E+03  0.12499776329E+03 0.  0.
         25    2    1    2    0    0  0.28459500475E+02  0.15770509026E+02  0.22944756807E+02  0.13118870034E+03  0.12500144443E+03 0.  0.
          5    1    4    4  502    0 -0.47079330933E+02 -0.64119032419E+01 -0.38297949784E+01  0.47899198676E+02  0.47000000000E+01 0.  1.
         -5    1    4    4    0  502  0.75538831408E+02  0.22182412268E+02  0.26774551785E+02  0.83289501666E+02  0.47000000000E+01 0.  1.
          5    1    3    3  503    0  0.47538157604E+01  0.11806762652E+02  0.51203191797E+02  0.52970324323E+02  0.47000000000E+01 0.  1.
         -5    1    3    3    0  503 -0.33213316235E+02 -0.27577271679E+02 -0.63292634002E+02  0.76757265503E+02  0.47000000000E+01 0.  1.
<mgrwt>
<rscale>  0 0.12916572E+03</rscale>
<asrwt>0</asrwt>
<pdfrwt beam="1">  1        5 0.20905508E-01 0.12916661E+03</pdfrwt>
<pdfrwt beam="2">  1       -5 0.19235460E-01 0.12916661E+03</pdfrwt>
<totfact> 0.37774017E+02</totfact>
</mgrwt>
</event>
<event>
 8    1  0.3542708E-007  0.1559570E+03  0.7546771E-02  0.1193347E+00
         -5   -1    0    0    0  501 -0.00000000000E+00  0.00000000000E+00  0.21712339429E+02  0.22215212884E+02  0.47000000000E+01 0. -1.
          5   -1    0    0  501    0  0.00000000000E+00 -0.00000000000E+00 -0.11813458247E+04  0.11813551741E+04  0.47000000000E+01 0. -1.
         25    2    1    2    0    0 -0.89720182975E+02  0.25234700293E+02 -0.42851164166E+03  0.45599982372E+03  0.12500844317E+03 0.  0.
         25    2    1    2    0    0  0.89720182975E+02 -0.25234700293E+02 -0.73112184359E+03  0.74757056331E+03  0.12504437462E+03 0.  0.
          5    1    3    3  502    0 -0.74401773209E+02 -0.40686201440E+02 -0.19188261222E+03  0.20983807499E+03  0.47000000000E+01 0.  1.
         -5    1    3    3    0  502 -0.15318409766E+02  0.65920901733E+02 -0.23662902944E+03  0.24616174872E+03  0.47000000000E+01 0.  1.
          5    1    4    4  503    0 -0.32748696826E+01  0.60079235656E+01  0.14648754358E+01  0.84294588824E+01  0.47000000000E+01 0.  1.
         -5    1    4    4    0  503  0.92995052658E+02 -0.31242623859E+02 -0.73258671902E+03  0.73914110443E+03  0.47000000000E+01 0.  1.
<mgrwt>
<rscale>  0 0.15594983E+03</rscale>
<asrwt>0</asrwt>
<pdfrwt beam="2">  1        5 0.18178486E+00 0.15595704E+03</pdfrwt>
<pdfrwt beam="1">  1       -5 0.33797626E-02 0.15595704E+03</pdfrwt>
<totfact> 0.60530436E+01</totfact>
</mgrwt>
</event>
<event>
 8    1  0.3542708E-007  0.1586463E+03  0.7546771E-02  0.1190234E+00
         -5   -1    0    0    0  501 -0.00000000000E+00  0.00000000000E+00  0.16945889905E+03  0.16952406457E+03  0.47000000000E+01 0. -1.
          5   -1    0    0  501    0  0.00000000000E+00 -0.00000000000E+00 -0.15191198278E+03  0.15198467197E+03  0.47000000000E+01 0. -1.
         25    2    1    2    0    0 -0.79099466398E+02 -0.57342979481E+02 -0.15684573628E+02  0.15941934147E+03  0.12499431069E+03 0.  0.
         25    2    1    2    0    0  0.79099466398E+02  0.57342979481E+02  0.33231489901E+02  0.16208939506E+03  0.12499478866E+03 0.  0.
          5    1    3    3  502    0  0.55963274786E+01 -0.87388440010E+00  0.41784799703E+02  0.42428080812E+02  0.47000000000E+01 0.  1.
         -5    1    3    3    0  502 -0.84695793876E+02 -0.56469095081E+02 -0.57469373331E+02  0.11699126066E+03  0.47000000000E+01 0.  1.
          5    1    4    4  503    0  0.41112235592E+02 -0.10183521796E+02 -0.37732552632E+02  0.56918850654E+02  0.47000000000E+01 0.  1.
         -5    1    4    4    0  503  0.37987230805E+02  0.67526501277E+02  0.70964042533E+02  0.10517054441E+03  0.47000000000E+01 0.  1.
<mgrwt>
<rscale>  0 0.15864618E+03</rscale>
<asrwt>0</asrwt>
<pdfrwt beam="2">  1        5 0.23381679E-01 0.15864627E+03</pdfrwt>
<pdfrwt beam="1">  1       -5 0.26081204E-01 0.15864627E+03</pdfrwt>
<totfact> 0.18426822E+02</totfact>
</mgrwt>
</event>
<event>
 8    1  0.3542708E-007  0.1252993E+03  0.7546771E-02  0.1234638E+00
          5   -1    0    0  501    0  0.00000000000E+00  0.00000000000E+00  0.10902176724E+02  0.11872129435E+02  0.47000000000E+01 0. -1.
         -5   -1    0    0    0  501 -0.00000000000E+00 -0.00000000000E+00 -0.14303160990E+04  0.14303238211E+04  0.47000000000E+01 0. -1.
         25    2    1    2    0    0 -0.41688199076E+01  0.75729352060E+01 -0.84945832361E+03  0.85864972966E+03  0.12500074512E+03 0.  0.
         25    2    1    2    0    0  0.41688199076E+01 -0.75729352060E+01 -0.56995559869E+03  0.58354622085E+03  0.12490828229E+03 0.  0.
          5    1    4    4  502    0  0.39697557668E+02  0.45878437606E+02 -0.27522378086E+03  0.28187044306E+03  0.47000000000E+01 0. -1.
         -5    1    4    4    0  502 -0.35528737760E+02 -0.53451372812E+02 -0.29473181784E+03  0.30167577779E+03  0.47000000000E+01 0. -1.
          5    1    3    3  503    0  0.42437338511E+02 -0.39653697831E+02 -0.43555465006E+03  0.43943519049E+03  0.47000000000E+01 0. -1.
         -5    1    3    3    0  503 -0.46606158418E+02  0.47226633037E+02 -0.41390367355E+03  0.41921453916E+03  0.47000000000E+01 0. -1.
<mgrwt>
<rscale>  0 0.12527623E+03</rscale>
<asrwt>0</asrwt>
<pdfrwt beam="1">  1        5 0.17524648E-02 0.12529930E+03</pdfrwt>
<pdfrwt beam="2">  1       -5 0.22012369E+00 0.12529930E+03</pdfrwt>
<totfact> 0.89406804E+01</totfact>
</mgrwt>
</event>
<event>
 8    1  0.3542708E-007  0.1387366E+03  0.7546771E-02  0.1215039E+00
         -5   -1    0    0    0  501 -0.00000000000E+00  0.00000000000E+00  0.21765464716E+03  0.21770538678E+03  0.47000000000E+01 0. -1.
          5   -1    0    0  501    0  0.00000000000E+00 -0.00000000000E+00 -0.89253175008E+02  0.89376838438E+02  0.47000000000E+01 0. -1.
         25    2    1    2    0    0 -0.59630170402E+02  0.80804662152E+01  0.79979338015E+02  0.16013909765E+03  0.12500713951E+03 0.  0.
         25    2    1    2    0    0  0.59630170402E+02 -0.80804662152E+01  0.48422134141E+02  0.14694312757E+03  0.12500611388E+03 0.  0.
          5    1    3    3  502    0 -0.56235460281E+02  0.31282471705E+02 -0.11540520951E+02  0.65546118518E+02  0.47000000000E+01 0.  1.
         -5    1    3    3    0  502 -0.33947101210E+01 -0.23202005490E+02  0.91519858966E+02  0.94592979130E+02  0.47000000000E+01 0.  1.
          5    1    4    4  503    0 -0.38886446136E+01 -0.36238641528E+01 -0.38468029130E+02  0.39116917229E+02  0.47000000000E+01 0. -1.
         -5    1    4    4    0  503  0.63518815015E+02 -0.44566020625E+01  0.86890163271E+02  0.10782621034E+03  0.47000000000E+01 0. -1.
<mgrwt>
<rscale>  0 0.13873634E+03</rscale>
<asrwt>0</asrwt>
<pdfrwt beam="2">  1        5 0.13744673E-01 0.13873657E+03</pdfrwt>
<pdfrwt beam="1">  1       -5 0.33498746E-01 0.13873657E+03</pdfrwt>
<totfact> 0.28786146E+02</totfact>
</mgrwt>
</event>
<event>
 8    1  0.3542708E-007  0.1880674E+03  0.7546771E-02  0.1160218E+00
         -5   -1    0    0    0  501 -0.00000000000E+00  0.00000000000E+00  0.18504088354E+03  0.18510056343E+03  0.47000000000E+01 0.  1.
          5   -1    0    0  501    0  0.00000000000E+00 -0.00000000000E+00 -0.23143074706E+03  0.23147846700E+03  0.47000000000E+01 0.  1.
         25    2    1    2    0    0  0.10713060871E+03  0.90910917010E+02  0.63827148699E+02  0.19859475028E+03  0.12499683106E+03 0.  0.
         25    2    1    2    0    0 -0.10713060871E+03 -0.90910917010E+02 -0.11021701222E+03  0.21798428015E+03  0.12501037740E+03 0.  0.
          5    1    4    4  502    0 -0.13561026582E+03 -0.74977323084E+02 -0.93096671936E+02  0.18083369017E+03  0.47000000000E+01 0. -1.
         -5    1    4    4    0  502  0.28479657116E+02 -0.15933593927E+02 -0.17120340282E+02  0.37150589985E+02  0.47000000000E+01 0. -1.
          5    1    3    3  503    0  0.21144753645E+02 -0.40155854935E+01  0.66856244651E+02  0.70392279281E+02  0.47000000000E+01 0.  1.
         -5    1    3    3    0  503  0.85985855063E+02  0.94926502504E+02 -0.30290959523E+01  0.12820247100E+03  0.47000000000E+01 0.  1.
<mgrwt>
<rscale>  0 0.18806517E+03</rscale>
<asrwt>0</asrwt>
<pdfrwt beam="2">  1        5 0.35612992E-01 0.18806743E+03</pdfrwt>
<pdfrwt beam="1">  1       -5 0.28476090E-01 0.18806743E+03</pdfrwt>
<totfact> 0.71575287E+01</totfact>
</mgrwt>
</event>
<event>
 8    1  0.3542708E-007  0.1782443E+03  0.7546771E-02  0.1169514E+00
          5   -1    0    0  501    0  0.00000000000E+00  0.00000000000E+00  0.11609340091E+03  0.11618850087E+03  0.47000000000E+01 0. -1.
         -5   -1    0    0    0  501 -0.00000000000E+00 -0.00000000000E+00 -0.36583365549E+03  0.36586384556E+03  0.47000000000E+01 0. -1.
         25    2    1    2    0    0  0.11564760108E+03 -0.52638709506E+02 -0.24598228438E+03  0.30377348497E+03  0.12500337821E+03 0.  0.
         25    2    1    2    0    0 -0.11564760108E+03  0.52638709506E+02 -0.37579701979E+01  0.17827886147E+03  0.12499611487E+03 0.  0.
          5    1    3    3  502    0  0.17379292786E+02  0.22248297643E+01 -0.16264269591E+03  0.16365123348E+03  0.47000000000E+01 0.  1.
         -5    1    3    3    0  502  0.98268308292E+02 -0.54863539271E+02 -0.83339588471E+02  0.14012225149E+03  0.47000000000E+01 0.  1.
          5    1    4    4  503    0 -0.10516293748E+03 -0.12494956773E+02  0.20237322438E+02  0.10792129810E+03  0.47000000000E+01 0.  1.
         -5    1    4    4    0  503 -0.10484663594E+02  0.65133666279E+02 -0.23995292635E+02  0.70357563362E+02  0.47000000000E+01 0.  1.
<mgrwt>
<rscale>  0 0.17824307E+03</rscale>
<asrwt>0</asrwt>
<pdfrwt beam="1">  1        5 0.17870161E-01 0.17824434E+03</pdfrwt>
<pdfrwt beam="2">  1       -5 0.56291738E-01 0.17824434E+03</pdfrwt>
<totfact> 0.65593692E+01</totfact>
</mgrwt>
</event>
<event>
 8    1  0.3542708E-007  0.1425249E+03  0.7546771E-02  0.1209973E+00
          5   -1    0    0  501    0  0.00000000000E+00  0.00000000000E+00  0.31801177537E+03  0.31804650489E+03  0.47000000000E+01 0.  1.
         -5   -1    0    0    0  501 -0.00000000000E+00 -0.00000000000E+00 -0.11881621505E+03  0.11890913741E+03  0.47000000000E+01 0.  1.
         25    2    1    2    0    0 -0.73256214966E+01 -0.68079222941E+02 -0.49031834552E+02  0.15072310307E+03  0.12499955069E+03 0.  0.
         25    2    1    2    0    0  0.73256214966E+01  0.68079222941E+02  0.24822739487E+03  0.28623253923E+03  0.12499512640E+03 0.  0.
          5    1    3    3  502    0  0.89384832540E+01 -0.10295591873E+03 -0.40018591592E+02  0.11092067146E+03  0.47000000000E+01 0.  1.
         -5    1    3    3    0  502 -0.16264104751E+02  0.34876695792E+02 -0.90132429601E+01  0.39802431601E+02  0.47000000000E+01 0.  1.
          5    1    4    4  503    0 -0.81184979789E+01  0.40987563546E+02  0.66076778181E+01  0.42563385451E+02  0.47000000000E+01 0. -1.
         -5    1    4    4    0  503  0.15444119476E+02  0.27091659395E+02  0.24161971706E+03  0.24366915378E+03  0.47000000000E+01 0. -1.
<mgrwt>
<rscale>  0 0.14252388E+03</rscale>
<asrwt>0</asrwt>
<pdfrwt beam="1">  1        5 0.48934706E-01 0.14252485E+03</pdfrwt>
<pdfrwt beam="2">  1       -5 0.18289238E-01 0.14252485E+03</pdfrwt>
<totfact> 0.79347646E+01</totfact>
</mgrwt>
</event>
<event>
 8    1  0.3542708E-007  0.2379655E+03  0.7546771E-02  0.1121156E+00
          5   -1    0    0  501    0  0.00000000000E+00  0.00000000000E+00  0.21821271955E+03  0.21826332943E+03  0.47000000000E+01 0. -1.
         -5   -1    0    0    0  501 -0.00000000000E+00 -0.00000000000E+00 -0.65798201757E+03  0.65799880353E+03  0.47000000000E+01 0. -1.
         25    2    1    2    0    0  0.16398295231E+03 -0.11879384924E+03 -0.56086332211E+03  0.60925776821E+03  0.12499989907E+03 0.  0.
         25    2    1    2    0    0 -0.16398295231E+03  0.11879384924E+03  0.12109402409E+03  0.26700436475E+03  0.12500072343E+03 0.  0.
          5    1    3    3  502    0  0.11565926053E+03 -0.47963163318E+02 -0.46015057921E+03  0.47690478623E+03  0.47000000000E+01 0. -1.
         -5    1    3    3    0  502  0.48323691780E+02 -0.70830685926E+02 -0.10071274290E+03  0.13235298198E+03  0.47000000000E+01 0. -1.
          5    1    4    4  503    0 -0.84627982908E+02  0.12767962290E+03  0.53632473602E+02  0.16236537136E+03  0.47000000000E+01 0. -1.
         -5    1    4    4    0  503 -0.79354969399E+02 -0.88857736522E+01  0.67461550491E+02  0.10463899338E+03  0.47000000000E+01 0. -1.
<mgrwt>
<rscale>  0 0.23796537E+03</rscale>
<asrwt>0</asrwt>
<pdfrwt beam="1">  1        5 0.33576372E-01 0.23796548E+03</pdfrwt>
<pdfrwt beam="2">  1       -5 0.10123319E+00 0.23796548E+03</pdfrwt>
<totfact> 0.53756100E+00</totfact>
</mgrwt>
</event>
<event>
 8    1  0.3542708E-007  0.1802987E+03  0.7546771E-02  0.1167519E+00
         -5   -1    0    0    0  501 -0.00000000000E+00  0.00000000000E+00  0.38694770129E+03  0.38697624415E+03  0.47000000000E+01 0.  1.
          5   -1    0    0  501    0  0.00000000000E+00 -0.00000000000E+00 -0.84786610068E+02  0.84916778358E+02  0.47000000000E+01 0.  1.
         25    2    1    2    0    0 -0.72438984817E+02 -0.10783474872E+03  0.17511951000E+03  0.25133195138E+03  0.12500066980E+03 0.  0.
         25    2    1    2    0    0  0.72438984817E+02  0.10783474872E+03  0.12704158123E+03  0.22056107113E+03  0.12502752971E+03 0.  0.
          5    1    3    3  502    0 -0.76833642650E+02 -0.82674787187E+02  0.19026226441E+03  0.22126985411E+03  0.47000000000E+01 0. -1.
         -5    1    3    3    0  502  0.43946578330E+01 -0.25159961529E+02 -0.15142754406E+02  0.30062097276E+02  0.47000000000E+01 0. -1.
          5    1    4    4  503    0  0.10213521959E+03  0.91598494735E+02  0.70056286624E+02  0.15411638659E+03  0.47000000000E+01 0.  1.
         -5    1    4    4    0  503 -0.29696234773E+02  0.16236253981E+02  0.56985294603E+02  0.66444684543E+02  0.47000000000E+01 0.  1.
<mgrwt>
<rscale>  0 0.18029405E+03</rscale>
<asrwt>0</asrwt>
<pdfrwt beam="2">  1        5 0.13056303E-01 0.18029870E+03</pdfrwt>
<pdfrwt beam="1">  1       -5 0.59542623E-01 0.18029870E+03</pdfrwt>
<totfact> 0.10313712E+02</totfact>
</mgrwt>
</event>
<event>
 8    1  0.3542708E-007  0.1272384E+03  0.7546771E-02  0.1231613E+00
          5   -1    0    0  501    0  0.00000000000E+00  0.00000000000E+00  0.11048421700E+03  0.11058414085E+03  0.47000000000E+01 0. -1.
         -5   -1    0    0    0  501 -0.00000000000E+00 -0.00000000000E+00 -0.14654534954E+03  0.14662069933E+03  0.47000000000E+01 0. -1.
         25    2    1    2    0    0 -0.23281455141E+02 -0.49519610120E+01 -0.22996954401E+02  0.12929992572E+03  0.12499225099E+03 0.  0.
         25    2    1    2    0    0  0.23281455141E+02  0.49519610120E+01 -0.13064178133E+02  0.12790491446E+03  0.12498978486E+03 0.  0.
          5    1    4    4  502    0  0.47405195865E+02 -0.38436797263E+02 -0.38107528724E+02  0.72103493149E+02  0.47000000000E+01 0.  1.
         -5    1    4    4    0  502 -0.24123740724E+02  0.43388758275E+02  0.25043350592E+02  0.55801421308E+02  0.47000000000E+01 0.  1.
          5    1    3    3  503    0 -0.61017734035E+02 -0.19157563560E+02  0.22838460447E+02  0.68072471558E+02  0.47000000000E+01 0.  1.
         -5    1    3    3    0  503  0.37736278894E+02  0.14205602549E+02 -0.45835414848E+02  0.61227454159E+02  0.47000000000E+01 0.  1.
<mgrwt>
<rscale>  0 0.12723780E+03</rscale>
<asrwt>0</asrwt>
<pdfrwt beam="1">  1        5 0.17011055E-01 0.12723840E+03</pdfrwt>
<pdfrwt beam="2">  1       -5 0.22558921E-01 0.12723840E+03</pdfrwt>
<totfact> 0.40826443E+02</totfact>
</mgrwt>
</event>
<event>
 8    1  0.3542708E-007  0.1402690E+03  0.7546771E-02  0.1212975E+00
          5   -1    0    0  501    0  0.00000000000E+00  0.00000000000E+00  0.28291921534E+02  0.28679658716E+02  0.47000000000E+01 0.  1.
         -5   -1    0    0    0  501 -0.00000000000E+00 -0.00000000000E+00 -0.73579678842E+03  0.73581179920E+03  0.47000000000E+01 0.  1.
         25    2    1    2    0    0 -0.59802170081E+02  0.21789895753E+02 -0.44885488599E+03  0.47025481598E+03  0.12497113333E+03 0.  0.
         25    2    1    2    0    0  0.59802170081E+02 -0.21789895753E+02 -0.25864998089E+03  0.29423664194E+03  0.12499715894E+03 0.  0.
          5    1    3    3  502    0 -0.81255015361E+02  0.29741200085E+02 -0.43401803855E+03  0.44258407596E+03  0.47000000000E+01 0.  1.
         -5    1    3    3    0  502  0.21452845279E+02 -0.79513043321E+01 -0.14836847440E+02  0.27670740018E+02  0.47000000000E+01 0.  1.
          5    1    4    4  503    0  0.21054372092E+02 -0.66143229897E+02 -0.79743389903E+02  0.10582680038E+03  0.47000000000E+01 0.  1.
         -5    1    4    4    0  503  0.38747797990E+02  0.44353334144E+02 -0.17890659099E+03  0.18840984156E+03  0.47000000000E+01 0.  1.
<mgrwt>
<rscale>  0 0.14026319E+03</rscale>
<asrwt>0</asrwt>
<pdfrwt beam="1">  1        5 0.43835845E-02 0.14026899E+03</pdfrwt>
<pdfrwt beam="2">  1       -5 0.11323047E+00 0.14026899E+03</pdfrwt>
<totfact> 0.13797591E+02</totfact>
</mgrwt>
</event>
<event>
 8    1  0.3542708E-007  0.1316813E+03  0.7546771E-02  0.1224982E+00
         -5   -1    0    0    0  501 -0.00000000000E+00  0.00000000000E+00  0.42507930317E+03  0.42510528576E+03  0.47000000000E+01 0. -1.
          5   -1    0    0  501    0  0.00000000000E+00 -0.00000000000E+00 -0.42560568691E+02  0.42819294802E+02  0.47000000000E+01 0. -1.
         25    2    1    2    0    0 -0.35009944000E+02  0.22107890905E+02  0.24092627308E+03  0.27456380494E+03  0.12500143562E+03 0.  0.
         25    2    1    2    0    0  0.35009944000E+02 -0.22107890905E+02  0.14159246140E+03  0.19336077562E+03  0.12500203760E+03 0.  0.
          5    1    4    4  502    0  0.66853281755E+01 -0.62791980586E+02  0.27810139000E+02  0.69159383094E+02  0.47000000000E+01 0. -1.
         -5    1    4    4    0  502  0.28324615824E+02  0.40684089681E+02  0.11378232240E+03  0.12420139252E+03  0.47000000000E+01 0. -1.
          5    1    3    3  503    0 -0.19257306250E+02 -0.25631314530E+02  0.21570420101E+03  0.21812427756E+03  0.47000000000E+01 0. -1.
         -5    1    3    3    0  503 -0.15752637750E+02  0.47739205435E+02  0.25222072068E+02  0.56439527382E+02  0.47000000000E+01 0. -1.
<mgrwt>
<rscale>  0 0.13168116E+03</rscale>
<asrwt>0</asrwt>
<pdfrwt beam="2">  1        5 0.65696802E-02 0.13168130E+03</pdfrwt>
<pdfrwt beam="1">  1       -5 0.65418719E-01 0.13168130E+03</pdfrwt>
<totfact> 0.25037251E+02</totfact>
</mgrwt>
</event>
<event>
 8    1  0.3542708E-007  0.1418407E+03  0.7546771E-02  0.1210882E+00
          5   -1    0    0  501    0  0.00000000000E+00  0.00000000000E+00  0.71097128643E+01  0.85227939675E+01  0.47000000000E+01 0. -1.
         -5   -1    0    0    0  501 -0.00000000000E+00 -0.00000000000E+00 -0.28709279490E+04  0.28709317962E+04  0.47000000000E+01 0. -1.
         25    2    1    2    0    0  0.62341637957E+02 -0.24504655636E+02 -0.18961757823E+04  0.19014716065E+04  0.12499885843E+03 0.  0.
         25    2    1    2    0    0 -0.62341637957E+02  0.24504655636E+02 -0.96764245383E+03  0.97798298374E+03  0.12502735727E+03 0.  0.
          5    1    3    3  502    0 -0.16464327176E+02 -0.21987379690E+02 -0.10752275978E+03  0.11107543746E+03  0.47000000000E+01 0.  1.
         -5    1    3    3    0  502  0.78805965133E+02 -0.25172759468E+01 -0.17886530226E+04  0.17903961690E+04  0.47000000000E+01 0.  1.
          5    1    4    4  503    0 -0.91968139736E+01  0.11635029427E+02 -0.94143708067E+01  0.18184489949E+02  0.47000000000E+01 0. -1.
         -5    1    4    4    0  503 -0.53144823984E+02  0.12869626209E+02 -0.95822808302E+03  0.95979849379E+03  0.47000000000E+01 0. -1.
<mgrwt>
<rscale>  0 0.14183447E+03</rscale>
<asrwt>0</asrwt>
<pdfrwt beam="1">  1        5 0.12027988E-02 0.14184075E+03</pdfrwt>
<pdfrwt beam="2">  1       -5 0.44178938E+00 0.14184075E+03</pdfrwt>
<totfact> 0.56644621E+00</totfact>
</mgrwt>
</event>
<event>
 8    1  0.3542708E-007  0.1450877E+03  0.7546771E-02  0.1206643E+00
          5   -1    0    0  501    0  0.00000000000E+00  0.00000000000E+00  0.18499413715E+03  0.18505383211E+03  0.47000000000E+01 0.  1.
         -5   -1    0    0    0  501 -0.00000000000E+00 -0.00000000000E+00 -0.22339305491E+03  0.22344249144E+03  0.47000000000E+01 0.  1.
         25    2    1    2    0    0  0.56618487443E+02 -0.47117719135E+02 -0.16230609656E+03  0.21770097648E+03  0.12499885440E+03 0.  0.
         25    2    1    2    0    0 -0.56618487443E+02  0.47117719135E+02  0.12390717880E+03  0.19079534708E+03  0.12499657168E+03 0.  0.
          5    1    3    3  502    0  0.95232244893E+01  0.41761907435E+02 -0.35873232915E+02  0.56068953593E+02  0.47000000000E+01 0.  1.
         -5    1    3    3    0  502  0.47095262954E+02 -0.88879626570E+02 -0.12643286364E+03  0.16163202288E+03  0.47000000000E+01 0.  1.
          5    1    4    4  503    0 -0.73153335000E+02  0.53130186228E+02  0.13984693268E+03  0.16659376246E+03  0.47000000000E+01 0.  1.
         -5    1    4    4    0  503  0.16534847557E+02 -0.60124670930E+01 -0.15939753882E+02  0.24201584620E+02  0.47000000000E+01 0.  1.
<mgrwt>
<rscale>  0 0.14508723E+03</rscale>
<asrwt>0</asrwt>
<pdfrwt beam="1">  1        5 0.28469031E-01 0.14508772E+03</pdfrwt>
<pdfrwt beam="2">  1       -5 0.34376557E-01 0.14508772E+03</pdfrwt>
<totfact> 0.71208880E+01</totfact>
</mgrwt>
</event>
<event>
 8    1  0.3542708E-007  0.1654034E+03  0.7546771E-02  0.1182729E+00
         -5   -1    0    0    0  501 -0.00000000000E+00  0.00000000000E+00  0.95931349628E+02  0.96046415037E+02  0.47000000000E+01 0.  1.
          5   -1    0    0  501    0  0.00000000000E+00 -0.00000000000E+00 -0.35722020246E+03  0.35725112043E+03  0.47000000000E+01 0.  1.
         25    2    1    2    0    0  0.69188671702E+02  0.83343941417E+02 -0.28667936552E+02  0.16786668224E+03  0.12499635018E+03 0.  0.
         25    2    1    2    0    0 -0.69188671702E+02 -0.83343941417E+02 -0.23262091628E+03  0.28543085322E+03  0.12499998567E+03 0.  0.
          5    1    4    4  502    0 -0.32238199926E+02 -0.59054004544E+02 -0.23131126289E+03  0.24094328654E+03  0.47000000000E+01 0. -1.
         -5    1    4    4    0  502 -0.36950471776E+02 -0.24289936873E+02 -0.13096533897E+01  0.44487566687E+02  0.47000000000E+01 0. -1.
          5    1    3    3  503    0  0.91330778905E+02  0.10131073551E+03 -0.22674383108E+02  0.13835242663E+03  0.47000000000E+01 0. -1.
         -5    1    3    3    0  503 -0.22142107203E+02 -0.17966794092E+02 -0.59935534434E+01  0.29514255610E+02  0.47000000000E+01 0. -1.
<mgrwt>
<rscale>  0 0.16540270E+03</rscale>
<asrwt>0</asrwt>
<pdfrwt beam="2">  1        5 0.54968183E-01 0.16540339E+03</pdfrwt>
<pdfrwt beam="1">  1       -5 0.14769899E-01 0.16540339E+03</pdfrwt>
<totfact> 0.95831895E+01</totfact>
</mgrwt>
</event>
<event>
 8    1  0.3542708E-007  0.1368461E+03  0.7546771E-02  0.1217638E+00
          5   -1    0    0  501    0  0.00000000000E+00  0.00000000000E+00  0.10264449159E+03  0.10275203965E+03  0.47000000000E+01 0. -1.
         -5   -1    0    0    0  501 -0.00000000000E+00 -0.00000000000E+00 -0.18610695454E+03  0.18616629267E+03  0.47000000000E+01 0. -1.
         25    2    1    2    0    0 -0.49658144244E+02 -0.25231558336E+02 -0.62635817313E+02  0.15049648640E+03  0.12499353577E+03 0.  0.
         25    2    1    2    0    0  0.49658144244E+02  0.25231558336E+02 -0.20826645636E+02  0.13842184592E+03  0.12499718170E+03 0.  0.
          5    1    3    3  502    0 -0.17696116317E+02 -0.61743653235E+02  0.77601786538E+01  0.64867107383E+02  0.47000000000E+01 0. -1.
         -5    1    3    3    0  502 -0.31962027927E+02  0.36512094899E+02 -0.70395995967E+02  0.85629379020E+02  0.47000000000E+01 0. -1.
          5    1    4    4  503    0  0.22588939683E+02  0.68722960401E+02 -0.40861351441E+02  0.83215656723E+02  0.47000000000E+01 0. -1.
         -5    1    4    4    0  503  0.27069204562E+02 -0.43491402065E+02  0.20034705806E+02  0.55206189199E+02  0.47000000000E+01 0. -1.
<mgrwt>
<rscale>  0 0.13684528E+03</rscale>
<asrwt>0</asrwt>
<pdfrwt beam="1">  1        5 0.15804298E-01 0.13684611E+03</pdfrwt>
<pdfrwt beam="2">  1       -5 0.28644677E-01 0.13684611E+03</pdfrwt>
<totfact> 0.30307500E+02</totfact>
</mgrwt>
</event>
<event>
 8    1  0.3542708E-007  0.1257136E+03  0.7546771E-02  0.1233959E+00
          5   -1    0    0  501    0  0.00000000000E+00  0.00000000000E+00  0.48032708615E+02  0.48262108293E+02  0.47000000000E+01 0. -1.
         -5   -1    0    0    0  501 -0.00000000000E+00 -0.00000000000E+00 -0.32973201384E+03  0.32976550903E+03  0.47000000000E+01 0. -1.
         25    2    1    2    0    0  0.10134453524E+02  0.87392650439E+01 -0.15458638484E+03  0.19925075760E+03  0.12499932848E+03 0.  0.
         25    2    1    2    0    0 -0.10134453524E+02 -0.87392650439E+01 -0.12711292038E+03  0.17877685973E+03  0.12499755656E+03 0.  0.
          5    1    4    4  502    0  0.52460571802E+02 -0.24696414724E+02 -0.41656981359E+02  0.71550112439E+02  0.47000000000E+01 0.  1.
         -5    1    4    4    0  502 -0.62595025326E+02  0.15957149680E+02 -0.85455939018E+02  0.10722674729E+03  0.47000000000E+01 0.  1.
          5    1    3    3  503    0 -0.15606273860E+02 -0.13596997124E+02  0.15140534690E+02  0.26072205609E+02  0.47000000000E+01 0.  1.
         -5    1    3    3    0  503  0.25740727384E+02  0.22336262168E+02 -0.16972691953E+03  0.17317855199E+03  0.47000000000E+01 0.  1.
<mgrwt>
<rscale>  0 0.12571318E+03</rscale>
<asrwt>0</asrwt>
<pdfrwt beam="1">  1        5 0.74098704E-02 0.12571362E+03</pdfrwt>
<pdfrwt beam="2">  1       -5 0.50748223E-01 0.12571362E+03</pdfrwt>
<totfact> 0.34829983E+02</totfact>
</mgrwt>
</event>
<event>
 8    1  0.3542708E-007  0.1262586E+03  0.7546771E-02  0.1233119E+00
          5   -1    0    0  501    0  0.00000000000E+00  0.00000000000E+00  0.24087812045E+03  0.24092396915E+03  0.47000000000E+01 0. -1.
         -5   -1    0    0    0  501 -0.00000000000E+00 -0.00000000000E+00 -0.70613805421E+02  0.70770046743E+02  0.47000000000E+01 0. -1.
         25    2    1    2    0    0 -0.17687114388E+01 -0.17678967355E+02  0.45516412145E+02  0.13420241196E+03  0.12499147720E+03 0.  0.
         25    2    1    2    0    0  0.17687114388E+01  0.17678967355E+02  0.12474790288E+03  0.17749160394E+03  0.12500222385E+03 0.  0.
          5    1    3    3  502    0  0.27612658086E+02  0.27819777661E+02  0.65337019736E+02  0.76337507581E+02  0.47000000000E+01 0. -1.
         -5    1    3    3    0  502 -0.29381369525E+02 -0.45498745016E+02 -0.19820607591E+02  0.57864904376E+02  0.47000000000E+01 0. -1.
          5    1    4    4  503    0 -0.14143369075E+02 -0.13699980340E+02 -0.19998726213E+02  0.28456342004E+02  0.47000000000E+01 0.  1.
         -5    1    4    4    0  503  0.15912080514E+02  0.31378947695E+02  0.14474662910E+03  0.14903526193E+03  0.47000000000E+01 0.  1.
<mgrwt>
<rscale>  0 0.12625592E+03</rscale>
<asrwt>0</asrwt>
<pdfrwt beam="1">  1        5 0.37073718E-01 0.12625858E+03</pdfrwt>
<pdfrwt beam="2">  1       -5 0.10879208E-01 0.12625858E+03</pdfrwt>
<totfact> 0.34396692E+02</totfact>
</mgrwt>
</event>
<event>
 8    1  0.3542708E-007  0.1258896E+03  0.7546771E-02  0.1233689E+00
          5   -1    0    0  501    0  0.00000000000E+00  0.00000000000E+00  0.59975361245E+02  0.60159238331E+02  0.47000000000E+01 0.  1.
         -5   -1    0    0    0  501 -0.00000000000E+00 -0.00000000000E+00 -0.26678207355E+03  0.26682347117E+03  0.47000000000E+01 0.  1.
         25    2    1    2    0    0  0.13641872965E+02 -0.58667946247E+01 -0.12119896975E+03  0.17474318540E+03  0.12500188238E+03 0.  0.
         25    2    1    2    0    0 -0.13641872965E+02  0.58667946247E+01 -0.85607742555E+02  0.15223952410E+03  0.12501066809E+03 0.  0.
          5    1    3    3  502    0  0.65952054458E+01  0.26246371104E+01  0.25844933062E+02  0.27210954041E+02  0.47000000000E+01 0.  1.
         -5    1    3    3    0  502  0.70466675187E+01 -0.84914317350E+01 -0.14704390281E+03  0.14753223136E+03  0.47000000000E+01 0.  1.
          5    1    4    4  503    0 -0.17335501152E+02 -0.51033767939E+02 -0.63281178037E+01  0.54471094584E+02  0.47000000000E+01 0.  1.
         -5    1    4    4    0  503  0.36936281873E+01  0.56900562564E+02 -0.79279624751E+02  0.97768429515E+02  0.47000000000E+01 0.  1.
<mgrwt>
<rscale>  0 0.12588740E+03</rscale>
<asrwt>0</asrwt>
<pdfrwt beam="1">  1        5 0.92443077E-02 0.12588958E+03</pdfrwt>
<pdfrwt beam="2">  1       -5 0.41060724E-01 0.12588958E+03</pdfrwt>
<totfact> 0.37075302E+02</totfact>
</mgrwt>
</event>
<event>
 8    1  0.3542708E-007  0.1398746E+03  0.7546771E-02  0.1213499E+00
         -5   -1    0    0    0  501 -0.00000000000E+00  0.00000000000E+00  0.75523568931E+02  0.75669673345E+02  0.47000000000E+01 0.  1.
          5   -1    0    0  501    0  0.00000000000E+00 -0.00000000000E+00 -0.49089471341E+03  0.49091721263E+03  0.47000000000E+01 0.  1.
         25    2    1    2    0    0 -0.62231082840E+02 -0.82382995742E+01 -0.12854772343E+02  0.14045974337E+03  0.12499246811E+03 0.  0.
         25    2    1    2    0    0  0.62231082840E+02  0.82382995742E+01 -0.40251637214E+03  0.42612714261E+03  0.12499733828E+03 0.  0.
          5    1    3    3  502    0 -0.27328126659E+02 -0.15527001796E+01  0.56181628984E+02  0.62671387570E+02  0.47000000000E+01 0. -1.
         -5    1    3    3    0  502 -0.34902956180E+02 -0.66855993946E+01 -0.69036401327E+02  0.77788355797E+02  0.47000000000E+01 0. -1.
          5    1    4    4  503    0  0.87499314670E+02  0.21455333980E+02 -0.37677465973E+03  0.38742443862E+03  0.47000000000E+01 0.  1.
         -5    1    4    4    0  503 -0.25268231831E+02 -0.13217034406E+02 -0.25741712406E+02  0.38702703987E+02  0.47000000000E+01 0.  1.
<mgrwt>
<rscale>  0 0.13987354E+03</rscale>
<asrwt>0</asrwt>
<pdfrwt beam="2">  1        5 0.75535231E-01 0.13987463E+03</pdfrwt>
<pdfrwt beam="1">  1       -5 0.11631980E-01 0.13987463E+03</pdfrwt>
<totfact> 0.68860845E+01</totfact>
</mgrwt>
</event>
<event>
 8    1  0.3542708E-007  0.1519463E+03  0.7546771E-02  0.1198103E+00
          5   -1    0    0  501    0  0.00000000000E+00  0.00000000000E+00  0.63794749309E+03  0.63796480620E+03  0.47000000000E+01 0. -1.
         -5   -1    0    0    0  501 -0.00000000000E+00 -0.00000000000E+00 -0.36525512189E+02  0.36826662090E+02  0.47000000000E+01 0. -1.
         25    2    1    2    0    0 -0.83836359283E+02 -0.20845857594E+02  0.26115407001E+03  0.30213891102E+03  0.12499355325E+03 0.  0.
         25    2    1    2    0    0  0.83836359283E+02  0.20845857594E+02  0.34026791090E+03  0.37265255727E+03  0.12499836932E+03 0.  0.
          5    1    4    4  502    0 -0.26955979048E+02  0.24433347477E+02  0.12779104388E+03  0.13295207472E+03  0.47000000000E+01 0. -1.
         -5    1    4    4    0  502  0.11079233833E+03 -0.35874898837E+01  0.21247686702E+03  0.23970048255E+03  0.47000000000E+01 0. -1.
          5    1    3    3  503    0 -0.10304684671E+03 -0.51177889785E+02  0.18688569392E+03  0.21951351123E+03  0.47000000000E+01 0.  1.
         -5    1    3    3    0  503  0.19210487430E+02  0.30332032191E+02  0.74268376085E+02  0.82625399790E+02  0.47000000000E+01 0.  1.
<mgrwt>
<rscale>  0 0.15194531E+03</rscale>
<asrwt>0</asrwt>
<pdfrwt beam="1">  1        5 0.98170268E-01 0.15194630E+03</pdfrwt>
<pdfrwt beam="2">  1       -5 0.56438066E-02 0.15194630E+03</pdfrwt>
<totfact> 0.13226434E+02</totfact>
</mgrwt>
</event>
<event>
 8    1  0.3542708E-007  0.1519143E+03  0.7546771E-02  0.1198155E+00
          5   -1    0    0  501    0  0.00000000000E+00  0.00000000000E+00  0.91589474740E+01  0.10294480018E+02  0.47000000000E+01 0.  1.
         -5   -1    0    0    0  501 -0.00000000000E+00 -0.00000000000E+00 -0.24192588366E+04  0.24192634020E+04  0.47000000000E+01 0.  1.
         25    2    1    2    0    0 -0.73472373985E+02  0.45335268354E+02 -0.10328986176E+04  0.10440033702E+04  0.12494001210E+03 0.  0.
         25    2    1    2    0    0  0.73472373985E+02 -0.45335268354E+02 -0.13772012716E+04  0.13855545118E+04  0.12499794608E+03 0.  0.
          5    1    4    4  502    0 -0.27881378252E+02 -0.41519538590E+02 -0.42759152426E+03  0.43053204870E+03  0.47000000000E+01 0. -1.
         -5    1    4    4    0  502  0.10135375224E+03 -0.38157297641E+01 -0.94960974730E+03  0.95502246312E+03  0.47000000000E+01 0. -1.
          5    1    3    3  503    0 -0.38752067184E+01 -0.40659981322E+02 -0.28787581543E+03  0.29079688172E+03  0.47000000000E+01 0.  1.
         -5    1    3    3    0  503 -0.69597167267E+02  0.85995249676E+02 -0.74502280213E+03  0.75320648852E+03  0.47000000000E+01 0.  1.
<mgrwt>
<rscale>  0 0.15190241E+03</rscale>
<asrwt>0</asrwt>
<pdfrwt beam="1">  1        5 0.14967706E-02 0.15191433E+03</pdfrwt>
<pdfrwt beam="2">  1       -5 0.37228089E+00 0.15191433E+03</pdfrwt>
<totfact> 0.12682706E+01</totfact>
</mgrwt>
</event>
<event>
 8    1  0.3542708E-007  0.1490110E+03  0.7546771E-02  0.1201694E+00
         -5   -1    0    0    0  501 -0.00000000000E+00  0.00000000000E+00  0.78618948875E+02  0.78759311336E+02  0.47000000000E+01 0.  1.
          5   -1    0    0  501    0  0.00000000000E+00 -0.00000000000E+00 -0.30957700731E+03  0.30961268297E+03  0.47000000000E+01 0.  1.
         25    2    1    2    0    0  0.76794133162E+02  0.26097922459E+02 -0.57554063918E+02  0.15973965619E+03  0.12500338812E+03 0.  0.
         25    2    1    2    0    0 -0.76794133162E+02 -0.26097922459E+02 -0.17340399451E+03  0.22863233811E+03  0.12500144108E+03 0.  0.
          5    1    4    4  502    0  0.40195363463E+01 -0.60214733169E+02 -0.60536678747E+02  0.85608120157E+02  0.47000000000E+01 0. -1.
         -5    1    4    4    0  502 -0.80813669508E+02  0.34116810711E+02 -0.11286731577E+03  0.14302421795E+03  0.47000000000E+01 0. -1.
          5    1    3    3  503    0  0.88524198941E+01  0.48411487057E+02  0.20727434539E+02  0.53607405828E+02  0.47000000000E+01 0.  1.
         -5    1    3    3    0  503  0.67941713268E+02 -0.22313564599E+02 -0.78281498457E+02  0.10613225037E+03  0.47000000000E+01 0.  1.
<mgrwt>
<rscale>  0 0.14901062E+03</rscale>
<asrwt>0</asrwt>
<pdfrwt beam="2">  1        5 0.47640773E-01 0.14901103E+03</pdfrwt>
<pdfrwt beam="1">  1       -5 0.12108764E-01 0.14901103E+03</pdfrwt>
<totfact> 0.17976282E+02</totfact>
</mgrwt>
</event>
<event>
 8    1  0.3542708E-007  0.2168810E+03  0.7546771E-02  0.1136231E+00
          5   -1    0    0  501    0  0.00000000000E+00  0.00000000000E+00  0.24947021021E+03  0.24951448011E+03  0.47000000000E+01 0.  1.
         -5   -1    0    0    0  501 -0.00000000000E+00 -0.00000000000E+00 -0.19750622687E+03  0.19756214124E+03  0.47000000000E+01 0.  1.
         25    2    1    2    0    0  0.69739774684E+02 -0.16292946532E+03 -0.21862708881E+02  0.21798013660E+03  0.12501085981E+03 0.  0.
         25    2    1    2    0    0 -0.69739774684E+02  0.16292946532E+03  0.73826692225E+02  0.22909648475E+03  0.12500068800E+03 0.  0.
          5    1    3    3  502    0  0.64914696770E+02 -0.12473163071E+02 -0.73572626636E+01  0.66676209908E+02  0.47000000000E+01 0. -1.
         -5    1    3    3    0  502  0.48250779132E+01 -0.15045630224E+03 -0.14505446218E+02  0.15130392669E+03  0.47000000000E+01 0. -1.
          5    1    4    4  503    0 -0.36587389544E+02  0.29810233200E+02 -0.30757929519E+02  0.56528110753E+02  0.47000000000E+01 0.  1.
         -5    1    4    4    0  503 -0.33152385140E+02  0.13311923212E+03  0.10458462174E+03  0.17256837400E+03  0.47000000000E+01 0.  1.
<mgrwt>
<rscale>  0 0.21687952E+03</rscale>
<asrwt>0</asrwt>
<pdfrwt beam="1">  1        5 0.38387739E-01 0.21688099E+03</pdfrwt>
<pdfrwt beam="2">  1       -5 0.30393280E-01 0.21688099E+03</pdfrwt>
<totfact> 0.56118302E+01</totfact>
</mgrwt>
</event>
<event>
 8    1  0.3542708E-007  0.1262918E+03  0.7546771E-02  0.1233071E+00
          5   -1    0    0  501    0  0.00000000000E+00  0.00000000000E+00  0.32321865823E+02  0.32661797413E+02  0.47000000000E+01 0. -1.
         -5   -1    0    0    0  501 -0.00000000000E+00 -0.00000000000E+00 -0.52980109162E+03  0.52982193866E+03  0.47000000000E+01 0. -1.
         25    2    1    2    0    0  0.73410116228E+01 -0.16362220460E+02 -0.32533176713E+03  0.34897880755E+03  0.12499534673E+03 0.  0.
         25    2    1    2    0    0 -0.73410116228E+01  0.16362220460E+02 -0.17214745867E+03  0.21350492852E+03  0.12501197650E+03 0.  0.
          5    1    3    3  502    0 -0.37731741843E+02  0.10111170775E+02 -0.31235027142E+02  0.50235814291E+02  0.47000000000E+01 0. -1.
         -5    1    3    3    0  502  0.45072753466E+02 -0.26473391234E+02 -0.29409673999E+03  0.29874299326E+03  0.47000000000E+01 0. -1.
          5    1    4    4  503    0  0.57826022359E+02  0.17889212876E+02 -0.76543690145E+02  0.97698000493E+02  0.47000000000E+01 0.  1.
         -5    1    4    4    0  503 -0.65167033982E+02 -0.15269924157E+01 -0.95603768520E+02  0.11580692803E+03  0.47000000000E+01 0.  1.
<mgrwt>
<rscale>  0 0.12628764E+03</rscale>
<asrwt>0</asrwt>
<pdfrwt beam="1">  1        5 0.50003473E-02 0.12629175E+03</pdfrwt>
<pdfrwt beam="2">  1       -5 0.81535606E-01 0.12629175E+03</pdfrwt>
<totfact> 0.23630852E+02</totfact>
</mgrwt>
</event>
<event>
 8    1  0.3542708E-007  0.1369388E+03  0.7546771E-02  0.1217509E+00
          5   -1    0    0  501    0  0.00000000000E+00  0.00000000000E+00  0.28348410126E+03  0.28352306020E+03  0.47000000000E+01 0.  1.
         -5   -1    0    0    0  501 -0.00000000000E+00 -0.00000000000E+00 -0.72520032428E+02  0.72672175579E+02  0.47000000000E+01 0.  1.
         25    2    1    2    0    0 -0.16544027045E+02 -0.53416296724E+02  0.52240929532E+02  0.14656399714E+03  0.12499953981E+03 0.  0.
         25    2    1    2    0    0  0.16544027045E+02  0.53416296724E+02  0.15872313930E+03  0.20963123864E+03  0.12500086271E+03 0.  0.
          5    1    4    4  502    0 -0.24100448643E+02  0.31311363240E+02  0.15819593639E+03  0.16312350346E+03  0.47000000000E+01 0. -1.
         -5    1    4    4    0  502  0.40644475688E+02  0.22104933483E+02  0.52720290877E+00  0.46507735175E+02  0.47000000000E+01 0. -1.
          5    1    3    3  503    0  0.29251142355E+02 -0.64286969629E+02  0.66538227456E+02  0.97148697913E+02  0.47000000000E+01 0.  1.
         -5    1    3    3    0  503 -0.45795169399E+02  0.10870672905E+02 -0.14297297924E+02  0.49415299227E+02  0.47000000000E+01 0.  1.
<mgrwt>
<rscale>  0 0.13693845E+03</rscale>
<asrwt>0</asrwt>
<pdfrwt beam="1">  1        5 0.43627639E-01 0.13693875E+03</pdfrwt>
<pdfrwt beam="2">  1       -5 0.11171628E-01 0.13693875E+03</pdfrwt>
<totfact> 0.24221813E+02</totfact>
</mgrwt>
</event>
<event>
 8    1  0.3542708E-007  0.1371048E+03  0.7546771E-02  0.1217280E+00
         -5   -1    0    0    0  501 -0.00000000000E+00  0.00000000000E+00  0.29603665240E+03  0.29607395962E+03  0.47000000000E+01 0.  1.
          5   -1    0    0  501    0  0.00000000000E+00 -0.00000000000E+00 -0.69615729264E+02  0.69774205556E+02  0.47000000000E+01 0.  1.
         25    2    1    2    0    0  0.34262120890E+02 -0.44706959269E+02  0.16792866023E+03  0.21678755972E+03  0.12499682391E+03 0.  0.
         25    2    1    2    0    0 -0.34262120890E+02  0.44706959269E+02  0.58492262910E+02  0.14906060546E+03  0.12500045657E+03 0.  0.
          5    1    4    4  502    0  0.22934789273E+02  0.59273680682E+02  0.63085778496E+02  0.89673180099E+02  0.47000000000E+01 0. -1.
         -5    1    4    4    0  502 -0.57196910163E+02 -0.14566721413E+02 -0.45935155865E+01  0.59387425356E+02  0.47000000000E+01 0. -1.
          5    1    3    3  503    0 -0.37808864544E+02 -0.37529807542E+01  0.10745528321E+03  0.11407156960E+03  0.47000000000E+01 0. -1.
         -5    1    3    3    0  503  0.72070985433E+02 -0.40953978515E+02  0.60473377020E+02  0.10271599012E+03  0.47000000000E+01 0. -1.
<mgrwt>
<rscale>  0 0.13710395E+03</rscale>
<asrwt>0</asrwt>
<pdfrwt beam="2">  1        5 0.10725172E-01 0.13710477E+03</pdfrwt>
<pdfrwt beam="1">  1       -5 0.45559161E-01 0.13710477E+03</pdfrwt>
<totfact> 0.23789865E+02</totfact>
</mgrwt>
</event>
<event>
 8    1  0.3542708E-007  0.1360609E+03  0.7546771E-02  0.1218731E+00
         -5   -1    0    0    0  501 -0.00000000000E+00  0.00000000000E+00  0.32312461759E+03  0.32315879764E+03  0.47000000000E+01 0.  1.
          5   -1    0    0  501    0  0.00000000000E+00 -0.00000000000E+00 -0.69513795561E+02  0.69672503710E+02  0.47000000000E+01 0.  1.
         25    2    1    2    0    0 -0.24486805659E+02  0.47831566917E+02  0.20949125486E+03  0.24979594930E+03  0.12499587183E+03 0.  0.
         25    2    1    2    0    0  0.24486805659E+02 -0.47831566917E+02  0.44119567164E+02  0.14303535205E+03  0.12500045314E+03 0.  0.
          5    1    3    3  502    0  0.17072383580E+02  0.79645000405E+02  0.10636977863E+03  0.13405749579E+03  0.47000000000E+01 0. -1.
         -5    1    3    3    0  502 -0.41559189238E+02 -0.31813433488E+02  0.10312147623E+03  0.11573845351E+03  0.47000000000E+01 0. -1.
          5    1    4    4  503    0  0.24893382018E+02 -0.90043675103E+02  0.28602338727E+02  0.97814762051E+02  0.47000000000E+01 0. -1.
         -5    1    4    4    0  503 -0.40657635927E+00  0.42212108186E+02  0.15517228437E+02  0.45220590003E+02  0.47000000000E+01 0. -1.
<mgrwt>
<rscale>  0 0.13605987E+03</rscale>
<asrwt>0</asrwt>
<pdfrwt beam="2">  1        5 0.10709268E-01 0.13606093E+03</pdfrwt>
<pdfrwt beam="1">  1       -5 0.49726318E-01 0.13606093E+03</pdfrwt>
<totfact> 0.19792788E+02</totfact>
</mgrwt>
</event>
<event>
 8    1  0.3542708E-007  0.1397848E+03  0.7546771E-02  0.1213622E+00
         -5   -1    0    0    0  501 -0.00000000000E+00  0.00000000000E+00  0.31088183149E+03  0.31091735743E+03  0.47000000000E+01 0.  1.
          5   -1    0    0  501    0  0.00000000000E+00 -0.00000000000E+00 -0.62764389757E+02  0.62940119332E+02  0.47000000000E+01 0.  1.
         25    2    1    2    0    0 -0.60034858441E+02 -0.17538357031E+02  0.11921681061E+03  0.18371837533E+03  0.12501206064E+03 0.  0.
         25    2    1    2    0    0  0.60034858441E+02  0.17538357031E+02  0.12890063112E+03  0.19013910143E+03  0.12500290794E+03 0.  0.
          5    1    4    4  502    0  0.51336298604E+02 -0.49807106369E+02  0.64226303632E+02  0.96245890705E+02  0.47000000000E+01 0. -1.
         -5    1    4    4    0  502  0.86985598369E+01  0.67345463400E+02  0.64674327490E+02  0.93893210725E+02  0.47000000000E+01 0. -1.
          5    1    3    3  503    0  0.19042658874E+01 -0.15610884947E+02 -0.23149836928E+02  0.28378352792E+02  0.47000000000E+01 0.  1.
         -5    1    3    3    0  503 -0.61939124329E+02 -0.19274720843E+01  0.14236664753E+03  0.15534002254E+03  0.47000000000E+01 0.  1.
<mgrwt>
<rscale>  0 0.13978277E+03</rscale>
<asrwt>0</asrwt>
<pdfrwt beam="2">  1        5 0.96723102E-02 0.13978481E+03</pdfrwt>
<pdfrwt beam="1">  1       -5 0.47844226E-01 0.13978481E+03</pdfrwt>
<totfact> 0.25889595E+02</totfact>
</mgrwt>
</event>
<event>
 8    1  0.3542708E-007  0.1399903E+03  0.7546771E-02  0.1213345E+00
          5   -1    0    0  501    0  0.00000000000E+00  0.00000000000E+00  0.31882471147E+02  0.32227037816E+02  0.47000000000E+01 0.  1.
         -5   -1    0    0    0  501 -0.00000000000E+00 -0.00000000000E+00 -0.64286125616E+03  0.64287843693E+03  0.47000000000E+01 0.  1.
         25    2    1    2    0    0 -0.55194320124E+02 -0.30376353208E+02 -0.38065650335E+03  0.40558188783E+03  0.12501263290E+03 0.  0.
         25    2    1    2    0    0  0.55194320124E+02  0.30376353208E+02 -0.23032228167E+03  0.26952358692E+03  0.12500189865E+03 0.  0.
          5    1    4    4  502    0  0.21438331217E+02  0.77658880489E+02 -0.14930051913E+03  0.16971516955E+03  0.47000000000E+01 0. -1.
         -5    1    4    4    0  502  0.33755988907E+02 -0.47282527281E+02 -0.81021762539E+02  0.99808417371E+02  0.47000000000E+01 0. -1.
          5    1    3    3  503    0 -0.74653337813E+02  0.26149760443E+02 -0.23761231674E+03  0.25047681307E+03  0.47000000000E+01 0.  1.
         -5    1    3    3    0  503  0.19459017689E+02 -0.56526113650E+02 -0.14304418661E+03  0.15510507476E+03  0.47000000000E+01 0.  1.
<mgrwt>
<rscale>  0 0.13998794E+03</rscale>
<asrwt>0</asrwt>
<pdfrwt beam="1">  1        5 0.49328228E-02 0.13999034E+03</pdfrwt>
<pdfrwt beam="2">  1       -5 0.98929549E-01 0.13999034E+03</pdfrwt>
<totfact> 0.15830720E+02</totfact>
</mgrwt>
</event>
<event>
 8    1  0.3542708E-007  0.1376188E+03  0.7546771E-02  0.1216571E+00
          5   -1    0    0  501    0  0.00000000000E+00  0.00000000000E+00  0.32975808821E+03  0.32979158076E+03  0.47000000000E+01 0. -1.
         -5   -1    0    0    0  501 -0.00000000000E+00 -0.00000000000E+00 -0.58265594825E+02  0.58454850442E+02  0.47000000000E+01 0. -1.
         25    2    1    2    0    0 -0.22260488353E+02 -0.53073671321E+02  0.11078627104E+03  0.17667067464E+03  0.12500634182E+03 0.  0.
         25    2    1    2    0    0  0.22260488353E+02  0.53073671321E+02  0.16070622234E+03  0.21157575656E+03  0.12500186773E+03 0.  0.
          5    1    3    3  502    0 -0.20740931357E+02  0.16196277136E+02 -0.16683749932E+02  0.31511000277E+02  0.47000000000E+01 0. -1.
         -5    1    3    3    0  502 -0.15195569962E+01 -0.69269948458E+02  0.12747002097E+03  0.14515967436E+03  0.47000000000E+01 0. -1.
          5    1    4    4  503    0  0.27926655974E+02  0.60183211213E+02  0.18549848815E+02  0.69051458471E+02  0.47000000000E+01 0. -1.
         -5    1    4    4    0  503 -0.56661676206E+01 -0.71095398920E+01  0.14215637352E+03  0.14252429809E+03  0.47000000000E+01 0. -1.
<mgrwt>
<rscale>  0 0.13761777E+03</rscale>
<asrwt>0</asrwt>
<pdfrwt beam="1">  1        5 0.50749147E-01 0.13761878E+03</pdfrwt>
<pdfrwt beam="2">  1       -5 0.89810722E-02 0.13761878E+03</pdfrwt>
<totfact> 0.25857372E+02</totfact>
</mgrwt>
</event>
<event>
 8    1  0.3542708E-007  0.1315958E+03  0.7546771E-02  0.1225110E+00
          5   -1    0    0  501    0  0.00000000000E+00  0.00000000000E+00  0.46520952394E+02  0.46757769532E+02  0.47000000000E+01 0. -1.
         -5   -1    0    0    0  501 -0.00000000000E+00 -0.00000000000E+00 -0.38054784569E+03  0.38057686853E+03  0.47000000000E+01 0. -1.
         25    2    1    2    0    0 -0.12693144471E+01 -0.41092678980E+02 -0.13323904019E+03  0.18727008594E+03  0.12500889501E+03 0.  0.
         25    2    1    2    0    0  0.12693144471E+01  0.41092678980E+02 -0.20078785310E+03  0.24006455212E+03  0.12500003122E+03 0.  0.
          5    1    4    4  502    0  0.31497134028E+02  0.86529513882E+01  0.13885143454E+01  0.33029698633E+02  0.47000000000E+01 0. -1.
         -5    1    4    4    0  502 -0.30227819581E+02  0.32439727591E+02 -0.20217636745E+03  0.20703485349E+03  0.47000000000E+01 0. -1.
          5    1    3    3  503    0 -0.45864145588E+02 -0.58110721656E+02 -0.11308980107E+03  0.13524706624E+03  0.47000000000E+01 0.  1.
         -5    1    3    3    0  503  0.44594831141E+02  0.17018042676E+02 -0.20149239119E+02  0.52023019694E+02  0.47000000000E+01 0.  1.
<mgrwt>
<rscale>  0 0.13159365E+03</rscale>
<asrwt>0</asrwt>
<pdfrwt beam="1">  1        5 0.71775191E-02 0.13159576E+03</pdfrwt>
<pdfrwt beam="2">  1       -5 0.58566270E-01 0.13159576E+03</pdfrwt>
<totfact> 0.27481071E+02</totfact>
</mgrwt>
</event>
<event>
 8    1  0.3542708E-007  0.1745886E+03  0.7546771E-02  0.1173147E+00
         -5   -1    0    0    0  501 -0.00000000000E+00  0.00000000000E+00  0.76649435681E+02  0.76793398090E+02  0.47000000000E+01 0. -1.
          5   -1    0    0  501    0  0.00000000000E+00 -0.00000000000E+00 -0.43452213634E+03  0.43454755433E+03  0.47000000000E+01 0. -1.
         25    2    1    2    0    0 -0.36397143514E+02  0.11631625686E+03 -0.10394471095E+03  0.20318874855E+03  0.12500776350E+03 0.  0.
         25    2    1    2    0    0  0.36397143514E+02 -0.11631625686E+03 -0.25392798971E+03  0.30815220387E+03  0.12499653246E+03 0.  0.
          5    1    3    3  502    0 -0.18188427155E+02 -0.21619457613E+02 -0.41955173457E+02  0.50799078826E+02  0.47000000000E+01 0.  1.
         -5    1    3    3    0  502 -0.18208716359E+02  0.13793571447E+03 -0.61989537497E+02  0.15238966972E+03  0.47000000000E+01 0.  1.
          5    1    4    4  503    0  0.20222787381E+02 -0.72141992981E+02 -0.24963841122E+03  0.26068151956E+03  0.47000000000E+01 0.  1.
         -5    1    4    4    0  503  0.16174356132E+02 -0.44174263878E+02 -0.42895784847E+01  0.47470684311E+02  0.47000000000E+01 0.  1.
<mgrwt>
<rscale>  0 0.17458655E+03</rscale>
<asrwt>0</asrwt>
<pdfrwt beam="2">  1        5 0.66862587E-01 0.17458856E+03</pdfrwt>
<pdfrwt beam="1">  1       -5 0.11805250E-01 0.17458856E+03</pdfrwt>
<totfact> 0.94556952E+01</totfact>
</mgrwt>
</event>
<event>
 8    1  0.3542708E-007  0.1310017E+03  0.7546771E-02  0.1225979E+00
          5   -1    0    0  501    0  0.00000000000E+00  0.00000000000E+00  0.12873819924E+03  0.12882396494E+03  0.47000000000E+01 0. -1.
         -5   -1    0    0    0  501 -0.00000000000E+00 -0.00000000000E+00 -0.13385688081E+03  0.13393936890E+03  0.47000000000E+01 0. -1.
         25    2    1    2    0    0  0.55211452074E+01  0.38796176628E+02  0.71323223412E+01  0.13119573327E+03  0.12500329612E+03 0.  0.
         25    2    1    2    0    0 -0.55211452074E+01 -0.38796176628E+02 -0.12251003917E+02  0.13156760057E+03  0.12499728020E+03 0.  0.
          5    1    3    3  502    0 -0.19483772019E+02  0.74033124799E+02  0.29670433123E+02  0.82237129943E+02  0.47000000000E+01 0. -1.
         -5    1    3    3    0  502  0.25004917227E+02 -0.35236948171E+02 -0.22538110782E+02  0.48958603325E+02  0.47000000000E+01 0. -1.
          5    1    4    4  503    0 -0.78445965008E+01 -0.91747210680E+01 -0.67461412155E+02  0.68693852206E+02  0.47000000000E+01 0. -1.
         -5    1    4    4    0  503  0.23234512934E+01 -0.29621455560E+02  0.55210408238E+02  0.62873748363E+02  0.47000000000E+01 0. -1.
<mgrwt>
<rscale>  0 0.13100028E+03</rscale>
<asrwt>0</asrwt>
<pdfrwt beam="1">  1        5 0.19818819E-01 0.13100172E+03</pdfrwt>
<pdfrwt beam="2">  1       -5 0.20606309E-01 0.13100172E+03</pdfrwt>
<totfact> 0.36901518E+02</totfact>
</mgrwt>
</event>
<event>
 8    1  0.3542708E-007  0.1315056E+03  0.7546771E-02  0.1225239E+00
          5   -1    0    0  501    0  0.00000000000E+00  0.00000000000E+00  0.11331347685E+04  0.11331445158E+04  0.47000000000E+01 0. -1.
         -5   -1    0    0    0  501 -0.00000000000E+00 -0.00000000000E+00 -0.15018891712E+02  0.15737125159E+02  0.47000000000E+01 0. -1.
         25    2    1    2    0    0  0.26618307601E+02  0.30958227561E+02  0.50705294174E+03  0.52382833016E+03  0.12500595025E+03 0.  0.
         25    2    1    2    0    0 -0.26618307601E+02 -0.30958227561E+02  0.61106293505E+03  0.62505331076E+03  0.12500713796E+03 0.  0.
          5    1    4    4  502    0 -0.41232491069E+02  0.21940120668E+00  0.60332487007E+02  0.73227491047E+02  0.47000000000E+01 0.  1.
         -5    1    4    4    0  502  0.14614183468E+02 -0.31177628768E+02  0.55073044805E+03  0.55182581971E+03  0.47000000000E+01 0.  1.
          5    1    3    3  503    0 -0.40513941240E+02 -0.21546279339E+02  0.17334571678E+03  0.17937795047E+03  0.47000000000E+01 0.  1.
         -5    1    3    3    0  503  0.67132248841E+02  0.52504506900E+02  0.33370722496E+03  0.34445037969E+03  0.47000000000E+01 0.  1.
<mgrwt>
<rscale>  0 0.13150535E+03</rscale>
<asrwt>0</asrwt>
<pdfrwt beam="1">  1        5 0.17438446E+00 0.13150563E+03</pdfrwt>
<pdfrwt beam="2">  1       -5 0.23665967E-02 0.13150563E+03</pdfrwt>
<totfact> 0.11547693E+02</totfact>
</mgrwt>
</event>
<event>
 8    1  0.3542708E-007  0.1292344E+03  0.7546771E-02  0.1228597E+00
         -5   -1    0    0    0  501 -0.00000000000E+00  0.00000000000E+00  0.19051354899E+03  0.19057151505E+03  0.47000000000E+01 0. -1.
          5   -1    0    0  501    0  0.00000000000E+00 -0.00000000000E+00 -0.92512697057E+02  0.92632009137E+02  0.47000000000E+01 0. -1.
         25    2    1    2    0    0  0.30221718761E+02  0.12756756861E+02  0.81829781050E+02  0.15296130447E+03  0.12499984187E+03 0.  0.
         25    2    1    2    0    0 -0.30221718761E+02 -0.12756756861E+02  0.16171070887E+02  0.13024221973E+03  0.12500178053E+03 0.  0.
          5    1    3    3  502    0  0.74749543209E+02  0.27552832010E+02  0.37255896482E+02  0.88072382643E+02  0.47000000000E+01 0. -1.
         -5    1    3    3    0  502 -0.44527824448E+02 -0.14796075148E+02  0.44573884568E+02  0.64888921823E+02  0.47000000000E+01 0. -1.
          5    1    4    4  503    0 -0.62548323589E+02 -0.49571450939E+02  0.79535090994E+01  0.80342826930E+02  0.47000000000E+01 0.  1.
         -5    1    4    4    0  503  0.32326604828E+02  0.36814694078E+02  0.82175617873E+01  0.49899392797E+02  0.47000000000E+01 0.  1.
<mgrwt>
<rscale>  0 0.12923394E+03</rscale>
<asrwt>0</asrwt>
<pdfrwt beam="2">  1        5 0.14246360E-01 0.12923441E+03</pdfrwt>
<pdfrwt beam="1">  1       -5 0.29323413E-01 0.12923441E+03</pdfrwt>
<totfact> 0.34232847E+02</totfact>
</mgrwt>
</event>
<event>
 8    1  0.3542708E-007  0.1512259E+03  0.7546771E-02  0.1198985E+00
          5   -1    0    0  501    0  0.00000000000E+00  0.00000000000E+00  0.38316268529E+03  0.38319151008E+03  0.47000000000E+01 0. -1.
         -5   -1    0    0    0  501 -0.00000000000E+00 -0.00000000000E+00 -0.65595926998E+02  0.65764090800E+02  0.47000000000E+01 0. -1.
         25    2    1    2    0    0  0.65308375785E+02 -0.54483269696E+02  0.90712252651E+02  0.17631617872E+03  0.12500028589E+03 0.  0.
         25    2    1    2    0    0 -0.65308375785E+02  0.54483269696E+02  0.22685450564E+03  0.27263942216E+03  0.12504270136E+03 0.  0.
          5    1    4    4  502    0 -0.10121290170E+03  0.39799782988E+02  0.18972887113E+03  0.21874004831E+03  0.47000000000E+01 0. -1.
         -5    1    4    4    0  502  0.35904525916E+02  0.14683486709E+02  0.37125634509E+02  0.53899373845E+02  0.47000000000E+01 0. -1.
          5    1    3    3  503    0  0.21748388806E+02 -0.91286339379E+02  0.57491154254E+02  0.11015221736E+03  0.47000000000E+01 0.  1.
         -5    1    3    3    0  503  0.43559986978E+02  0.36803069682E+02  0.33221098397E+02  0.66163961356E+02  0.47000000000E+01 0.  1.
<mgrwt>
<rscale>  0 0.15121718E+03</rscale>
<asrwt>0</asrwt>
<pdfrwt beam="1">  1        5 0.58963257E-01 0.15122595E+03</pdfrwt>
<pdfrwt beam="2">  1       -5 0.10106834E-01 0.15122595E+03</pdfrwt>
<totfact> 0.15722937E+02</totfact>
</mgrwt>
</event>
<event>
 8    1  0.3542708E-007  0.1432836E+03  0.7546771E-02  0.1208981E+00
          5   -1    0    0  501    0  0.00000000000E+00  0.00000000000E+00  0.18411817941E+04  0.18411877930E+04  0.47000000000E+01 0. -1.
         -5   -1    0    0    0  501 -0.00000000000E+00 -0.00000000000E+00 -0.14483111099E+02  0.15226638076E+02  0.47000000000E+01 0. -1.
         25    2    1    2    0    0 -0.69871445812E+02  0.44328150333E+01  0.44952447735E+03  0.47180764194E+03  0.12501410506E+03 0.  0.
         25    2    1    2    0    0  0.69871445812E+02 -0.44328150333E+01  0.13771742057E+04  0.13846067891E+04  0.12500199562E+03 0.  0.
          5    1    3    3  502    0  0.17248828239E+02  0.43920637161E+02  0.15713660060E+03  0.16413575385E+03  0.47000000000E+01 0.  1.
         -5    1    3    3    0  502 -0.87120274051E+02 -0.39487822128E+02  0.29238787676E+03  0.30767188809E+03  0.47000000000E+01 0.  1.
          5    1    4    4  503    0  0.12124834371E+02 -0.45536902998E+02  0.21003328362E+03  0.21530604119E+03  0.47000000000E+01 0.  1.
         -5    1    4    4    0  503  0.57746611441E+02  0.41104087964E+02  0.11671409220E+04  0.11693007479E+04  0.47000000000E+01 0.  1.
<mgrwt>
<rscale>  0 0.14328098E+03</rscale>
<asrwt>0</asrwt>
<pdfrwt beam="1">  1        5 0.28331642E+00 0.14328362E+03</pdfrwt>
<pdfrwt beam="2">  1       -5 0.22858265E-02 0.14328362E+03</pdfrwt>
<totfact> 0.24193807E+01</totfact>
</mgrwt>
</event>
<event>
 8    1  0.3542708E-007  0.1802444E+03  0.7546771E-02  0.1167567E+00
         -5   -1    0    0    0  501 -0.00000000000E+00  0.00000000000E+00  0.15151366142E+03  0.15158654161E+03  0.47000000000E+01 0.  1.
          5   -1    0    0  501    0  0.00000000000E+00 -0.00000000000E+00 -0.27287730875E+03  0.27291778181E+03  0.47000000000E+01 0.  1.
         25    2    1    2    0    0 -0.11870896254E+03  0.52637191436E+02  0.37661233518E+02  0.18413690550E+03  0.12500215897E+03 0.  0.
         25    2    1    2    0    0  0.11870896254E+03 -0.52637191436E+02 -0.15902488085E+03  0.24036741792E+03  0.12500036462E+03 0.  0.
          5    1    4    4  502    0  0.65195259688E+02  0.60776063218E+01 -0.35902306078E+01  0.65744497414E+02  0.47000000000E+01 0. -1.
         -5    1    4    4    0  502  0.53513702855E+02 -0.58714797758E+02 -0.15543465024E+03  0.17462292050E+03  0.47000000000E+01 0. -1.
          5    1    3    3  503    0 -0.81549692909E+02  0.64357677628E+02  0.76362921749E+02  0.12901801774E+03  0.47000000000E+01 0. -1.
         -5    1    3    3    0  503 -0.37159269634E+02 -0.11720486192E+02 -0.38701688231E+02  0.55118887763E+02  0.47000000000E+01 0. -1.
<mgrwt>
<rscale>  0 0.18024405E+03</rscale>
<asrwt>0</asrwt>
<pdfrwt beam="2">  1        5 0.41989844E-01 0.18024437E+03</pdfrwt>
<pdfrwt beam="1">  1       -5 0.23318514E-01 0.18024437E+03</pdfrwt>
<totfact> 0.74300098E+01</totfact>
</mgrwt>
</event>
<event>
 8    1  0.3542708E-007  0.1326690E+03  0.7546771E-02  0.1223552E+00
         -5   -1    0    0    0  501 -0.00000000000E+00  0.00000000000E+00  0.35753809487E+03  0.35756898535E+03  0.47000000000E+01 0. -1.
          5   -1    0    0  501    0  0.00000000000E+00 -0.00000000000E+00 -0.49539385569E+02  0.49761840024E+02  0.47000000000E+01 0. -1.
         25    2    1    2    0    0 -0.44255455398E+02  0.43181460038E+01  0.17357584242E+03  0.21847114067E+03  0.12499549799E+03 0.  0.
         25    2    1    2    0    0  0.44255455398E+02 -0.43181460038E+01  0.13442286688E+03  0.18885968470E+03  0.12498512570E+03 0.  0.
          5    1    3    3  502    0 -0.41530572600E+02 -0.49838770445E+02  0.14038304007E+03  0.15471968019E+03  0.47000000000E+01 0.  1.
         -5    1    3    3    0  502 -0.27248827986E+01  0.54156916449E+02  0.33192802354E+02  0.63751460482E+02  0.47000000000E+01 0.  1.
          5    1    4    4  503    0  0.57089093680E+02 -0.55022656035E+02  0.90376833512E+02  0.12031923923E+03  0.47000000000E+01 0.  1.
         -5    1    4    4    0  503 -0.12833638282E+02  0.50704510032E+02  0.44046033367E+02  0.68540445464E+02  0.47000000000E+01 0.  1.
<mgrwt>
<rscale>  0 0.13266657E+03</rscale>
<asrwt>0</asrwt>
<pdfrwt beam="2">  1        5 0.76409319E-02 0.13266901E+03</pdfrwt>
<pdfrwt beam="1">  1       -5 0.55025349E-01 0.13266901E+03</pdfrwt>
<totfact> 0.28355345E+02</totfact>
</mgrwt>
</event>
<event>
 8    1  0.3542708E-007  0.1293014E+03  0.7546771E-02  0.1228500E+00
         -5   -1    0    0    0  501 -0.00000000000E+00  0.00000000000E+00  0.82031175401E+02  0.82165709013E+02  0.47000000000E+01 0.  1.
          5   -1    0    0  501    0  0.00000000000E+00 -0.00000000000E+00 -0.20793541435E+03  0.20798852502E+03  0.47000000000E+01 0.  1.
         25    2    1    2    0    0 -0.87182959610E+01  0.31868073197E+02 -0.41691674162E+02  0.13585673720E+03  0.12500909797E+03 0.  0.
         25    2    1    2    0    0  0.87182959610E+01 -0.31868073197E+02 -0.84212564788E+02  0.15429749684E+03  0.12499751473E+03 0.  0.
          5    1    3    3  502    0 -0.24768572180E+02 -0.26233320826E+02 -0.62160287550E+02  0.72025416609E+02  0.47000000000E+01 0.  1.
         -5    1    3    3    0  502  0.16050276219E+02  0.58101394023E+02  0.20468613388E+02  0.63831320589E+02  0.47000000000E+01 0.  1.
          5    1    4    4  503    0  0.42304079285E+02 -0.42344552766E+02  0.30244823561E+01  0.60116002583E+02  0.47000000000E+01 0. -1.
         -5    1    4    4    0  503 -0.33585783324E+02  0.10476479569E+02 -0.87237047145E+02  0.94181494255E+02  0.47000000000E+01 0. -1.
<mgrwt>
<rscale>  0 0.12929862E+03</rscale>
<asrwt>0</asrwt>
<pdfrwt beam="2">  1        5 0.32004498E-01 0.12930142E+03</pdfrwt>
<pdfrwt beam="1">  1       -5 0.12634615E-01 0.12930142E+03</pdfrwt>
<totfact> 0.35737060E+02</totfact>
</mgrwt>
</event>
<event>
 8    1  0.3542708E-007  0.1268712E+03  0.7546771E-02  0.1232174E+00
         -5   -1    0    0    0  501 -0.00000000000E+00  0.00000000000E+00  0.45028052752E+03  0.45030505601E+03  0.47000000000E+01 0.  1.
          5   -1    0    0  501    0  0.00000000000E+00 -0.00000000000E+00 -0.37271837354E+02  0.37567004934E+02  0.47000000000E+01 0.  1.
         25    2    1    2    0    0  0.18442589292E+02 -0.11431297435E+02  0.25844840116E+03  0.28790911052E+03  0.12500110479E+03 0.  0.
         25    2    1    2    0    0 -0.18442589292E+02  0.11431297435E+02  0.15456028901E+03  0.19996295042E+03  0.12500197975E+03 0.  0.
          5    1    4    4  502    0  0.20746894340E+02  0.40572624045E+02  0.14215810719E+03  0.14935725254E+03  0.47000000000E+01 0.  1.
         -5    1    4    4    0  502 -0.39189483632E+02 -0.29141326610E+02  0.12402181819E+02  0.50605697879E+02  0.47000000000E+01 0.  1.
          5    1    3    3  503    0  0.71854336048E+02 -0.26263898990E+00  0.14131194064E+03  0.15860097464E+03  0.47000000000E+01 0.  1.
         -5    1    3    3    0  503 -0.53411746756E+02 -0.11168658445E+02  0.11713646052E+03  0.12930813589E+03  0.47000000000E+01 0.  1.
<mgrwt>
<rscale>  0 0.12687097E+03</rscale>
<asrwt>0</asrwt>
<pdfrwt beam="2">  1        5 0.57587208E-02 0.12687119E+03</pdfrwt>
<pdfrwt beam="1">  1       -5 0.69298519E-01 0.12687119E+03</pdfrwt>
<totfact> 0.27108538E+02</totfact>
</mgrwt>
</event>
<event>
 8    1  0.3542708E-007  0.1606941E+03  0.7546771E-02  0.1187916E+00
         -5   -1    0    0    0  501 -0.00000000000E+00  0.00000000000E+00  0.43518363145E+03  0.43520901081E+03  0.47000000000E+01 0. -1.
          5   -1    0    0  501    0  0.00000000000E+00 -0.00000000000E+00 -0.68548123595E+02  0.68709062346E+02  0.47000000000E+01 0. -1.
         25    2    1    2    0    0  0.31951073212E+02  0.95785984490E+02  0.27614455516E+03  0.31949682829E+03  0.12500632800E+03 0.  0.
         25    2    1    2    0    0 -0.31951073212E+02 -0.95785984490E+02  0.90490952701E+02  0.18442124486E+03  0.12500702833E+03 0.  0.
          5    1    3    3  502    0 -0.37581084120E+02  0.72616536511E+02  0.10426862161E+03  0.13258783772E+03  0.47000000000E+01 0. -1.
         -5    1    3    3    0  502  0.69532157333E+02  0.23169447979E+02  0.17187593355E+03  0.18690899057E+03  0.47000000000E+01 0. -1.
          5    1    4    4  503    0 -0.18820830938E+02 -0.96462059048E+02  0.11795882302E+03  0.15360835407E+03  0.47000000000E+01 0. -1.
         -5    1    4    4    0  503 -0.13130242274E+02  0.67607455761E+00 -0.27467870317E+02  0.30812890789E+02  0.47000000000E+01 0. -1.
<mgrwt>
<rscale>  0 0.16069393E+03</rscale>
<asrwt>0</asrwt>
<pdfrwt beam="2">  1        5 0.10560197E-01 0.16069407E+03</pdfrwt>
<pdfrwt beam="1">  1       -5 0.66965660E-01 0.16069407E+03</pdfrwt>
<totfact> 0.11199028E+02</totfact>
</mgrwt>
</event>
<event>
 8    1  0.3542708E-007  0.1808447E+03  0.7546771E-02  0.1166988E+00
          5   -1    0    0  501    0  0.00000000000E+00  0.00000000000E+00  0.98477401932E+03  0.98478523503E+03  0.47000000000E+01 0.  1.
         -5   -1    0    0    0  501 -0.00000000000E+00 -0.00000000000E+00 -0.36949484559E+02  0.37247206729E+02  0.47000000000E+01 0.  1.
         25    2    1    2    0    0 -0.10285006646E+03 -0.80644127830E+02  0.30826181337E+03  0.35739323385E+03  0.12499186572E+03 0.  0.
         25    2    1    2    0    0  0.10285006646E+03  0.80644127830E+02  0.63956272139E+03  0.66463920791E+03  0.12499276207E+03 0.  0.
          5    1    3    3  502    0 -0.98073134957E+02 -0.21543601406E+02  0.26619225658E+03  0.28453975825E+03  0.47000000000E+01 0. -1.
         -5    1    3    3    0  502 -0.47769315010E+01 -0.59100526425E+02  0.42069556785E+02  0.72853475595E+02  0.47000000000E+01 0. -1.
          5    1    4    4  503    0  0.28127507183E+02  0.94703280096E+02  0.27612566862E+03  0.29330418134E+03  0.47000000000E+01 0. -1.
         -5    1    4    4    0  503  0.74722559276E+02 -0.14059152265E+02  0.36343705277E+03  0.37133502657E+03  0.47000000000E+01 0. -1.
<mgrwt>
<rscale>  0 0.18084454E+03</rscale>
<asrwt>0</asrwt>
<pdfrwt beam="1">  1        5 0.15152747E+00 0.18084469E+03</pdfrwt>
<pdfrwt beam="2">  1       -5 0.57083002E-02 0.18084469E+03</pdfrwt>
<totfact> 0.44546950E+01</totfact>
</mgrwt>
</event>
<event>
 8    1  0.3542708E-007  0.1319683E+03  0.7546771E-02  0.1224572E+00
          5   -1    0    0  501    0  0.00000000000E+00  0.00000000000E+00  0.14467054685E+03  0.14474687260E+03  0.47000000000E+01 0.  1.
         -5   -1    0    0    0  501 -0.00000000000E+00 -0.00000000000E+00 -0.12275152652E+03  0.12284147208E+03  0.47000000000E+01 0.  1.
         25    2    1    2    0    0  0.21569574078E+02  0.36374919242E+02 -0.82936326673E+01  0.13220581915E+03  0.12498485108E+03 0.  0.
         25    2    1    2    0    0 -0.21569574078E+02 -0.36374919242E+02  0.30212653004E+02  0.13538252553E+03  0.12500896984E+03 0.  0.
          5    1    3    3  502    0  0.29066708918E+02  0.37659211908E+02 -0.61702498374E+02  0.78053687385E+02  0.47000000000E+01 0.  1.
         -5    1    3    3    0  502 -0.74971348399E+01 -0.12842926652E+01  0.53408865707E+02  0.54152131764E+02  0.47000000000E+01 0.  1.
          5    1    4    4  503    0  0.16853111153E+02 -0.74808284380E+02  0.11327637182E+02  0.77657659838E+02  0.47000000000E+01 0.  1.
         -5    1    4    4    0  503 -0.38422685231E+02  0.38433365138E+02  0.18885015822E+02  0.57724865688E+02  0.47000000000E+01 0.  1.
<mgrwt>
<rscale>  0 0.13196256E+03</rscale>
<asrwt>0</asrwt>
<pdfrwt beam="1">  1        5 0.22269797E-01 0.13196827E+03</pdfrwt>
<pdfrwt beam="2">  1       -5 0.18897640E-01 0.13196827E+03</pdfrwt>
<totfact> 0.34934354E+02</totfact>
</mgrwt>
</event>
<event>
 8    1  0.3542708E-007  0.1340371E+03  0.7546771E-02  0.1221594E+00
          5   -1    0    0  501    0  0.00000000000E+00  0.00000000000E+00  0.11713502295E+03  0.11722927792E+03  0.47000000000E+01 0. -1.
         -5   -1    0    0    0  501 -0.00000000000E+00 -0.00000000000E+00 -0.16022469974E+03  0.16029361936E+03  0.47000000000E+01 0. -1.
         25    2    1    2    0    0  0.22897160030E+02  0.42604949658E+02 -0.50673461098E+02  0.14329598116E+03  0.12500590740E+03 0.  0.
         25    2    1    2    0    0 -0.22897160030E+02 -0.42604949658E+02  0.75837843030E+01  0.13422691611E+03  0.12497955654E+03 0.  0.
          5    1    4    4  502    0 -0.11171209244E+02 -0.86174438015E+02  0.14862974866E+02  0.88282658008E+02  0.47000000000E+01 0.  1.
         -5    1    4    4    0  502 -0.11725950786E+02  0.43569488357E+02 -0.72791905627E+01  0.45944258104E+02  0.47000000000E+01 0.  1.
          5    1    3    3  503    0 -0.36036869088E+01  0.82987358209E+02 -0.18986121783E+02  0.85337277917E+02  0.47000000000E+01 0.  1.
         -5    1    3    3    0  503  0.26500846939E+02 -0.40382408551E+02 -0.31687339315E+02  0.57958703244E+02  0.47000000000E+01 0.  1.
<mgrwt>
<rscale>  0 0.13403093E+03</rscale>
<asrwt>0</asrwt>
<pdfrwt beam="1">  1        5 0.18033325E-01 0.13403708E+03</pdfrwt>
<pdfrwt beam="2">  1       -5 0.24662506E-01 0.13403708E+03</pdfrwt>
<totfact> 0.31550485E+02</totfact>
</mgrwt>
</event>
<event>
 8    1  0.3542708E-007  0.1316514E+03  0.7546771E-02  0.1225026E+00
         -5   -1    0    0    0  501 -0.00000000000E+00  0.00000000000E+00  0.92025472697E+02  0.92145415649E+02  0.47000000000E+01 0. -1.
          5   -1    0    0  501    0  0.00000000000E+00 -0.00000000000E+00 -0.18809826594E+03  0.18815697609E+03  0.47000000000E+01 0. -1.
         25    2    1    2    0    0  0.18195669893E+02 -0.37084881489E+02 -0.46201067615E+02  0.13952139751E+03  0.12500124350E+03 0.  0.
         25    2    1    2    0    0 -0.18195669893E+02  0.37084881489E+02 -0.49871725628E+02  0.14078099422E+03  0.12500291388E+03 0.  0.
          5    1    4    4  502    0 -0.20081115111E+02 -0.60222652308E+01 -0.83281330727E+02  0.86008074681E+02  0.47000000000E+01 0.  1.
         -5    1    4    4    0  502  0.18854452182E+01  0.43107146720E+02  0.33409605100E+02  0.54772919540E+02  0.47000000000E+01 0.  1.
          5    1    3    3  503    0 -0.37193179954E+02  0.23607134028E+02 -0.35002659820E+02  0.56461540951E+02  0.47000000000E+01 0. -1.
         -5    1    3    3    0  503  0.55388849847E+02 -0.60692015517E+02 -0.11198407795E+02  0.83059856562E+02  0.47000000000E+01 0. -1.
<mgrwt>
<rscale>  0 0.13165103E+03</rscale>
<asrwt>0</asrwt>
<pdfrwt beam="2">  1        5 0.28951937E-01 0.13165143E+03</pdfrwt>
<pdfrwt beam="1">  1       -5 0.14171508E-01 0.13165143E+03</pdfrwt>
<totfact> 0.35671580E+02</totfact>
</mgrwt>
</event>
<event>
 8    1  0.3542708E-007  0.1775829E+03  0.7546771E-02  0.1170164E+00
         -5   -1    0    0    0  501 -0.00000000000E+00  0.00000000000E+00  0.22833746305E+03  0.22838582931E+03  0.47000000000E+01 0. -1.
          5   -1    0    0  501    0  0.00000000000E+00 -0.00000000000E+00 -0.14403250855E+03  0.14410917223E+03  0.47000000000E+01 0. -1.
         25    2    1    2    0    0 -0.10762723049E+03  0.65780715780E+02  0.80236924539E+02  0.19486829303E+03  0.12499985703E+03 0.  0.
         25    2    1    2    0    0  0.10762723049E+03 -0.65780715780E+02  0.40680299549E+01  0.17762670851E+03  0.12499590153E+03 0.  0.
          5    1    3    3  502    0 -0.80771822166E+02  0.33798420896E+02  0.11196287668E+03  0.14221180073E+03  0.47000000000E+01 0.  1.
         -5    1    3    3    0  502 -0.26855408319E+02  0.31982294884E+02 -0.31725952142E+02  0.52656492300E+02  0.47000000000E+01 0.  1.
          5    1    4    4  503    0  0.12942978232E+03 -0.41445434490E+02 -0.19069610957E+02  0.13731544943E+03  0.47000000000E+01 0. -1.
         -5    1    4    4    0  503 -0.21802551830E+02 -0.24335281289E+02  0.23137640912E+02  0.40311259081E+02  0.47000000000E+01 0. -1.
<mgrwt>
<rscale>  0 0.17758221E+03</rscale>
<asrwt>0</asrwt>
<pdfrwt beam="2">  1        5 0.22168465E-01 0.17758290E+03</pdfrwt>
<pdfrwt beam="1">  1       -5 0.35138458E-01 0.17758290E+03</pdfrwt>
<totfact> 0.11720155E+02</totfact>
</mgrwt>
</event>
<event>
 8    1  0.3542708E-007  0.1385073E+03  0.7546771E-02  0.1215353E+00
         -5   -1    0    0    0  501 -0.00000000000E+00  0.00000000000E+00  0.17209802646E+03  0.17216219304E+03  0.47000000000E+01 0. -1.
          5   -1    0    0  501    0  0.00000000000E+00 -0.00000000000E+00 -0.11921195016E+03  0.11930456429E+03  0.47000000000E+01 0. -1.
         25    2    1    2    0    0 -0.10496138008E+02 -0.58725083820E+02  0.63875727539E+02  0.15252666232E+03  0.12500187905E+03 0.  0.
         25    2    1    2    0    0  0.10496138008E+02  0.58725083820E+02 -0.10989651243E+02  0.13894009501E+03  0.12499909274E+03 0.  0.
          5    1    3    3  502    0 -0.61394822506E+02 -0.51697197201E+02  0.15662914280E+02  0.81910568993E+02  0.47000000000E+01 0. -1.
         -5    1    3    3    0  502  0.50898684498E+02 -0.70278866182E+01  0.48212813259E+02  0.70616093324E+02  0.47000000000E+01 0. -1.
          5    1    4    4  503    0  0.46850617611E+02 -0.12239764038E+02  0.20881883745E+02  0.52942754584E+02  0.47000000000E+01 0.  1.
         -5    1    4    4    0  503 -0.36354479602E+02  0.70964847857E+02 -0.31871534988E+02  0.85997340430E+02  0.47000000000E+01 0.  1.
<mgrwt>
<rscale>  0 0.13850668E+03</rscale>
<asrwt>0</asrwt>
<pdfrwt beam="2">  1        5 0.18352360E-01 0.13850731E+03</pdfrwt>
<pdfrwt beam="1">  1       -5 0.26488679E-01 0.13850731E+03</pdfrwt>
<totfact> 0.26929992E+02</totfact>
</mgrwt>
</event>
<event>
 8    1  0.3542708E-007  0.1762665E+03  0.7546771E-02  0.1171467E+00
          5   -1    0    0  501    0  0.00000000000E+00  0.00000000000E+00  0.19696398097E+03  0.19702004923E+03  0.47000000000E+01 0.  1.
         -5   -1    0    0    0  501 -0.00000000000E+00 -0.00000000000E+00 -0.15807205470E+03  0.15814191246E+03  0.47000000000E+01 0.  1.
         25    2    1    2    0    0 -0.12345607794E+03 -0.14249559318E+02  0.10026398087E+02  0.17654757998E+03  0.12499626481E+03 0.  0.
         25    2    1    2    0    0  0.12345607794E+03  0.14249559318E+02  0.28865528186E+02  0.17861438171E+03  0.12500170205E+03 0.  0.
          5    1    4    4  502    0  0.35178526884E+02  0.10833172765E+02 -0.48515176241E+02  0.61079445901E+02  0.47000000000E+01 0.  1.
         -5    1    4    4    0  502  0.88277551060E+02  0.34163865531E+01  0.77380704428E+02  0.11753493581E+03  0.47000000000E+01 0.  1.
          5    1    3    3  503    0 -0.12518819401E+03 -0.12205938402E+02 -0.35437418263E+02  0.13076302790E+03  0.47000000000E+01 0. -1.
         -5    1    3    3    0  503  0.17321160667E+01 -0.20436209156E+01  0.45463816350E+02  0.45784552085E+02  0.47000000000E+01 0. -1.
<mgrwt>
<rscale>  0 0.17626553E+03</rscale>
<asrwt>0</asrwt>
<pdfrwt beam="1">  1        5 0.30311838E-01 0.17626650E+03</pdfrwt>
<pdfrwt beam="2">  1       -5 0.24328464E-01 0.17626650E+03</pdfrwt>
<totfact> 0.13150123E+02</totfact>
</mgrwt>
</event>
<event>
 8    1  0.3542708E-007  0.1530780E+03  0.7546771E-02  0.1196743E+00
         -5   -1    0    0    0  501 -0.00000000000E+00  0.00000000000E+00  0.44014497682E+03  0.44017007011E+03  0.47000000000E+01 0.  1.
          5   -1    0    0  501    0  0.00000000000E+00 -0.00000000000E+00 -0.58449336791E+02  0.58637999380E+02  0.47000000000E+01 0.  1.
         25    2    1    2    0    0  0.74420201211E+02  0.47611113788E+02  0.26611738380E+03  0.30700381962E+03  0.12501079472E+03 0.  0.
         25    2    1    2    0    0 -0.74420201211E+02 -0.47611113788E+02  0.11557825623E+03  0.19180424987E+03  0.12500140980E+03 0.  0.
          5    1    3    3  502    0 -0.57329064919E+01 -0.23713325904E+02  0.13618482565E+03  0.13843260013E+03  0.47000000000E+01 0. -1.
         -5    1    3    3    0  502  0.80153107703E+02  0.71324439692E+02  0.12993255815E+03  0.16857121948E+03  0.47000000000E+01 0. -1.
          5    1    4    4  503    0 -0.68185540566E+02 -0.49362849929E+02  0.88455420518E+01  0.84772003100E+02  0.47000000000E+01 0. -1.
         -5    1    4    4    0  503 -0.62346606451E+01  0.17517361410E+01  0.10673271418E+03  0.10703224677E+03  0.47000000000E+01 0. -1.
<mgrwt>
<rscale>  0 0.15307611E+03</rscale>
<asrwt>0</asrwt>
<pdfrwt beam="2">  1        5 0.90086482E-02 0.15307803E+03</pdfrwt>
<pdfrwt beam="1">  1       -5 0.67731056E-01 0.15307803E+03</pdfrwt>
<totfact> 0.14188742E+02</totfact>
</mgrwt>
</event>
<event>
 8    1  0.3542708E-007  0.1455853E+03  0.7546771E-02  0.1206006E+00
         -5   -1    0    0    0  501 -0.00000000000E+00  0.00000000000E+00  0.68180906957E+02  0.68342710463E+02  0.47000000000E+01 0. -1.
          5   -1    0    0  501    0  0.00000000000E+00 -0.00000000000E+00 -0.31102330921E+03  0.31105881899E+03  0.47000000000E+01 0. -1.
         25    2    1    2    0    0  0.18589387488E+02 -0.72279544882E+02 -0.11235652488E+03  0.18389793786E+03  0.12499825971E+03 0.  0.
         25    2    1    2    0    0 -0.18589387488E+02  0.72279544882E+02 -0.13048587737E+03  0.19550359160E+03  0.12500076879E+03 0.  0.
          5    1    4    4  502    0 -0.13491554591E+02  0.10206619765E+03 -0.12868443726E+03  0.16486753817E+03  0.47000000000E+01 0.  1.
         -5    1    4    4    0  502 -0.50978328972E+01 -0.29786652767E+02 -0.18014401110E+01  0.30636053430E+02  0.47000000000E+01 0.  1.
          5    1    3    3  503    0  0.67722429071E+02 -0.52936175479E+02 -0.94801243886E+02  0.12805440998E+03  0.47000000000E+01 0.  1.
         -5    1    3    3    0  503 -0.49133041583E+02 -0.19343369403E+02 -0.17555280997E+02  0.55843527878E+02  0.47000000000E+01 0.  1.
<mgrwt>
<rscale>  0 0.14558480E+03</rscale>
<asrwt>0</asrwt>
<pdfrwt beam="2">  1        5 0.47864917E-01 0.14558534E+03</pdfrwt>
<pdfrwt beam="1">  1       -5 0.10504548E-01 0.14558534E+03</pdfrwt>
<totfact> 0.22699295E+02</totfact>
</mgrwt>
</event>
<event>
 8    1  0.3542708E-007  0.1251876E+03  0.7546771E-02  0.1234778E+00
          5   -1    0    0  501    0  0.00000000000E+00  0.00000000000E+00  0.18303014561E+03  0.18309048092E+03  0.47000000000E+01 0.  1.
         -5   -1    0    0    0  501 -0.00000000000E+00 -0.00000000000E+00 -0.10863294463E+03  0.10873456975E+03  0.47000000000E+01 0.  1.
         25    2    1    2    0    0 -0.45653437795E+01 -0.50066750828E+01 -0.30104817703E+02  0.12875647724E+03  0.12500408482E+03 0.  0.
         25    2    1    2    0    0  0.45653437795E+01  0.50066750828E+01  0.10450201869E+03  0.16306857343E+03  0.12499911428E+03 0.  0.
          5    1    3    3  502    0 -0.62294240749E+02  0.10396191538E+02 -0.42148355709E+01  0.63470529129E+02  0.47000000000E+01 0. -1.
         -5    1    3    3    0  502  0.57728896969E+02 -0.15402866621E+02 -0.25889982132E+02  0.65285948107E+02  0.47000000000E+01 0. -1.
          5    1    4    4  503    0  0.12389967407E+02  0.49509923033E+01  0.13268876530E+03  0.13344070614E+03  0.47000000000E+01 0. -1.
         -5    1    4    4    0  503 -0.78246236279E+01  0.55682779537E-01 -0.28186746615E+02  0.29627867291E+02  0.47000000000E+01 0. -1.
<mgrwt>
<rscale>  0 0.12518634E+03</rscale>
<asrwt>0</asrwt>
<pdfrwt beam="1">  1        5 0.28170942E-01 0.12518758E+03</pdfrwt>
<pdfrwt beam="2">  1       -5 0.16725219E-01 0.12518758E+03</pdfrwt>
<totfact> 0.27353240E+02</totfact>
</mgrwt>
</event>
<event>
 8    1  0.3542708E-007  0.1359450E+03  0.7546771E-02  0.1218892E+00
          5   -1    0    0  501    0  0.00000000000E+00  0.00000000000E+00  0.13162572018E+03  0.13170960563E+03  0.47000000000E+01 0. -1.
         -5   -1    0    0    0  501 -0.00000000000E+00 -0.00000000000E+00 -0.17361248896E+03  0.17367609600E+03  0.47000000000E+01 0. -1.
         25    2    1    2    0    0 -0.50110711210E+02 -0.18543405499E+02 -0.87912198372E+02  0.16189379440E+03  0.12500441903E+03 0.  0.
         25    2    1    2    0    0  0.50110711210E+02  0.18543405499E+02  0.45925429598E+02  0.14349190723E+03  0.12500336432E+03 0.  0.
          5    1    4    4  502    0  0.84971664466E+02  0.40172790594E+02  0.25945428165E+02  0.97618093143E+02  0.47000000000E+01 0. -1.
         -5    1    4    4    0  502 -0.34860953256E+02 -0.21629385095E+02  0.19980001433E+02  0.45873814085E+02  0.47000000000E+01 0. -1.
          5    1    3    3  503    0 -0.65883933211E+02 -0.57238914992E+01  0.51720932881E+01  0.66500346903E+02  0.47000000000E+01 0. -1.
         -5    1    3    3    0  503  0.15773222001E+02 -0.12819514000E+02 -0.93084291660E+02  0.95393447497E+02  0.47000000000E+01 0. -1.
<mgrwt>
<rscale>  0 0.13594477E+03</rscale>
<asrwt>0</asrwt>
<pdfrwt beam="1">  1        5 0.20261456E-01 0.13594501E+03</pdfrwt>
<pdfrwt beam="2">  1       -5 0.26720959E-01 0.13594501E+03</pdfrwt>
<totfact> 0.21892019E+02</totfact>
</mgrwt>
</event>
<event>
 8    1  0.3542708E-007  0.1302368E+03  0.7546771E-02  0.1227105E+00
         -5   -1    0    0    0  501 -0.00000000000E+00  0.00000000000E+00  0.96945828365E+02  0.97059691105E+02  0.47000000000E+01 0. -1.
          5   -1    0    0  501    0  0.00000000000E+00 -0.00000000000E+00 -0.20137252666E+03  0.20142736779E+03  0.47000000000E+01 0. -1.
         25    2    1    2    0    0 -0.33458583916E+02  0.14694701709E+02  0.20685796205E+01  0.13025324391E+03  0.12500486963E+03 0.  0.
         25    2    1    2    0    0  0.33458583916E+02 -0.14694701709E+02 -0.10649527792E+03  0.16823381499E+03  0.12500384470E+03 0.  0.
          5    1    4    4  502    0  0.24244684892E+02 -0.53743838980E+02 -0.54308186879E+01  0.59395191434E+02  0.47000000000E+01 0.  1.
         -5    1    4    4    0  502  0.92138990234E+01  0.39049137271E+02 -0.10106445923E+03  0.10883862355E+03  0.47000000000E+01 0.  1.
          5    1    3    3  503    0  0.29953156754E+02  0.34190460460E+02  0.33530650867E+02  0.56679570689E+02  0.47000000000E+01 0. -1.
         -5    1    3    3    0  503 -0.63411740670E+02 -0.19495758751E+02 -0.31462071246E+02  0.73573673221E+02  0.47000000000E+01 0. -1.
<mgrwt>
<rscale>  0 0.13023657E+03</rscale>
<asrwt>0</asrwt>
<pdfrwt beam="2">  1        5 0.30993366E-01 0.13023682E+03</pdfrwt>
<pdfrwt beam="1">  1       -5 0.14927720E-01 0.13023682E+03</pdfrwt>
<totfact> 0.28307143E+02</totfact>
</mgrwt>
</event>
<event>
 8    1  0.3542708E-007  0.1305235E+03  0.7546771E-02  0.1226684E+00
          5   -1    0    0  501    0  0.00000000000E+00  0.00000000000E+00  0.28356668314E+03  0.28360563074E+03  0.47000000000E+01 0.  1.
         -5   -1    0    0    0  501 -0.00000000000E+00 -0.00000000000E+00 -0.74981594976E+02  0.75128753385E+02  0.47000000000E+01 0.  1.
         25    2    1    2    0    0  0.23135041182E+02  0.29603960950E+02  0.24064768384E+02  0.13271641218E+03  0.12499163312E+03 0.  0.
         25    2    1    2    0    0 -0.23135041182E+02 -0.29603960950E+02  0.18452031978E+03  0.22601797195E+03  0.12499900239E+03 0.  0.
          5    1    4    4  502    0 -0.13256737848E+02  0.20147920583E+02  0.17175334215E+03  0.17350210472E+03  0.47000000000E+01 0.  1.
         -5    1    4    4    0  502 -0.98783033338E+01 -0.49751881533E+02  0.12766977628E+02  0.52515867227E+02  0.47000000000E+01 0.  1.
          5    1    3    3  503    0 -0.12553157595E+02  0.65688668726E+02 -0.14755924761E+02  0.68646997605E+02  0.47000000000E+01 0. -1.
         -5    1    3    3    0  503  0.35688198777E+02 -0.36084707776E+02  0.38820693145E+02  0.64069414571E+02  0.47000000000E+01 0. -1.
<mgrwt>
<rscale>  0 0.13052170E+03</rscale>
<asrwt>0</asrwt>
<pdfrwt beam="1">  1        5 0.43639960E-01 0.13052347E+03</pdfrwt>
<pdfrwt beam="2">  1       -5 0.11549946E-01 0.13052347E+03</pdfrwt>
<totfact> 0.22452542E+02</totfact>
</mgrwt>
</event>
<event>
 8    1  0.3542708E-007  0.1295275E+03  0.7546771E-02  0.1228160E+00
         -5   -1    0    0    0  501 -0.00000000000E+00  0.00000000000E+00  0.39102482003E+02  0.39383931987E+02  0.47000000000E+01 0.  1.
          5   -1    0    0  501    0  0.00000000000E+00 -0.00000000000E+00 -0.42811275668E+03  0.42813855518E+03  0.47000000000E+01 0.  1.
         25    2    1    2    0    0 -0.20853602602E+02  0.26777748464E+02 -0.18380331841E+03  0.22485547271E+03  0.12499761275E+03 0.  0.
         25    2    1    2    0    0  0.20853602602E+02 -0.26777748464E+02 -0.20520695626E+03  0.24266701446E+03  0.12500185780E+03 0.  0.
          5    1    4    4  502    0  0.59029547895E+02 -0.47155592525E+02 -0.80128295573E+02  0.11023053652E+03  0.47000000000E+01 0. -1.
         -5    1    4    4    0  502 -0.38175945292E+02  0.20377844060E+02 -0.12507866069E+03  0.13243647793E+03  0.47000000000E+01 0. -1.
          5    1    3    3  503    0 -0.91153486972E+01  0.64475724354E+02 -0.42109862248E+02  0.77688732204E+02  0.47000000000E+01 0.  1.
         -5    1    3    3    0  503 -0.11738253905E+02 -0.37697975890E+02 -0.14169345616E+03  0.14716674050E+03  0.47000000000E+01 0.  1.
<mgrwt>
<rscale>  0 0.12952652E+03</rscale>
<asrwt>0</asrwt>
<pdfrwt beam="2">  1        5 0.65887132E-01 0.12952755E+03</pdfrwt>
<pdfrwt beam="1">  1       -5 0.60394013E-02 0.12952755E+03</pdfrwt>
<totfact> 0.28228806E+02</totfact>
</mgrwt>
</event>
<event>
 8    1  0.3542708E-007  0.1424109E+03  0.7546771E-02  0.1210147E+00
         -5   -1    0    0    0  501 -0.00000000000E+00  0.00000000000E+00  0.18814178240E+04  0.18814236946E+04  0.47000000000E+01 0. -1.
          5   -1    0    0  501    0  0.00000000000E+00 -0.00000000000E+00 -0.13331312978E+02  0.14135554666E+02  0.47000000000E+01 0. -1.
         25    2    1    2    0    0  0.61814823920E+02 -0.28522154795E+02  0.13745782657E+04  0.13819356969E+04  0.12508507566E+03 0.  0.
         25    2    1    2    0    0 -0.61814823920E+02  0.28522154795E+02  0.49350824536E+03  0.51362355233E+03  0.12499671797E+03 0.  0.
          5    1    3    3  502    0 -0.24067614524E+02 -0.47959327123E+02  0.57015872680E+03  0.57269748635E+03  0.47000000000E+01 0.  1.
         -5    1    3    3    0  502  0.85882438443E+02  0.19437172328E+02  0.80441953889E+03  0.80923821057E+03  0.47000000000E+01 0.  1.
          5    1    4    4  503    0 -0.49886741213E+02  0.30139303526E+02  0.49684775371E+03  0.50027676833E+03  0.47000000000E+01 0.  1.
         -5    1    4    4    0  503 -0.11928082706E+02 -0.16171487307E+01 -0.33395083538E+01  0.13346783999E+02  0.47000000000E+01 0.  1.
<mgrwt>
<rscale>  0 0.14239149E+03</rscale>
<asrwt>0</asrwt>
<pdfrwt beam="2">  1        5 0.21132872E-02 0.14241089E+03</pdfrwt>
<pdfrwt beam="1">  1       -5 0.28951126E+00 0.14241089E+03</pdfrwt>
<totfact> 0.25020429E+01</totfact>
</mgrwt>
</event>
<event>
 8    1  0.3542708E-007  0.1317306E+03  0.7546771E-02  0.1224915E+00
         -5   -1    0    0    0  501 -0.00000000000E+00  0.00000000000E+00  0.15996833221E+02  0.16672992326E+02  0.47000000000E+01 0. -1.
          5   -1    0    0  501    0  0.00000000000E+00 -0.00000000000E+00 -0.10615626393E+04  0.10615730437E+04  0.47000000000E+01 0. -1.
         25    2    1    2    0    0 -0.69328550584E+01  0.40943172726E+02 -0.52584056469E+03  0.54208629055E+03  0.12499935623E+03 0.  0.
         25    2    1    2    0    0  0.69328550584E+01 -0.40943172726E+02 -0.51972524139E+03  0.53615974550E+03  0.12501415233E+03 0.  0.
          5    1    3    3  502    0 -0.17502087543E+02  0.13163432337E+02 -0.50496730830E+03  0.50546381816E+03  0.47000000000E+01 0. -1.
         -5    1    3    3    0  502  0.10569232485E+02  0.27779740389E+02 -0.20873256385E+02  0.36622472384E+02  0.47000000000E+01 0. -1.
          5    1    4    4  503    0  0.15049333285E+02  0.37481946130E+01 -0.46324541136E+03  0.46352878286E+03  0.47000000000E+01 0. -1.
         -5    1    4    4    0  503 -0.81164782266E+01 -0.44691367339E+02 -0.56479830035E+02  0.72630962641E+02  0.47000000000E+01 0. -1.
<mgrwt>
<rscale>  0 0.13172707E+03</rscale>
<asrwt>0</asrwt>
<pdfrwt beam="2">  1        5 0.16337009E+00 0.13173058E+03</pdfrwt>
<pdfrwt beam="1">  1       -5 0.25138647E-02 0.13173058E+03</pdfrwt>
<totfact> 0.12639570E+02</totfact>
</mgrwt>
</event>
<event>
 8    1  0.3542708E-007  0.1276796E+03  0.7546771E-02  0.1230964E+00
          5   -1    0    0  501    0  0.00000000000E+00  0.00000000000E+00  0.54215393565E+03  0.54217430771E+03  0.47000000000E+01 0.  1.
         -5   -1    0    0    0  501 -0.00000000000E+00 -0.00000000000E+00 -0.30239360917E+02  0.30602433705E+02  0.47000000000E+01 0.  1.
         25    2    1    2    0    0 -0.26108777620E+00 -0.26030647017E+02  0.22370133607E+03  0.25757399424E+03  0.12499764798E+03 0.  0.
         25    2    1    2    0    0  0.26108777620E+00  0.26030647017E+02  0.28821323867E+03  0.31520274718E+03  0.12493293454E+03 0.  0.
          5    1    4    4  502    0 -0.13400616713E+02  0.83058631573E+01  0.29161971574E+03  0.29208339990E+03  0.47000000000E+01 0. -1.
         -5    1    4    4    0  502  0.13661704489E+02  0.17724783860E+02 -0.34064770692E+01  0.23119347275E+02  0.47000000000E+01 0. -1.
          5    1    3    3  503    0 -0.45157731628E+02 -0.56652689536E+02  0.11598568803E+03  0.13683390583E+03  0.47000000000E+01 0.  1.
         -5    1    3    3    0  503  0.44896643851E+02  0.30622042519E+02  0.10771564804E+03  0.12074008841E+03  0.47000000000E+01 0.  1.
<mgrwt>
<rscale>  0 0.12766374E+03</rscale>
<asrwt>0</asrwt>
<pdfrwt beam="1">  1        5 0.83437794E-01 0.12767958E+03</pdfrwt>
<pdfrwt beam="2">  1       -5 0.46817051E-02 0.12767958E+03</pdfrwt>
<totfact> 0.25075117E+02</totfact>
</mgrwt>
</event>
<event>
 8    1  0.3542708E-007  0.1278802E+03  0.7546771E-02  0.1230639E+00
         -5   -1    0    0    0  501 -0.00000000000E+00  0.00000000000E+00  0.47791521207E+03  0.47793832230E+03  0.47000000000E+01 0.  1.
          5   -1    0    0  501    0  0.00000000000E+00 -0.00000000000E+00 -0.38662213006E+02  0.38946844731E+02  0.47000000000E+01 0.  1.
         25    2    1    2    0    0 -0.17036450630E+02 -0.20914069217E+02  0.30869957515E+03  0.33413520582E+03  0.12499307633E+03 0.  0.
         25    2    1    2    0    0  0.17036450630E+02  0.20914069217E+02  0.13055342391E+03  0.18274996122E+03  0.12500285152E+03 0.  0.
          5    1    4    4  502    0 -0.11920470064E+02 -0.93703698482E+01  0.13886997446E+03  0.13977432255E+03  0.47000000000E+01 0.  1.
         -5    1    4    4    0  502  0.28956920694E+02  0.30284439065E+02 -0.83165505482E+01  0.42975638664E+02  0.47000000000E+01 0.  1.
          5    1    3    3  503    0 -0.23613456356E+02 -0.67308450336E+02  0.24302859197E+03  0.25332392173E+03  0.47000000000E+01 0.  1.
         -5    1    3    3    0  503  0.65770057257E+01  0.46394381120E+02  0.65670983180E+02  0.80811284086E+02  0.47000000000E+01 0.  1.
<mgrwt>
<rscale>  0 0.12787784E+03</rscale>
<asrwt>0</asrwt>
<pdfrwt beam="2">  1        5 0.59717053E-02 0.12788022E+03</pdfrwt>
<pdfrwt beam="1">  1       -5 0.73549089E-01 0.12788022E+03</pdfrwt>
<totfact> 0.22363968E+02</totfact>
</mgrwt>
</event>
<event>
 8    1  0.3542708E-007  0.1382428E+03  0.7546771E-02  0.1215715E+00
          5   -1    0    0  501    0  0.00000000000E+00  0.00000000000E+00  0.14142830346E+03  0.14150637802E+03  0.47000000000E+01 0. -1.
         -5   -1    0    0    0  501 -0.00000000000E+00 -0.00000000000E+00 -0.22125362666E+03  0.22130354111E+03  0.47000000000E+01 0. -1.
         25    2    1    2    0    0  0.52971832301E+02 -0.26060081733E+02 -0.15316181669E+03  0.20632406843E+03  0.12500374493E+03 0.  0.
         25    2    1    2    0    0 -0.52971832301E+02  0.26060081733E+02  0.73336493497E+02  0.15648585070E+03  0.12499774923E+03 0.  0.
          5    1    3    3  502    0  0.48447010243E+02  0.10106250152E+02 -0.93219332337E+00  0.49721304066E+02  0.47000000000E+01 0.  1.
         -5    1    3    3    0  502  0.45248220579E+01 -0.36166331885E+02 -0.15222962337E+03  0.15660276437E+03  0.47000000000E+01 0.  1.
          5    1    4    4  503    0  0.60812179175E+01  0.65146454016E+02  0.23155961148E+02  0.69565294644E+02  0.47000000000E+01 0.  1.
         -5    1    4    4    0  503 -0.59053050219E+02 -0.39086372283E+02  0.50180532349E+02  0.86920556057E+02  0.47000000000E+01 0.  1.
<mgrwt>
<rscale>  0 0.13824147E+03</rscale>
<asrwt>0</asrwt>
<pdfrwt beam="1">  1        5 0.21768046E-01 0.13824283E+03</pdfrwt>
<pdfrwt beam="2">  1       -5 0.34048865E-01 0.13824283E+03</pdfrwt>
<totfact> 0.11954669E+02</totfact>
</mgrwt>
</event>
<event>
 8    1  0.3542708E-007  0.1545474E+03  0.7546771E-02  0.1194994E+00
         -5   -1    0    0    0  501 -0.00000000000E+00  0.00000000000E+00  0.97162386566E+01  0.10793298552E+02  0.47000000000E+01 0.  1.
          5   -1    0    0  501    0  0.00000000000E+00 -0.00000000000E+00 -0.27295936794E+04  0.27295977258E+04  0.47000000000E+01 0.  1.
         25    2    1    2    0    0  0.59963258915E+02 -0.68295782188E+02 -0.83451443574E+03  0.84870432879E+03  0.12499915188E+03 0.  0.
         25    2    1    2    0    0 -0.59963258915E+02  0.68295782188E+02 -0.18853630050E+04  0.18916866956E+04  0.12499994874E+03 0.  0.
          5    1    3    3  502    0  0.46551457714E+02 -0.11270661813E+02 -0.70312671805E+03  0.70477183376E+03  0.47000000000E+01 0. -1.
         -5    1    3    3    0  502  0.13411801201E+02 -0.57025120375E+02 -0.13138771769E+03  0.14393249503E+03  0.47000000000E+01 0. -1.
          5    1    4    4  503    0  0.18973964333E+01  0.85463836276E+02 -0.12944009981E+04  0.12972292400E+04  0.47000000000E+01 0. -1.
         -5    1    4    4    0  503 -0.61860655348E+02 -0.17168054088E+02 -0.59096200699E+03  0.59445745555E+03  0.47000000000E+01 0. -1.
<mgrwt>
<rscale>  0 0.15454722E+03</rscale>
<asrwt>0</asrwt>
<pdfrwt beam="2">  1        5 0.42002007E+00 0.15454738E+03</pdfrwt>
<pdfrwt beam="1">  1       -5 0.15779701E-02 0.15454738E+03</pdfrwt>
<totfact> 0.54295735E+00</totfact>
</mgrwt>
</event>
<event>
 8    1  0.3542708E-007  0.1266102E+03  0.7546771E-02  0.1232574E+00
          5   -1    0    0  501    0  0.00000000000E+00  0.00000000000E+00  0.22182859098E+04  0.22182908888E+04  0.47000000000E+01 0.  1.
         -5   -1    0    0    0  501 -0.00000000000E+00 -0.00000000000E+00 -0.69174022812E+01  0.83630409732E+01  0.47000000000E+01 0.  1.
         25    2    1    2    0    0  0.18869529409E+02  0.69366620563E+01  0.84507084819E+03  0.85450253700E+03  0.12500268339E+03 0.  0.
         25    2    1    2    0    0 -0.18869529409E+02 -0.69366620563E+01  0.13662976593E+04  0.13721513928E+04  0.12500389819E+03 0.  0.
          5    1    3    3  502    0  0.43895521114E+02  0.55220680163E+00  0.80729151876E+03  0.80849787134E+03  0.47000000000E+01 0. -1.
         -5    1    3    3    0  502 -0.25025991705E+02  0.63844552546E+01  0.37779329430E+02  0.46004665654E+02  0.47000000000E+01 0. -1.
          5    1    4    4  503    0 -0.61406719103E+02 -0.96427299297E+00  0.38440342521E+03  0.38930681768E+03  0.47000000000E+01 0.  1.
         -5    1    4    4    0  503  0.42537189694E+02 -0.59723890633E+01  0.98189423409E+03  0.98284457514E+03  0.47000000000E+01 0.  1.
<mgrwt>
<rscale>  0 0.12660993E+03</rscale>
<asrwt>0</asrwt>
<pdfrwt beam="1">  1        5 0.34138616E+00 0.12661023E+03</pdfrwt>
<pdfrwt beam="2">  1       -5 0.11758023E-02 0.12661023E+03</pdfrwt>
<totfact> 0.28463872E+01</totfact>
</mgrwt>
</event>
<event>
 8    1  0.3542708E-007  0.1316064E+03  0.7546771E-02  0.1225094E+00
         -5   -1    0    0    0  501 -0.00000000000E+00  0.00000000000E+00  0.57845054393E+03  0.57846963773E+03  0.47000000000E+01 0.  1.
          5   -1    0    0  501    0  0.00000000000E+00 -0.00000000000E+00 -0.35498979770E+02  0.35808763798E+02  0.47000000000E+01 0.  1.
         25    2    1    2    0    0  0.41091665806E+02  0.13593871804E+01  0.39459540074E+03  0.41596095897E+03  0.12501046422E+03 0.  0.
         25    2    1    2    0    0 -0.41091665806E+02 -0.13593871804E+01  0.14835616342E+03  0.19831744256E+03  0.12501953394E+03 0.  0.
          5    1    4    4  502    0 -0.46940735761E+02 -0.35117318590E+01  0.16939537390E+03  0.17587679674E+03  0.47000000000E+01 0. -1.
         -5    1    4    4    0  502  0.58490699543E+01  0.21523446785E+01 -0.21039210481E+02  0.22440645815E+02  0.47000000000E+01 0. -1.
          5    1    3    3  503    0  0.33261400039E+02 -0.38054214795E+02  0.35745373293E+03  0.36103975568E+03  0.47000000000E+01 0.  1.
         -5    1    3    3    0  503  0.78302657676E+01  0.39413601976E+02  0.37141667818E+02  0.54921203292E+02  0.47000000000E+01 0.  1.
<mgrwt>
<rscale>  0 0.13160429E+03</rscale>
<asrwt>0</asrwt>
<pdfrwt beam="2">  1        5 0.54866798E-02 0.13160645E+03</pdfrwt>
<pdfrwt beam="1">  1       -5 0.89017689E-01 0.13160645E+03</pdfrwt>
<totfact> 0.16729587E+02</totfact>
</mgrwt>
</event>
<event>
 8    1  0.3542708E-007  0.1269830E+03  0.7546771E-02  0.1232006E+00
         -5   -1    0    0    0  501 -0.00000000000E+00  0.00000000000E+00  0.79860996429E+03  0.79862379445E+03  0.47000000000E+01 0.  1.
          5   -1    0    0  501    0  0.00000000000E+00 -0.00000000000E+00 -0.20161817083E+02  0.20702387980E+02  0.47000000000E+01 0.  1.
         25    2    1    2    0    0 -0.22285001317E+02  0.15981565322E+01  0.43512016246E+03  0.45326774812E+03  0.12499168100E+03 0.  0.
         25    2    1    2    0    0  0.22285001317E+02 -0.15981565322E+01  0.34332798475E+03  0.36605843431E+03  0.12500198731E+03 0.  0.
          5    1    3    3  502    0  0.25327915611E+02 -0.25787695620E+02  0.34975671825E+03  0.35165090717E+03  0.47000000000E+01 0.  1.
         -5    1    3    3    0  502 -0.47612916929E+02  0.27385852152E+02  0.85363444205E+02  0.10161684094E+03  0.47000000000E+01 0.  1.
          5    1    4    4  503    0  0.50212776748E+02 -0.44786627238E+02  0.12868636316E+03  0.14529086342E+03  0.47000000000E+01 0.  1.
         -5    1    4    4    0  503 -0.27927775430E+02  0.43188470705E+02  0.21464162159E+03  0.22076757090E+03  0.47000000000E+01 0.  1.
<mgrwt>
<rscale>  0 0.12698042E+03</rscale>
<asrwt>0</asrwt>
<pdfrwt beam="2">  1        5 0.31444639E-02 0.12698296E+03</pdfrwt>
<pdfrwt beam="1">  1       -5 0.12290573E+00 0.12698296E+03</pdfrwt>
<totfact> 0.18658462E+02</totfact>
</mgrwt>
</event>
<event>
 8    1  0.3542708E-007  0.1285708E+03  0.7546771E-02  0.1229598E+00
          5   -1    0    0  501    0  0.00000000000E+00  0.00000000000E+00  0.90326370821E+02  0.90448566963E+02  0.47000000000E+01 0.  1.
         -5   -1    0    0    0  501 -0.00000000000E+00 -0.00000000000E+00 -0.18312176991E+03  0.18318207504E+03  0.47000000000E+01 0.  1.
         25    2    1    2    0    0  0.69931514897E+01  0.29262028496E+02 -0.39904987276E+02  0.13460597512E+03  0.12498475927E+03 0.  0.
         25    2    1    2    0    0 -0.69931514897E+01 -0.29262028496E+02 -0.52890411817E+02  0.13902466688E+03  0.12500116744E+03 0.  0.
          5    1    3    3  502    0  0.41683122338E+02  0.63285822370E+02 -0.39938362251E+02  0.85788931572E+02  0.47000000000E+01 0.  1.
         -5    1    3    3    0  502 -0.34689970848E+02 -0.34023793874E+02  0.33374975191E-01  0.48817043550E+02  0.47000000000E+01 0.  1.
          5    1    4    4  503    0  0.32971103401E+02 -0.65529720456E+02 -0.38474681537E+02  0.82967638522E+02  0.47000000000E+01 0.  1.
         -5    1    4    4    0  503 -0.39964254890E+02  0.36267691960E+02 -0.14415730280E+02  0.56057028360E+02  0.47000000000E+01 0.  1.
<mgrwt>
<rscale>  0 0.12856686E+03</rscale>
<asrwt>0</asrwt>
<pdfrwt beam="1">  1        5 0.13910403E-01 0.12857085E+03</pdfrwt>
<pdfrwt beam="2">  1       -5 0.28186618E-01 0.12857085E+03</pdfrwt>
<totfact> 0.38522091E+02</totfact>
</mgrwt>
</event>
<event>
 8    1  0.3542708E-007  0.1344629E+03  0.7546771E-02  0.1220981E+00
          5   -1    0    0  501    0  0.00000000000E+00  0.00000000000E+00  0.64769781439E+02  0.64940084599E+02  0.47000000000E+01 0. -1.
         -5   -1    0    0    0  501 -0.00000000000E+00 -0.00000000000E+00 -0.29921450155E+03  0.29925141259E+03  0.47000000000E+01 0. -1.
         25    2    1    2    0    0  0.38196075081E+02  0.31532288673E+02 -0.16501959830E+03  0.21286360485E+03  0.12500488417E+03 0.  0.
         25    2    1    2    0    0 -0.38196075081E+02 -0.31532288673E+02 -0.69425121812E+02  0.15132789234E+03  0.12500823205E+03 0.  0.
          5    1    4    4  502    0 -0.41680849477E+02 -0.84320325729E+01 -0.10220672648E+03  0.11080025869E+03  0.47000000000E+01 0. -1.
         -5    1    4    4    0  502  0.34847743960E+01 -0.23100256100E+02  0.32781604673E+02  0.40527633652E+02  0.47000000000E+01 0. -1.
          5    1    3    3  503    0  0.74024038087E+02 -0.98119669165E+01 -0.12197237347E+03  0.14309151896E+03  0.47000000000E+01 0.  1.
         -5    1    3    3    0  503 -0.35827963006E+02  0.41344255589E+02 -0.43047224830E+02  0.69772085886E+02  0.47000000000E+01 0.  1.
<mgrwt>
<rscale>  0 0.13446217E+03</rscale>
<asrwt>0</asrwt>
<pdfrwt beam="1">  1        5 0.99805215E-02 0.13446294E+03</pdfrwt>
<pdfrwt beam="2">  1       -5 0.46048939E-01 0.13446294E+03</pdfrwt>
<totfact> 0.26212167E+02</totfact>
</mgrwt>
</event>
<event>
 8    1  0.3542708E-007  0.1253006E+03  0.7546771E-02  0.1234603E+00
         -5   -1    0    0    0  501 -0.00000000000E+00  0.00000000000E+00  0.43638573141E+03  0.43641104085E+03  0.47000000000E+01 0.  1.
          5   -1    0    0  501    0  0.00000000000E+00 -0.00000000000E+00 -0.37515417335E+02  0.37808683365E+02  0.47000000000E+01 0.  1.
         25    2    1    2    0    0 -0.84630950423E+01 -0.16734584157E+01  0.24998462683E+03  0.27962930157E+03  0.12500323279E+03 0.  0.
         25    2    1    2    0    0  0.84630950423E+01  0.16734584157E+01  0.14888568724E+03  0.19459042264E+03  0.12499624105E+03 0.  0.
          5    1    3    3  502    0  0.42265979702E+02 -0.39309368988E+02  0.15497381922E+03  0.16544066662E+03  0.47000000000E+01 0.  1.
         -5    1    3    3    0  502 -0.50729074745E+02  0.37635910572E+02  0.95010807609E+02  0.11418863495E+03  0.47000000000E+01 0.  1.
          5    1    4    4  503    0  0.17365794556E+02 -0.53236328894E+02  0.31054444588E+02  0.64203941182E+02  0.47000000000E+01 0.  1.
         -5    1    4    4    0  503 -0.89026995136E+01  0.54909787310E+02  0.11783124266E+03  0.13038648146E+03  0.47000000000E+01 0.  1.
<mgrwt>
<rscale>  0 0.12529883E+03</rscale>
<asrwt>0</asrwt>
<pdfrwt beam="2">  1        5 0.57961084E-02 0.12530057E+03</pdfrwt>
<pdfrwt beam="1">  1       -5 0.67160773E-01 0.12530057E+03</pdfrwt>
<totfact> 0.28634498E+02</totfact>
</mgrwt>
</event>
<event>
 8    1  0.3542708E-007  0.1671916E+03  0.7546771E-02  0.1180809E+00
          5   -1    0    0  501    0  0.00000000000E+00  0.00000000000E+00  0.27399902340E+02  0.27800083601E+02  0.47000000000E+01 0. -1.
         -5   -1    0    0    0  501 -0.00000000000E+00 -0.00000000000E+00 -0.12788849465E+04  0.12788935829E+04  0.47000000000E+01 0. -1.
         25    2    1    2    0    0 -0.36746658238E+01 -0.11096927081E+03 -0.92394612990E+03  0.93895127510E+03  0.12500145526E+03 0.  0.
         25    2    1    2    0    0  0.36746658238E+01  0.11096927081E+03 -0.32753891424E+03  0.36774239139E+03  0.12500017538E+03 0.  0.
          5    1    4    4  502    0  0.41884701726E+02  0.22159123608E+02 -0.33607091199E+02  0.58282772554E+02  0.47000000000E+01 0. -1.
         -5    1    4    4    0  502 -0.38210035903E+02  0.88810147203E+02 -0.29393182305E+03  0.30945961883E+03  0.47000000000E+01 0. -1.
          5    1    3    3  503    0  0.42739041917E+02 -0.13547048537E+02 -0.47752999915E+03  0.47965314376E+03  0.47000000000E+01 0.  1.
         -5    1    3    3    0  503 -0.46413707740E+02 -0.97422222273E+02 -0.44641613076E+03  0.45929813135E+03  0.47000000000E+01 0.  1.
<mgrwt>
<rscale>  0 0.16719141E+03</rscale>
<asrwt>0</asrwt>
<pdfrwt beam="1">  1        5 0.42468181E-02 0.16719164E+03</pdfrwt>
<pdfrwt beam="2">  1       -5 0.19678293E+00 0.16719164E+03</pdfrwt>
<totfact> 0.33334463E+01</totfact>
</mgrwt>
</event>
<event>
 8    1  0.3542708E-007  0.1520174E+03  0.7546771E-02  0.1198017E+00
         -5   -1    0    0    0  501 -0.00000000000E+00  0.00000000000E+00  0.16228506993E+03  0.16235311491E+03  0.47000000000E+01 0.  1.
          5   -1    0    0  501    0  0.00000000000E+00 -0.00000000000E+00 -0.17340658744E+03  0.17347026998E+03  0.47000000000E+01 0.  1.
         25    2    1    2    0    0  0.78401958216E+02  0.36574946554E+02  0.65575917223E+02  0.16555816310E+03  0.12499884272E+03 0.  0.
         25    2    1    2    0    0 -0.78401958216E+02 -0.36574946554E+02 -0.76697434739E+02  0.17026522179E+03  0.12499262174E+03 0.  0.
          5    1    3    3  502    0  0.16531969467E+00  0.67537209956E+02  0.31216261253E+02  0.74550969315E+02  0.47000000000E+01 0. -1.
         -5    1    3    3    0  502  0.78236638521E+02 -0.30962263402E+02  0.34359655969E+02  0.91007193784E+02  0.47000000000E+01 0. -1.
          5    1    4    4  503    0  0.28505947551E+02  0.15079911915E+02 -0.22884865726E+02  0.39822102763E+02  0.47000000000E+01 0.  1.
         -5    1    4    4    0  503 -0.10690790577E+03 -0.51654858469E+02 -0.53812569012E+02  0.13044311903E+03  0.47000000000E+01 0.  1.
<mgrwt>
<rscale>  0 0.15201617E+03</rscale>
<asrwt>0</asrwt>
<pdfrwt beam="2">  1        5 0.26688069E-01 0.15201745E+03</pdfrwt>
<pdfrwt beam="1">  1       -5 0.24977067E-01 0.15201745E+03</pdfrwt>
<totfact> 0.15321670E+02</totfact>
</mgrwt>
</event>
<event>
 8    1  0.3542708E-007  0.1943608E+03  0.7546771E-02  0.1154588E+00
          5   -1    0    0  501    0  0.00000000000E+00  0.00000000000E+00  0.43485993732E+02  0.43739246117E+02  0.47000000000E+01 0. -1.
         -5   -1    0    0    0  501 -0.00000000000E+00 -0.00000000000E+00 -0.86865208435E+03  0.86866479936E+03  0.47000000000E+01 0. -1.
         25    2    1    2    0    0 -0.81015248097E+02  0.12483747568E+03 -0.43836124737E+03  0.47951716148E+03  0.12501303609E+03 0.  0.
         25    2    1    2    0    0  0.81015248097E+02 -0.12483747568E+03 -0.38680484324E+03  0.43288688400E+03  0.12500080729E+03 0.  0.
          5    1    3    3  502    0 -0.11342708917E+02  0.79742619730E+02 -0.87825479475E+02  0.11925999871E+03  0.47000000000E+01 0. -1.
         -5    1    3    3    0  502 -0.69672539181E+02  0.45094855955E+02 -0.35053576790E+03  0.36025716277E+03  0.47000000000E+01 0. -1.
          5    1    4    4  503    0 -0.20540705327E+02 -0.72068409976E+02 -0.20153228886E+03  0.21506540806E+03  0.47000000000E+01 0.  1.
         -5    1    4    4    0  503  0.10155595342E+03 -0.52769065709E+02 -0.18527255438E+03  0.21782147594E+03  0.47000000000E+01 0.  1.
<mgrwt>
<rscale>  0 0.19435884E+03</rscale>
<asrwt>0</asrwt>
<pdfrwt beam="1">  1        5 0.67106125E-02 0.19436081E+03</pdfrwt>
<pdfrwt beam="2">  1       -5 0.13365923E+00 0.19436081E+03</pdfrwt>
<totfact> 0.48469809E+01</totfact>
</mgrwt>
</event>
<event>
 8    1  0.3542708E-007  0.1420107E+03  0.7546771E-02  0.1210651E+00
          5   -1    0    0  501    0  0.00000000000E+00  0.00000000000E+00  0.24716959549E+02  0.25159850742E+02  0.47000000000E+01 0. -1.
         -5   -1    0    0    0  501 -0.00000000000E+00 -0.00000000000E+00 -0.83051815367E+03  0.83053145249E+03  0.47000000000E+01 0. -1.
         25    2    1    2    0    0 -0.56977901296E+02 -0.35974711105E+02 -0.47304406907E+03  0.49390052207E+03  0.12500549325E+03 0.  0.
         25    2    1    2    0    0  0.56977901296E+02  0.35974711105E+02 -0.33275712505E+03  0.36179078116E+03  0.12499841593E+03 0.  0.
          5    1    3    3  502    0 -0.47105977430E+02 -0.77205518773E+02 -0.39189796256E+03  0.40222601643E+03  0.47000000000E+01 0. -1.
         -5    1    3    3    0  502 -0.98719238665E+01  0.41230807668E+02 -0.81146106514E+02  0.91674505639E+02  0.47000000000E+01 0. -1.
          5    1    4    4  503    0 -0.17165878806E+02  0.42723728427E+02 -0.23115819760E+03  0.23574602156E+03  0.47000000000E+01 0.  1.
         -5    1    4    4    0  503  0.74143780102E+02 -0.67490173211E+01 -0.10159892745E+03  0.12604475960E+03  0.47000000000E+01 0.  1.
<mgrwt>
<rscale>  0 0.14200913E+03</rscale>
<asrwt>0</asrwt>
<pdfrwt beam="1">  1        5 0.38377013E-02 0.14201068E+03</pdfrwt>
<pdfrwt beam="2">  1       -5 0.12780709E+00 0.14201068E+03</pdfrwt>
<totfact> 0.12656457E+02</totfact>
</mgrwt>
</event>
<event>
 8    1  0.3542708E-007  0.1333314E+03  0.7546771E-02  0.1222598E+00
         -5   -1    0    0    0  501 -0.00000000000E+00  0.00000000000E+00  0.89907632979E+02  0.90030397466E+02  0.47000000000E+01 0. -1.
          5   -1    0    0  501    0  0.00000000000E+00 -0.00000000000E+00 -0.20052028829E+03  0.20057536244E+03  0.47000000000E+01 0. -1.
         25    2    1    2    0    0  0.24381801404E+02 -0.39434190651E+02 -0.37265309951E+02  0.13843123863E+03  0.12499990749E+03 0.  0.
         25    2    1    2    0    0 -0.24381801404E+02  0.39434190651E+02 -0.73347345363E+02  0.15217452127E+03  0.12501089641E+03 0.  0.
          5    1    4    4  502    0  0.35450673611E+02  0.54934530881E+02 -0.15428237082E+02  0.67339983977E+02  0.47000000000E+01 0.  1.
         -5    1    4    4    0  502 -0.59832475016E+02 -0.15500340230E+02 -0.57919108280E+02  0.84834537293E+02  0.47000000000E+01 0.  1.
          5    1    3    3  503    0 -0.49888237044E+02 -0.25860031609E+02 -0.64770479390E+01  0.56759312718E+02  0.47000000000E+01 0. -1.
         -5    1    3    3    0  503  0.74270038449E+02 -0.13574159042E+02 -0.30788262011E+02  0.81671925914E+02  0.47000000000E+01 0. -1.
<mgrwt>
<rscale>  0 0.13332879E+03</rscale>
<asrwt>0</asrwt>
<pdfrwt beam="2">  1        5 0.30862955E-01 0.13333136E+03</pdfrwt>
<pdfrwt beam="1">  1       -5 0.13845624E-01 0.13333136E+03</pdfrwt>
<totfact> 0.32963775E+02</totfact>
</mgrwt>
</event>
<event>
 8    1  0.3542708E-007  0.1290211E+03  0.7546771E-02  0.1228916E+00
         -5   -1    0    0    0  501 -0.00000000000E+00  0.00000000000E+00  0.38779580765E+02  0.39063357310E+02  0.47000000000E+01 0.  1.
          5   -1    0    0  501    0  0.00000000000E+00 -0.00000000000E+00 -0.45097881512E+03  0.45100330562E+03  0.47000000000E+01 0.  1.
         25    2    1    2    0    0 -0.30366817686E+02 -0.99522291499E+01 -0.15007596240E+03  0.19791078609E+03  0.12499877712E+03 0.  0.
         25    2    1    2    0    0  0.30366817686E+02  0.99522291499E+01 -0.26212327195E+03  0.29215587684E+03  0.12500102476E+03 0.  0.
          5    1    3    3  502    0 -0.39169670254E+00  0.40656372714E+02 -0.49248544464E+01  0.41224243594E+02  0.47000000000E+01 0.  1.
         -5    1    3    3    0  502 -0.29975120984E+02 -0.50608601864E+02 -0.14515110795E+03  0.15668654250E+03  0.47000000000E+01 0.  1.
          5    1    4    4  503    0  0.51148188412E+02  0.57958285137E+01 -0.31538614717E+02  0.60551655834E+02  0.47000000000E+01 0.  1.
         -5    1    4    4    0  503 -0.20781370726E+02  0.41564006362E+01 -0.23058465724E+03  0.23160422101E+03  0.47000000000E+01 0.  1.
<mgrwt>
<rscale>  0 0.12902057E+03</rscale>
<asrwt>0</asrwt>
<pdfrwt beam="2">  1        5 0.69405065E-01 0.12902111E+03</pdfrwt>
<pdfrwt beam="1">  1       -5 0.59898025E-02 0.12902111E+03</pdfrwt>
<totfact> 0.25445162E+02</totfact>
</mgrwt>
</event>
<event>
 8    1  0.3542708E-007  0.1484409E+03  0.7546771E-02  0.1202404E+00
          5   -1    0    0  501    0  0.00000000000E+00  0.00000000000E+00  0.77446981413E+02  0.77589464040E+02  0.47000000000E+01 0.  1.
         -5   -1    0    0    0  501 -0.00000000000E+00 -0.00000000000E+00 -0.28413134511E+03  0.28417021532E+03  0.47000000000E+01 0.  1.
         25    2    1    2    0    0 -0.50363932574E+02 -0.62232562702E+02 -0.10586504135E+03  0.18231822337E+03  0.12499243988E+03 0.  0.
         25    2    1    2    0    0  0.50363932574E+02  0.62232562702E+02 -0.10081932235E+03  0.17944145600E+03  0.12500113122E+03 0.  0.
          5    1    4    4  502    0  0.18171373164E+02 -0.28756811729E+02 -0.70076370492E+02  0.78038072278E+02  0.47000000000E+01 0. -1.
         -5    1    4    4    0  502  0.32192559410E+02  0.90989374430E+02 -0.30742951855E+02  0.10140338372E+03  0.47000000000E+01 0. -1.
          5    1    3    3  503    0  0.94917014805E+00 -0.42725379331E+02  0.18109501222E+02  0.46651934553E+02  0.47000000000E+01 0.  1.
         -5    1    3    3    0  503 -0.51313102722E+02 -0.19507183370E+02 -0.12397454257E+03  0.13566628881E+03  0.47000000000E+01 0.  1.
<mgrwt>
<rscale>  0 0.14843907E+03</rscale>
<asrwt>0</asrwt>
<pdfrwt beam="1">  1        5 0.11928871E-01 0.14844090E+03</pdfrwt>
<pdfrwt beam="2">  1       -5 0.43726464E-01 0.14844090E+03</pdfrwt>
<totfact> 0.22057421E+02</totfact>
</mgrwt>
</event>
<event>
 8    1  0.3542708E-007  0.1528294E+03  0.7546771E-02  0.1197048E+00
          5   -1    0    0  501    0  0.00000000000E+00  0.00000000000E+00  0.23435124629E+03  0.23439837167E+03  0.47000000000E+01 0.  1.
         -5   -1    0    0    0  501 -0.00000000000E+00 -0.00000000000E+00 -0.11589446586E+03  0.11598972893E+03  0.47000000000E+01 0.  1.
         25    2    1    2    0    0 -0.36334553449E+02 -0.80076023193E+02 -0.65607323893E+01  0.15293883726E+03  0.12495949531E+03 0.  0.
         25    2    1    2    0    0  0.36334553449E+02  0.80076023193E+02  0.12501751282E+03  0.19744926334E+03  0.12499785524E+03 0.  0.
          5    1    4    4  502    0  0.41244721775E+02  0.11160134831E+02  0.12063016996E+03  0.12806015613E+03  0.47000000000E+01 0. -1.
         -5    1    4    4    0  502 -0.49101683255E+01  0.68915888362E+02  0.43873428647E+01  0.69389107208E+02  0.47000000000E+01 0. -1.
          5    1    3    3  503    0 -0.74545601200E+01 -0.23821212077E+01  0.51067476589E+02  0.51876990402E+02  0.47000000000E+01 0.  1.
         -5    1    3    3    0  503 -0.28879993329E+02 -0.77693901986E+02 -0.57628208978E+02  0.10106184686E+03  0.47000000000E+01 0.  1.
<mgrwt>
<rscale>  0 0.15282158E+03</rscale>
<asrwt>0</asrwt>
<pdfrwt beam="1">  1        5 0.36064990E-01 0.15282942E+03</pdfrwt>
<pdfrwt beam="2">  1       -5 0.17840871E-01 0.15282942E+03</pdfrwt>
<totfact> 0.15947713E+02</totfact>
</mgrwt>
</event>
<event>
 8    1  0.3542708E-007  0.1303457E+03  0.7546771E-02  0.1226954E+00
         -5   -1    0    0    0  501 -0.00000000000E+00  0.00000000000E+00  0.69220762344E+03  0.69222357945E+03  0.47000000000E+01 0. -1.
          5   -1    0    0  501    0  0.00000000000E+00 -0.00000000000E+00 -0.24347080466E+02  0.24796578942E+02  0.47000000000E+01 0. -1.
         25    2    1    2    0    0 -0.30560116208E+01 -0.36732344029E+02  0.34985777476E+03  0.37334043686E+03  0.12499605967E+03 0.  0.
         25    2    1    2    0    0  0.30560116208E+01  0.36732344029E+02  0.31800276821E+03  0.34367972153E+03  0.12502554177E+03 0.  0.
          5    1    4    4  502    0  0.54439793603E+01 -0.38891180166E+02  0.43014255245E+02  0.58433525995E+02  0.47000000000E+01 0.  1.
         -5    1    4    4    0  502 -0.23879677395E+01  0.75623524195E+02  0.27498851297E+03  0.28524619553E+03  0.47000000000E+01 0.  1.
          5    1    3    3  503    0 -0.28747065987E+02 -0.74759722356E+02  0.17528984626E+03  0.19277974502E+03  0.47000000000E+01 0. -1.
         -5    1    3    3    0  503  0.25691054366E+02  0.38027378327E+02  0.17456792850E+03  0.18056069184E+03  0.47000000000E+01 0. -1.
<mgrwt>
<rscale>  0 0.13033859E+03</rscale>
<asrwt>0</asrwt>
<pdfrwt beam="2">  1        5 0.37815096E-02 0.13034566E+03</pdfrwt>
<pdfrwt beam="1">  1       -5 0.10652927E+00 0.13034566E+03</pdfrwt>
<totfact> 0.19972323E+02</totfact>
</mgrwt>
</event>
<event>
 8    1  0.3542708E-007  0.1566184E+03  0.7546771E-02  0.1192568E+00
         -5   -1    0    0    0  501 -0.00000000000E+00  0.00000000000E+00  0.50715657429E+03  0.50717835211E+03  0.47000000000E+01 0. -1.
          5   -1    0    0  501    0  0.00000000000E+00 -0.00000000000E+00 -0.53574148684E+02  0.53779916393E+02  0.47000000000E+01 0. -1.
         25    2    1    2    0    0  0.89266403666E+02 -0.30574628867E+02  0.31518766068E+03  0.35195538923E+03  0.12500414318E+03 0.  0.
         25    2    1    2    0    0 -0.89266403666E+02  0.30574628867E+02  0.13839476493E+03  0.20900287927E+03  0.12500317528E+03 0.  0.
          5    1    4    4  502    0 -0.10966719020E+01 -0.42009684006E+02  0.35518537249E+02  0.55223842024E+02  0.47000000000E+01 0. -1.
         -5    1    4    4    0  502 -0.88169731764E+02  0.72584312873E+02  0.10287622768E+03  0.15377903725E+03  0.47000000000E+01 0. -1.
          5    1    3    3  503    0  0.60476505333E+01 -0.11642789024E+02 -0.90657611018E+01  0.16625481575E+02  0.47000000000E+01 0. -1.
         -5    1    3    3    0  503  0.83218753132E+02 -0.18931839843E+02  0.32425342178E+03  0.33532990766E+03  0.47000000000E+01 0. -1.
<mgrwt>
<rscale>  0 0.15661824E+03</rscale>
<asrwt>0</asrwt>
<pdfrwt beam="2">  1        5 0.82596798E-02 0.15661844E+03</pdfrwt>
<pdfrwt beam="1">  1       -5 0.78041596E-01 0.15661844E+03</pdfrwt>
<totfact> 0.12028943E+02</totfact>
</mgrwt>
</event>
<event>
 8    1  0.3542708E-007  0.1351984E+03  0.7546771E-02  0.1219960E+00
         -5   -1    0    0    0  501 -0.00000000000E+00  0.00000000000E+00  0.27651950949E+04  0.27651990892E+04  0.47000000000E+01 0. -1.
          5   -1    0    0  501    0  0.00000000000E+00 -0.00000000000E+00 -0.67113693804E+01  0.81934412160E+01  0.47000000000E+01 0. -1.
         25    2    1    2    0    0  0.41801061003E+02  0.30174854337E+02  0.18473930130E+04  0.18523335404E+04  0.12498299780E+03 0.  0.
         25    2    1    2    0    0 -0.41801061003E+02 -0.30174854337E+02  0.91109071252E+03  0.92105899004E+03  0.12492208037E+03 0.  0.
          5    1    3    3  502    0  0.33399692976E+02 -0.21199655270E+02  0.19072429758E+03  0.19484047979E+03  0.47000000000E+01 0. -1.
         -5    1    3    3    0  502  0.84013680268E+01  0.51374509607E+02  0.16566687154E+04  0.16574930606E+04  0.47000000000E+01 0. -1.
          5    1    4    4  503    0 -0.90592033263E+01 -0.26068822681E+01  0.82240686923E+03  0.82247432395E+03  0.47000000000E+01 0. -1.
         -5    1    4    4    0  503 -0.32741857676E+02 -0.27567972069E+02  0.88683843287E+02  0.98584666091E+02  0.47000000000E+01 0. -1.
<mgrwt>
<rscale>  0 0.13518429E+03</rscale>
<asrwt>0</asrwt>
<pdfrwt beam="2">  1        5 0.11468327E-02 0.13519837E+03</pdfrwt>
<pdfrwt beam="1">  1       -5 0.42552835E+00 0.13519837E+03</pdfrwt>
<totfact> 0.79559166E+00</totfact>
</mgrwt>
</event>
<event>
 8    1  0.3542708E-007  0.1751370E+03  0.7546771E-02  0.1172596E+00
          5   -1    0    0  501    0  0.00000000000E+00  0.00000000000E+00  0.10645422514E+03  0.10655792814E+03  0.47000000000E+01 0. -1.
         -5   -1    0    0    0  501 -0.00000000000E+00 -0.00000000000E+00 -0.31265034885E+03  0.31268567386E+03  0.47000000000E+01 0. -1.
         25    2    1    2    0    0  0.28842445215E+02  0.11922019572E+03 -0.16211406699E+03  0.23865024623E+03  0.12501050994E+03 0.  0.
         25    2    1    2    0    0 -0.28842445215E+02 -0.11922019572E+03 -0.44082056728E+02  0.18059335577E+03  0.12500156282E+03 0.  0.
          5    1    4    4  502    0 -0.46053698938E+02  0.76340040130E+01 -0.14662276223E+02  0.49155808886E+02  0.47000000000E+01 0. -1.
         -5    1    4    4    0  502  0.17211253723E+02 -0.12685419974E+03 -0.29419780505E+02  0.13143754688E+03  0.47000000000E+01 0. -1.
          5    1    3    3  503    0 -0.18733417644E+02  0.27187491284E+01 -0.92956706972E+02  0.94980902841E+02  0.47000000000E+01 0. -1.
         -5    1    3    3    0  503  0.47575862859E+02  0.11650144659E+03 -0.69157360016E+02  0.14366934339E+03  0.47000000000E+01 0. -1.
<mgrwt>
<rscale>  0 0.17513540E+03</rscale>
<asrwt>0</asrwt>
<pdfrwt beam="1">  1        5 0.16388268E-01 0.17513700E+03</pdfrwt>
<pdfrwt beam="2">  1       -5 0.48110748E-01 0.17513700E+03</pdfrwt>
<totfact> 0.10719752E+02</totfact>
</mgrwt>
</event>
<event>
 8    1  0.3542708E-007  0.1289801E+03  0.7546771E-02  0.1228982E+00
          5   -1    0    0  501    0  0.00000000000E+00  0.00000000000E+00  0.27318180458E+02  0.27719541546E+02  0.47000000000E+01 0. -1.
         -5   -1    0    0    0  501 -0.00000000000E+00 -0.00000000000E+00 -0.61660891955E+03  0.61662683178E+03  0.47000000000E+01 0. -1.
         25    2    1    2    0    0 -0.31806114957E+02  0.55811523053E+00 -0.34062891913E+03  0.36423059304E+03  0.12499569560E+03 0.  0.
         25    2    1    2    0    0  0.31806114957E+02 -0.55811523053E+00 -0.24866181996E+03  0.28011578028E+03  0.12498083539E+03 0.  0.
          5    1    4    4  502    0  0.12447726333E+02 -0.43727834694E+02 -0.26312198145E+02  0.52739844417E+02  0.47000000000E+01 0. -1.
         -5    1    4    4    0  502  0.19358388624E+02  0.43169719464E+02 -0.22234962181E+03  0.22737593586E+03  0.47000000000E+01 0. -1.
          5    1    3    3  503    0 -0.54334067869E+02  0.12794896238E+01 -0.33643302131E+03  0.34082707617E+03  0.47000000000E+01 0. -1.
         -5    1    3    3    0  503  0.22527952912E+02 -0.72137439326E+00 -0.41958978227E+01  0.23403516872E+02  0.47000000000E+01 0. -1.
<mgrwt>
<rscale>  0 0.12897649E+03</rscale>
<asrwt>0</asrwt>
<pdfrwt beam="1">  1        5 0.42350493E-02 0.12898009E+03</pdfrwt>
<pdfrwt beam="2">  1       -5 0.94895152E-01 0.12898009E+03</pdfrwt>
<totfact> 0.21905145E+02</totfact>
</mgrwt>
</event>
<event>
 8    1  0.3542708E-007  0.1367358E+03  0.7546771E-02  0.1217794E+00
         -5   -1    0    0    0  501 -0.00000000000E+00  0.00000000000E+00  0.25042371987E+03  0.25046782124E+03  0.47000000000E+01 0. -1.
          5   -1    0    0  501    0  0.00000000000E+00 -0.00000000000E+00 -0.75351375501E+02  0.75497813146E+02  0.47000000000E+01 0. -1.
         25    2    1    2    0    0  0.29928828735E+02  0.46632914097E+02  0.10453587393E+03  0.17210835327E+03  0.12499269122E+03 0.  0.
         25    2    1    2    0    0 -0.29928828735E+02 -0.46632914097E+02  0.70536470442E+02  0.15385728112E+03  0.12500522319E+03 0.  0.
          5    1    3    3  502    0  0.77898971996E+02  0.28078985209E+02  0.49285182052E+02  0.96476932053E+02  0.47000000000E+01 0.  1.
         -5    1    3    3    0  502 -0.47970143261E+02  0.18553928888E+02  0.55250691879E+02  0.75631421214E+02  0.47000000000E+01 0.  1.
          5    1    4    4  503    0  0.43293364312E+02 -0.29836921958E+02  0.32376473399E+01  0.52887897157E+02  0.47000000000E+01 0. -1.
         -5    1    4    4    0  503 -0.73222193046E+02 -0.16795992139E+02  0.67298823102E+02  0.10096938396E+03  0.47000000000E+01 0. -1.
<mgrwt>
<rscale>  0 0.13673290E+03</rscale>
<asrwt>0</asrwt>
<pdfrwt beam="2">  1        5 0.11607176E-01 0.13673576E+03</pdfrwt>
<pdfrwt beam="1">  1       -5 0.38541383E-01 0.13673576E+03</pdfrwt>
<totfact> 0.29187762E+02</totfact>
</mgrwt>
</event>
<event>
 8    1  0.3542708E-007  0.1306806E+03  0.7546771E-02  0.1226458E+00
         -5   -1    0    0    0  501 -0.00000000000E+00  0.00000000000E+00  0.16763372005E+03  0.16769959481E+03  0.47000000000E+01 0.  1.
          5   -1    0    0  501    0  0.00000000000E+00 -0.00000000000E+00 -0.10244526628E+03  0.10255302328E+03  0.47000000000E+01 0.  1.
         25    2    1    2    0    0 -0.20920989737E+01  0.38074532109E+02  0.21186473718E+02  0.13236278991E+03  0.12496797434E+03 0.  0.
         25    2    1    2    0    0  0.20920989737E+01 -0.38074532109E+02  0.44001980052E+02  0.13788982818E+03  0.12499353421E+03 0.  0.
          5    1    4    4  502    0  0.55390965660E+02 -0.39772830302E+02 -0.37693527057E+00  0.68353999058E+02  0.47000000000E+01 0.  1.
         -5    1    4    4    0  502 -0.53298866687E+02  0.16982981928E+01  0.44378915323E+02  0.69535829125E+02  0.47000000000E+01 0.  1.
          5    1    3    3  503    0  0.38474557302E+02  0.61552766351E+02 -0.13346969743E+02  0.73954487399E+02  0.47000000000E+01 0.  1.
         -5    1    3    3    0  503 -0.40566656276E+02 -0.23478234242E+02  0.34533443461E+02  0.58408302508E+02  0.47000000000E+01 0.  1.
<mgrwt>
<rscale>  0 0.13067453E+03</rscale>
<asrwt>0</asrwt>
<pdfrwt beam="2">  1        5 0.15774167E-01 0.13068064E+03</pdfrwt>
<pdfrwt beam="1">  1       -5 0.25803159E-01 0.13068064E+03</pdfrwt>
<totfact> 0.36630053E+02</totfact>
</mgrwt>
</event>
<event>
 8    1  0.3542708E-007  0.1309261E+03  0.7546771E-02  0.1226116E+00
         -5   -1    0    0    0  501 -0.00000000000E+00  0.00000000000E+00  0.49206725269E+02  0.49430676829E+02  0.47000000000E+01 0. -1.
          5   -1    0    0  501    0  0.00000000000E+00 -0.00000000000E+00 -0.35907104717E+03  0.35910180578E+03  0.47000000000E+01 0. -1.
         25    2    1    2    0    0  0.24303924590E+02 -0.30433030164E+02 -0.11765191796E+03  0.17596579355E+03  0.12492052123E+03 0.  0.
         25    2    1    2    0    0 -0.24303924590E+02  0.30433030164E+02 -0.19221240394E+03  0.23256668906E+03  0.12499922622E+03 0.  0.
          5    1    4    4  502    0 -0.60479984623E+02 -0.12670697093E+02 -0.50245420839E+02  0.79781372639E+02  0.47000000000E+01 0. -1.
         -5    1    4    4    0  502  0.36176060033E+02  0.43103727257E+02 -0.14196698310E+03  0.15278531642E+03  0.47000000000E+01 0. -1.
          5    1    3    3  503    0 -0.39196003699E+02 -0.47930179787E+02 -0.74938188963E+02  0.97321380001E+02  0.47000000000E+01 0.  1.
         -5    1    3    3    0  503  0.63499928289E+02  0.17497149623E+02 -0.42713728998E+02  0.78644413550E+02  0.47000000000E+01 0.  1.
<mgrwt>
<rscale>  0 0.13090736E+03</rscale>
<asrwt>0</asrwt>
<pdfrwt beam="2">  1        5 0.55261291E-01 0.13092615E+03</pdfrwt>
<pdfrwt beam="1">  1       -5 0.75898587E-02 0.13092615E+03</pdfrwt>
<totfact> 0.28283957E+02</totfact>
</mgrwt>
</event>
<event>
 8    1  0.3542708E-007  0.1394803E+03  0.7546771E-02  0.1214032E+00
          5   -1    0    0  501    0  0.00000000000E+00  0.00000000000E+00  0.88851904136E+02  0.88976125273E+02  0.47000000000E+01 0.  1.
         -5   -1    0    0    0  501 -0.00000000000E+00 -0.00000000000E+00 -0.22082214865E+03  0.22087216061E+03  0.47000000000E+01 0.  1.
         25    2    1    2    0    0 -0.30264668983E+02  0.53959099805E+02 -0.50600093407E+02  0.14836809516E+03  0.12500075027E+03 0.  0.
         25    2    1    2    0    0  0.30264668983E+02 -0.53959099805E+02 -0.81370151104E+02  0.16148019072E+03  0.12500886314E+03 0.  0.
          5    1    3    3  502    0 -0.16858642139E+02 -0.26760769559E+02  0.22052143816E+02  0.38842497976E+02  0.47000000000E+01 0.  1.
         -5    1    3    3    0  502 -0.13406026844E+02  0.80719869364E+02 -0.72652237223E+02  0.10952559719E+03  0.47000000000E+01 0.  1.
          5    1    4    4  503    0 -0.48160160526E+02 -0.24128292993E+02 -0.21000296755E+02  0.58005844951E+02  0.47000000000E+01 0.  1.
         -5    1    4    4    0  503  0.78424829509E+02 -0.29830806812E+02 -0.60369854349E+02  0.10347434577E+03  0.47000000000E+01 0.  1.
<mgrwt>
<rscale>  0 0.13947847E+03</rscale>
<asrwt>0</asrwt>
<pdfrwt beam="1">  1        5 0.13682926E-01 0.13948029E+03</pdfrwt>
<pdfrwt beam="2">  1       -5 0.33986040E-01 0.13948029E+03</pdfrwt>
<totfact> 0.28247099E+02</totfact>
</mgrwt>
</event>
<event>
 8    1  0.3542708E-007  0.1937350E+03  0.7546771E-02  0.1155135E+00
          5   -1    0    0  501    0  0.00000000000E+00  0.00000000000E+00  0.37327813299E+02  0.37622541723E+02  0.47000000000E+01 0.  1.
         -5   -1    0    0    0  501 -0.00000000000E+00 -0.00000000000E+00 -0.10014901949E+04  0.10015012234E+04  0.47000000000E+01 0.  1.
         25    2    1    2    0    0  0.71540705738E+02  0.12957670635E+03 -0.49027506320E+03  0.52716497037E+03  0.12500029190E+03 0.  0.
         25    2    1    2    0    0 -0.71540705738E+02 -0.12957670635E+03 -0.47388731843E+03  0.51195879479E+03  0.12499768634E+03 0.  0.
          5    1    4    4  502    0 -0.16406734488E+02 -0.36217495574E+02 -0.32639799200E+03  0.32884438128E+03  0.47000000000E+01 0.  1.
         -5    1    4    4    0  502 -0.55133971251E+02 -0.93359210780E+02 -0.14748932643E+03  0.18311441351E+03  0.47000000000E+01 0.  1.
          5    1    3    3  503    0  0.12500536141E+02  0.96414157951E+02 -0.14086162568E+03  0.17121927709E+03  0.47000000000E+01 0.  1.
         -5    1    3    3    0  503  0.59040169598E+02  0.33162548403E+02 -0.34941343752E+03  0.35594569327E+03  0.47000000000E+01 0.  1.
<mgrwt>
<rscale>  0 0.19373463E+03</rscale>
<asrwt>0</asrwt>
<pdfrwt beam="1">  1        5 0.57662610E-02 0.19373505E+03</pdfrwt>
<pdfrwt beam="2">  1       -5 0.15409891E+00 0.19373505E+03</pdfrwt>
<totfact> 0.42555387E+01</totfact>
</mgrwt>
</event>
<event>
 8    1  0.3542708E-007  0.1307569E+03  0.7546771E-02  0.1226340E+00
          5   -1    0    0  501    0  0.00000000000E+00  0.00000000000E+00  0.10643350273E+03  0.10653722591E+03  0.47000000000E+01 0.  1.
         -5   -1    0    0    0  501 -0.00000000000E+00 -0.00000000000E+00 -0.17812830431E+03  0.17819029939E+03  0.47000000000E+01 0.  1.
         25    2    1    2    0    0 -0.26781035817E+02  0.27480187601E+02 -0.80725817789E+02  0.15366857198E+03  0.12499995107E+03 0.  0.
         25    2    1    2    0    0  0.26781035817E+02 -0.27480187601E+02  0.90310162151E+01  0.13105895331E+03  0.12499002120E+03 0.  0.
          5    1    3    3  502    0 -0.67333547329E+02  0.35436700738E+02 -0.17874752026E+02  0.78301744010E+02  0.47000000000E+01 0.  1.
         -5    1    3    3    0  502  0.40552511512E+02 -0.79565131368E+01 -0.62851065763E+02  0.75366827973E+02  0.47000000000E+01 0.  1.
          5    1    4    4  503    0 -0.18595293274E+02 -0.58643619444E+02 -0.24551404894E+02  0.66405726527E+02  0.47000000000E+01 0. -1.
         -5    1    4    4    0  503  0.45376329090E+02  0.31163431842E+02  0.33582421109E+02  0.64653226783E+02  0.47000000000E+01 0. -1.
<mgrwt>
<rscale>  0 0.13075455E+03</rscale>
<asrwt>0</asrwt>
<pdfrwt beam="1">  1        5 0.16387133E-01 0.13075692E+03</pdfrwt>
<pdfrwt beam="2">  1       -5 0.27417102E-01 0.13075692E+03</pdfrwt>
<totfact> 0.30405215E+02</totfact>
</mgrwt>
</event>
<event>
 8    1  0.3542708E-007  0.1322796E+03  0.7546771E-02  0.1224114E+00
          5   -1    0    0  501    0  0.00000000000E+00  0.00000000000E+00  0.15210764311E+03  0.15218023883E+03  0.47000000000E+01 0.  1.
         -5   -1    0    0    0  501 -0.00000000000E+00 -0.00000000000E+00 -0.11513905430E+03  0.11523494186E+03  0.47000000000E+01 0.  1.
         25    2    1    2    0    0 -0.25162973461E+02 -0.35212045098E+02  0.12198161485E+02  0.13284086150E+03  0.12499934395E+03 0.  0.
         25    2    1    2    0    0  0.25162973461E+02  0.35212045098E+02  0.24770427318E+02  0.13457431919E+03  0.12499443973E+03 0.  0.
          5    1    3    3  502    0  0.21388585631E+02  0.17483292223E+02 -0.37351995918E+02  0.46694739547E+02  0.47000000000E+01 0.  1.
         -5    1    3    3    0  502 -0.46551559092E+02 -0.52695337321E+02  0.49550157404E+02  0.86146121956E+02  0.47000000000E+01 0.  1.
          5    1    4    4  503    0 -0.17863256233E+02  0.53715055591E+02 -0.28446227366E+02  0.63527009781E+02  0.47000000000E+01 0.  1.
         -5    1    4    4    0  503  0.43026229694E+02 -0.18503010493E+02  0.53216654684E+02  0.71047309413E+02  0.47000000000E+01 0.  1.
<mgrwt>
<rscale>  0 0.13227847E+03</rscale>
<asrwt>0</asrwt>
<pdfrwt beam="1">  1        5 0.23414136E-01 0.13227963E+03</pdfrwt>
<pdfrwt beam="2">  1       -5 0.17726661E-01 0.13227963E+03</pdfrwt>
<totfact> 0.35785595E+02</totfact>
</mgrwt>
</event>
<event>
 8    1  0.3542708E-007  0.1297783E+03  0.7546771E-02  0.1227786E+00
         -5   -1    0    0    0  501 -0.00000000000E+00  0.00000000000E+00  0.96194043915E+02  0.96308795470E+02  0.47000000000E+01 0. -1.
          5   -1    0    0  501    0  0.00000000000E+00 -0.00000000000E+00 -0.21520819833E+03  0.21525951460E+03  0.47000000000E+01 0. -1.
         25    2    1    2    0    0  0.31639021818E+02 -0.14720847623E+02  0.79402749034E+01  0.13002101794E+03  0.12499874433E+03 0.  0.
         25    2    1    2    0    0 -0.31639021818E+02  0.14720847623E+02 -0.12695442931E+03  0.18154729213E+03  0.12499704437E+03 0.  0.
          5    1    3    3  502    0 -0.23865546389E+02  0.30609504563E+02  0.35778641891E+02  0.52997238509E+02  0.47000000000E+01 0.  1.
         -5    1    3    3    0  502  0.55504568208E+02 -0.45330352186E+02 -0.27838366987E+02  0.77023779430E+02  0.47000000000E+01 0.  1.
          5    1    4    4  503    0  0.39462860674E+00  0.52286797510E+02 -0.85687026869E+01  0.53193773990E+02  0.47000000000E+01 0. -1.
         -5    1    4    4    0  503 -0.32033650425E+02 -0.37565949887E+02 -0.11838572663E+03  0.12835351814E+03  0.47000000000E+01 0. -1.
<mgrwt>
<rscale>  0 0.12977793E+03</rscale>
<asrwt>0</asrwt>
<pdfrwt beam="2">  1        5 0.33121728E-01 0.12977834E+03</pdfrwt>
<pdfrwt beam="1">  1       -5 0.14811858E-01 0.12977834E+03</pdfrwt>
<totfact> 0.25142316E+02</totfact>
</mgrwt>
</event>
<event>
 8    1  0.3542708E-007  0.1260330E+03  0.7546771E-02  0.1233464E+00
          5   -1    0    0  501    0  0.00000000000E+00  0.00000000000E+00  0.54224003986E+03  0.54226040869E+03  0.47000000000E+01 0.  1.
         -5   -1    0    0    0  501 -0.00000000000E+00 -0.00000000000E+00 -0.32589004707E+02  0.32926178457E+02  0.47000000000E+01 0.  1.
         25    2    1    2    0    0 -0.12317571012E+02  0.10400705838E+02  0.16105049901E+03  0.20450325771E+03  0.12499768775E+03 0.  0.
         25    2    1    2    0    0  0.12317571012E+02 -0.10400705838E+02  0.34860053615E+03  0.37068332944E+03  0.12499559866E+03 0.  0.
          5    1    4    4  502    0 -0.54222242722E+02  0.11866986410E+02  0.15524068310E+03  0.16493221839E+03  0.47000000000E+01 0. -1.
         -5    1    4    4    0  502  0.66539813734E+02 -0.22267692248E+02  0.19335985304E+03  0.20575111105E+03  0.47000000000E+01 0. -1.
          5    1    3    3  503    0 -0.36744964402E+02 -0.30689067982E+00  0.17151468690E+03  0.17546983904E+03  0.47000000000E+01 0. -1.
         -5    1    3    3    0  503  0.24427393390E+02  0.10707596518E+02 -0.10464187891E+02  0.29033418663E+02  0.47000000000E+01 0. -1.
<mgrwt>
<rscale>  0 0.12603249E+03</rscale>
<asrwt>0</asrwt>
<pdfrwt beam="1">  1        5 0.83449039E-01 0.12603301E+03</pdfrwt>
<pdfrwt beam="2">  1       -5 0.50411968E-02 0.12603301E+03</pdfrwt>
<totfact> 0.22074455E+02</totfact>
</mgrwt>
</event>
<event>
 8    1  0.3542708E-007  0.1674857E+03  0.7546771E-02  0.1180496E+00
          5   -1    0    0  501    0  0.00000000000E+00  0.00000000000E+00  0.14883945253E+04  0.14884019461E+04  0.47000000000E+01 0. -1.
         -5   -1    0    0    0  501 -0.00000000000E+00 -0.00000000000E+00 -0.18800061358E+02  0.19378655966E+02  0.47000000000E+01 0. -1.
         25    2    1    2    0    0 -0.70107106014E+02 -0.86664755778E+02  0.64849892459E+03  0.66977742132E+03  0.12500061087E+03 0.  0.
         25    2    1    2    0    0  0.70107106014E+02  0.86664755778E+02  0.82109553939E+03  0.83800318070E+03  0.12500263941E+03 0.  0.
          5    1    4    4  502    0  0.24668039327E+02 -0.17827697125E+02  0.41666027199E+03  0.41779685399E+03  0.47000000000E+01 0. -1.
         -5    1    4    4    0  502  0.45439066687E+02  0.10449245290E+03  0.40443526739E+03  0.42020632671E+03  0.47000000000E+01 0. -1.
          5    1    3    3  503    0  0.32635417859E+01 -0.64683012849E+02  0.12674961769E+03  0.14241523247E+03  0.47000000000E+01 0. -1.
         -5    1    3    3    0  503 -0.73370647800E+02 -0.21981742929E+02  0.52174930690E+03  0.52736218885E+03  0.47000000000E+01 0. -1.
<mgrwt>
<rscale>  0 0.16748528E+03</rscale>
<asrwt>0</asrwt>
<pdfrwt beam="1">  1        5 0.22902888E+00 0.16748566E+03</pdfrwt>
<pdfrwt beam="2">  1       -5 0.29373949E-02 0.16748566E+03</pdfrwt>
<totfact> 0.37184600E+01</totfact>
</mgrwt>
</event>
<event>
 8    1  0.3542708E-007  0.1752915E+03  0.7546771E-02  0.1172440E+00
          5   -1    0    0  501    0  0.00000000000E+00  0.00000000000E+00  0.10300618867E+03  0.10311335948E+03  0.47000000000E+01 0.  1.
         -5   -1    0    0    0  501 -0.00000000000E+00 -0.00000000000E+00 -0.30932873504E+03  0.30936443933E+03  0.47000000000E+01 0.  1.
         25    2    1    2    0    0 -0.11973148685E+03  0.27683708104E+02 -0.14258623817E+03  0.22595851444E+03  0.12499759315E+03 0.  0.
         25    2    1    2    0    0  0.11973148685E+03 -0.27683708104E+02 -0.63736308207E+02  0.18651928438E+03  0.12500043929E+03 0.  0.
          5    1    4    4  502    0  0.40289400971E+02 -0.32355626738E+02 -0.88891346423E+02  0.10292659462E+03  0.47000000000E+01 0. -1.
         -5    1    4    4    0  502  0.79442085879E+02  0.46719186334E+01  0.25155038215E+02  0.83592689753E+02  0.47000000000E+01 0. -1.
          5    1    3    3  503    0  0.21358972776E+02  0.25996535042E+02 -0.24173108908E+02  0.41694780807E+02  0.47000000000E+01 0.  1.
         -5    1    3    3    0  503 -0.14109045963E+03  0.16871730620E+01 -0.11841312926E+03  0.18426373363E+03  0.47000000000E+01 0.  1.
<mgrwt>
<rscale>  0 0.17529104E+03</rscale>
<asrwt>0</asrwt>
<pdfrwt beam="1">  1        5 0.15858096E-01 0.17529155E+03</pdfrwt>
<pdfrwt beam="2">  1       -5 0.47600026E-01 0.17529155E+03</pdfrwt>
<totfact> 0.11647895E+02</totfact>
</mgrwt>
</event>
<event>
 8    1  0.3542708E-007  0.1285414E+03  0.7546771E-02  0.1229642E+00
         -5   -1    0    0    0  501 -0.00000000000E+00  0.00000000000E+00  0.21899704171E+02  0.22398371431E+02  0.47000000000E+01 0.  1.
          5   -1    0    0  501    0  0.00000000000E+00 -0.00000000000E+00 -0.80891625162E+03  0.80892990558E+03  0.47000000000E+01 0.  1.
         25    2    1    2    0    0  0.26412397322E+02 -0.13997346247E+02 -0.27704294600E+03  0.30540434856E+03  0.12500192701E+03 0.  0.
         25    2    1    2    0    0 -0.26412397322E+02  0.13997346247E+02 -0.50997360145E+03  0.52592392845E+03  0.12501745441E+03 0.  0.
          5    1    4    4  502    0  0.25760870900E+02 -0.42130205767E+02 -0.15506435485E+03  0.16280546936E+03  0.47000000000E+01 0. -1.
         -5    1    4    4    0  502 -0.52173268223E+02  0.56127552014E+02 -0.35490924660E+03  0.36311845909E+03  0.47000000000E+01 0. -1.
          5    1    3    3  503    0 -0.45615401042E+02  0.18364136790E+02 -0.10354962321E+03  0.11472846551E+03  0.47000000000E+01 0. -1.
         -5    1    3    3    0  503  0.72027798365E+02 -0.32361483037E+02 -0.17349332279E+03  0.19067588305E+03  0.47000000000E+01 0. -1.
<mgrwt>
<rscale>  0 0.12853767E+03</rscale>
<asrwt>0</asrwt>
<pdfrwt beam="2">  1        5 0.12448804E+00 0.12854145E+03</pdfrwt>
<pdfrwt beam="1">  1       -5 0.34085952E-02 0.12854145E+03</pdfrwt>
<totfact> 0.15910787E+02</totfact>
</mgrwt>
</event>
<event>
 8    1  0.3542708E-007  0.1573234E+03  0.7546771E-02  0.1191756E+00
          5   -1    0    0  501    0  0.00000000000E+00  0.00000000000E+00  0.86105804781E+03  0.86107087496E+03  0.47000000000E+01 0. -1.
         -5   -1    0    0    0  501 -0.00000000000E+00 -0.00000000000E+00 -0.39061684135E+02  0.39343425975E+02  0.47000000000E+01 0. -1.
         25    2    1    2    0    0  0.91734721411E+02  0.26626849815E+02  0.17831865083E+03  0.23778949222E+03  0.12498821198E+03 0.  0.
         25    2    1    2    0    0 -0.91734721411E+02 -0.26626849815E+02  0.64367771285E+03  0.66262480871E+03  0.12500556333E+03 0.  0.
          5    1    3    3  502    0  0.53419581531E+02  0.62503082628E+02  0.43717514310E+02  0.93239466356E+02  0.47000000000E+01 0. -1.
         -5    1    3    3    0  502  0.38315139880E+02 -0.35876232813E+02  0.13460113652E+03  0.14455002586E+03  0.47000000000E+01 0. -1.
          5    1    4    4  503    0 -0.11656927952E+03 -0.23834291667E+02  0.60306360608E+03  0.61470665635E+03  0.47000000000E+01 0.  1.
         -5    1    4    4    0  503  0.24834558104E+02 -0.27925581481E+01  0.40614106771E+02  0.47918152365E+02  0.47000000000E+01 0.  1.
<mgrwt>
<rscale>  0 0.15731991E+03</rscale>
<asrwt>0</asrwt>
<pdfrwt beam="1">  1        5 0.13249312E+00 0.15732336E+03</pdfrwt>
<pdfrwt beam="2">  1       -5 0.60321492E-02 0.15732336E+03</pdfrwt>
<totfact> 0.56106075E+01</totfact>
</mgrwt>
</event>
<event>
 8    1  0.3542708E-007  0.1382612E+03  0.7546771E-02  0.1215688E+00
         -5   -1    0    0    0  501 -0.00000000000E+00  0.00000000000E+00  0.63855104225E+03  0.63856833899E+03  0.47000000000E+01 0.  1.
          5   -1    0    0  501    0  0.00000000000E+00 -0.00000000000E+00 -0.79801593567E+02  0.79939879509E+02  0.47000000000E+01 0.  1.
         25    2    1    2    0    0 -0.32318600371E+01  0.58994569254E+02  0.56345171753E+03  0.58016708875E+03  0.12500083503E+03 0.  0.
         25    2    1    2    0    0  0.32318600371E+01 -0.58994569254E+02 -0.47022688438E+01  0.13834112975E+03  0.12500141090E+03 0.  0.
          5    1    3    3  502    0 -0.38791306146E+02 -0.20609326864E+02  0.11293999657E+03  0.12127259630E+03  0.47000000000E+01 0. -1.
         -5    1    3    3    0  502  0.35559446109E+02  0.79603896118E+02  0.45051172095E+03  0.45889449245E+03  0.47000000000E+01 0. -1.
          5    1    4    4  503    0  0.58619686245E+02 -0.74690665834E+01 -0.16736188869E+02  0.61597439792E+02  0.47000000000E+01 0.  1.
         -5    1    4    4    0  503 -0.55387826208E+02 -0.51525502670E+02  0.12033920026E+02  0.76743689960E+02  0.47000000000E+01 0.  1.
<mgrwt>
<rscale>  0 0.13826106E+03</rscale>
<asrwt>0</asrwt>
<pdfrwt beam="2">  1        5 0.12289136E-01 0.13826119E+03</pdfrwt>
<pdfrwt beam="1">  1       -5 0.98250589E-01 0.13826119E+03</pdfrwt>
<totfact> 0.33547760E+01</totfact>
</mgrwt>
</event>
<event>
 8    1  0.3542708E-007  0.1291514E+03  0.7546771E-02  0.1228730E+00
         -5   -1    0    0    0  501 -0.00000000000E+00  0.00000000000E+00  0.65056724418E+03  0.65058422145E+03  0.47000000000E+01 0.  1.
          5   -1    0    0  501    0  0.00000000000E+00 -0.00000000000E+00 -0.26809605704E+02  0.27218467223E+02  0.47000000000E+01 0.  1.
         25    2    1    2    0    0 -0.31841625758E+02  0.60053804478E+01  0.38889753869E+03  0.40977406776E+03  0.12499414900E+03 0.  0.
         25    2    1    2    0    0  0.31841625758E+02 -0.60053804478E+01  0.23486009978E+03  0.26802862091E+03  0.12502048405E+03 0.  0.
          5    1    4    4  502    0  0.16401922275E+02 -0.32019716916E+02  0.55737462762E+01  0.36707519301E+02  0.47000000000E+01 0. -1.
         -5    1    4    4    0  502  0.15439703483E+02  0.26014336469E+02  0.22928635350E+03  0.23132110161E+03  0.47000000000E+01 0. -1.
          5    1    3    3  503    0  0.33867195701E+02  0.18271624361E+02  0.44943894753E+02  0.59353878365E+02  0.47000000000E+01 0. -1.
         -5    1    3    3    0  503 -0.65708821459E+02 -0.12266243913E+02  0.34395364394E+03  0.35042018940E+03  0.47000000000E+01 0. -1.
<mgrwt>
<rscale>  0 0.12914499E+03</rscale>
<asrwt>0</asrwt>
<pdfrwt beam="2">  1        5 0.41573121E-02 0.12915137E+03</pdfrwt>
<pdfrwt beam="1">  1       -5 0.10012001E+00 0.12915137E+03</pdfrwt>
<totfact> 0.19852612E+02</totfact>
</mgrwt>
</event>
<event>
 8    1  0.3542708E-007  0.1267688E+03  0.7546771E-02  0.1232331E+00
         -5   -1    0    0    0  501 -0.00000000000E+00  0.00000000000E+00  0.14651003364E+03  0.14658540158E+03  0.47000000000E+01 0.  1.
          5   -1    0    0  501    0  0.00000000000E+00 -0.00000000000E+00 -0.11589012482E+03  0.11598539146E+03  0.47000000000E+01 0.  1.
         25    2    1    2    0    0 -0.20469960480E+02 -0.51393426158E+01  0.46037363621E+02  0.13486942363E+03  0.12499956182E+03 0.  0.
         25    2    1    2    0    0  0.20469960480E+02  0.51393426158E+01 -0.15417454805E+02  0.12770136941E+03  0.12499803883E+03 0.  0.
          5    1    4    4  502    0  0.57373962650E+02  0.35669700244E+02  0.16816269847E+02  0.69778048391E+02  0.47000000000E+01 0. -1.
         -5    1    4    4    0  502 -0.36904002170E+02 -0.30530357628E+02 -0.32233724652E+02  0.57923321020E+02  0.47000000000E+01 0. -1.
          5    1    3    3  503    0  0.48547215868E+02 -0.23172472476E+02  0.29345888517E+02  0.61457845895E+02  0.47000000000E+01 0.  1.
         -5    1    3    3    0  503 -0.69017176348E+02  0.18033129860E+02  0.16691475103E+02  0.73411577730E+02  0.47000000000E+01 0.  1.
<mgrwt>
<rscale>  0 0.12676840E+03</rscale>
<asrwt>0</asrwt>
<pdfrwt beam="2">  1        5 0.17842376E-01 0.12676878E+03</pdfrwt>
<pdfrwt beam="1">  1       -5 0.22553131E-01 0.12676878E+03</pdfrwt>
<totfact> 0.37370422E+02</totfact>
</mgrwt>
</event>
<event>
 8    1  0.3542708E-007  0.1323467E+03  0.7546771E-02  0.1224015E+00
          5   -1    0    0  501    0  0.00000000000E+00  0.00000000000E+00  0.21803284137E+02  0.22304107226E+02  0.47000000000E+01 0. -1.
         -5   -1    0    0    0  501 -0.00000000000E+00 -0.00000000000E+00 -0.11995604425E+04  0.11995696500E+04  0.47000000000E+01 0. -1.
         25    2    1    2    0    0 -0.19889978771E+01 -0.43431487307E+02 -0.94416796794E+03  0.95339855855E+03  0.12500163820E+03 0.  0.
         25    2    1    2    0    0  0.19889978771E+01  0.43431487307E+02 -0.23358919038E+03  0.26847519864E+03  0.12499908888E+03 0.  0.
          5    1    4    4  502    0 -0.77363419936E+00  0.73072166863E+02 -0.67232056744E+02  0.99410158103E+02  0.47000000000E+01 0. -1.
         -5    1    4    4    0  502  0.27626320765E+01 -0.29640679556E+02 -0.16635713364E+03  0.16906504054E+03  0.47000000000E+01 0. -1.
          5    1    3    3  503    0 -0.49645181238E+02 -0.20484260353E+02 -0.75489944545E+03  0.75682198150E+03  0.47000000000E+01 0. -1.
         -5    1    3    3    0  503  0.47656183361E+02 -0.22947226953E+02 -0.18926852249E+03  0.19657657705E+03  0.47000000000E+01 0. -1.
<mgrwt>
<rscale>  0 0.13234614E+03</rscale>
<asrwt>0</asrwt>
<pdfrwt beam="1">  1        5 0.33935855E-02 0.13234674E+03</pdfrwt>
<pdfrwt beam="2">  1       -5 0.18458694E+00 0.13234674E+03</pdfrwt>
<totfact> 0.54813481E+01</totfact>
</mgrwt>
</event>
<event>
 8    1  0.3542708E-007  0.1293488E+03  0.7546771E-02  0.1228430E+00
          5   -1    0    0  501    0  0.00000000000E+00  0.00000000000E+00  0.10566581065E+03  0.10577028666E+03  0.47000000000E+01 0. -1.
         -5   -1    0    0    0  501 -0.00000000000E+00 -0.00000000000E+00 -0.16857662990E+03  0.16864213634E+03  0.47000000000E+01 0. -1.
         25    2    1    2    0    0 -0.27259657683E+02 -0.19049063073E+02  0.27191792462E+01  0.12937742080E+03  0.12500066935E+03 0.  0.
         25    2    1    2    0    0  0.27259657683E+02  0.19049063073E+02 -0.65629998495E+02  0.14503500219E+03  0.12498759706E+03 0.  0.
          5    1    4    4  502    0  0.71700563729E+02 -0.14689176415E+02 -0.37557660773E+02  0.82397879982E+02  0.47000000000E+01 0. -1.
         -5    1    4    4    0  502 -0.44440906045E+02  0.33738239488E+02 -0.28072337722E+02  0.62637122213E+02  0.47000000000E+01 0. -1.
          5    1    3    3  503    0 -0.71194425723E+02 -0.31808338534E+02 -0.15970138724E+02  0.79734258542E+02  0.47000000000E+01 0. -1.
         -5    1    3    3    0  503  0.43934768040E+02  0.12759275461E+02  0.18689317971E+02  0.49643162260E+02  0.47000000000E+01 0. -1.
<mgrwt>
<rscale>  0 0.12934568E+03</rscale>
<asrwt>0</asrwt>
<pdfrwt beam="1">  1        5 0.16269354E-01 0.12934884E+03</pdfrwt>
<pdfrwt beam="2">  1       -5 0.25947942E-01 0.12934884E+03</pdfrwt>
<totfact> 0.34126973E+02</totfact>
</mgrwt>
</event>
<event>
 8    1  0.3542708E-007  0.1670612E+03  0.7546771E-02  0.1180948E+00
          5   -1    0    0  501    0  0.00000000000E+00  0.00000000000E+00  0.18878132736E+03  0.18883982514E+03  0.47000000000E+01 0.  1.
         -5   -1    0    0    0  501 -0.00000000000E+00 -0.00000000000E+00 -0.15847479642E+03  0.15854447672E+03  0.47000000000E+01 0.  1.
         25    2    1    2    0    0 -0.10179623847E+03 -0.43842675282E+02 -0.30074612516E+02  0.16974666146E+03  0.12499916966E+03 0.  0.
         25    2    1    2    0    0  0.10179623847E+03  0.43842675282E+02  0.60381143461E+02  0.17763764041E+03  0.12499837784E+03 0.  0.
          5    1    4    4  502    0  0.86523216761E+02  0.10244374782E+01 -0.16484905789E+02  0.88210875915E+02  0.47000000000E+01 0.  1.
         -5    1    4    4    0  502  0.15273021705E+02  0.42818237804E+02  0.76866049250E+02  0.89426764495E+02  0.47000000000E+01 0.  1.
          5    1    3    3  503    0 -0.85297999506E+02 -0.78400310226E+02  0.71034221172E+01  0.11616757710E+03  0.47000000000E+01 0. -1.
         -5    1    3    3    0  503 -0.16498238960E+02  0.34557634943E+02 -0.37178034633E+02  0.53579084360E+02  0.47000000000E+01 0. -1.
<mgrwt>
<rscale>  0 0.16706106E+03</rscale>
<asrwt>0</asrwt>
<pdfrwt beam="1">  1        5 0.29053141E-01 0.16706121E+03</pdfrwt>
<pdfrwt beam="2">  1       -5 0.24390598E-01 0.16706121E+03</pdfrwt>
<totfact> 0.13998618E+02</totfact>
</mgrwt>
</event>
<event>
 8    1  0.3542708E-007  0.1259357E+03  0.7546771E-02  0.1233622E+00
         -5   -1    0    0    0  501 -0.00000000000E+00  0.00000000000E+00  0.34606691624E+02  0.34924391263E+02  0.47000000000E+01 0.  1.
          5   -1    0    0  501    0  0.00000000000E+00 -0.00000000000E+00 -0.48113277309E+03  0.48115572878E+03  0.47000000000E+01 0.  1.
         25    2    1    2    0    0  0.48649023977E+01 -0.14434106821E+02 -0.16403810868E+03  0.20679180439E+03  0.12498935374E+03 0.  0.
         25    2    1    2    0    0 -0.48649023977E+01  0.14434106821E+02 -0.28248797278E+03  0.30928831565E+03  0.12501118637E+03 0.  0.
          5    1    4    4  502    0 -0.32611110037E+02 -0.20872472048E+01 -0.27343812355E+03  0.27542392509E+03  0.47000000000E+01 0.  1.
         -5    1    4    4    0  502  0.27746207640E+02  0.16521354026E+02 -0.90498492284E+01  0.33864390564E+02  0.47000000000E+01 0.  1.
          5    1    3    3  503    0 -0.29333128385E+02 -0.57598918298E+02 -0.56922371860E+02  0.86257256090E+02  0.47000000000E+01 0.  1.
         -5    1    3    3    0  503  0.34198030783E+02  0.43164811477E+02 -0.10711573682E+03  0.12053454830E+03  0.47000000000E+01 0.  1.
<mgrwt>
<rscale>  0 0.12593031E+03</rscale>
<asrwt>0</asrwt>
<pdfrwt beam="2">  1        5 0.74046626E-01 0.12593573E+03</pdfrwt>
<pdfrwt beam="1">  1       -5 0.53503110E-02 0.12593573E+03</pdfrwt>
<totfact> 0.26318662E+02</totfact>
</mgrwt>
</event>
<event>
 8    1  0.3542708E-007  0.1326967E+03  0.7546771E-02  0.1223521E+00
         -5   -1    0    0    0  501 -0.00000000000E+00  0.00000000000E+00  0.64710034272E+03  0.64711741095E+03  0.47000000000E+01 0.  1.
          5   -1    0    0  501    0  0.00000000000E+00 -0.00000000000E+00 -0.27128769333E+02  0.27532891703E+02  0.47000000000E+01 0.  1.
         25    2    1    2    0    0 -0.41377570516E+02 -0.16417876603E+02  0.33442537576E+03  0.35977724134E+03  0.12497072225E+03 0.  0.
         25    2    1    2    0    0  0.41377570516E+02  0.16417876603E+02  0.28554619763E+03  0.31487306131E+03  0.12500705478E+03 0.  0.
          5    1    3    3  502    0 -0.15742648900E+02 -0.41941442492E+02  0.31546628943E+03  0.31866594634E+03  0.47000000000E+01 0. -1.
         -5    1    3    3    0  502 -0.25634921616E+02  0.25523565888E+02  0.18959086336E+02  0.41111295001E+02  0.47000000000E+01 0. -1.
          5    1    4    4  503    0  0.28201121206E+02  0.53157790577E+02  0.26239905859E+03  0.26925157360E+03  0.47000000000E+01 0. -1.
         -5    1    4    4    0  503  0.13176449310E+02 -0.36739913973E+02  0.23147139032E+02  0.45621487707E+02  0.47000000000E+01 0. -1.
<mgrwt>
<rscale>  0 0.13268814E+03</rscale>
<asrwt>0</asrwt>
<pdfrwt beam="2">  1        5 0.42060559E-02 0.13269670E+03</pdfrwt>
<pdfrwt beam="1">  1       -5 0.99586302E-01 0.13269670E+03</pdfrwt>
<totfact> 0.19918120E+02</totfact>
</mgrwt>
</event>
<event>
 8    1  0.3542708E-007  0.2697337E+03  0.7546771E-02  0.1101432E+00
         -5   -1    0    0    0  501 -0.00000000000E+00  0.00000000000E+00  0.86819136933E+02  0.86946262357E+02  0.47000000000E+01 0.  1.
          5   -1    0    0  501    0  0.00000000000E+00 -0.00000000000E+00 -0.86085242448E+03  0.86086525469E+03  0.47000000000E+01 0.  1.
         25    2    1    2    0    0  0.13460836611E+03  0.19751208445E+03 -0.30858832767E+03  0.40985732261E+03  0.12500333274E+03 0.  0.
         25    2    1    2    0    0 -0.13460836611E+03 -0.19751208445E+03 -0.46544495987E+03  0.53795419443E+03  0.12500107563E+03 0.  0.
          5    1    4    4  502    0 -0.25008352633E+02 -0.55681888048E+02 -0.32421313770E+02  0.69275695193E+02  0.47000000000E+01 0.  1.
         -5    1    4    4    0  502 -0.10960001347E+03 -0.14183019640E+03 -0.43302364610E+03  0.46867849924E+03  0.47000000000E+01 0.  1.
          5    1    3    3  503    0 -0.66779602778E+01 -0.88560230656E+01 -0.44521919821E+02  0.46122832117E+02  0.47000000000E+01 0. -1.
         -5    1    3    3    0  503  0.14128632638E+03  0.20636810751E+03 -0.26406640785E+03  0.36373449049E+03  0.47000000000E+01 0. -1.
<mgrwt>
<rscale>  0 0.26973344E+03</rscale>
<asrwt>0</asrwt>
<pdfrwt beam="2">  1        5 0.13244959E+00 0.26973370E+03</pdfrwt>
<pdfrwt beam="1">  1       -5 0.13367557E-01 0.26973370E+03</pdfrwt>
<totfact> 0.15973900E+01</totfact>
</mgrwt>
</event>
<event>
 8    1  0.3542708E-007  0.1556273E+03  0.7546771E-02  0.1193724E+00
          5   -1    0    0  501    0  0.00000000000E+00  0.00000000000E+00  0.77622977629E+02  0.77765137793E+02  0.47000000000E+01 0.  1.
         -5   -1    0    0    0  501 -0.00000000000E+00 -0.00000000000E+00 -0.33429316075E+03  0.33432619898E+03  0.47000000000E+01 0.  1.
         25    2    1    2    0    0  0.65086451417E+02  0.66018326776E+02 -0.18204003895E+03  0.23949493889E+03  0.12499833737E+03 0.  0.
         25    2    1    2    0    0 -0.65086451417E+02 -0.66018326776E+02 -0.74630144173E+02  0.17259639788E+03  0.12500077006E+03 0.  0.
          5    1    3    3  502    0  0.88447371947E+02  0.86398392291E+02 -0.15286338048E+03  0.19666449321E+03  0.47000000000E+01 0.  1.
         -5    1    3    3    0  502 -0.23360920530E+02 -0.20380065515E+02 -0.29176658467E+02  0.42830445686E+02  0.47000000000E+01 0.  1.
          5    1    4    4  503    0 -0.17321106251E+02 -0.47056073514E+02  0.28071891277E+02  0.57657747582E+02  0.47000000000E+01 0.  1.
         -5    1    4    4    0  503 -0.47765345166E+02 -0.18962253262E+02 -0.10270203545E+03  0.11493865030E+03  0.47000000000E+01 0.  1.
<mgrwt>
<rscale>  0 0.15562682E+03</rscale>
<asrwt>0</asrwt>
<pdfrwt beam="1">  1        5 0.11955474E-01 0.15562731E+03</pdfrwt>
<pdfrwt beam="2">  1       -5 0.51443193E-01 0.15562731E+03</pdfrwt>
<totfact> 0.15847139E+02</totfact>
</mgrwt>
</event>
<event>
 8    1  0.3542708E-007  0.1380988E+03  0.7546771E-02  0.1215911E+00
         -5   -1    0    0    0  501 -0.00000000000E+00  0.00000000000E+00  0.11458535986E+03  0.11468171037E+03  0.47000000000E+01 0.  1.
          5   -1    0    0  501    0  0.00000000000E+00 -0.00000000000E+00 -0.19268054900E+03  0.19273786333E+03  0.47000000000E+01 0.  1.
         25    2    1    2    0    0 -0.10102711158E+01 -0.58693764871E+02  0.17872509403E+02  0.13924979124E+03  0.12500039634E+03 0.  0.
         25    2    1    2    0    0  0.10102711158E+01  0.58693764871E+02 -0.95967698543E+02  0.16816978246E+03  0.12500119154E+03 0.  0.
          5    1    4    4  502    0 -0.11926527727E+02 -0.13046230049E+02  0.22496867617E+02  0.28993882712E+02  0.47000000000E+01 0. -1.
         -5    1    4    4    0  502  0.12936798843E+02  0.71739994921E+02 -0.11846456616E+03  0.13917589975E+03  0.47000000000E+01 0. -1.
          5    1    3    3  503    0  0.41639782630E+02 -0.57838847259E+00 -0.30916631472E+02  0.52078154079E+02  0.47000000000E+01 0.  1.
         -5    1    3    3    0  503 -0.42650053746E+02 -0.58115376399E+02  0.48789140875E+02  0.87171637164E+02  0.47000000000E+01 0.  1.
<mgrwt>
<rscale>  0 0.13809861E+03</rscale>
<asrwt>0</asrwt>
<pdfrwt beam="2">  1        5 0.29654982E-01 0.13809879E+03</pdfrwt>
<pdfrwt beam="1">  1       -5 0.17640337E-01 0.13809879E+03</pdfrwt>
<totfact> 0.23234215E+02</totfact>
</mgrwt>
</event>
<event>
 8    1  0.3542708E-007  0.1534602E+03  0.7546771E-02  0.1196288E+00
         -5   -1    0    0    0  501 -0.00000000000E+00  0.00000000000E+00  0.22895847801E+03  0.22900671312E+03  0.47000000000E+01 0. -1.
          5   -1    0    0  501    0  0.00000000000E+00 -0.00000000000E+00 -0.15243251225E+03  0.15250495333E+03  0.47000000000E+01 0. -1.
         25    2    1    2    0    0  0.43382199062E+00 -0.89015108494E+02  0.14713321180E+03  0.21259869604E+03  0.12500458311E+03 0.  0.
         25    2    1    2    0    0 -0.43382199062E+00  0.89015108494E+02 -0.70607246038E+02  0.16891297041E+03  0.12498932210E+03 0.  0.
          5    1    3    3  502    0 -0.56630487325E+02 -0.75444055907E+02  0.95422085466E+02  0.13426199038E+03  0.47000000000E+01 0. -1.
         -5    1    3    3    0  502  0.57064309315E+02 -0.13571052587E+02  0.51711126337E+02  0.78336705656E+02  0.47000000000E+01 0. -1.
          5    1    4    4  503    0  0.59001386984E+02  0.49589830627E+02 -0.15738219155E+02  0.78804165561E+02  0.47000000000E+01 0.  1.
         -5    1    4    4    0  503 -0.59435208975E+02  0.39425277867E+02 -0.54869026884E+02  0.90108804853E+02  0.47000000000E+01 0.  1.
<mgrwt>
<rscale>  0 0.15345706E+03</rscale>
<asrwt>0</asrwt>
<pdfrwt beam="2">  1        5 0.23460438E-01 0.15346017E+03</pdfrwt>
<pdfrwt beam="1">  1       -5 0.35233664E-01 0.15346017E+03</pdfrwt>
<totfact> 0.10015892E+02</totfact>
</mgrwt>
</event>
<event>
 8    1  0.3542708E-007  0.1976531E+03  0.7546771E-02  0.1151736E+00
          5   -1    0    0  501    0  0.00000000000E+00  0.00000000000E+00  0.14352478546E+03  0.14360172019E+03  0.47000000000E+01 0.  1.
         -5   -1    0    0    0  501 -0.00000000000E+00 -0.00000000000E+00 -0.27269635347E+03  0.27273685339E+03  0.47000000000E+01 0.  1.
         25    2    1    2    0    0 -0.10304313993E+03  0.11324106403E+03 -0.74980908679E+02  0.21139745653E+03  0.12500128276E+03 0.  0.
         25    2    1    2    0    0  0.10304313993E+03 -0.11324106403E+03 -0.54190659333E+02  0.20494111705E+03  0.12499122620E+03 0.  0.
          5    1    4    4  502    0  0.72913863991E+02 -0.13448301120E+03 -0.64936624047E+02  0.16625572774E+03  0.47000000000E+01 0. -1.
         -5    1    4    4    0  502  0.30129275943E+02  0.21241947170E+02  0.10745964713E+02  0.38685389310E+02  0.47000000000E+01 0. -1.
          5    1    3    3  503    0 -0.21171457178E+02  0.11105699480E+03 -0.26892928098E+02  0.11630651862E+03  0.47000000000E+01 0.  1.
         -5    1    3    3    0  503 -0.81871682757E+02  0.21840692303E+01 -0.48087980581E+02  0.95090937908E+02  0.47000000000E+01 0.  1.
<mgrwt>
<rscale>  0 0.19765151E+03</rscale>
<asrwt>0</asrwt>
<pdfrwt beam="1">  1        5 0.22089770E-01 0.19765310E+03</pdfrwt>
<pdfrwt beam="2">  1       -5 0.41962318E-01 0.19765310E+03</pdfrwt>
<totfact> 0.84642328E+01</totfact>
</mgrwt>
</event>
<event>
 8    1  0.3542708E-007  0.1285780E+03  0.7546771E-02  0.1229582E+00
          5   -1    0    0  501    0  0.00000000000E+00  0.00000000000E+00  0.71686370214E+02  0.71840278914E+02  0.47000000000E+01 0. -1.
         -5   -1    0    0    0  501 -0.00000000000E+00 -0.00000000000E+00 -0.24849612782E+03  0.24854057122E+03  0.47000000000E+01 0. -1.
         25    2    1    2    0    0  0.19989269338E+02 -0.22511930980E+02 -0.13186406831E+03  0.18417356260E+03  0.12500164288E+03 0.  0.
         25    2    1    2    0    0 -0.19989269338E+02  0.22511930980E+02 -0.44945689294E+02  0.13620728753E+03  0.12500380901E+03 0.  0.
          5    1    4    4  502    0  0.52648983312E+01 -0.20667587954E+02 -0.74691842206E+02  0.77819211243E+02  0.47000000000E+01 0.  1.
         -5    1    4    4    0  502 -0.25254167669E+02  0.43179518934E+02  0.29746152912E+02  0.58388076292E+02  0.47000000000E+01 0.  1.
          5    1    3    3  503    0  0.20438920250E+02  0.26898805776E+02  0.86181717431E+01  0.35180365225E+02  0.47000000000E+01 0. -1.
         -5    1    3    3    0  503 -0.44965091209E+00 -0.49410736756E+02 -0.14048224006E+03  0.14899319737E+03  0.47000000000E+01 0. -1.
<mgrwt>
<rscale>  0 0.12857751E+03</rscale>
<asrwt>0</asrwt>
<pdfrwt beam="1">  1        5 0.11043930E-01 0.12857803E+03</pdfrwt>
<pdfrwt beam="2">  1       -5 0.38245431E-01 0.12857803E+03</pdfrwt>
<totfact> 0.31667762E+02</totfact>
</mgrwt>
</event>
<event>
 8    1  0.3542708E-007  0.1393923E+03  0.7546771E-02  0.1214154E+00
         -5   -1    0    0    0  501 -0.00000000000E+00  0.00000000000E+00  0.39769646831E+03  0.39772423978E+03  0.47000000000E+01 0.  1.
          5   -1    0    0  501    0  0.00000000000E+00 -0.00000000000E+00 -0.52193370763E+02  0.52404560409E+02  0.47000000000E+01 0.  1.
         25    2    1    2    0    0  0.51428944630E+02  0.34002252581E+02  0.23077197215E+03  0.26960328028E+03  0.12501654323E+03 0.  0.
         25    2    1    2    0    0 -0.51428944630E+02 -0.34002252581E+02  0.11473112540E+03  0.18052551991E+03  0.12500057071E+03 0.  0.
          5    1    4    4  502    0  0.71088274848E+01 -0.53776174231E+02  0.10434379335E+03  0.11769507021E+03  0.47000000000E+01 0. -1.
         -5    1    4    4    0  502 -0.58537772115E+02  0.19773921650E+02  0.10387332053E+02  0.62830449695E+02  0.47000000000E+01 0. -1.
          5    1    3    3  503    0  0.65199701142E+02  0.27194792562E+02  0.24057991023E+03  0.25078146059E+03  0.47000000000E+01 0.  1.
         -5    1    3    3    0  503 -0.13770756512E+02  0.68074600191E+01 -0.98079380802E+01  0.18821819683E+02  0.47000000000E+01 0.  1.
<mgrwt>
<rscale>  0 0.13938876E+03</rscale>
<asrwt>0</asrwt>
<pdfrwt beam="2">  1        5 0.80481309E-02 0.13939234E+03</pdfrwt>
<pdfrwt beam="1">  1       -5 0.61202454E-01 0.13939234E+03</pdfrwt>
<totfact> 0.20931935E+02</totfact>
</mgrwt>
</event>
<event>
 8    1  0.3542708E-007  0.1495650E+03  0.7546771E-02  0.1201011E+00
          5   -1    0    0  501    0  0.00000000000E+00  0.00000000000E+00  0.12507913500E+03  0.12516740795E+03  0.47000000000E+01 0.  1.
         -5   -1    0    0    0  501 -0.00000000000E+00 -0.00000000000E+00 -0.18451847997E+03  0.18457832876E+03  0.47000000000E+01 0.  1.
         25    2    1    2    0    0 -0.28090595211E+02 -0.77169709620E+02 -0.57323046637E+02  0.16017373069E+03  0.12500178681E+03 0.  0.
         25    2    1    2    0    0  0.28090595211E+02  0.77169709620E+02 -0.21162983270E+01  0.14957200602E+03  0.12499224233E+03 0.  0.
          5    1    3    3  502    0  0.21217307791E+02 -0.53732032725E+02  0.23485878151E+02  0.62537844248E+02  0.47000000000E+01 0.  1.
         -5    1    3    3    0  502 -0.49307903001E+02 -0.23437676896E+02 -0.80808924789E+02  0.97635886446E+02  0.47000000000E+01 0.  1.
          5    1    4    4  503    0  0.74882697818E+02  0.68621614989E+02  0.85399791822E+00  0.10168167873E+03  0.47000000000E+01 0. -1.
         -5    1    4    4    0  503 -0.46792102608E+02  0.85480946310E+01 -0.29702962452E+01  0.47890327291E+02  0.47000000000E+01 0. -1.
<mgrwt>
<rscale>  0 0.14956302E+03</rscale>
<asrwt>0</asrwt>
<pdfrwt beam="1">  1        5 0.19254338E-01 0.14956501E+03</pdfrwt>
<pdfrwt beam="2">  1       -5 0.28398853E-01 0.14956501E+03</pdfrwt>
<totfact> 0.22085409E+02</totfact>
</mgrwt>
</event>
<event>
 8    1  0.3542708E-007  0.1644251E+03  0.7546771E-02  0.1183791E+00
         -5   -1    0    0    0  501 -0.00000000000E+00  0.00000000000E+00  0.10172488242E+03  0.10183340171E+03  0.47000000000E+01 0.  1.
          5   -1    0    0  501    0  0.00000000000E+00 -0.00000000000E+00 -0.30592772813E+03  0.30596382930E+03  0.47000000000E+01 0.  1.
         25    2    1    2    0    0  0.20156520713E+02  0.10489826518E+03 -0.27991527445E+02  0.16678679982E+03  0.12499751845E+03 0.  0.
         25    2    1    2    0    0 -0.20156520713E+02 -0.10489826518E+03 -0.17621131826E+03  0.24101043119E+03  0.12500267155E+03 0.  0.
          5    1    4    4  502    0 -0.11480200216E+02 -0.11151824444E+02 -0.13847050741E+03  0.13947160860E+03  0.47000000000E+01 0. -1.
         -5    1    4    4    0  502 -0.86763204970E+01 -0.93746440740E+02 -0.37740810853E+02  0.10153882259E+03  0.47000000000E+01 0. -1.
          5    1    3    3  503    0  0.10744168192E+02 -0.12673916710E+01 -0.55395810547E+02  0.56637701736E+02  0.47000000000E+01 0. -1.
         -5    1    3    3    0  503  0.94123525211E+01  0.10616565686E+03  0.27404283102E+02  0.11014909808E+03  0.47000000000E+01 0. -1.
<mgrwt>
<rscale>  0 0.16442408E+03</rscale>
<asrwt>0</asrwt>
<pdfrwt beam="2">  1        5 0.47076929E-01 0.16442506E+03</pdfrwt>
<pdfrwt beam="1">  1       -5 0.15661107E-01 0.16442506E+03</pdfrwt>
<totfact> 0.11968686E+02</totfact>
</mgrwt>
</event>
<event>
 8    1  0.3542708E-007  0.1347051E+03  0.7546771E-02  0.1220639E+00
          5   -1    0    0  501    0  0.00000000000E+00  0.00000000000E+00  0.39749013761E+03  0.39751792350E+03  0.47000000000E+01 0.  1.
         -5   -1    0    0    0  501 -0.00000000000E+00 -0.00000000000E+00 -0.45707100207E+02  0.45948112141E+02  0.47000000000E+01 0.  1.
         25    2    1    2    0    0 -0.23364977463E+02 -0.44439616635E+02  0.16091941470E+03  0.20985440556E+03  0.12499204698E+03 0.  0.
         25    2    1    2    0    0  0.23364977463E+02  0.44439616635E+02  0.19086362271E+03  0.23361163008E+03  0.12499867813E+03 0.  0.
          5    1    4    4  502    0 -0.38394073241E+02  0.55605358497E+02  0.70379918583E+02  0.97680518495E+02  0.47000000000E+01 0. -1.
         -5    1    4    4    0  502  0.61759050704E+02 -0.11165741862E+02  0.12048370413E+03  0.13593111158E+03  0.47000000000E+01 0. -1.
          5    1    3    3  503    0 -0.26985538175E+02  0.40042771087E+02  0.74098764580E+02  0.88568389955E+02  0.47000000000E+01 0.  1.
         -5    1    3    3    0  503  0.36205607123E+01 -0.84482387722E+02  0.86820650117E+02  0.12128601561E+03  0.47000000000E+01 0.  1.
<mgrwt>
<rscale>  0 0.13470359E+03</rscale>
<asrwt>0</asrwt>
<pdfrwt beam="1">  1        5 0.61173007E-01 0.13470513E+03</pdfrwt>
<pdfrwt beam="2">  1       -5 0.70525381E-02 0.13470513E+03</pdfrwt>
<totfact> 0.25951815E+02</totfact>
</mgrwt>
</event>
<event>
 8    1  0.3542708E-007  0.1271710E+03  0.7546771E-02  0.1231719E+00
          5   -1    0    0  501    0  0.00000000000E+00  0.00000000000E+00  0.12412378770E+02  0.13272420530E+02  0.47000000000E+01 0. -1.
         -5   -1    0    0    0  501 -0.00000000000E+00 -0.00000000000E+00 -0.12594868018E+04  0.12594955712E+04  0.47000000000E+01 0. -1.
         25    2    1    2    0    0  0.11773015787E+02  0.20154399531E+02 -0.64287111433E+03  0.65532641253E+03  0.12499853436E+03 0.  0.
         25    2    1    2    0    0 -0.11773015787E+02 -0.20154399531E+02 -0.60420330873E+03  0.61744157925E+03  0.12501064669E+03 0.  0.
          5    1    4    4  502    0 -0.30931618842E+02  0.43242447300E+02 -0.16972578016E+03  0.17792022017E+03  0.47000000000E+01 0.  1.
         -5    1    4    4    0  502  0.19158603055E+02 -0.63396846831E+02 -0.43447752857E+03  0.43952135908E+03  0.47000000000E+01 0.  1.
          5    1    3    3  503    0  0.39591092697E+02  0.55252346334E+02 -0.22646869904E+03  0.23649616919E+03  0.47000000000E+01 0.  1.
         -5    1    3    3    0  503 -0.27818076910E+02 -0.35097946803E+02 -0.41640241529E+03  0.41883024334E+03  0.47000000000E+01 0.  1.
<mgrwt>
<rscale>  0 0.12716803E+03</rscale>
<asrwt>0</asrwt>
<pdfrwt beam="1">  1        5 0.19764294E-02 0.12717101E+03</pdfrwt>
<pdfrwt beam="2">  1       -5 0.19383393E+00 0.12717101E+03</pdfrwt>
<totfact> 0.11110183E+02</totfact>
</mgrwt>
</event>
<event>
 8    1  0.3542708E-007  0.1587759E+03  0.7546771E-02  0.1190089E+00
          5   -1    0    0  501    0  0.00000000000E+00  0.00000000000E+00  0.11067972847E+03  0.11077947596E+03  0.47000000000E+01 0.  1.
         -5   -1    0    0    0  501 -0.00000000000E+00 -0.00000000000E+00 -0.23335522544E+03  0.23340255191E+03  0.47000000000E+01 0.  1.
         25    2    1    2    0    0  0.64213972698E+02  0.73874889081E+02 -0.88519509944E+02  0.18178415689E+03  0.12501536917E+03 0.  0.
         25    2    1    2    0    0 -0.64213972698E+02 -0.73874889081E+02 -0.34155987020E+02  0.16239787099E+03  0.12500201408E+03 0.  0.
          5    1    4    4  502    0 -0.71320505727E+02 -0.57418048508E+02  0.29332784043E+02  0.96259799768E+02  0.47000000000E+01 0. -1.
         -5    1    4    4    0  502  0.71065330291E+01 -0.16456840573E+02 -0.63488771063E+02  0.66138071218E+02  0.47000000000E+01 0. -1.
          5    1    3    3  503    0  0.45734387442E+02  0.10371685707E+03 -0.37124781214E+02  0.11936984550E+03  0.47000000000E+01 0.  1.
         -5    1    3    3    0  503  0.18479585256E+02 -0.29841967990E+02 -0.51394728730E+02  0.62414311388E+02  0.47000000000E+01 0.  1.
<mgrwt>
<rscale>  0 0.15877324E+03</rscale>
<asrwt>0</asrwt>
<pdfrwt beam="1">  1        5 0.17038964E-01 0.15877587E+03</pdfrwt>
<pdfrwt beam="2">  1       -5 0.35912117E-01 0.15877587E+03</pdfrwt>
<totfact> 0.17725067E+02</totfact>
</mgrwt>
</event>
<event>
 8    1  0.3542708E-007  0.2149463E+03  0.7546771E-02  0.1137708E+00
          5   -1    0    0  501    0  0.00000000000E+00  0.00000000000E+00  0.20358925250E+03  0.20364349667E+03  0.47000000000E+01 0.  1.
         -5   -1    0    0    0  501 -0.00000000000E+00 -0.00000000000E+00 -0.22683718250E+03  0.22688586858E+03  0.47000000000E+01 0.  1.
         25    2    1    2    0    0 -0.13306733954E+03 -0.11345935418E+03 -0.13127686847E+02  0.21534497123E+03  0.12498471334E+03 0.  0.
         25    2    1    2    0    0  0.13306733954E+03  0.11345935418E+03 -0.10120243147E+02  0.21518439402E+03  0.12498784824E+03 0.  0.
          5    1    4    4  502    0  0.28145416684E+02  0.17920139027E+02 -0.56530692947E+02  0.65811132099E+02  0.47000000000E+01 0. -1.
         -5    1    4    4    0  502  0.10492192285E+03  0.95539215149E+02  0.46410449800E+02  0.14937326192E+03  0.47000000000E+01 0. -1.
          5    1    3    3  503    0 -0.10717781907E+03 -0.34273418224E+02  0.36340475559E+02  0.11834049291E+03  0.47000000000E+01 0.  1.
         -5    1    3    3    0  503 -0.25889520467E+02 -0.79185935953E+02 -0.49468162406E+02  0.97004478322E+02  0.47000000000E+01 0.  1.
<mgrwt>
<rscale>  0 0.21494583E+03</rscale>
<asrwt>0</asrwt>
<pdfrwt beam="1">  1        5 0.31329341E-01 0.21494628E+03</pdfrwt>
<pdfrwt beam="2">  1       -5 0.34905946E-01 0.21494628E+03</pdfrwt>
<totfact> 0.63964804E+01</totfact>
</mgrwt>
</event>
<event>
 8    1  0.3542708E-007  0.1478216E+03  0.7546771E-02  0.1203177E+00
          5   -1    0    0  501    0  0.00000000000E+00  0.00000000000E+00  0.68661617643E+03  0.68663226238E+03  0.47000000000E+01 0. -1.
         -5   -1    0    0    0  501 -0.00000000000E+00 -0.00000000000E+00 -0.32532083000E+02  0.32869840649E+02  0.47000000000E+01 0. -1.
         25    2    1    2    0    0 -0.52508835138E+02 -0.58884742332E+02  0.38651808720E+03  0.41382057264E+03  0.12500657566E+03 0.  0.
         25    2    1    2    0    0  0.52508835138E+02  0.58884742332E+02  0.26756600623E+03  0.30568153039E+03  0.12500015873E+03 0.  0.
          5    1    4    4  502    0  0.47482662916E+01  0.13626308240E+02 -0.11426329881E+02  0.18996666117E+02  0.47000000000E+01 0. -1.
         -5    1    4    4    0  502  0.47760568846E+02  0.45258434093E+02  0.27899233611E+03  0.28668486427E+03  0.47000000000E+01 0. -1.
          5    1    3    3  503    0  0.35449682032E+02 -0.43706785468E+02  0.11800104390E+03  0.13081781001E+03  0.47000000000E+01 0. -1.
         -5    1    3    3    0  503 -0.87958517170E+02 -0.15177956865E+02  0.26851704329E+03  0.28300276263E+03  0.47000000000E+01 0. -1.
<mgrwt>
<rscale>  0 0.14782027E+03</rscale>
<asrwt>0</asrwt>
<pdfrwt beam="1">  1        5 0.10566047E+00 0.14782163E+03</pdfrwt>
<pdfrwt beam="2">  1       -5 0.50321547E-02 0.14782163E+03</pdfrwt>
<totfact> 0.13259883E+02</totfact>
</mgrwt>
</event>
<event>
 8    1  0.3542708E-007  0.1596712E+03  0.7546771E-02  0.1189070E+00
         -5   -1    0    0    0  501 -0.00000000000E+00  0.00000000000E+00  0.42680561693E+02  0.42938564793E+02  0.47000000000E+01 0. -1.
          5   -1    0    0  501    0  0.00000000000E+00 -0.00000000000E+00 -0.60117283680E+03  0.60119120894E+03  0.47000000000E+01 0. -1.
         25    2    1    2    0    0  0.51999432191E+01  0.99201592102E+02 -0.24730802984E+03  0.29437417034E+03  0.12500758078E+03 0.  0.
         25    2    1    2    0    0 -0.51999432191E+01 -0.99201592102E+02 -0.31118424527E+03  0.34975560340E+03  0.12500140927E+03 0.  0.
          5    1    3    3  502    0  0.61913252019E+02  0.58848723514E+02 -0.16953901015E+03  0.18989994470E+03  0.47000000000E+01 0. -1.
         -5    1    3    3    0  502 -0.56713308800E+02  0.40352868588E+02 -0.77769019691E+02  0.10447422563E+03  0.47000000000E+01 0. -1.
          5    1    4    4  503    0 -0.63344851322E+02 -0.65441042173E+02 -0.15865935311E+03  0.18300267900E+03  0.47000000000E+01 0.  1.
         -5    1    4    4    0  503  0.58144908103E+02 -0.33760549929E+02 -0.15252489215E+03  0.16675292440E+03  0.47000000000E+01 0.  1.
<mgrwt>
<rscale>  0 0.15966999E+03</rscale>
<asrwt>0</asrwt>
<pdfrwt beam="2">  1        5 0.92509382E-01 0.15967120E+03</pdfrwt>
<pdfrwt beam="1">  1       -5 0.65875003E-02 0.15967120E+03</pdfrwt>
<totfact> 0.11944033E+02</totfact>
</mgrwt>
</event>
<event>
 8    1  0.3542708E-007  0.1307480E+03  0.7546771E-02  0.1226350E+00
          5   -1    0    0  501    0  0.00000000000E+00  0.00000000000E+00  0.79778779504E+02  0.79917104922E+02  0.47000000000E+01 0. -1.
         -5   -1    0    0    0  501 -0.00000000000E+00 -0.00000000000E+00 -0.22579159433E+03  0.22584050583E+03  0.47000000000E+01 0. -1.
         25    2    1    2    0    0 -0.20382547609E+02  0.32477804841E+02 -0.10803297581E+03  0.16960587758E+03  0.12499909517E+03 0.  0.
         25    2    1    2    0    0  0.20382547609E+02 -0.32477804841E+02 -0.37979839025E+02  0.13615173317E+03  0.12499828087E+03 0.  0.
          5    1    3    3  502    0 -0.12536745786E+00 -0.42074315455E+02 -0.73570409603E+02  0.84882029353E+02  0.47000000000E+01 0. -1.
         -5    1    3    3    0  502 -0.20257180151E+02  0.74552120296E+02 -0.34462566203E+02  0.84723848222E+02  0.47000000000E+01 0. -1.
          5    1    4    4  503    0 -0.51574931382E+02 -0.32825984871E+00 -0.15602866969E+02  0.54089007748E+02  0.47000000000E+01 0.  1.
         -5    1    4    4    0  503  0.71957478991E+02 -0.32149544993E+02 -0.22376972056E+02  0.82062725426E+02  0.47000000000E+01 0.  1.
<mgrwt>
<rscale>  0 0.13074777E+03</rscale>
<asrwt>0</asrwt>
<pdfrwt beam="1">  1        5 0.12288061E-01 0.13074796E+03</pdfrwt>
<pdfrwt beam="2">  1       -5 0.34751571E-01 0.13074796E+03</pdfrwt>
<totfact> 0.32004690E+02</totfact>
</mgrwt>
</event>
<event>
 8    1  0.3542708E-007  0.1272827E+03  0.7546771E-02  0.1231545E+00
          5   -1    0    0  501    0  0.00000000000E+00  0.00000000000E+00  0.71923849104E+02  0.72077250711E+02  0.47000000000E+01 0.  1.
         -5   -1    0    0    0  501 -0.00000000000E+00 -0.00000000000E+00 -0.35264374440E+03  0.35267506357E+03  0.47000000000E+01 0.  1.
         25    2    1    2    0    0  0.18033509002E+02  0.15828633498E+02 -0.26818414257E+03  0.29685623579E+03  0.12500054926E+03 0.  0.
         25    2    1    2    0    0 -0.18033509002E+02 -0.15828633498E+02 -0.12535752720E+02  0.12789607849E+03  0.12499803483E+03 0.  0.
          5    1    3    3  502    0 -0.49298103363E+02 -0.15350482840E+02 -0.91531774433E+02  0.10519551345E+03  0.47000000000E+01 0. -1.
         -5    1    3    3    0  502  0.67331612365E+02  0.31179116338E+02 -0.17665236814E+03  0.19166072234E+03  0.47000000000E+01 0. -1.
          5    1    4    4  503    0 -0.35345801590E+02  0.48216762283E+02  0.12059076172E+01  0.59981047575E+02  0.47000000000E+01 0. -1.
         -5    1    4    4    0  503  0.17312292587E+02 -0.64045395780E+02 -0.13741660338E+02  0.67915030914E+02  0.47000000000E+01 0. -1.
<mgrwt>
<rscale>  0 0.12728210E+03</rscale>
<asrwt>0</asrwt>
<pdfrwt beam="1">  1        5 0.11079417E-01 0.12728272E+03</pdfrwt>
<pdfrwt beam="2">  1       -5 0.54267092E-01 0.12728272E+03</pdfrwt>
<totfact> 0.15125301E+02</totfact>
</mgrwt>
</event>
<event>
 8    1  0.3542708E-007  0.1388521E+03  0.7546771E-02  0.1214883E+00
          5   -1    0    0  501    0  0.00000000000E+00  0.00000000000E+00  0.22781294076E+03  0.22786141836E+03  0.47000000000E+01 0.  1.
         -5   -1    0    0    0  501 -0.00000000000E+00 -0.00000000000E+00 -0.91542632270E+02  0.91663207029E+02  0.47000000000E+01 0.  1.
         25    2    1    2    0    0 -0.35218768840E+02  0.49101290393E+02  0.23881827049E+02  0.14089092353E+03  0.12501444826E+03 0.  0.
         25    2    1    2    0    0  0.35218768840E+02 -0.49101290393E+02  0.11238848144E+03  0.17863370186E+03  0.12501012072E+03 0.  0.
          5    1    4    4  502    0  0.30159204543E+02 -0.51195434975E+02 -0.61093812972E+01  0.59916314313E+02  0.47000000000E+01 0. -1.
         -5    1    4    4    0  502  0.50595642973E+01  0.20941445828E+01  0.11849786273E+03  0.11871738754E+03  0.47000000000E+01 0. -1.
          5    1    3    3  503    0 -0.81229786495E+02  0.42525462326E+02  0.11231780212E+02  0.92492897277E+02  0.47000000000E+01 0. -1.
         -5    1    3    3    0  503  0.46011017654E+02  0.65758280665E+01  0.12650046837E+02  0.48398026254E+02  0.47000000000E+01 0. -1.
<mgrwt>
<rscale>  0 0.13885114E+03</rscale>
<asrwt>0</asrwt>
<pdfrwt beam="1">  1        5 0.35061148E-01 0.13885212E+03</pdfrwt>
<pdfrwt beam="2">  1       -5 0.14096486E-01 0.13885212E+03</pdfrwt>
<totfact> 0.25118801E+02</totfact>
</mgrwt>
</event>
<event>
 8    1  0.3542708E-007  0.1677959E+03  0.7546771E-02  0.1180167E+00
         -5   -1    0    0    0  501 -0.00000000000E+00  0.00000000000E+00  0.17353024590E+03  0.17359388307E+03  0.47000000000E+01 0.  1.
          5   -1    0    0  501    0  0.00000000000E+00 -0.00000000000E+00 -0.16338047851E+03  0.16344806747E+03  0.47000000000E+01 0.  1.
         25    2    1    2    0    0  0.61508629088E+02  0.93524584533E+02 -0.97227605519E+01  0.16807340037E+03  0.12499590583E+03 0.  0.
         25    2    1    2    0    0 -0.61508629088E+02 -0.93524584533E+02  0.19872527936E+02  0.16896855017E+03  0.12500117686E+03 0.  0.
          5    1    3    3  502    0 -0.38640475355E+02  0.27663604620E+02 -0.41072242408E+00  0.47755837854E+02  0.47000000000E+01 0.  1.
         -5    1    3    3    0  502  0.10014910444E+03  0.65860979913E+02 -0.93120381278E+01  0.12031756252E+03  0.47000000000E+01 0.  1.
          5    1    4    4  503    0 -0.97136656743E+02 -0.61671878044E+02  0.31842420135E+02  0.11947794920E+03  0.47000000000E+01 0. -1.
         -5    1    4    4    0  503  0.35628027655E+02 -0.31852706489E+02 -0.11969892199E+02  0.49490600971E+02  0.47000000000E+01 0. -1.
<mgrwt>
<rscale>  0 0.16779489E+03</rscale>
<asrwt>0</asrwt>
<pdfrwt beam="2">  1        5 0.25145552E-01 0.16779587E+03</pdfrwt>
<pdfrwt beam="1">  1       -5 0.26707055E-01 0.16779587E+03</pdfrwt>
<totfact> 0.15579053E+02</totfact>
</mgrwt>
</event>
<event>
 8    1  0.3542708E-007  0.1255803E+03  0.7546771E-02  0.1234165E+00
          5   -1    0    0  501    0  0.00000000000E+00  0.00000000000E+00  0.10602398590E+02  0.11597450403E+02  0.47000000000E+01 0. -1.
         -5   -1    0    0    0  501 -0.00000000000E+00 -0.00000000000E+00 -0.14694515107E+04  0.14694590271E+04  0.47000000000E+01 0. -1.
         25    2    1    2    0    0  0.76414559440E+01 -0.93351521246E+01 -0.86555344663E+03  0.87461601407E+03  0.12499946474E+03 0.  0.
         25    2    1    2    0    0 -0.76414559440E+01  0.93351521246E+01 -0.59329566553E+03  0.60644046347E+03  0.12499900834E+03 0.  0.
          5    1    4    4  502    0  0.44185161018E+02 -0.12194650762E+01 -0.47127958468E+03  0.47337126284E+03  0.47000000000E+01 0. -1.
         -5    1    4    4    0  502 -0.51826616962E+02  0.10554617201E+02 -0.12201608085E+03  0.13306920063E+03  0.47000000000E+01 0. -1.
          5    1    3    3  503    0  0.49030395195E+02  0.12183956118E+01 -0.15234410714E+03  0.16011333836E+03  0.47000000000E+01 0.  1.
         -5    1    3    3    0  503 -0.41388939251E+02 -0.10553547736E+02 -0.71320933949E+03  0.71450267572E+03  0.47000000000E+01 0.  1.
<mgrwt>
<rscale>  0 0.12558015E+03</rscale>
<asrwt>0</asrwt>
<pdfrwt beam="1">  1        5 0.17082600E-02 0.12558027E+03</pdfrwt>
<pdfrwt beam="2">  1       -5 0.22614643E+00 0.12558027E+03</pdfrwt>
<totfact> 0.85153313E+01</totfact>
</mgrwt>
</event>
<event>
 8    1  0.3542708E-007  0.1377339E+03  0.7546771E-02  0.1216419E+00
         -5   -1    0    0    0  501 -0.00000000000E+00  0.00000000000E+00  0.41514671837E+03  0.41517332257E+03  0.47000000000E+01 0. -1.
          5   -1    0    0  501    0  0.00000000000E+00 -0.00000000000E+00 -0.46310049647E+02  0.46547939786E+02  0.47000000000E+01 0. -1.
         25    2    1    2    0    0  0.57620612099E+02  0.50087233906E+01  0.15470314405E+03  0.20711610808E+03  0.12497518633E+03 0.  0.
         25    2    1    2    0    0 -0.57620612099E+02 -0.50087233906E+01  0.21413352467E+03  0.25460515427E+03  0.12500158378E+03 0.  0.
          5    1    4    4  502    0  0.14361912699E+02  0.41951790377E+02  0.11486300048E+03  0.12321451267E+03  0.47000000000E+01 0.  1.
         -5    1    4    4    0  502 -0.71982524798E+02 -0.46960513767E+02  0.99270524188E+02  0.13139064161E+03  0.47000000000E+01 0.  1.
          5    1    3    3  503    0 -0.25460644499E+02  0.38795513835E+02  0.40068811470E+02  0.61489315857E+02  0.47000000000E+01 0. -1.
         -5    1    3    3    0  503  0.83081256598E+02 -0.33786790444E+02  0.11463433258E+03  0.14562679222E+03  0.47000000000E+01 0. -1.
<mgrwt>
<rscale>  0 0.13772788E+03</rscale>
<asrwt>0</asrwt>
<pdfrwt beam="2">  1        5 0.71449691E-02 0.13773387E+03</pdfrwt>
<pdfrwt beam="1">  1       -5 0.63889068E-01 0.13773387E+03</pdfrwt>
<totfact> 0.23239418E+02</totfact>
</mgrwt>
</event>
<event>
 8    1  0.3542708E-007  0.1833114E+03  0.7546771E-02  0.1164636E+00
         -5   -1    0    0    0  501 -0.00000000000E+00  0.00000000000E+00  0.45537277168E+02  0.45779183172E+02  0.47000000000E+01 0.  1.
          5   -1    0    0  501    0  0.00000000000E+00 -0.00000000000E+00 -0.10485441264E+04  0.10485546600E+04  0.47000000000E+01 0.  1.
         25    2    1    2    0    0  0.13338246338E+03  0.13736740647E+02 -0.20267105946E+03  0.27327327698E+03  0.12499258372E+03 0.  0.
         25    2    1    2    0    0 -0.13338246338E+03 -0.13736740647E+02 -0.80033578979E+03  0.82106056621E+03  0.12499398944E+03 0.  0.
          5    1    3    3  502    0  0.11289692574E+03 -0.29205735564E+02 -0.79673698852E+02  0.14131057682E+03  0.47000000000E+01 0.  1.
         -5    1    3    3    0  502  0.20485537634E+02  0.42942476210E+02 -0.12299736061E+03  0.13196270016E+03  0.47000000000E+01 0.  1.
          5    1    4    4  503    0 -0.22033741145E+02  0.42264681707E+02 -0.11680049597E+03  0.12623880120E+03  0.47000000000E+01 0.  1.
         -5    1    4    4    0  503 -0.11134872223E+03 -0.56001422354E+02 -0.68353529382E+03  0.69482176502E+03  0.47000000000E+01 0.  1.
<mgrwt>
<rscale>  0 0.18331118E+03</rscale>
<asrwt>0</asrwt>
<pdfrwt beam="2">  1        5 0.16133388E+00 0.18331142E+03</pdfrwt>
<pdfrwt beam="1">  1       -5 0.70251542E-02 0.18331142E+03</pdfrwt>
<totfact> 0.26385956E+01</totfact>
</mgrwt>
</event>
<event>
 8    1  0.3542708E-007  0.1290322E+03  0.7546771E-02  0.1228903E+00
          5   -1    0    0  501    0  0.00000000000E+00  0.00000000000E+00  0.53002778580E+02  0.53210755842E+02  0.47000000000E+01 0.  1.
         -5   -1    0    0    0  501 -0.00000000000E+00 -0.00000000000E+00 -0.38249336359E+03  0.38252223882E+03  0.47000000000E+01 0.  1.
         25    2    1    2    0    0 -0.26981926145E+02  0.17206591873E+02 -0.25741590224E+03  0.28794488270E+03  0.12500087040E+03 0.  0.
         25    2    1    2    0    0  0.26981926145E+02 -0.17206591873E+02 -0.72074682768E+02  0.14778811196E+03  0.12498989959E+03 0.  0.
          5    1    3    3  502    0 -0.35145635154E+02  0.42406759034E+02 -0.25501206407E+03  0.26093445864E+03  0.47000000000E+01 0.  1.
         -5    1    3    3    0  502  0.81637090089E+01 -0.25200167161E+02 -0.24038381665E+01  0.27010424056E+02  0.47000000000E+01 0.  1.
          5    1    4    4  503    0  0.28825216790E+02 -0.67117087306E+02 -0.20888941216E+02  0.76118554876E+02  0.47000000000E+01 0.  1.
         -5    1    4    4    0  503 -0.18432906444E+01  0.49910495433E+02 -0.51185741552E+02  0.71669557087E+02  0.47000000000E+01 0.  1.
<mgrwt>
<rscale>  0 0.12902954E+03</rscale>
<asrwt>0</asrwt>
<pdfrwt beam="1">  1        5 0.81724933E-02 0.12903220E+03</pdfrwt>
<pdfrwt beam="2">  1       -5 0.58863351E-01 0.12903220E+03</pdfrwt>
<totfact> 0.21623028E+02</totfact>
</mgrwt>
</event>
<event>
 8    1  0.3542708E-007  0.1576658E+03  0.7546771E-02  0.1191358E+00
          5   -1    0    0  501    0  0.00000000000E+00  0.00000000000E+00  0.44096343214E+03  0.44098847886E+03  0.47000000000E+01 0.  1.
         -5   -1    0    0    0  501 -0.00000000000E+00 -0.00000000000E+00 -0.70875569192E+02  0.71031234737E+02  0.47000000000E+01 0.  1.
         25    2    1    2    0    0  0.49588326540E+02  0.82291277276E+02  0.68906439464E+02  0.17206573481E+03  0.12501065255E+03 0.  0.
         25    2    1    2    0    0 -0.49588326540E+02 -0.82291277276E+02  0.30118142349E+03  0.33995397878E+03  0.12501040514E+03 0.  0.
          5    1    4    4  502    0 -0.61115791643E+02 -0.25180375065E+02  0.26035478210E+03  0.26865571618E+03  0.47000000000E+01 0. -1.
         -5    1    4    4    0  502  0.11527465103E+02 -0.57110902211E+02  0.40826641388E+02  0.71298262602E+02  0.47000000000E+01 0. -1.
          5    1    3    3  503    0 -0.35051273325E+02  0.84324284016E-02  0.33559872418E+02  0.48753942092E+02  0.47000000000E+01 0.  1.
         -5    1    3    3    0  503  0.84639599865E+02  0.82282844847E+02  0.35346567046E+02  0.12331179272E+03  0.47000000000E+01 0.  1.
<mgrwt>
<rscale>  0 0.15766580E+03</rscale>
<asrwt>0</asrwt>
<pdfrwt beam="1">  1        5 0.67854428E-01 0.15766585E+03</pdfrwt>
<pdfrwt beam="2">  1       -5 0.10917835E-01 0.15766585E+03</pdfrwt>
<totfact> 0.10193538E+02</totfact>
</mgrwt>
</event>
<event>
 8    1  0.3542708E-007  0.1538117E+03  0.7546771E-02  0.1195877E+00
         -5   -1    0    0    0  501 -0.00000000000E+00  0.00000000000E+00  0.48822239495E+03  0.48824501732E+03  0.47000000000E+01 0. -1.
          5   -1    0    0  501    0  0.00000000000E+00 -0.00000000000E+00 -0.48319763479E+02  0.48547806775E+02  0.47000000000E+01 0. -1.
         25    2    1    2    0    0  0.63394633793E+02 -0.63266760182E+02  0.22418339649E+03  0.27187542766E+03  0.12504595302E+03 0.  0.
         25    2    1    2    0    0 -0.63394633793E+02  0.63266760182E+02  0.21571923499E+03  0.26491739644E+03  0.12499950421E+03 0.  0.
          5    1    3    3  502    0  0.76811843397E+02  0.36409104290E+01  0.16220440072E+03  0.17957080255E+03  0.47000000000E+01 0.  1.
         -5    1    3    3    0  502 -0.13417209604E+02 -0.66907670611E+02  0.61978995762E+02  0.92304625105E+02  0.47000000000E+01 0.  1.
          5    1    4    4  503    0 -0.10092767391E+03  0.38788446937E+02  0.14237800727E+03  0.17884218163E+03  0.47000000000E+01 0.  1.
         -5    1    4    4    0  503  0.37533040118E+02  0.24478313245E+02  0.73341227718E+02  0.86075214801E+02  0.47000000000E+01 0.  1.
<mgrwt>
<rscale>  0 0.15380230E+03</rscale>
<asrwt>0</asrwt>
<pdfrwt beam="2">  1        5 0.74530919E-02 0.15381175E+03</pdfrwt>
<pdfrwt beam="1">  1       -5 0.75130418E-01 0.15381175E+03</pdfrwt>
<totfact> 0.15568764E+02</totfact>
</mgrwt>
</event>
<event>
 8    1  0.3542708E-007  0.1279683E+03  0.7546771E-02  0.1230503E+00
         -5   -1    0    0    0  501 -0.00000000000E+00  0.00000000000E+00  0.25766524628E+03  0.25770810841E+03  0.47000000000E+01 0.  1.
          5   -1    0    0  501    0  0.00000000000E+00 -0.00000000000E+00 -0.63787528514E+02  0.63960447105E+02  0.47000000000E+01 0.  1.
         25    2    1    2    0    0 -0.39513904658E+01 -0.27111283415E+02  0.10914757948E+03  0.16819360525E+03  0.12500103827E+03 0.  0.
         25    2    1    2    0    0  0.39513904658E+01  0.27111283415E+02  0.84730138285E+02  0.15347495026E+03  0.12499891539E+03 0.  0.
          5    1    4    4  502    0  0.42686218494E+02 -0.74564918161E+01 -0.10569353013E+02  0.44849902370E+02  0.47000000000E+01 0. -1.
         -5    1    4    4    0  502 -0.38734828028E+02  0.34567775231E+02  0.95299491298E+02  0.10862504789E+03  0.47000000000E+01 0. -1.
          5    1    3    3  503    0  0.49995058749E+02 -0.39240530586E+02  0.27352748064E+02  0.69351192972E+02  0.47000000000E+01 0.  1.
         -5    1    3    3    0  503 -0.53946449215E+02  0.12129247172E+02  0.81794831413E+02  0.98842412282E+02  0.47000000000E+01 0.  1.
<mgrwt>
<rscale>  0 0.12796782E+03</rscale>
<asrwt>0</asrwt>
<pdfrwt beam="2">  1        5 0.98300646E-02 0.12796833E+03</pdfrwt>
<pdfrwt beam="1">  1       -5 0.39657405E-01 0.12796833E+03</pdfrwt>
<totfact> 0.35997705E+02</totfact>
</mgrwt>
</event>
<event>
 8    1  0.3542708E-007  0.1418132E+03  0.7546771E-02  0.1210911E+00
         -5   -1    0    0    0  501 -0.00000000000E+00  0.00000000000E+00  0.42221787344E+03  0.42224403211E+03  0.47000000000E+01 0.  1.
          5   -1    0    0  501    0  0.00000000000E+00 -0.00000000000E+00 -0.52199224082E+02  0.52410390142E+02  0.47000000000E+01 0.  1.
         25    2    1    2    0    0  0.64276513502E+02 -0.18837064558E+02  0.25614334785E+03  0.29277925070E+03  0.12499587914E+03 0.  0.
         25    2    1    2    0    0 -0.64276513502E+02  0.18837064558E+02  0.11387530151E+03  0.18187517155E+03  0.12499875417E+03 0.  0.
          5    1    4    4  502    0 -0.55903166531E+01 -0.27362224658E+02 -0.15596557105E+02  0.32330876451E+02  0.47000000000E+01 0.  1.
         -5    1    4    4    0  502 -0.58686196849E+02  0.46199289216E+02  0.12947185861E+03  0.14954429510E+03  0.47000000000E+01 0.  1.
          5    1    3    3  503    0  0.98104103626E+02  0.71182874204E+01  0.18871468317E+03  0.21286241285E+03  0.47000000000E+01 0. -1.
         -5    1    3    3    0  503 -0.33827590124E+02 -0.25955351978E+02  0.67428664687E+02  0.79916837847E+02  0.47000000000E+01 0. -1.
<mgrwt>
<rscale>  0 0.14181260E+03</rscale>
<asrwt>0</asrwt>
<pdfrwt beam="2">  1        5 0.80489058E-02 0.14181324E+03</pdfrwt>
<pdfrwt beam="1">  1       -5 0.64974850E-01 0.14181324E+03</pdfrwt>
<totfact> 0.18442600E+02</totfact>
</mgrwt>
</event>
<event>
 8    1  0.3542708E-007  0.1464958E+03  0.7546771E-02  0.1204846E+00
          5   -1    0    0  501    0  0.00000000000E+00  0.00000000000E+00  0.24483141818E+03  0.24487652669E+03  0.47000000000E+01 0. -1.
         -5   -1    0    0    0  501 -0.00000000000E+00 -0.00000000000E+00 -0.93368111071E+02  0.93486331434E+02  0.47000000000E+01 0. -1.
         25    2    1    2    0    0  0.14291492480E+01 -0.76376589303E+02  0.33499388538E+02  0.15027639217E+03  0.12500143659E+03 0.  0.
         25    2    1    2    0    0 -0.14291492480E+01  0.76376589303E+02  0.11796391857E+03  0.18808646596E+03  0.12500242690E+03 0.  0.
          5    1    4    4  502    0 -0.46797554895E+02 -0.97872154150E+01  0.29064998896E+02  0.56148596514E+02  0.47000000000E+01 0. -1.
         -5    1    4    4    0  502  0.45368405647E+02  0.86163804718E+02  0.88898919671E+02  0.13193786944E+03  0.47000000000E+01 0. -1.
          5    1    3    3  503    0  0.32488727923E+02  0.22073957568E+02 -0.52591461168E+01  0.39906461415E+02  0.47000000000E+01 0.  1.
         -5    1    3    3    0  503 -0.31059578675E+02 -0.98450546871E+02  0.38758534655E+02  0.11036993076E+03  0.47000000000E+01 0.  1.
<mgrwt>
<rscale>  0 0.14649563E+03</rscale>
<asrwt>0</asrwt>
<pdfrwt beam="1">  1        5 0.37678936E-01 0.14649584E+03</pdfrwt>
<pdfrwt beam="2">  1       -5 0.14376888E-01 0.14649584E+03</pdfrwt>
<totfact> 0.21345417E+02</totfact>
</mgrwt>
</event>
<event>
 8    1  0.3542708E-007  0.1348580E+03  0.7546771E-02  0.1220423E+00
         -5   -1    0    0    0  501 -0.00000000000E+00  0.00000000000E+00  0.13556005602E+03  0.13564150835E+03  0.47000000000E+01 0. -1.
          5   -1    0    0  501    0  0.00000000000E+00 -0.00000000000E+00 -0.15902318451E+03  0.15909262463E+03  0.47000000000E+01 0. -1.
         25    2    1    2    0    0 -0.10685520075E+02  0.49478823464E+02  0.46709650063E+02  0.14271813404E+03  0.12499736023E+03 0.  0.
         25    2    1    2    0    0  0.10685520075E+02 -0.49478823464E+02 -0.70172778556E+02  0.15201599893E+03  0.12498924262E+03 0.  0.
          5    1    4    4  502    0  0.18062185662E+02 -0.30851916264E+02  0.31745415735E+02  0.48041073138E+02  0.47000000000E+01 0.  1.
         -5    1    4    4    0  502 -0.73766655865E+01 -0.18626907200E+02 -0.10191819429E+03  0.10397492580E+03  0.47000000000E+01 0.  1.
          5    1    3    3  503    0  0.24870353909E+02  0.34987226899E+02  0.80503111863E+02  0.91353607314E+02  0.47000000000E+01 0. -1.
         -5    1    3    3    0  503 -0.35555873984E+02  0.14491596565E+02 -0.33793461800E+02  0.51364526730E+02  0.47000000000E+01 0. -1.
<mgrwt>
<rscale>  0 0.13485610E+03</rscale>
<asrwt>0</asrwt>
<pdfrwt beam="2">  1        5 0.24476712E-01 0.13485798E+03</pdfrwt>
<pdfrwt beam="1">  1       -5 0.20867000E-01 0.13485798E+03</pdfrwt>
<totfact> 0.24453954E+02</totfact>
</mgrwt>
</event>
<event>
 8    1  0.3542708E-007  0.1259864E+03  0.7546771E-02  0.1233549E+00
         -5   -1    0    0    0  501 -0.00000000000E+00  0.00000000000E+00  0.17674077678E+03  0.17680325839E+03  0.47000000000E+01 0. -1.
          5   -1    0    0  501    0  0.00000000000E+00 -0.00000000000E+00 -0.92179329434E+02  0.92299072449E+02  0.47000000000E+01 0. -1.
         25    2    1    2    0    0 -0.13264241209E+02 -0.79427084630E+01  0.64583222613E+02  0.14157529594E+03  0.12503417559E+03 0.  0.
         25    2    1    2    0    0  0.13264241209E+02  0.79427084630E+01  0.19978224732E+02  0.12752703490E+03  0.12499995381E+03 0.  0.
          5    1    4    4  502    0  0.76660804833E+01  0.66385949356E+02  0.86396461969E+01  0.67546995109E+02  0.47000000000E+01 0.  1.
         -5    1    4    4    0  502  0.55981607254E+01 -0.58443240893E+02  0.11338578535E+02  0.59980039786E+02  0.47000000000E+01 0.  1.
          5    1    3    3  503    0 -0.34055263359E+02 -0.23624798089E+02 -0.24683224074E+02  0.48468996254E+02  0.47000000000E+01 0.  1.
         -5    1    3    3    0  503  0.20791022150E+02  0.15682089626E+02  0.89266446687E+02  0.93106299686E+02  0.47000000000E+01 0.  1.
<mgrwt>
<rscale>  0 0.12597790E+03</rscale>
<asrwt>0</asrwt>
<pdfrwt beam="2">  1        5 0.14195453E-01 0.12598640E+03</pdfrwt>
<pdfrwt beam="1">  1       -5 0.27204906E-01 0.12598640E+03</pdfrwt>
<totfact> 0.39488124E+02</totfact>
</mgrwt>
</event>
<event>
 8    1  0.3542708E-007  0.1304294E+03  0.7546771E-02  0.1226823E+00
         -5   -1    0    0    0  501 -0.00000000000E+00  0.00000000000E+00  0.21507802770E+02  0.22015348736E+02  0.47000000000E+01 0. -1.
          5   -1    0    0  501    0  0.00000000000E+00 -0.00000000000E+00 -0.85234766632E+03  0.85236062455E+03  0.47000000000E+01 0. -1.
         25    2    1    2    0    0  0.15130927086E+02  0.34018670258E+02 -0.28913366927E+03  0.31719096908E+03  0.12500246910E+03 0.  0.
         25    2    1    2    0    0 -0.15130927086E+02 -0.34018670258E+02 -0.54170619428E+03  0.55718500421E+03  0.12499325224E+03 0.  0.
          5    1    4    4  502    0 -0.49343727985E+02 -0.66141669596E+02 -0.36995300574E+03  0.37907366092E+03  0.47000000000E+01 0.  1.
         -5    1    4    4    0  502  0.34212800899E+02  0.32122999338E+02 -0.17175318855E+03  0.17811134329E+03  0.47000000000E+01 0.  1.
          5    1    3    3  503    0  0.21899482868E+02 -0.54511248976E+01  0.21295533757E+01  0.23150099570E+02  0.47000000000E+01 0.  1.
         -5    1    3    3    0  503 -0.67685557825E+01  0.39469795156E+02 -0.29126322264E+03  0.29404086951E+03  0.47000000000E+01 0.  1.
<mgrwt>
<rscale>  0 0.13042721E+03</rscale>
<asrwt>0</asrwt>
<pdfrwt beam="2">  1        5 0.13117042E+00 0.13042941E+03</pdfrwt>
<pdfrwt beam="1">  1       -5 0.33489322E-02 0.13042941E+03</pdfrwt>
<totfact> 0.14372943E+02</totfact>
</mgrwt>
</event>
<event>
 8    1  0.3542708E-007  0.1320828E+03  0.7546771E-02  0.1224400E+00
          5   -1    0    0  501    0  0.00000000000E+00  0.00000000000E+00  0.86077743335E+02  0.86205962077E+02  0.47000000000E+01 0.  1.
         -5   -1    0    0    0  501 -0.00000000000E+00 -0.00000000000E+00 -0.20312952164E+03  0.20318388854E+03  0.47000000000E+01 0.  1.
         25    2    1    2    0    0  0.39439326541E+02 -0.16220355066E+02 -0.49610514893E+02  0.14109245537E+03  0.12500926917E+03 0.  0.
         25    2    1    2    0    0 -0.39439326541E+02  0.16220355066E+02 -0.67441263416E+02  0.14829739524E+03  0.12500093211E+03 0.  0.
          5    1    3    3  502    0  0.69494181963E+02 -0.38260958117E+02 -0.62790154466E+02  0.10128196158E+03  0.47000000000E+01 0.  1.
         -5    1    3    3    0  502 -0.30054855421E+02  0.22040603050E+02  0.13179639573E+02  0.39810493799E+02  0.47000000000E+01 0.  1.
          5    1    4    4  503    0 -0.71258649403E+02 -0.24401573821E+02 -0.59015552384E+02  0.95802700082E+02  0.47000000000E+01 0.  1.
         -5    1    4    4    0  503  0.31819322862E+02  0.40621928887E+02 -0.84257110317E+01  0.52494695163E+02  0.47000000000E+01 0.  1.
<mgrwt>
<rscale>  0 0.13208087E+03</rscale>
<asrwt>0</asrwt>
<pdfrwt beam="1">  1        5 0.13256775E-01 0.13208284E+03</pdfrwt>
<pdfrwt beam="2">  1       -5 0.31264741E-01 0.13208284E+03</pdfrwt>
<totfact> 0.34620818E+02</totfact>
</mgrwt>
</event>
<event>
 8    1  0.3542708E-007  0.1360783E+03  0.7546771E-02  0.1218706E+00
          5   -1    0    0  501    0  0.00000000000E+00  0.00000000000E+00  0.27389824669E+03  0.27393856892E+03  0.47000000000E+01 0. -1.
         -5   -1    0    0    0  501 -0.00000000000E+00 -0.00000000000E+00 -0.71194149492E+02  0.71349119980E+02  0.47000000000E+01 0. -1.
         25    2    1    2    0    0  0.45218196494E+02  0.29106965359E+02  0.61967163623E+02  0.14952337575E+03  0.12500163920E+03 0.  0.
         25    2    1    2    0    0 -0.45218196494E+02 -0.29106965359E+02  0.14073693358E+03  0.19576431314E+03  0.12499952440E+03 0.  0.
          5    1    3    3  502    0  0.89682091013E+01 -0.42817266686E+01 -0.37143312553E+02  0.38735999086E+02  0.47000000000E+01 0.  1.
         -5    1    3    3    0  502  0.36249987392E+02  0.33388692027E+02  0.99110476177E+02  0.11078737667E+03  0.47000000000E+01 0.  1.
          5    1    4    4  503    0 -0.41211039797E+02  0.36403436104E+02  0.11015006298E+03  0.12320181141E+03  0.47000000000E+01 0.  1.
         -5    1    4    4    0  503 -0.40071566970E+01 -0.65510401463E+02  0.30586870601E+02  0.72562501733E+02  0.47000000000E+01 0.  1.
<mgrwt>
<rscale>  0 0.13607784E+03</rscale>
<asrwt>0</asrwt>
<pdfrwt beam="1">  1        5 0.42153213E-01 0.13607832E+03</pdfrwt>
<pdfrwt beam="2">  1       -5 0.10967969E-01 0.13607832E+03</pdfrwt>
<totfact> 0.26804179E+02</totfact>
</mgrwt>
</event>
<event>
 8    1  0.3542708E-007  0.1285880E+03  0.7546771E-02  0.1229567E+00
         -5   -1    0    0    0  501 -0.00000000000E+00  0.00000000000E+00  0.24110090912E+02  0.24563926474E+02  0.47000000000E+01 0.  1.
          5   -1    0    0  501    0  0.00000000000E+00 -0.00000000000E+00 -0.73578589326E+03  0.73580090427E+03  0.47000000000E+01 0.  1.
         25    2    1    2    0    0  0.12190890566E+01  0.30125695296E+02 -0.25019936537E+03  0.28130872332E+03  0.12500332673E+03 0.  0.
         25    2    1    2    0    0 -0.12190890566E+01 -0.30125695296E+02 -0.46147643698E+03  0.47905610742E+03  0.12500083387E+03 0.  0.
          5    1    4    4  502    0  0.59328369545E+02 -0.13332054669E+01 -0.17677360403E+03  0.18652782621E+03  0.47000000000E+01 0. -1.
         -5    1    4    4    0  502 -0.60547458601E+02 -0.28792489830E+02 -0.28470283296E+03  0.29252828121E+03  0.47000000000E+01 0. -1.
          5    1    3    3  503    0  0.99834981626E+01  0.40116700179E+02 -0.26053019736E+03  0.26383156294E+03  0.47000000000E+01 0. -1.
         -5    1    3    3    0  503 -0.87644091060E+01 -0.99910048821E+01  0.10330831990E+02  0.17477160385E+02  0.47000000000E+01 0. -1.
<mgrwt>
<rscale>  0 0.12858740E+03</rscale>
<asrwt>0</asrwt>
<pdfrwt beam="2">  1        5 0.11323388E+00 0.12858801E+03</pdfrwt>
<pdfrwt beam="1">  1       -5 0.37453104E-02 0.12858801E+03</pdfrwt>
<totfact> 0.17353433E+02</totfact>
</mgrwt>
</event>
<event>
 8    1  0.3542708E-007  0.1264014E+03  0.7546771E-02  0.1232898E+00
         -5   -1    0    0    0  501 -0.00000000000E+00  0.00000000000E+00  0.73305824417E+02  0.73456340050E+02  0.47000000000E+01 0.  1.
          5   -1    0    0  501    0  0.00000000000E+00 -0.00000000000E+00 -0.25410245537E+03  0.25414591837E+03  0.47000000000E+01 0.  1.
         25    2    1    2    0    0 -0.92046364300E+00 -0.18736324446E+02 -0.28288487718E+02  0.12952133636E+03  0.12499456359E+03 0.  0.
         25    2    1    2    0    0  0.92046364300E+00  0.18736324446E+02 -0.15250814324E+03  0.19808092207E+03  0.12500168329E+03 0.  0.
          5    1    3    3  502    0  0.57338897682E+01 -0.60943448765E+02 -0.51976706725E+02  0.80440347346E+02  0.47000000000E+01 0. -1.
         -5    1    3    3    0  502 -0.66543534112E+01  0.42207124318E+02  0.23688219007E+02  0.49080989011E+02  0.47000000000E+01 0. -1.
          5    1    4    4  503    0 -0.41450562151E+02  0.84859543466E+01 -0.14800354927E+03  0.15400422436E+03  0.47000000000E+01 0.  1.
         -5    1    4    4    0  503  0.42371025794E+02  0.10250370100E+02 -0.45045939664E+01  0.44076697708E+02  0.47000000000E+01 0.  1.
<mgrwt>
<rscale>  0 0.12639966E+03</rscale>
<asrwt>0</asrwt>
<pdfrwt beam="2">  1        5 0.39107606E-01 0.12640142E+03</pdfrwt>
<pdfrwt beam="1">  1       -5 0.11292741E-01 0.12640142E+03</pdfrwt>
<totfact> 0.28921678E+02</totfact>
</mgrwt>
</event>
<event>
 8    1  0.3542708E-007  0.1551195E+03  0.7546771E-02  0.1194325E+00
          5   -1    0    0  501    0  0.00000000000E+00  0.00000000000E+00  0.12592612830E+04  0.12592700540E+04  0.47000000000E+01 0. -1.
         -5   -1    0    0    0  501 -0.00000000000E+00 -0.00000000000E+00 -0.20650730908E+02  0.21178826385E+02  0.47000000000E+01 0. -1.
         25    2    1    2    0    0 -0.89904706177E+02  0.18824824142E+02  0.43063364058E+03  0.45771975859E+03  0.12499925920E+03 0.  0.
         25    2    1    2    0    0  0.89904706177E+02 -0.18824824142E+02  0.80797691153E+03  0.82272912181E+03  0.12497715033E+03 0.  0.
          5    1    4    4  502    0  0.99239131325E+02 -0.30108087198E+02  0.79724445402E+03  0.80397494461E+03  0.47000000000E+01 0.  1.
         -5    1    4    4    0  502 -0.93344251475E+01  0.11283263056E+02  0.10732457514E+02  0.18754177197E+02  0.47000000000E+01 0.  1.
          5    1    3    3  503    0 -0.73666658214E+02 -0.45382182963E+02  0.28003156668E+03  0.29313151895E+03  0.47000000000E+01 0.  1.
         -5    1    3    3    0  503 -0.16238047963E+02  0.64207007105E+02  0.15060207391E+03  0.16458823964E+03  0.47000000000E+01 0.  1.
<mgrwt>
<rscale>  0 0.15511500E+03</rscale>
<asrwt>0</asrwt>
<pdfrwt beam="1">  1        5 0.19377384E+00 0.15511945E+03</pdfrwt>
<pdfrwt beam="2">  1       -5 0.32183323E-02 0.15511945E+03</pdfrwt>
<totfact> 0.53972216E+01</totfact>
</mgrwt>
</event>
<event>
 8    1  0.3542708E-007  0.1457192E+03  0.7546771E-02  0.1205834E+00
          5   -1    0    0  501    0  0.00000000000E+00  0.00000000000E+00  0.14425370428E+03  0.14433025046E+03  0.47000000000E+01 0.  1.
         -5   -1    0    0    0  501 -0.00000000000E+00 -0.00000000000E+00 -0.15132056895E+03  0.15139354210E+03  0.47000000000E+01 0.  1.
         25    2    1    2    0    0  0.10746187023E+02 -0.74123365310E+02 -0.28374128257E+02  0.14845499925E+03  0.12499616726E+03 0.  0.
         25    2    1    2    0    0 -0.10746187023E+02  0.74123365310E+02  0.21307263579E+02  0.14726879330E+03  0.12499737669E+03 0.  0.
          5    1    4    4  502    0  0.59334922228E+01 -0.34624683323E+02  0.22681242988E+01  0.35514918175E+02  0.47000000000E+01 0. -1.
         -5    1    4    4    0  502 -0.16679679245E+02  0.10874804863E+03  0.19039139281E+02  0.11175387513E+03  0.47000000000E+01 0. -1.
          5    1    3    3  503    0 -0.24833246435E+02 -0.56522510404E+01 -0.59674745480E+02  0.65052312169E+02  0.47000000000E+01 0.  1.
         -5    1    3    3    0  503  0.35579433458E+02 -0.68471114270E+02  0.31300617223E+02  0.83402687086E+02  0.47000000000E+01 0.  1.
<mgrwt>
<rscale>  0 0.14571898E+03</rscale>
<asrwt>0</asrwt>
<pdfrwt beam="1">  1        5 0.22204379E-01 0.14571924E+03</pdfrwt>
<pdfrwt beam="2">  1       -5 0.23291589E-01 0.14571924E+03</pdfrwt>
<totfact> 0.24546763E+02</totfact>
</mgrwt>
</event>
<event>
 8    1  0.3542708E-007  0.1257154E+03  0.7546771E-02  0.1233958E+00
          5   -1    0    0  501    0  0.00000000000E+00  0.00000000000E+00  0.22797274785E+03  0.22802119148E+03  0.47000000000E+01 0.  1.
         -5   -1    0    0    0  501 -0.00000000000E+00 -0.00000000000E+00 -0.78618873304E+02  0.78759235901E+02  0.47000000000E+01 0.  1.
         25    2    1    2    0    0 -0.10909370693E+02 -0.76734212854E+01  0.21613750946E+02  0.12755986388E+03  0.12500587538E+03 0.  0.
         25    2    1    2    0    0  0.10909370693E+02  0.76734212854E+01  0.12774012360E+03  0.17922056351E+03  0.12499830176E+03 0.  0.
          5    1    3    3  502    0 -0.31730513532E+02 -0.23172345309E+02 -0.42597563021E+02  0.58141426294E+02  0.47000000000E+01 0.  1.
         -5    1    3    3    0  502  0.20821142840E+02  0.15498924024E+02  0.64211313967E+02  0.69418437582E+02  0.47000000000E+01 0.  1.
          5    1    4    4  503    0  0.66356181978E+02  0.11196366743E+02  0.87377055931E+02  0.11038723395E+03  0.47000000000E+01 0.  1.
         -5    1    4    4    0  503 -0.55446811285E+02 -0.35229454572E+01  0.40363067673E+02  0.68833329560E+02  0.47000000000E+01 0.  1.
<mgrwt>
<rscale>  0 0.12571353E+03</rscale>
<asrwt>0</asrwt>
<pdfrwt beam="1">  1        5 0.35087253E-01 0.12571541E+03</pdfrwt>
<pdfrwt beam="2">  1       -5 0.12109735E-01 0.12571541E+03</pdfrwt>
<totfact> 0.31759328E+02</totfact>
</mgrwt>
</event>
<event>
 8    1  0.3542708E-007  0.1255619E+03  0.7546771E-02  0.1234198E+00
          5   -1    0    0  501    0  0.00000000000E+00  0.00000000000E+00  0.53845264378E+01  0.71472459702E+01  0.47000000000E+01 0.  1.
         -5   -1    0    0    0  501 -0.00000000000E+00 -0.00000000000E+00 -0.30555217384E+04  0.30555253531E+04  0.47000000000E+01 0.  1.
         25    2    1    2    0    0  0.30230537785E+01  0.11453382284E+02 -0.21695249925E+04  0.21731554200E+04  0.12500187062E+03 0.  0.
         25    2    1    2    0    0 -0.30230537785E+01 -0.11453382284E+02 -0.88061221944E+03  0.88951717909E+03  0.12499044786E+03 0.  0.
          5    1    3    3  502    0 -0.38223734597E+02 -0.40527489818E+02 -0.75505953891E+03  0.75712649447E+03  0.47000000000E+01 0.  1.
         -5    1    3    3    0  502  0.41246788376E+02  0.51980872101E+02 -0.14144654536E+04  0.14160289255E+04  0.47000000000E+01 0.  1.
          5    1    4    4  503    0  0.27880050400E+02  0.49328591783E+02 -0.43292699939E+03  0.43664457397E+03  0.47000000000E+01 0. -1.
         -5    1    4    4    0  503 -0.30903104178E+02 -0.60781974067E+02 -0.44768522005E+03  0.45287260512E+03  0.47000000000E+01 0. -1.
<mgrwt>
<rscale>  0 0.12555904E+03</rscale>
<asrwt>0</asrwt>
<pdfrwt beam="1">  1        5 0.96426299E-03 0.12556188E+03</pdfrwt>
<pdfrwt beam="2">  1       -5 0.47021495E+00 0.12556188E+03</pdfrwt>
<totfact> 0.47541405E+00</totfact>
</mgrwt>
</event>
<event>
 8    1  0.3542708E-007  0.1300368E+03  0.7546771E-02  0.1227408E+00
         -5   -1    0    0    0  501 -0.00000000000E+00  0.00000000000E+00  0.54948800488E+03  0.54950810505E+03  0.47000000000E+01 0.  1.
          5   -1    0    0  501    0  0.00000000000E+00 -0.00000000000E+00 -0.38192890694E+02  0.38480994004E+02  0.47000000000E+01 0.  1.
         25    2    1    2    0    0 -0.95805674088E+00  0.35837136649E+02  0.38639959927E+03  0.40768811039E+03  0.12497890540E+03 0.  0.
         25    2    1    2    0    0  0.95805674088E+00 -0.35837136649E+02  0.12489551492E+03  0.18030098867E+03  0.12499735450E+03 0.  0.
          5    1    4    4  502    0  0.36152937495E+02 -0.68890170469E+02  0.96666299094E+02  0.12417469089E+03  0.47000000000E+01 0.  1.
         -5    1    4    4    0  502 -0.35194880755E+02  0.33053033820E+02  0.28229215824E+02  0.56126297776E+02  0.47000000000E+01 0.  1.
          5    1    3    3  503    0 -0.29703915457E+02  0.16622958048E+02  0.20260754558E+02  0.39890268274E+02  0.47000000000E+01 0. -1.
         -5    1    3    3    0  503  0.28745858716E+02  0.19214178601E+02  0.36613884471E+03  0.36779784211E+03  0.47000000000E+01 0. -1.
<mgrwt>
<rscale>  0 0.13003232E+03</rscale>
<asrwt>0</asrwt>
<pdfrwt beam="2">  1        5 0.58995373E-02 0.13003675E+03</pdfrwt>
<pdfrwt beam="1">  1       -5 0.84560324E-01 0.13003675E+03</pdfrwt>
<totfact> 0.16649082E+02</totfact>
</mgrwt>
</event>
<event>
 8    1  0.3542708E-007  0.1345606E+03  0.7546771E-02  0.1220842E+00
          5   -1    0    0  501    0  0.00000000000E+00  0.00000000000E+00  0.93227423462E+02  0.93345822003E+02  0.47000000000E+01 0.  1.
         -5   -1    0    0    0  501 -0.00000000000E+00 -0.00000000000E+00 -0.29876027632E+03  0.29879724347E+03  0.47000000000E+01 0.  1.
         25    2    1    2    0    0  0.22970123356E+01 -0.49753802507E+02 -0.21887104932E+03  0.25692624618E+03  0.12500337041E+03 0.  0.
         25    2    1    2    0    0 -0.22970123356E+01  0.49753802507E+02  0.13338196463E+02  0.13521681930E+03  0.12499985443E+03 0.  0.
          5    1    3    3  502    0  0.62171866775E+02 -0.36899421562E+02 -0.10539833703E+03  0.12789764571E+03  0.47000000000E+01 0. -1.
         -5    1    3    3    0  502 -0.59874854440E+02 -0.12854380944E+02 -0.11347271229E+03  0.12902860047E+03  0.47000000000E+01 0. -1.
          5    1    4    4  503    0 -0.53935978711E+02  0.30152074883E+02  0.39944654034E+02  0.73728575228E+02  0.47000000000E+01 0. -1.
         -5    1    4    4    0  503  0.51638966376E+02  0.19601727624E+02 -0.26606457571E+02  0.61488244069E+02  0.47000000000E+01 0. -1.
<mgrwt>
<rscale>  0 0.13455980E+03</rscale>
<asrwt>0</asrwt>
<pdfrwt beam="1">  1        5 0.14354632E-01 0.13456062E+03</pdfrwt>
<pdfrwt beam="2">  1       -5 0.45975070E-01 0.13456062E+03</pdfrwt>
<totfact> 0.13816341E+02</totfact>
</mgrwt>
</event>
<event>
 8    1  0.3542708E-007  0.1460538E+03  0.7546771E-02  0.1205410E+00
         -5   -1    0    0    0  501 -0.00000000000E+00  0.00000000000E+00  0.31278310320E+03  0.31281841321E+03  0.47000000000E+01 0.  1.
          5   -1    0    0  501    0  0.00000000000E+00 -0.00000000000E+00 -0.69255859791E+02  0.69415157678E+02  0.47000000000E+01 0.  1.
         25    2    1    2    0    0 -0.55034773843E+02 -0.51746926557E+02  0.14667481984E+03  0.20698490442E+03  0.12499070822E+03 0.  0.
         25    2    1    2    0    0  0.55034773843E+02  0.51746926557E+02  0.96852423563E+02  0.17524866647E+03  0.12500052964E+03 0.  0.
          5    1    3    3  502    0  0.28474864762E+02 -0.54891031169E+02  0.69337404430E+02  0.93024775620E+02  0.47000000000E+01 0. -1.
         -5    1    3    3    0  502 -0.83509638605E+02  0.31441046124E+01  0.77337415413E+02  0.11396012880E+03  0.47000000000E+01 0. -1.
          5    1    4    4  503    0  0.46718196641E+02  0.77790475433E+02  0.11153579894E+03  0.14386199085E+03  0.47000000000E+01 0. -1.
         -5    1    4    4    0  503  0.83165772022E+01 -0.26043548876E+02 -0.14683375374E+02  0.31386675625E+02  0.47000000000E+01 0. -1.
<mgrwt>
<rscale>  0 0.14605167E+03</rscale>
<asrwt>0</asrwt>
<pdfrwt beam="2">  1        5 0.10669718E-01 0.14605377E+03</pdfrwt>
<pdfrwt beam="1">  1       -5 0.48135446E-01 0.14605377E+03</pdfrwt>
<totfact> 0.21848677E+02</totfact>
</mgrwt>
</event>
<event>
 8    1  0.3542708E-007  0.1284798E+03  0.7546771E-02  0.1229733E+00
         -5   -1    0    0    0  501 -0.00000000000E+00  0.00000000000E+00  0.82056331919E+02  0.82190824354E+02  0.47000000000E+01 0. -1.
          5   -1    0    0  501    0  0.00000000000E+00 -0.00000000000E+00 -0.30429520105E+03  0.30433149587E+03  0.47000000000E+01 0. -1.
         25    2    1    2    0    0  0.27212899129E+02  0.11935381243E+02  0.15401674737E+01  0.12848903179E+03  0.12499625582E+03 0.  0.
         25    2    1    2    0    0 -0.27212899129E+02 -0.11935381243E+02 -0.22377903660E+03  0.25803328844E+03  0.12498450111E+03 0.  0.
          5    1    4    4  502    0  0.16942198668E+01 -0.34043096958E+02 -0.21822531395E+03  0.22092120876E+03  0.47000000000E+01 0. -1.
         -5    1    4    4    0  502 -0.28907118996E+02  0.22107715714E+02 -0.55537226495E+01  0.37112079678E+02  0.47000000000E+01 0. -1.
          5    1    3    3  503    0 -0.43807156186E+02  0.15537076804E+02  0.25598333458E+02  0.53271309018E+02  0.47000000000E+01 0. -1.
         -5    1    3    3    0  503  0.71020055315E+02 -0.36016955607E+01 -0.24058165984E+02  0.75217722768E+02  0.47000000000E+01 0. -1.
<mgrwt>
<rscale>  0 0.12847694E+03</rscale>
<asrwt>0</asrwt>
<pdfrwt beam="2">  1        5 0.46827783E-01 0.12847980E+03</pdfrwt>
<pdfrwt beam="1">  1       -5 0.12637189E-01 0.12847980E+03</pdfrwt>
<totfact> 0.16438188E+02</totfact>
</mgrwt>
</event>
<event>
 8    1  0.3542708E-007  0.1406431E+03  0.7546771E-02  0.1212467E+00
         -5   -1    0    0    0  501 -0.00000000000E+00  0.00000000000E+00  0.49719511523E+03  0.49721732936E+03  0.47000000000E+01 0.  1.
          5   -1    0    0  501    0  0.00000000000E+00 -0.00000000000E+00 -0.41373109595E+02  0.41639214661E+02  0.47000000000E+01 0.  1.
         25    2    1    2    0    0  0.51542318195E+02  0.38708063277E+02  0.28314727744E+03  0.31615322888E+03  0.12500223471E+03 0.  0.
         25    2    1    2    0    0 -0.51542318195E+02 -0.38708063277E+02  0.17267472820E+03  0.22270331514E+03  0.12500112034E+03 0.  0.
          5    1    3    3  502    0  0.44236301987E+02  0.47070965144E+02  0.29331495527E+03  0.30038022432E+03  0.47000000000E+01 0.  1.
         -5    1    3    3    0  502  0.73060162083E+01 -0.83629018663E+01 -0.10167677835E+02  0.15773004565E+02  0.47000000000E+01 0.  1.
          5    1    4    4  503    0  0.28497929039E+01 -0.74710389386E+02  0.84525761830E+02  0.11294449086E+03  0.47000000000E+01 0. -1.
         -5    1    4    4    0  503 -0.54392111099E+02  0.36002326109E+02  0.88148966372E+02  0.10975882428E+03  0.47000000000E+01 0. -1.
<mgrwt>
<rscale>  0 0.14064286E+03</rscale>
<asrwt>0</asrwt>
<pdfrwt beam="2">  1        5 0.63872721E-02 0.14064311E+03</pdfrwt>
<pdfrwt beam="1">  1       -5 0.76513735E-01 0.14064311E+03</pdfrwt>
<totfact> 0.18849548E+02</totfact>
</mgrwt>
</event>
<event>
 8    1  0.3542708E-007  0.1426490E+03  0.7546771E-02  0.1209819E+00
         -5   -1    0    0    0  501 -0.00000000000E+00  0.00000000000E+00  0.82162985441E+03  0.82164329709E+03  0.47000000000E+01 0. -1.
          5   -1    0    0  501    0  0.00000000000E+00 -0.00000000000E+00 -0.26098411392E+02  0.26518240462E+02  0.47000000000E+01 0. -1.
         25    2    1    2    0    0 -0.56182861982E+02  0.39482990019E+02  0.50100593782E+03  0.52090932558E+03  0.12499662100E+03 0.  0.
         25    2    1    2    0    0  0.56182861982E+02 -0.39482990019E+02  0.29452550519E+03  0.32725221197E+03  0.12503326177E+03 0.  0.
          5    1    4    4  502    0 -0.20254091577E+02 -0.27566036069E+02  0.20900492305E+03  0.21183782105E+03  0.47000000000E+01 0. -1.
         -5    1    4    4    0  502  0.76436953559E+02 -0.11916953950E+02  0.85520582146E+02  0.11541439092E+03  0.47000000000E+01 0. -1.
          5    1    3    3  503    0 -0.33791544953E+02  0.12584818615E+01  0.23773022910E+02  0.41601669500E+02  0.47000000000E+01 0.  1.
         -5    1    3    3    0  503 -0.22391317030E+02  0.38224508158E+02  0.47723291491E+03  0.47930765608E+03  0.47000000000E+01 0.  1.
<mgrwt>
<rscale>  0 0.14264097E+03</rscale>
<asrwt>0</asrwt>
<pdfrwt beam="2">  1        5 0.40484697E-02 0.14264900E+03</pdfrwt>
<pdfrwt beam="1">  1       -5 0.12643789E+00 0.14264900E+03</pdfrwt>
<totfact> 0.11939435E+02</totfact>
</mgrwt>
</event>
<event>
 8    1  0.3542708E-007  0.1437116E+03  0.7546771E-02  0.1208420E+00
         -5   -1    0    0    0  501 -0.00000000000E+00  0.00000000000E+00  0.10488939341E+04  0.10489044642E+04  0.47000000000E+01 0. -1.
          5   -1    0    0  501    0  0.00000000000E+00 -0.00000000000E+00 -0.21919681329E+02  0.22417904219E+02  0.47000000000E+01 0. -1.
         25    2    1    2    0    0  0.67616320548E+02  0.21382836403E+02  0.69294032320E+03  0.70768589320E+03  0.12499535758E+03 0.  0.
         25    2    1    2    0    0 -0.67616320548E+02 -0.21382836403E+02  0.33403392960E+03  0.36363647524E+03  0.12499450989E+03 0.  0.
          5    1    3    3  502    0 -0.31995265694E+02 -0.16199320162E+02  0.14205164466E+03  0.14658401943E+03  0.47000000000E+01 0. -1.
         -5    1    3    3    0  502  0.99611586242E+02  0.37582156565E+02  0.55088867854E+03  0.56110187377E+03  0.47000000000E+01 0. -1.
          5    1    4    4  503    0 -0.40525697482E+02  0.34439756250E+02  0.50970550555E+02  0.73814063638E+02  0.47000000000E+01 0. -1.
         -5    1    4    4    0  503 -0.27090623066E+02 -0.55822592653E+02  0.28306337905E+03  0.28982241160E+03  0.47000000000E+01 0. -1.
<mgrwt>
<rscale>  0 0.14371144E+03</rscale>
<asrwt>0</asrwt>
<pdfrwt beam="2">  1        5 0.34113936E-02 0.14371163E+03</pdfrwt>
<pdfrwt beam="1">  1       -5 0.16140743E+00 0.14371163E+03</pdfrwt>
<totfact> 0.82073126E+01</totfact>
</mgrwt>
</event>
<event>
 8    1  0.3542708E-007  0.1434402E+03  0.7546771E-02  0.1208776E+00
         -5   -1    0    0    0  501 -0.00000000000E+00  0.00000000000E+00  0.18993250671E+04  0.18993308823E+04  0.47000000000E+01 0.  1.
          5   -1    0    0  501    0  0.00000000000E+00 -0.00000000000E+00 -0.11544467261E+02  0.12464538673E+02  0.47000000000E+01 0.  1.
         25    2    1    2    0    0 -0.62096230800E+02 -0.33050366471E+02  0.12433036838E+04  0.12515506944E+04  0.12500728827E+03 0.  0.
         25    2    1    2    0    0  0.62096230800E+02  0.33050366471E+02  0.64447691609E+03  0.66024472655E+03  0.12499733981E+03 0.  0.
          5    1    3    3  502    0 -0.58044542901E+02 -0.78312810139E+02  0.87411891294E+03  0.87954990146E+03  0.47000000000E+01 0.  1.
         -5    1    3    3    0  502 -0.40516878991E+01  0.45262443668E+02  0.36918477082E+03  0.37200079299E+03  0.47000000000E+01 0.  1.
          5    1    4    4  503    0  0.27468761619E+02  0.33068113243E+02  0.56110378067E+02  0.70841354484E+02  0.47000000000E+01 0.  1.
         -5    1    4    4    0  503  0.34627469181E+02 -0.17746772347E-01  0.58836653803E+03  0.58940337207E+03  0.47000000000E+01 0.  1.
<mgrwt>
<rscale>  0 0.14343803E+03</rscale>
<asrwt>0</asrwt>
<pdfrwt beam="2">  1        5 0.18472946E-02 0.14344020E+03</pdfrwt>
<pdfrwt beam="1">  1       -5 0.29227497E+00 0.14344020E+03</pdfrwt>
<totfact> 0.29799946E+01</totfact>
</mgrwt>
</event>
<event>
 8    1  0.3542708E-007  0.1256031E+03  0.7546771E-02  0.1234138E+00
         -5   -1    0    0    0  501 -0.00000000000E+00  0.00000000000E+00  0.15844795725E+03  0.15851764935E+03  0.47000000000E+01 0.  1.
          5   -1    0    0  501    0  0.00000000000E+00 -0.00000000000E+00 -0.12076980950E+03  0.12086122988E+03  0.47000000000E+01 0.  1.
         25    2    1    2    0    0  0.12222083814E+02  0.10603627750E+01  0.77551723743E+02  0.14759863531E+03  0.12498233310E+03 0.  0.
         25    2    1    2    0    0 -0.12222083814E+02 -0.10603627750E+01 -0.39873575994E+02  0.13178024392E+03  0.12500250767E+03 0.  0.
          5    1    4    4  502    0 -0.43966681087E+02  0.34391930283E+02  0.15980459049E+02  0.58252373220E+02  0.47000000000E+01 0. -1.
         -5    1    4    4    0  502  0.31744597272E+02 -0.35452293058E+02 -0.55854035043E+02  0.73527870699E+02  0.47000000000E+01 0. -1.
          5    1    3    3  503    0  0.21281173039E+01 -0.58870834925E+02  0.59882488371E+02  0.84132672021E+02  0.47000000000E+01 0. -1.
         -5    1    3    3    0  503  0.10093966511E+02  0.59931197700E+02  0.17669235372E+02  0.63465963289E+02  0.47000000000E+01 0. -1.
<mgrwt>
<rscale>  0 0.12559805E+03</rscale>
<asrwt>0</asrwt>
<pdfrwt beam="2">  1        5 0.18592364E-01 0.12560307E+03</pdfrwt>
<pdfrwt beam="1">  1       -5 0.24389002E-01 0.12560307E+03</pdfrwt>
<totfact> 0.29755642E+02</totfact>
</mgrwt>
</event>
<event>
 8    1  0.3542708E-007  0.1836009E+03  0.7546771E-02  0.1164363E+00
          5   -1    0    0  501    0  0.00000000000E+00  0.00000000000E+00  0.84746299467E+02  0.84876529579E+02  0.47000000000E+01 0.  1.
         -5   -1    0    0    0  501 -0.00000000000E+00 -0.00000000000E+00 -0.46706547216E+03  0.46708911921E+03  0.47000000000E+01 0.  1.
         25    2    1    2    0    0 -0.52915330057E+02  0.12362977380E+03 -0.29779192976E+03  0.34984186544E+03  0.12499977705E+03 0.  0.
         25    2    1    2    0    0  0.52915330057E+02 -0.12362977380E+03 -0.84527242936E+02  0.20212378335E+03  0.12499926348E+03 0.  0.
          5    1    4    4  502    0  0.71365415141E+02 -0.59650465151E+02 -0.96718518855E+02  0.13426750299E+03  0.47000000000E+01 0.  1.
         -5    1    4    4    0  502 -0.18450085084E+02 -0.63979308649E+02  0.12191275919E+02  0.67856280353E+02  0.47000000000E+01 0.  1.
          5    1    3    3  503    0 -0.53330913898E+02  0.10079177536E+03 -0.10323385413E+03  0.15389115308E+03  0.47000000000E+01 0.  1.
         -5    1    3    3    0  503  0.41558384147E+00  0.22837998439E+02 -0.19455807563E+03  0.19595071236E+03  0.47000000000E+01 0.  1.
<mgrwt>
<rscale>  0 0.18360083E+03</rscale>
<asrwt>0</asrwt>
<pdfrwt beam="1">  1        5 0.13049729E-01 0.18360092E+03</pdfrwt>
<pdfrwt beam="2">  1       -5 0.71868062E-01 0.18360092E+03</pdfrwt>
<totfact> 0.68127970E+01</totfact>
</mgrwt>
</event>
<event>
 8    1  0.3542708E-007  0.1429690E+03  0.7546771E-02  0.1209403E+00
          5   -1    0    0  501    0  0.00000000000E+00  0.00000000000E+00  0.79532584545E+03  0.79533973272E+03  0.47000000000E+01 0.  1.
         -5   -1    0    0    0  501 -0.00000000000E+00 -0.00000000000E+00 -0.25526301787E+02  0.25955386395E+02  0.47000000000E+01 0.  1.
         25    2    1    2    0    0  0.52928893526E+02 -0.44727156769E+02  0.36477326432E+03  0.39179033697E+03  0.12505257880E+03 0.  0.
         25    2    1    2    0    0 -0.52928893526E+02  0.44727156769E+02  0.40502627935E+03  0.42950478214E+03  0.12500433831E+03 0.  0.
          5    1    4    4  502    0 -0.75905256984E+02  0.48722497392E+02  0.39222393032E+03  0.40248874681E+03  0.47000000000E+01 0.  1.
         -5    1    4    4    0  502  0.22976363458E+02 -0.39953406233E+01  0.12802349025E+02  0.27016035331E+02  0.47000000000E+01 0.  1.
          5    1    3    3  503    0 -0.27516783883E+02 -0.39029435645E+01  0.21532594294E+03  0.21716297582E+03  0.47000000000E+01 0. -1.
         -5    1    3    3    0  503  0.80445677409E+02 -0.40824213205E+02  0.14944732137E+03  0.17462736115E+03  0.47000000000E+01 0. -1.
<mgrwt>
<rscale>  0 0.14295845E+03</rscale>
<asrwt>0</asrwt>
<pdfrwt beam="1">  1        5 0.12239189E+00 0.14296900E+03</pdfrwt>
<pdfrwt beam="2">  1       -5 0.39611984E-02 0.14296900E+03</pdfrwt>
<totfact> 0.13465817E+02</totfact>
</mgrwt>
</event>
<event>
 8    1  0.3542708E-007  0.1344384E+03  0.7546771E-02  0.1221025E+00
         -5   -1    0    0    0  501 -0.00000000000E+00  0.00000000000E+00  0.14063215557E+03  0.14071067188E+03  0.47000000000E+01 0. -1.
          5   -1    0    0  501    0  0.00000000000E+00 -0.00000000000E+00 -0.14092010352E+03  0.14099845948E+03  0.47000000000E+01 0. -1.
         25    2    1    2    0    0 -0.48531123752E+02  0.94901765644E+01  0.41928694243E+02  0.14079810073E+03  0.12498302422E+03 0.  0.
         25    2    1    2    0    0  0.48531123752E+02 -0.94901765644E+01 -0.42216642195E+02  0.14091103063E+03  0.12501336029E+03 0.  0.
          5    1    3    3  502    0  0.17191126599E+02  0.14460165492E+02 -0.33444506424E+02  0.40561758218E+02  0.47000000000E+01 0. -1.
         -5    1    3    3    0  502 -0.65722250351E+02 -0.49699889279E+01  0.75373200667E+02  0.10023634251E+03  0.47000000000E+01 0. -1.
          5    1    4    4  503    0  0.90473429955E+02  0.15948181146E+01 -0.32005713912E+02  0.96095997292E+02  0.47000000000E+01 0.  1.
         -5    1    4    4    0  503 -0.41942306203E+02 -0.11084994679E+02 -0.10210928284E+02  0.44815033338E+02  0.47000000000E+01 0.  1.
<mgrwt>
<rscale>  0 0.13443131E+03</rscale>
<asrwt>0</asrwt>
<pdfrwt beam="2">  1        5 0.21692083E-01 0.13443836E+03</pdfrwt>
<pdfrwt beam="1">  1       -5 0.21647783E-01 0.13443836E+03</pdfrwt>
<totfact> 0.28667489E+02</totfact>
</mgrwt>
</event>
<event>
 8    1  0.3542708E-007  0.1410328E+03  0.7546771E-02  0.1211946E+00
          5   -1    0    0  501    0  0.00000000000E+00  0.00000000000E+00  0.33672605438E+02  0.33999034647E+02  0.47000000000E+01 0. -1.
         -5   -1    0    0    0  501 -0.00000000000E+00 -0.00000000000E+00 -0.70744517684E+03  0.70746078918E+03  0.47000000000E+01 0. -1.
         25    2    1    2    0    0  0.20679341588E+02 -0.61941854182E+02 -0.48949705785E+03  0.50940910122E+03  0.12500333714E+03 0.  0.
         25    2    1    2    0    0 -0.20679341588E+02  0.61941854182E+02 -0.18427551355E+03  0.23205072261E+03  0.12500257798E+03 0.  0.
          5    1    3    3  502    0  0.66312962901E+02 -0.33321874277E+01 -0.22493244325E+03  0.23457452238E+03  0.47000000000E+01 0.  1.
         -5    1    3    3    0  502 -0.45633621313E+02 -0.58609666755E+02 -0.26456461459E+03  0.27483457884E+03  0.47000000000E+01 0.  1.
          5    1    4    4  503    0 -0.73743756745E+01 -0.19931516709E+02 -0.13224131589E+03  0.13402052979E+03  0.47000000000E+01 0. -1.
         -5    1    4    4    0  503 -0.13304965913E+02  0.81873370891E+02 -0.52034197660E+02  0.98030192824E+02  0.47000000000E+01 0. -1.
<mgrwt>
<rscale>  0 0.14103267E+03</rscale>
<asrwt>0</asrwt>
<pdfrwt beam="1">  1        5 0.52067123E-02 0.14103284E+03</pdfrwt>
<pdfrwt beam="2">  1       -5 0.10886402E+00 0.14103284E+03</pdfrwt>
<totfact> 0.11462219E+02</totfact>
</mgrwt>
</event>
<event>
 8    1  0.3542708E-007  0.1301167E+03  0.7546771E-02  0.1227315E+00
         -5   -1    0    0    0  501 -0.00000000000E+00  0.00000000000E+00  0.37542100471E+02  0.37835159677E+02  0.47000000000E+01 0.  1.
          5   -1    0    0  501    0  0.00000000000E+00 -0.00000000000E+00 -0.45141343746E+03  0.45143790439E+03  0.47000000000E+01 0.  1.
         25    2    1    2    0    0 -0.36075569692E+02 -0.20734558459E+01 -0.18760395537E+03  0.22826101247E+03  0.12490836560E+03 0.  0.
         25    2    1    2    0    0  0.36075569692E+02  0.20734558459E+01 -0.22626738162E+03  0.26101205160E+03  0.12499846857E+03 0.  0.
          5    1    3    3  502    0  0.27503376483E+02  0.43470475056E+02 -0.76787222487E+02  0.92544505276E+02  0.47000000000E+01 0.  1.
         -5    1    3    3    0  502 -0.63578946175E+02 -0.45543930902E+02 -0.11081673288E+03  0.13571650719E+03  0.47000000000E+01 0.  1.
          5    1    4    4  503    0  0.89939077120E+01  0.56696198130E+02 -0.56980584937E+02  0.81019913096E+02  0.47000000000E+01 0. -1.
         -5    1    4    4    0  503  0.27081661980E+02 -0.54622742284E+02 -0.16928679668E+03  0.17999213850E+03  0.47000000000E+01 0. -1.
<mgrwt>
<rscale>  0 0.13009508E+03</rscale>
<asrwt>0</asrwt>
<pdfrwt beam="2">  1        5 0.69472643E-01 0.13011673E+03</pdfrwt>
<pdfrwt beam="1">  1       -5 0.58001332E-02 0.13011673E+03</pdfrwt>
<totfact> 0.26878330E+02</totfact>
</mgrwt>
</event>
<event>
 8    1  0.3542708E-007  0.1524227E+03  0.7546771E-02  0.1197528E+00
          5   -1    0    0  501    0  0.00000000000E+00  0.00000000000E+00  0.87633469539E+02  0.87759415355E+02  0.47000000000E+01 0.  1.
         -5   -1    0    0    0  501 -0.00000000000E+00 -0.00000000000E+00 -0.29446662430E+03  0.29450413041E+03  0.47000000000E+01 0.  1.
         25    2    1    2    0    0 -0.24634010369E+02 -0.83670377458E+02 -0.16409879549E+03  0.22396670931E+03  0.12500042266E+03 0.  0.
         25    2    1    2    0    0  0.24634010369E+02  0.83670377458E+02 -0.42734359271E+02  0.15829683646E+03  0.12499638571E+03 0.  0.
          5    1    3    3  502    0  0.48602164154E+02 -0.51715146589E+02 -0.91608988754E+02  0.11597811676E+03  0.47000000000E+01 0. -1.
         -5    1    3    3    0  502 -0.73236174523E+02 -0.31955230869E+02 -0.72489806737E+02  0.10798859254E+03  0.47000000000E+01 0. -1.
          5    1    4    4  503    0  0.59406921119E+02  0.76600268547E+02  0.66798373630E+01  0.97280489542E+02  0.47000000000E+01 0. -1.
         -5    1    4    4    0  503 -0.34772910750E+02  0.70701089105E+01 -0.49414196634E+02  0.61016346916E+02  0.47000000000E+01 0. -1.
<mgrwt>
<rscale>  0 0.15242185E+03</rscale>
<asrwt>0</asrwt>
<pdfrwt beam="1">  1        5 0.13494646E-01 0.15242268E+03</pdfrwt>
<pdfrwt beam="2">  1       -5 0.45315130E-01 0.15242268E+03</pdfrwt>
<totfact> 0.16575443E+02</totfact>
</mgrwt>
</event>
<event>
 8    1  0.3542708E-007  0.1365357E+03  0.7546771E-02  0.1218069E+00
          5   -1    0    0  501    0  0.00000000000E+00  0.00000000000E+00  0.30130580600E+03  0.30134246088E+03  0.47000000000E+01 0. -1.
         -5   -1    0    0    0  501 -0.00000000000E+00 -0.00000000000E+00 -0.81541604133E+02  0.81676944143E+02  0.47000000000E+01 0. -1.
         25    2    1    2    0    0  0.34709485215E+02  0.42561661650E+02  0.15618445237E+02  0.13742319251E+03  0.12499981841E+03 0.  0.
         25    2    1    2    0    0 -0.34709485215E+02 -0.42561661650E+02  0.20414575663E+03  0.24559621252E+03  0.12500306494E+03 0.  0.
          5    1    4    4  502    0  0.24140213441E+02  0.32648894102E+02  0.58225467546E+02  0.71140672347E+02  0.47000000000E+01 0.  1.
         -5    1    4    4    0  502 -0.58849698656E+02 -0.75210555752E+02  0.14592028909E+03  0.17445554017E+03  0.47000000000E+01 0.  1.
          5    1    3    3  503    0  0.77317643203E+02  0.79416782190E+01 -0.63048763640E+01  0.78121249794E+02  0.47000000000E+01 0.  1.
         -5    1    3    3    0  503 -0.42608157988E+02  0.34619983431E+02  0.21923321600E+02  0.59301942716E+02  0.47000000000E+01 0.  1.
<mgrwt>
<rscale>  0 0.13653500E+03</rscale>
<asrwt>0</asrwt>
<pdfrwt beam="1">  1        5 0.46367970E-01 0.13653574E+03</pdfrwt>
<pdfrwt beam="2">  1       -5 0.12558093E-01 0.13653574E+03</pdfrwt>
<totfact> 0.17327474E+02</totfact>
</mgrwt>
</event>
<event>
 8    1  0.3542708E-007  0.1328023E+03  0.7546771E-02  0.1223373E+00
          5   -1    0    0  501    0  0.00000000000E+00  0.00000000000E+00  0.31705751242E+02  0.32052217736E+02  0.47000000000E+01 0. -1.
         -5   -1    0    0    0  501 -0.00000000000E+00 -0.00000000000E+00 -0.74485143640E+03  0.74486626472E+03  0.47000000000E+01 0. -1.
         25    2    1    2    0    0 -0.25261334997E+02  0.36892717343E+02 -0.55379245233E+03  0.56948195219E+03  0.12499762387E+03 0.  0.
         25    2    1    2    0    0  0.25261334997E+02 -0.36892717343E+02 -0.15935323283E+03  0.20743653026E+03  0.12504900493E+03 0.  0.
          5    1    3    3  502    0  0.68894369668E+01  0.32790921892E+02 -0.52435704631E+03  0.52544753393E+03  0.47000000000E+01 0. -1.
         -5    1    3    3    0  502 -0.32150771964E+02  0.41017954513E+01 -0.29435406025E+02  0.44034418262E+02  0.47000000000E+01 0. -1.
          5    1    4    4  503    0 -0.44886309960E+02  0.10565642219E+02 -0.72367101238E+02  0.85938937385E+02  0.47000000000E+01 0.  1.
         -5    1    4    4    0  503  0.70147644957E+02 -0.47458359562E+02 -0.86986131591E+02  0.12149759287E+03  0.47000000000E+01 0.  1.
<mgrwt>
<rscale>  0 0.13279024E+03</rscale>
<asrwt>0</asrwt>
<pdfrwt beam="1">  1        5 0.49056003E-02 0.13280234E+03</pdfrwt>
<pdfrwt beam="2">  1       -5 0.11462031E+00 0.13280234E+03</pdfrwt>
<totfact> 0.10918959E+02</totfact>
</mgrwt>
</event>
<event>
 8    1  0.3542708E-007  0.1351149E+03  0.7546771E-02  0.1220060E+00
          5   -1    0    0  501    0  0.00000000000E+00  0.00000000000E+00  0.58598632131E+02  0.58786815594E+02  0.47000000000E+01 0.  1.
         -5   -1    0    0    0  501 -0.00000000000E+00 -0.00000000000E+00 -0.35135159538E+03  0.35138302972E+03  0.47000000000E+01 0.  1.
         25    2    1    2    0    0  0.42440122996E+02 -0.28772187615E+02 -0.21600305809E+03  0.25477814895E+03  0.12500232501E+03 0.  0.
         25    2    1    2    0    0 -0.42440122996E+02  0.28772187615E+02 -0.76749905158E+02  0.15539169636E+03  0.12500811388E+03 0.  0.
          5    1    4    4  502    0  0.27339020695E+01  0.31879026682E+00 -0.97697231928E+02  0.97848939565E+02  0.47000000000E+01 0.  1.
         -5    1    4    4    0  502 -0.45174025065E+02  0.28453397348E+02  0.20947326769E+02  0.57542756799E+02  0.47000000000E+01 0.  1.
          5    1    3    3  503    0  0.60950690234E+02 -0.41295443504E+02 -0.21959859577E+03  0.23165908909E+03  0.47000000000E+01 0.  1.
         -5    1    3    3    0  503 -0.18510567238E+02  0.12523255889E+02  0.35955376806E+01  0.23119059859E+02  0.47000000000E+01 0.  1.
<mgrwt>
<rscale>  0 0.13511354E+03</rscale>
<asrwt>0</asrwt>
<pdfrwt beam="1">  1        5 0.90320681E-02 0.13511488E+03</pdfrwt>
<pdfrwt beam="2">  1       -5 0.54070984E-01 0.13511488E+03</pdfrwt>
<totfact> 0.22224013E+02</totfact>
</mgrwt>
</event>
<event>
 8    1  0.3542708E-007  0.1362887E+03  0.7546771E-02  0.1218418E+00
          5   -1    0    0  501    0  0.00000000000E+00  0.00000000000E+00  0.47784054947E+02  0.48014642633E+02  0.47000000000E+01 0.  1.
         -5   -1    0    0    0  501 -0.00000000000E+00 -0.00000000000E+00 -0.39732144977E+03  0.39734924744E+03  0.47000000000E+01 0.  1.
         25    2    1    2    0    0 -0.46644956612E+02 -0.27854920273E+02 -0.20977375575E+03  0.25014997672E+03  0.12497333193E+03 0.  0.
         25    2    1    2    0    0  0.46644956612E+02  0.27854920273E+02 -0.13976363907E+03  0.19521391335E+03  0.12499179413E+03 0.  0.
          5    1    3    3  502    0 -0.46192795888E+02 -0.75240716897E+02 -0.12919090037E+03  0.15654813512E+03  0.47000000000E+01 0.  1.
         -5    1    3    3    0  502 -0.45216072383E+00  0.47385796624E+02 -0.80582855382E+02  0.93601841608E+02  0.47000000000E+01 0.  1.
          5    1    4    4  503    0  0.11639160093E+02 -0.43868633518E+02 -0.90374758003E+02  0.10124037702E+03  0.47000000000E+01 0. -1.
         -5    1    4    4    0  503  0.35005796519E+02  0.71723553791E+02 -0.49388881070E+02  0.93973536337E+02  0.47000000000E+01 0. -1.
<mgrwt>
<rscale>  0 0.13628442E+03</rscale>
<asrwt>0</asrwt>
<pdfrwt beam="1">  1        5 0.73712691E-02 0.13628865E+03</pdfrwt>
<pdfrwt beam="2">  1       -5 0.61146250E-01 0.13628865E+03</pdfrwt>
<totfact> 0.24190396E+02</totfact>
</mgrwt>
</event>
<event>
 8    1  0.3542708E-007  0.1299024E+03  0.7546771E-02  0.1227602E+00
         -5   -1    0    0    0  501 -0.00000000000E+00  0.00000000000E+00  0.10166294173E+03  0.10177152706E+03  0.47000000000E+01 0.  1.
          5   -1    0    0  501    0  0.00000000000E+00 -0.00000000000E+00 -0.16612312206E+03  0.16618959559E+03  0.47000000000E+01 0.  1.
         25    2    1    2    0    0 -0.19769629000E+02  0.29304538065E+02 -0.25903464675E+02  0.13245987739E+03  0.12500014182E+03 0.  0.
         25    2    1    2    0    0  0.19769629000E+02 -0.29304538065E+02 -0.38556715660E+02  0.13550124526E+03  0.12499749183E+03 0.  0.
          5    1    4    4  502    0 -0.48666027553E+01 -0.72364763244E+02 -0.30533898191E+00  0.72680987979E+02  0.47000000000E+01 0.  1.
         -5    1    4    4    0  502  0.24636231755E+02  0.43060225179E+02 -0.38251376678E+02  0.62820257284E+02  0.47000000000E+01 0.  1.
          5    1    3    3  503    0  0.17611143798E+02  0.64470791997E+02 -0.41259821399E+02  0.78683532384E+02  0.47000000000E+01 0. -1.
         -5    1    3    3    0  503 -0.37380772797E+02 -0.35166253932E+02  0.15356356724E+02  0.53776345008E+02  0.47000000000E+01 0. -1.
<mgrwt>
<rscale>  0 0.12990175E+03</rscale>
<asrwt>0</asrwt>
<pdfrwt beam="2">  1        5 0.25570869E-01 0.12990239E+03</pdfrwt>
<pdfrwt beam="1">  1       -5 0.15653919E-01 0.12990239E+03</pdfrwt>
<totfact> 0.37710574E+02</totfact>
</mgrwt>
</event>
<event>
 8    1  0.3542708E-007  0.1320634E+03  0.7546771E-02  0.1224429E+00
         -5   -1    0    0    0  501 -0.00000000000E+00  0.00000000000E+00  0.49180484023E+02  0.49404554535E+02  0.47000000000E+01 0.  1.
          5   -1    0    0  501    0  0.00000000000E+00 -0.00000000000E+00 -0.35496631893E+03  0.35499743319E+03  0.47000000000E+01 0.  1.
         25    2    1    2    0    0 -0.42510499958E+02  0.23706369247E+01 -0.14014441267E+03  0.19255813412E+03  0.12500166434E+03 0.  0.
         25    2    1    2    0    0  0.42510499958E+02 -0.23706369247E+01 -0.16564142223E+03  0.21184385360E+03  0.12501189953E+03 0.  0.
          5    1    4    4  502    0  0.42242453877E+02 -0.23890252384E+02 -0.17937598900E+03  0.18588438476E+03  0.47000000000E+01 0.  1.
         -5    1    4    4    0  502  0.26804608099E+00  0.21519615459E+02  0.13734566767E+02  0.25959468841E+02  0.47000000000E+01 0.  1.
          5    1    3    3  503    0  0.38571730159E+02  0.26535472289E+02 -0.55942726372E+02  0.73099851512E+02  0.47000000000E+01 0. -1.
         -5    1    3    3    0  503 -0.81082230117E+02 -0.24164835364E+02 -0.84201686298E+02  0.11945828261E+03  0.47000000000E+01 0. -1.
<mgrwt>
<rscale>  0 0.13206096E+03</rscale>
<asrwt>0</asrwt>
<pdfrwt beam="2">  1        5 0.54629831E-01 0.13206338E+03</pdfrwt>
<pdfrwt beam="1">  1       -5 0.75858581E-02 0.13206338E+03</pdfrwt>
<totfact> 0.29109028E+02</totfact>
</mgrwt>
</event>
<event>
 8    1  0.3542708E-007  0.1517564E+03  0.7546771E-02  0.1198334E+00
         -5   -1    0    0    0  501 -0.00000000000E+00  0.00000000000E+00  0.27193335234E+03  0.27197396588E+03  0.47000000000E+01 0.  1.
          5   -1    0    0  501    0  0.00000000000E+00 -0.00000000000E+00 -0.10002734425E+03  0.10013770317E+03  0.47000000000E+01 0.  1.
         25    2    1    2    0    0 -0.57633759765E+02 -0.63899161622E+02  0.15902999090E+03  0.21981932798E+03  0.12500098330E+03 0.  0.
         25    2    1    2    0    0  0.57633759765E+02  0.63899161622E+02  0.12876017197E+02  0.15229234107E+03  0.12498964841E+03 0.  0.
          5    1    4    4  502    0  0.10682307865E+02  0.76481704149E+01  0.62262327589E+02  0.63806689687E+02  0.47000000000E+01 0.  1.
         -5    1    4    4    0  502  0.46951451901E+02  0.56250991207E+02 -0.49386310392E+02  0.88485651388E+02  0.47000000000E+01 0.  1.
          5    1    3    3  503    0 -0.96530372099E+02 -0.53518228386E+02  0.12567497496E+03  0.16732783043E+03  0.47000000000E+01 0. -1.
         -5    1    3    3    0  503  0.38896612334E+02 -0.10380933237E+02  0.33355015943E+02  0.52491497545E+02  0.47000000000E+01 0. -1.
<mgrwt>
<rscale>  0 0.15175405E+03</rscale>
<asrwt>0</asrwt>
<pdfrwt beam="2">  1        5 0.15400435E-01 0.15175638E+03</pdfrwt>
<pdfrwt beam="1">  1       -5 0.41847514E-01 0.15175638E+03</pdfrwt>
<totfact> 0.15381124E+02</totfact>
</mgrwt>
</event>
<event>
 8    1  0.3542708E-007  0.1728922E+03  0.7546771E-02  0.1174865E+00
         -5   -1    0    0    0  501 -0.00000000000E+00  0.00000000000E+00  0.10606622809E+03  0.10617031007E+03  0.47000000000E+01 0. -1.
          5   -1    0    0  501    0  0.00000000000E+00 -0.00000000000E+00 -0.29551411186E+03  0.29555148504E+03  0.47000000000E+01 0. -1.
         25    2    1    2    0    0  0.16692643854E+02  0.11826928550E+03 -0.51082115996E+02  0.18027927583E+03  0.12499986587E+03 0.  0.
         25    2    1    2    0    0 -0.16692643854E+02 -0.11826928550E+03 -0.13836576778E+03  0.22144251928E+03  0.12500174160E+03 0.  0.
          5    1    4    4  502    0 -0.41826933200E+02 -0.11497120702E+03 -0.55070963729E+02  0.13424891743E+03  0.47000000000E+01 0. -1.
         -5    1    4    4    0  502  0.25134289346E+02 -0.32980784746E+01 -0.83294804050E+02  0.87193601854E+02  0.47000000000E+01 0. -1.
          5    1    3    3  503    0  0.66663249173E+01  0.14433752925E+03 -0.42571680434E+02  0.15070567413E+03  0.47000000000E+01 0. -1.
         -5    1    3    3    0  503  0.10026318937E+02 -0.26068243760E+02 -0.85104355619E+01  0.29573601701E+02  0.47000000000E+01 0. -1.
<mgrwt>
<rscale>  0 0.17289183E+03</rscale>
<asrwt>0</asrwt>
<pdfrwt beam="2">  1        5 0.45474590E-01 0.17289217E+03</pdfrwt>
<pdfrwt beam="1">  1       -5 0.16328763E-01 0.17289217E+03</pdfrwt>
<totfact> 0.12105001E+02</totfact>
</mgrwt>
</event>
<event>
 8    1  0.3542708E-007  0.1309015E+03  0.7546771E-02  0.1226124E+00
          5   -1    0    0  501    0  0.00000000000E+00  0.00000000000E+00  0.24211829334E+03  0.24216390724E+03  0.47000000000E+01 0.  1.
         -5   -1    0    0    0  501 -0.00000000000E+00 -0.00000000000E+00 -0.73204587138E+02  0.73355310497E+02  0.47000000000E+01 0.  1.
         25    2    1    2    0    0 -0.22205880841E+02 -0.31894645939E+02  0.54976430394E+02  0.14197695990E+03  0.12499871863E+03 0.  0.
         25    2    1    2    0    0  0.22205880841E+02  0.31894645939E+02  0.11393727580E+03  0.17354225783E+03  0.12499937141E+03 0.  0.
          5    1    3    3  502    0 -0.85107483864E+01  0.89825157641E+01 -0.37537813398E+02  0.39803214220E+02  0.47000000000E+01 0. -1.
         -5    1    3    3    0  502 -0.13695132454E+02 -0.40877161703E+02  0.92514243792E+02  0.10217374568E+03  0.47000000000E+01 0. -1.
          5    1    4    4  503    0  0.47613724856E+02 -0.26702768918E+02  0.89613748676E+02  0.10503722490E+03  0.47000000000E+01 0.  1.
         -5    1    4    4    0  503 -0.25407844015E+02  0.58597414857E+02  0.24323527127E+02  0.68505032934E+02  0.47000000000E+01 0.  1.
<mgrwt>
<rscale>  0 0.13090138E+03</rscale>
<asrwt>0</asrwt>
<pdfrwt beam="1">  1        5 0.37264071E-01 0.13090154E+03</pdfrwt>
<pdfrwt beam="2">  1       -5 0.11277347E-01 0.13090154E+03</pdfrwt>
<totfact> 0.32384272E+02</totfact>
</mgrwt>
</event>
<event>
 8    1  0.3542708E-007  0.1367662E+03  0.7546771E-02  0.1217749E+00
         -5   -1    0    0    0  501 -0.00000000000E+00  0.00000000000E+00  0.72604979289E+03  0.72606500518E+03  0.47000000000E+01 0.  1.
          5   -1    0    0  501    0  0.00000000000E+00 -0.00000000000E+00 -0.29813633312E+02  0.30181827832E+02  0.47000000000E+01 0.  1.
         25    2    1    2    0    0  0.80490814018E+01 -0.54899317321E+02  0.49042528222E+03  0.50913732103E+03  0.12500052591E+03 0.  0.
         25    2    1    2    0    0 -0.80490814018E+01  0.54899317321E+02  0.20581087736E+03  0.24710951198E+03  0.12500508357E+03 0.  0.
          5    1    4    4  502    0  0.61599117615E+01  0.66881617258E+02  0.21539696786E+03  0.22567463084E+03  0.47000000000E+01 0. -1.
         -5    1    4    4    0  502 -0.14208993163E+02 -0.11982299937E+02 -0.95860905038E+01  0.21434881144E+02  0.47000000000E+01 0. -1.
          5    1    3    3  503    0 -0.55805533526E+02 -0.44954158126E+02  0.24575682719E+03  0.25603445475E+03  0.47000000000E+01 0.  1.
         -5    1    3    3    0  503  0.63854614927E+02 -0.99451591950E+01  0.24466845502E+03  0.25310286629E+03  0.47000000000E+01 0.  1.
<mgrwt>
<rscale>  0 0.13676516E+03</rscale>
<asrwt>0</asrwt>
<pdfrwt beam="2">  1        5 0.46162057E-02 0.13676620E+03</pdfrwt>
<pdfrwt beam="1">  1       -5 0.11172946E+00 0.13676620E+03</pdfrwt>
<totfact> 0.12992543E+02</totfact>
</mgrwt>
</event>
<event>
 8    1  0.3542708E-007  0.1279965E+03  0.7546771E-02  0.1230460E+00
         -5   -1    0    0    0  501 -0.00000000000E+00  0.00000000000E+00  0.18002402697E+03  0.18008536944E+03  0.47000000000E+01 0.  1.
          5   -1    0    0  501    0  0.00000000000E+00 -0.00000000000E+00 -0.15018886500E+03  0.15026238775E+03  0.47000000000E+01 0.  1.
         25    2    1    2    0    0  0.27211973602E+02 -0.42003448672E+01  0.11867108275E+03  0.17454490649E+03  0.12499985638E+03 0.  0.
         25    2    1    2    0    0 -0.27211973602E+02  0.42003448672E+01 -0.88835920783E+02  0.15580285070E+03  0.12499829223E+03 0.  0.
          5    1    3    3  502    0 -0.48570029032E+01  0.59172628910E+01  0.13608816732E+03  0.13638432374E+03  0.47000000000E+01 0. -1.
         -5    1    3    3    0  502  0.32068976505E+02 -0.10117607758E+02 -0.17417084568E+02  0.38160582748E+02  0.47000000000E+01 0. -1.
          5    1    4    4  503    0  0.59826356631E+01  0.61304955989E+02 -0.43194864199E+02  0.75378881999E+02  0.47000000000E+01 0. -1.
         -5    1    4    4    0  503 -0.33194609265E+02 -0.57104611122E+02 -0.45641056584E+02  0.80423968702E+02  0.47000000000E+01 0. -1.
<mgrwt>
<rscale>  0 0.12799610E+03</rscale>
<asrwt>0</asrwt>
<pdfrwt beam="2">  1        5 0.23116354E-01 0.12799648E+03</pdfrwt>
<pdfrwt beam="1">  1       -5 0.27706378E-01 0.12799648E+03</pdfrwt>
<totfact> 0.15596854E+02</totfact>
</mgrwt>
</event>
<event>
 8    1  0.3542708E-007  0.1368297E+03  0.7546771E-02  0.1217671E+00
         -5   -1    0    0    0  501 -0.00000000000E+00  0.00000000000E+00  0.87533537492E+01  0.99353511190E+01  0.47000000000E+01 0. -1.
          5   -1    0    0  501    0  0.00000000000E+00 -0.00000000000E+00 -0.20248896440E+04  0.20248950986E+04  0.47000000000E+01 0. -1.
         25    2    1    2    0    0  0.14187469051E+02  0.53823219093E+02 -0.89970103290E+03  0.91004156258E+03  0.12496188952E+03 0.  0.
         25    2    1    2    0    0 -0.14187469051E+02 -0.53823219093E+02 -0.11164352573E+04  0.11247888871E+04  0.12499653437E+03 0.  0.
          5    1    3    3  502    0  0.33023155250E+02 -0.47776268032E+01 -0.66435531322E+02  0.74492444735E+02  0.47000000000E+01 0.  1.
         -5    1    3    3    0  502 -0.18835686199E+02  0.58600845896E+02 -0.83326550158E+03  0.83554911785E+03  0.47000000000E+01 0.  1.
          5    1    4    4  503    0  0.44220345138E+02 -0.62896468029E+02 -0.67819349357E+03  0.68255396075E+03  0.47000000000E+01 0.  1.
         -5    1    4    4    0  503 -0.58407814189E+02  0.90732489363E+01 -0.43824176375E+03  0.44223492637E+03  0.47000000000E+01 0.  1.
<mgrwt>
<rscale>  0 0.13682175E+03</rscale>
<asrwt>0</asrwt>
<pdfrwt beam="2">  1        5 0.31161248E+00 0.13682966E+03</pdfrwt>
<pdfrwt beam="1">  1       -5 0.14380139E-02 0.13682966E+03</pdfrwt>
<totfact> 0.32945894E+01</totfact>
</mgrwt>
</event>
<event>
 8    1  0.3542708E-007  0.1491481E+03  0.7546771E-02  0.1201524E+00
         -5   -1    0    0    0  501 -0.00000000000E+00  0.00000000000E+00  0.27127714460E+02  0.27531852314E+02  0.47000000000E+01 0.  1.
          5   -1    0    0  501    0  0.00000000000E+00 -0.00000000000E+00 -0.86864062726E+03  0.86865334244E+03  0.47000000000E+01 0.  1.
         25    2    1    2    0    0  0.28546412637E+02  0.76192937848E+02 -0.30792529445E+03  0.34214466744E+03  0.12499890018E+03 0.  0.
         25    2    1    2    0    0 -0.28546412637E+02 -0.76192937848E+02 -0.53358761835E+03  0.55404052731E+03  0.12499959196E+03 0.  0.
          5    1    3    3  502    0  0.48813931119E+02  0.62054894187E+02 -0.78816200486E+02  0.11165882510E+03  0.47000000000E+01 0.  1.
         -5    1    3    3    0  502 -0.20267518482E+02  0.14138043661E+02 -0.22910909396E+03  0.23048584234E+03  0.47000000000E+01 0.  1.
          5    1    4    4  503    0 -0.64101546351E+02 -0.70206002702E+02 -0.23962033425E+03  0.25783305771E+03  0.47000000000E+01 0. -1.
         -5    1    4    4    0  503  0.35555133715E+02 -0.59869351462E+01 -0.29396728410E+03  0.29620746960E+03  0.47000000000E+01 0. -1.
<mgrwt>
<rscale>  0 0.14914797E+03</rscale>
<asrwt>0</asrwt>
<pdfrwt beam="2">  1        5 0.13366906E+00 0.14914811E+03</pdfrwt>
<pdfrwt beam="1">  1       -5 0.42055608E-02 0.14914811E+03</pdfrwt>
<totfact> 0.98366920E+01</totfact>
</mgrwt>
</event>
<event>
 8    1  0.3542708E-007  0.1330410E+03  0.7546771E-02  0.1223034E+00
          5   -1    0    0  501    0  0.00000000000E+00  0.00000000000E+00  0.22853012220E+02  0.23331313027E+02  0.47000000000E+01 0. -1.
         -5   -1    0    0    0  501 -0.00000000000E+00 -0.00000000000E+00 -0.80146377681E+03  0.80147755773E+03  0.47000000000E+01 0. -1.
         25    2    1    2    0    0 -0.67315901338E+01  0.45056065012E+02 -0.47637362695E+03  0.49458590777E+03  0.12493207919E+03 0.  0.
         25    2    1    2    0    0  0.67315901338E+01 -0.45056065012E+02 -0.30223713764E+03  0.33022296299E+03  0.12499821844E+03 0.  0.
          5    1    4    4  502    0  0.61629243100E+02 -0.89232546147E+01 -0.19084476846E+03  0.20080239971E+03  0.47000000000E+01 0. -1.
         -5    1    4    4    0  502 -0.54897652966E+02 -0.36132810397E+02 -0.11139236918E+03  0.12942056328E+03  0.47000000000E+01 0. -1.
          5    1    3    3  503    0 -0.52807367538E+02  0.21547456936E+02 -0.38705991708E+03  0.39126765823E+03  0.47000000000E+01 0. -1.
         -5    1    3    3    0  503  0.46075777404E+02  0.23508608076E+02 -0.89313709868E+02  0.10331824954E+03  0.47000000000E+01 0. -1.
<mgrwt>
<rscale>  0 0.13302550E+03</rscale>
<asrwt>0</asrwt>
<pdfrwt beam="1">  1        5 0.35537011E-02 0.13304104E+03</pdfrwt>
<pdfrwt beam="2">  1       -5 0.12333995E+00 0.13304104E+03</pdfrwt>
<totfact> 0.15405310E+02</totfact>
</mgrwt>
</event>
<event>
 8    1  0.3542708E-007  0.1444553E+03  0.7546771E-02  0.1207457E+00
          5   -1    0    0  501    0  0.00000000000E+00  0.00000000000E+00  0.33981033070E+03  0.33984283257E+03  0.47000000000E+01 0. -1.
         -5   -1    0    0    0  501 -0.00000000000E+00 -0.00000000000E+00 -0.70547556466E+02  0.70703944185E+02  0.47000000000E+01 0. -1.
         25    2    1    2    0    0  0.38753256606E+02  0.61156321294E+02  0.60347974482E+02  0.15655421633E+03  0.12500173636E+03 0.  0.
         25    2    1    2    0    0 -0.38753256606E+02 -0.61156321294E+02  0.20891479975E+03  0.25399256043E+03  0.12499966667E+03 0.  0.
          5    1    3    3  502    0 -0.25195999007E+02  0.68995719057E+02  0.92352822035E+01  0.74179701075E+02  0.47000000000E+01 0.  1.
         -5    1    3    3    0  502  0.63949255613E+02 -0.78393977631E+01  0.51112692278E+02  0.82374515250E+02  0.47000000000E+01 0.  1.
          5    1    4    4  503    0 -0.30797071785E+02 -0.56814572561E+02  0.22544045024E+03  0.23456735044E+03  0.47000000000E+01 0. -1.
         -5    1    4    4    0  503 -0.79561848215E+01 -0.43417487329E+01 -0.16525650493E+02  0.19425209991E+02  0.47000000000E+01 0. -1.
<mgrwt>
<rscale>  0 0.14445489E+03</rscale>
<asrwt>0</asrwt>
<pdfrwt beam="1">  1        5 0.52293042E-01 0.14445534E+03</pdfrwt>
<pdfrwt beam="2">  1       -5 0.10868000E-01 0.14445534E+03</pdfrwt>
<totfact> 0.17676981E+02</totfact>
</mgrwt>
</event>
<event>
 8    1  0.3542708E-007  0.1425328E+03  0.7546771E-02  0.1209966E+00
         -5   -1    0    0    0  501 -0.00000000000E+00  0.00000000000E+00  0.54326467929E+02  0.54529396821E+02  0.47000000000E+01 0. -1.
          5   -1    0    0  501    0  0.00000000000E+00 -0.00000000000E+00 -0.37300931301E+03  0.37303892236E+03  0.47000000000E+01 0. -1.
         25    2    1    2    0    0  0.46887771188E+02  0.49890942739E+02 -0.16025992209E+03  0.21446409591E+03  0.12499614615E+03 0.  0.
         25    2    1    2    0    0 -0.46887771188E+02 -0.49890942739E+02 -0.15842292299E+03  0.21310422327E+03  0.12501207218E+03 0.  0.
          5    1    4    4  502    0 -0.68160188563E+02  0.17930675869E+02 -0.68620125394E+02  0.98479094488E+02  0.47000000000E+01 0. -1.
         -5    1    4    4    0  502  0.21272417375E+02 -0.67821618608E+02 -0.89802797599E+02  0.11462512878E+03  0.47000000000E+01 0. -1.
          5    1    3    3  503    0  0.56541929787E+02  0.23450536011E+02 -0.10838129253E+02  0.62341579295E+02  0.47000000000E+01 0. -1.
         -5    1    3    3    0  503 -0.96541585995E+01  0.26440406728E+02 -0.14942179284E+03  0.15212251661E+03  0.47000000000E+01 0. -1.
<mgrwt>
<rscale>  0 0.14252927E+03</rscale>
<asrwt>0</asrwt>
<pdfrwt beam="2">  1        5 0.57403934E-01 0.14253276E+03</pdfrwt>
<pdfrwt beam="1">  1       -5 0.83758060E-02 0.14253276E+03</pdfrwt>
<totfact> 0.22648741E+02</totfact>
</mgrwt>
</event>
<event>
 8    1  0.3542708E-007  0.1338853E+03  0.7546771E-02  0.1221808E+00
         -5   -1    0    0    0  501 -0.00000000000E+00  0.00000000000E+00  0.21399136820E+04  0.21399188434E+04  0.47000000000E+01 0.  1.
          5   -1    0    0  501    0  0.00000000000E+00 -0.00000000000E+00 -0.85052484930E+01  0.97174714781E+01  0.47000000000E+01 0.  1.
         25    2    1    2    0    0  0.43642599054E+02 -0.19897701807E+02  0.13721641171E+04  0.13786803957E+04  0.12499869629E+03 0.  0.
         25    2    1    2    0    0 -0.43642599054E+02  0.19897701807E+02  0.75924431633E+03  0.77095591918E+03  0.12498200850E+03 0.  0.
          5    1    4    4  502    0 -0.57436558688E+02  0.57617365863E+02  0.33417853928E+03  0.34397108197E+03  0.47000000000E+01 0. -1.
         -5    1    4    4    0  502  0.13793959634E+02 -0.37719664056E+02  0.42506577706E+03  0.42698483720E+03  0.47000000000E+01 0. -1.
          5    1    3    3  503    0  0.11460564786E+02 -0.68583941480E+02  0.54346950125E+03  0.54791996711E+03  0.47000000000E+01 0.  1.
         -5    1    3    3    0  503  0.32182034269E+02  0.48686239673E+02  0.82869461590E+03  0.83076042857E+03  0.47000000000E+01 0.  1.
<mgrwt>
<rscale>  0 0.13388139E+03</rscale>
<asrwt>0</asrwt>
<pdfrwt beam="2">  1        5 0.14021435E-02 0.13388528E+03</pdfrwt>
<pdfrwt beam="1">  1       -5 0.32931143E+00 0.13388528E+03</pdfrwt>
<totfact> 0.26267879E+01</totfact>
</mgrwt>
</event>
<event>
 8    1  0.3542708E-007  0.1505336E+03  0.7546771E-02  0.1199819E+00
          5   -1    0    0  501    0  0.00000000000E+00  0.00000000000E+00  0.38093878432E+02  0.38382724943E+02  0.47000000000E+01 0.  1.
         -5   -1    0    0    0  501 -0.00000000000E+00 -0.00000000000E+00 -0.59479452319E+03  0.59481309233E+03  0.47000000000E+01 0.  1.
         25    2    1    2    0    0  0.30113091755E+02 -0.78273639038E+02 -0.29880938126E+03  0.33458527171E+03  0.12500678724E+03 0.  0.
         25    2    1    2    0    0 -0.30113091755E+02  0.78273639038E+02 -0.25789126350E+03  0.29861054557E+03  0.12500717288E+03 0.  0.
          5    1    4    4  502    0 -0.68010507225E+02  0.14331104284E+02 -0.81969219863E+02  0.10757254598E+03  0.47000000000E+01 0.  1.
         -5    1    4    4    0  502  0.37897415471E+02  0.63942534753E+02 -0.17592204364E+03  0.19103799959E+03  0.47000000000E+01 0.  1.
          5    1    3    3  503    0  0.24687547150E+02  0.25272250142E+02 -0.30536054878E+02  0.46932954936E+02  0.47000000000E+01 0.  1.
         -5    1    3    3    0  503  0.54255446050E+01 -0.10354588918E+03 -0.26827332638E+03  0.28765231677E+03  0.47000000000E+01 0.  1.
<mgrwt>
<rscale>  0 0.15053348E+03</rscale>
<asrwt>0</asrwt>
<pdfrwt beam="1">  1        5 0.58842445E-02 0.15053356E+03</pdfrwt>
<pdfrwt beam="2">  1       -5 0.91530490E-01 0.15053356E+03</pdfrwt>
<totfact> 0.14550845E+02</totfact>
</mgrwt>
</event>
<event>
 8    1  0.3542708E-007  0.1343436E+03  0.7546771E-02  0.1221152E+00
         -5   -1    0    0    0  501 -0.00000000000E+00  0.00000000000E+00  0.13319332159E+03  0.13327622037E+03  0.47000000000E+01 0. -1.
          5   -1    0    0  501    0  0.00000000000E+00 -0.00000000000E+00 -0.13538124903E+03  0.13546280887E+03  0.47000000000E+01 0. -1.
         25    2    1    2    0    0 -0.47653733859E+02 -0.12319006755E+02  0.15404488730E+01  0.13435247557E+03  0.12500231371E+03 0.  0.
         25    2    1    2    0    0  0.47653733859E+02  0.12319006755E+02 -0.37283763046E+01  0.13438655367E+03  0.12499283476E+03 0.  0.
          5    1    4    4  502    0  0.49550902344E+02  0.20324620606E+02  0.53814453729E+02  0.76068834328E+02  0.47000000000E+01 0. -1.
         -5    1    4    4    0  502 -0.18971684853E+01 -0.80056138509E+01 -0.57542830033E+02  0.58317719345E+02  0.47000000000E+01 0. -1.
          5    1    3    3  503    0  0.31894423502E+01  0.28431742225E+02  0.46676537760E+02  0.54948391111E+02  0.47000000000E+01 0. -1.
         -5    1    3    3    0  503 -0.50843176209E+02 -0.40750748980E+02 -0.45136088887E+02  0.79404084463E+02  0.47000000000E+01 0. -1.
<mgrwt>
<rscale>  0 0.13434144E+03</rscale>
<asrwt>0</asrwt>
<pdfrwt beam="2">  1        5 0.20840535E-01 0.13434364E+03</pdfrwt>
<pdfrwt beam="1">  1       -5 0.20503931E-01 0.13434364E+03</pdfrwt>
<totfact> 0.34213765E+02</totfact>
</mgrwt>
</event>
<event>
 8    1  0.3542708E-007  0.1304790E+03  0.7546771E-02  0.1226766E+00
         -5   -1    0    0    0  501 -0.00000000000E+00  0.00000000000E+00  0.89694942728E+02  0.89817997924E+02  0.47000000000E+01 0. -1.
          5   -1    0    0  501    0  0.00000000000E+00 -0.00000000000E+00 -0.22010451858E+03  0.22015469356E+03  0.47000000000E+01 0. -1.
         25    2    1    2    0    0  0.42940112983E+01 -0.37121664085E+02 -0.74000788392E+01  0.13068868847E+03  0.12501326190E+03 0.  0.
         25    2    1    2    0    0 -0.42940112983E+01  0.37121664085E+02 -0.12300949701E+03  0.17928400301E+03  0.12495983717E+03 0.  0.
          5    1    4    4  502    0 -0.36594410207E+01 -0.28800258957E+02 -0.10742651371E+03  0.11137949664E+03  0.47000000000E+01 0.  1.
         -5    1    4    4    0  502 -0.63457027761E+00  0.65921923043E+02 -0.15582983302E+02  0.67904506372E+02  0.47000000000E+01 0.  1.
          5    1    3    3  503    0  0.11891365494E+01 -0.11097643034E+01 -0.63550601639E+02  0.63744918160E+02  0.47000000000E+01 0. -1.
         -5    1    3    3    0  503  0.31048747489E+01 -0.36011899782E+02  0.56150522800E+02  0.66943770314E+02  0.47000000000E+01 0. -1.
<mgrwt>
<rscale>  0 0.13046621E+03</rscale>
<asrwt>0</asrwt>
<pdfrwt beam="2">  1        5 0.33875559E-01 0.13047901E+03</pdfrwt>
<pdfrwt beam="1">  1       -5 0.13812547E-01 0.13047901E+03</pdfrwt>
<totfact> 0.27315460E+02</totfact>
</mgrwt>
</event>
<event>
 8    1  0.3542708E-007  0.1467169E+03  0.7546771E-02  0.1204567E+00
         -5   -1    0    0    0  501 -0.00000000000E+00  0.00000000000E+00  0.14001503774E+04  0.14001582658E+04  0.47000000000E+01 0. -1.
          5   -1    0    0  501    0  0.00000000000E+00 -0.00000000000E+00 -0.16425602666E+02  0.17084800933E+02  0.47000000000E+01 0. -1.
         25    2    1    2    0    0  0.66065063292E+01  0.76528685603E+02  0.89587059132E+03  0.90780502020E+03  0.12500221060E+03 0.  0.
         25    2    1    2    0    0 -0.66065063292E+01 -0.76528685603E+02  0.48785418343E+03  0.50943804657E+03  0.12500053342E+03 0.  0.
          5    1    4    4  502    0 -0.43106820982E+02 -0.80173179517E+02  0.43789343073E+03  0.44727920073E+03  0.47000000000E+01 0. -1.
         -5    1    4    4    0  502  0.36500314652E+02  0.36444939146E+01  0.49960752692E+02  0.62158845832E+02  0.47000000000E+01 0. -1.
          5    1    3    3  503    0  0.62946985858E+02  0.39275161820E+02  0.58100987391E+03  0.58574689495E+03  0.47000000000E+01 0. -1.
         -5    1    3    3    0  503 -0.56340479529E+02  0.37253523783E+02  0.31486071741E+03  0.32205812525E+03  0.47000000000E+01 0. -1.
<mgrwt>
<rscale>  0 0.14671651E+03</rscale>
<asrwt>0</asrwt>
<pdfrwt beam="2">  1        5 0.25783296E-02 0.14671686E+03</pdfrwt>
<pdfrwt beam="1">  1       -5 0.21545911E+00 0.14671686E+03</pdfrwt>
<totfact> 0.54353095E+01</totfact>
</mgrwt>
</event>
<event>
 8    1  0.3542708E-007  0.1261196E+03  0.7546771E-02  0.1233334E+00
          5   -1    0    0  501    0  0.00000000000E+00  0.00000000000E+00  0.64589986878E+02  0.64760762850E+02  0.47000000000E+01 0.  1.
         -5   -1    0    0    0  501 -0.00000000000E+00 -0.00000000000E+00 -0.26672671489E+03  0.26676812110E+03  0.47000000000E+01 0.  1.
         25    2    1    2    0    0  0.16344374780E+02 -0.35325675373E+01 -0.14756724035E+03  0.19411913339E+03  0.12500611947E+03 0.  0.
         25    2    1    2    0    0 -0.16344374780E+02  0.35325675373E+01 -0.54569487666E+02  0.13740975056E+03  0.12499597171E+03 0.  0.
          5    1    3    3  502    0 -0.33443286849E+02 -0.37446919163E+02 -0.22496122616E+02  0.55216761249E+02  0.47000000000E+01 0.  1.
         -5    1    3    3    0  502  0.49787661628E+02  0.33914351626E+02 -0.12507111773E+03  0.13890237214E+03  0.47000000000E+01 0.  1.
          5    1    4    4  503    0  0.13380446359E+02 -0.66287680767E+01 -0.89115885025E+02  0.90480428131E+02  0.47000000000E+01 0. -1.
         -5    1    4    4    0  503 -0.29724821139E+02  0.10161335614E+02  0.34546397359E+02  0.46929322429E+02  0.47000000000E+01 0. -1.
<mgrwt>
<rscale>  0 0.12611706E+03</rscale>
<asrwt>0</asrwt>
<pdfrwt beam="1">  1        5 0.99532430E-02 0.12611958E+03</pdfrwt>
<pdfrwt beam="2">  1       -5 0.41051200E-01 0.12611958E+03</pdfrwt>
<totfact> 0.32648089E+02</totfact>
</mgrwt>
</event>
<event>
 8    1  0.3542708E-007  0.1277036E+03  0.7546771E-02  0.1230908E+00
          5   -1    0    0  501    0  0.00000000000E+00  0.00000000000E+00  0.71919754854E+03  0.71921290577E+03  0.47000000000E+01 0. -1.
         -5   -1    0    0    0  501 -0.00000000000E+00 -0.00000000000E+00 -0.22492648417E+02  0.22978451489E+02  0.47000000000E+01 0. -1.
         25    2    1    2    0    0 -0.18317752010E+02 -0.18551804226E+02  0.32665417690E+03  0.35072948503E+03  0.12501404283E+03 0.  0.
         25    2    1    2    0    0  0.18317752010E+02  0.18551804226E+02  0.37005072322E+03  0.39146187222E+03  0.12500060068E+03 0.  0.
          5    1    4    4  502    0 -0.38676083094E+01  0.62222564495E+02  0.10765654616E+03  0.12449348520E+03  0.47000000000E+01 0.  1.
         -5    1    4    4    0  502  0.22185360320E+02 -0.43670760269E+02  0.26239417706E+03  0.26696838702E+03  0.47000000000E+01 0.  1.
          5    1    3    3  503    0 -0.13000197876E+02 -0.49251061898E+02  0.31166832277E+03  0.31583841701E+03  0.47000000000E+01 0. -1.
         -5    1    3    3    0  503 -0.53175541348E+01  0.30699257672E+02  0.14985854133E+02  0.34891068021E+02  0.47000000000E+01 0. -1.
<mgrwt>
<rscale>  0 0.12770035E+03</rscale>
<asrwt>0</asrwt>
<pdfrwt beam="1">  1        5 0.11068432E+00 0.12770364E+03</pdfrwt>
<pdfrwt beam="2">  1       -5 0.34989584E-02 0.12770364E+03</pdfrwt>
<totfact> 0.20468994E+02</totfact>
</mgrwt>
</event>
<event>
 8    1  0.3542708E-007  0.1757991E+03  0.7546771E-02  0.1171933E+00
          5   -1    0    0  501    0  0.00000000000E+00  0.00000000000E+00  0.93915088174E+03  0.93916264229E+03  0.47000000000E+01 0.  1.
         -5   -1    0    0    0  501 -0.00000000000E+00 -0.00000000000E+00 -0.33642507617E+02  0.33969226055E+02  0.47000000000E+01 0.  1.
         25    2    1    2    0    0 -0.56757081171E+02 -0.10981057455E+03  0.37288935663E+03  0.41225011578E+03  0.12499582843E+03 0.  0.
         25    2    1    2    0    0  0.56757081171E+02  0.10981057455E+03  0.53261901749E+03  0.56088175256E+03  0.12500237606E+03 0.  0.
          5    1    4    4  502    0  0.14675583903E+02  0.11845373893E+03  0.46899762613E+03  0.48397058210E+03  0.47000000000E+01 0.  1.
         -5    1    4    4    0  502  0.42081497267E+02 -0.86431643729E+01  0.63621391364E+02  0.76911170461E+02  0.47000000000E+01 0.  1.
          5    1    3    3  503    0  0.14114799480E+02 -0.33838843099E+02  0.24327836156E+03  0.24607061196E+03  0.47000000000E+01 0.  1.
         -5    1    3    3    0  503 -0.70871880651E+02 -0.75971731454E+02  0.12961099508E+03  0.16617950383E+03  0.47000000000E+01 0.  1.
<mgrwt>
<rscale>  0 0.17579793E+03</rscale>
<asrwt>0</asrwt>
<pdfrwt beam="1">  1        5 0.14451081E+00 0.17579910E+03</pdfrwt>
<pdfrwt beam="2">  1       -5 0.52018065E-02 0.17579910E+03</pdfrwt>
<totfact> 0.58826117E+01</totfact>
</mgrwt>
</event>
<event>
 8    1  0.3542708E-007  0.1511144E+03  0.7546771E-02  0.1199110E+00
          5   -1    0    0  501    0  0.00000000000E+00  0.00000000000E+00  0.17324639986E+02  0.17950853758E+02  0.47000000000E+01 0.  1.
         -5   -1    0    0    0  501 -0.00000000000E+00 -0.00000000000E+00 -0.16194590816E+04  0.16194659018E+04  0.47000000000E+01 0.  1.
         25    2    1    2    0    0 -0.68018668279E+02 -0.50838413266E+02 -0.11679799943E+04  0.11777150886E+04  0.12499791775E+03 0.  0.
         25    2    1    2    0    0  0.68018668279E+02  0.50838413266E+02 -0.43415444734E+03  0.45970166690E+03  0.12499781962E+03 0.  0.
          5    1    3    3  502    0 -0.44917119083E+02 -0.92672800132E+02 -0.80033228706E+03  0.80694464195E+03  0.47000000000E+01 0. -1.
         -5    1    3    3    0  502 -0.23101549196E+02  0.41834386866E+02 -0.36764770724E+03  0.37077044669E+03  0.47000000000E+01 0. -1.
          5    1    4    4  503    0  0.53690515684E+02  0.63807057020E+02 -0.43164899268E+03  0.43965549568E+03  0.47000000000E+01 0.  1.
         -5    1    4    4    0  503  0.14328152596E+02 -0.12968643754E+02 -0.25054546595E+01  0.20046171222E+02  0.47000000000E+01 0.  1.
<mgrwt>
<rscale>  0 0.15111438E+03</rscale>
<asrwt>0</asrwt>
<pdfrwt beam="1">  1        5 0.27140254E-02 0.15111440E+03</pdfrwt>
<pdfrwt beam="2">  1       -5 0.24919613E+00 0.15111440E+03</pdfrwt>
<totfact> 0.30571808E+01</totfact>
</mgrwt>
</event>
<event>
 8    1  0.3542708E-007  0.1509068E+03  0.7546771E-02  0.1199363E+00
          5   -1    0    0  501    0  0.00000000000E+00  0.00000000000E+00  0.31397499635E+03  0.31401017234E+03  0.47000000000E+01 0. -1.
         -5   -1    0    0    0  501 -0.00000000000E+00 -0.00000000000E+00 -0.72414925946E+02  0.72567289461E+02  0.47000000000E+01 0. -1.
         25    2    1    2    0    0  0.84492199290E+02 -0.29462068881E+01  0.12098150428E+03  0.19341505272E+03  0.12500098545E+03 0.  0.
         25    2    1    2    0    0 -0.84492199290E+02  0.29462068881E+01  0.12057856612E+03  0.19316240909E+03  0.12499965520E+03 0.  0.
          5    1    3    3  502    0  0.92358942382E+02 -0.19279102954E+02  0.13858051365E+03  0.16771555328E+03  0.47000000000E+01 0.  1.
         -5    1    3    3    0  502 -0.78667430916E+01  0.16332896066E+02 -0.17599009364E+02  0.25699499438E+02  0.47000000000E+01 0.  1.
          5    1    4    4  503    0 -0.36090891714E+02  0.33099006690E+02 -0.10354089546E+02  0.50273192448E+02  0.47000000000E+01 0. -1.
         -5    1    4    4    0  503 -0.48401307576E+02 -0.30152799802E+02  0.13093265567E+03  0.14288921664E+03  0.47000000000E+01 0. -1.
<mgrwt>
<rscale>  0 0.15090651E+03</rscale>
<asrwt>0</asrwt>
<pdfrwt beam="1">  1        5 0.48318271E-01 0.15090679E+03</pdfrwt>
<pdfrwt beam="2">  1       -5 0.11155184E-01 0.15090679E+03</pdfrwt>
<totfact> 0.20259455E+02</totfact>
</mgrwt>
</event>
<event>
 8    1  0.3542708E-007  0.1483530E+03  0.7546771E-02  0.1202512E+00
         -5   -1    0    0    0  501 -0.00000000000E+00  0.00000000000E+00  0.10177533034E+03  0.10188379590E+03  0.47000000000E+01 0.  1.
          5   -1    0    0  501    0  0.00000000000E+00 -0.00000000000E+00 -0.25486949267E+03  0.25491282489E+03  0.47000000000E+01 0.  1.
         25    2    1    2    0    0 -0.40689385217E+02 -0.68754283278E+02 -0.68965535516E+01  0.14851324127E+03  0.12500337133E+03 0.  0.
         25    2    1    2    0    0  0.40689385217E+02  0.68754283278E+02 -0.14619760877E+03  0.20828337951E+03  0.12500179131E+03 0.  0.
          5    1    4    4  502    0 -0.19549026817E+01  0.76261475775E+02 -0.14592339614E+03  0.16472814536E+03  0.47000000000E+01 0.  1.
         -5    1    4    4    0  502  0.42644287898E+02 -0.75071924968E+01 -0.27421263024E+00  0.43555234153E+02  0.47000000000E+01 0.  1.
          5    1    3    3  503    0 -0.13040685321E+00 -0.94853892862E+02 -0.22508306739E+02  0.97601187848E+02  0.47000000000E+01 0.  1.
         -5    1    3    3    0  503 -0.40558978364E+02  0.26099609584E+02  0.15611753188E+02  0.50912053425E+02  0.47000000000E+01 0.  1.
<mgrwt>
<rscale>  0 0.14835269E+03</rscale>
<asrwt>0</asrwt>
<pdfrwt beam="2">  1        5 0.39222368E-01 0.14835303E+03</pdfrwt>
<pdfrwt beam="1">  1       -5 0.15669420E-01 0.14835303E+03</pdfrwt>
<totfact> 0.16898681E+02</totfact>
</mgrwt>
</event>
<event>
 8    1  0.3542708E-007  0.1363163E+03  0.7546771E-02  0.1218377E+00
         -5   -1    0    0    0  501 -0.00000000000E+00  0.00000000000E+00  0.87029732196E+02  0.87156550449E+02  0.47000000000E+01 0. -1.
          5   -1    0    0  501    0  0.00000000000E+00 -0.00000000000E+00 -0.22571842067E+03  0.22576734802E+03  0.47000000000E+01 0. -1.
         25    2    1    2    0    0 -0.42262772839E+02 -0.34228278537E+02 -0.32495995487E+02  0.14012630261E+03  0.12498669506E+03 0.  0.
         25    2    1    2    0    0  0.42262772839E+02  0.34228278537E+02 -0.10619269299E+03  0.17279759585E+03  0.12499761625E+03 0.  0.
          5    1    4    4  502    0 -0.23371054388E+02 -0.14493348737E+02  0.10871253635E+02  0.29942235996E+02  0.47000000000E+01 0.  1.
         -5    1    4    4    0  502  0.65633827227E+02  0.48721627275E+02 -0.11706394662E+03  0.14285535986E+03  0.47000000000E+01 0.  1.
          5    1    3    3  503    0  0.19782947531E+02 -0.50042102993E+02  0.19585263016E+02  0.57456501915E+02  0.47000000000E+01 0.  1.
         -5    1    3    3    0  503 -0.62045720370E+02  0.15813824456E+02 -0.52081258503E+02  0.82669800697E+02  0.47000000000E+01 0.  1.
<mgrwt>
<rscale>  0 0.13631375E+03</rscale>
<asrwt>0</asrwt>
<pdfrwt beam="2">  1        5 0.34739430E-01 0.13631625E+03</pdfrwt>
<pdfrwt beam="1">  1       -5 0.13402709E-01 0.13631625E+03</pdfrwt>
<totfact> 0.27838546E+02</totfact>
</mgrwt>
</event>
<event>
 8    1  0.3542708E-007  0.1293073E+03  0.7546771E-02  0.1228490E+00
         -5   -1    0    0    0  501 -0.00000000000E+00  0.00000000000E+00  0.70941890059E+02  0.71097410397E+02  0.47000000000E+01 0.  1.
          5   -1    0    0  501    0  0.00000000000E+00 -0.00000000000E+00 -0.23907218384E+03  0.23911837881E+03  0.47000000000E+01 0.  1.
         25    2    1    2    0    0  0.26250205083E+02  0.20121850651E+02 -0.64443260336E+02  0.14447601944E+03  0.12500569687E+03 0.  0.
         25    2    1    2    0    0 -0.26250205083E+02 -0.20121850651E+02 -0.10368703344E+03  0.16573976977E+03  0.12499883295E+03 0.  0.
          5    1    4    4  502    0 -0.43881878845E+02  0.43269318259E+02 -0.62898829526E+02  0.88182798489E+02  0.47000000000E+01 0.  1.
         -5    1    4    4    0  502  0.17631673762E+02 -0.63391168911E+02 -0.40788203918E+02  0.77556971282E+02  0.47000000000E+01 0.  1.
          5    1    3    3  503    0 -0.43713417477E+02  0.33870212695E+02 -0.14707481806E+02  0.57414755914E+02  0.47000000000E+01 0. -1.
         -5    1    3    3    0  503  0.69963622560E+02 -0.13748362044E+02 -0.49735778530E+02  0.87061263526E+02  0.47000000000E+01 0. -1.
<mgrwt>
<rscale>  0 0.12930567E+03</rscale>
<asrwt>0</asrwt>
<pdfrwt beam="2">  1        5 0.36795852E-01 0.12930733E+03</pdfrwt>
<pdfrwt beam="1">  1       -5 0.10929654E-01 0.12930733E+03</pdfrwt>
<totfact> 0.34945620E+02</totfact>
</mgrwt>
</event>
<event>
 8    1  0.3542708E-007  0.1288569E+03  0.7546771E-02  0.1229162E+00
         -5   -1    0    0    0  501 -0.00000000000E+00  0.00000000000E+00  0.20716938286E+03  0.20722268986E+03  0.47000000000E+01 0. -1.
          5   -1    0    0  501    0  0.00000000000E+00 -0.00000000000E+00 -0.80216405757E+02  0.80353977826E+02  0.47000000000E+01 0. -1.
         25    2    1    2    0    0  0.20677925078E+02 -0.23488860611E+02  0.70683122257E+02  0.14697009596E+03  0.12499920870E+03 0.  0.
         25    2    1    2    0    0 -0.20677925078E+02  0.23488860611E+02  0.56269854844E+02  0.14060657173E+03  0.12499843316E+03 0.  0.
          5    1    4    4  502    0 -0.42897266448E+02  0.63582505207E+02  0.55020248115E+02  0.94510465768E+02  0.47000000000E+01 0.  1.
         -5    1    4    4    0  502  0.22219341370E+02 -0.40093644596E+02  0.12496067284E+01  0.46096105962E+02  0.47000000000E+01 0.  1.
          5    1    3    3  503    0 -0.14949567361E+02  0.42646455740E+02  0.26500356485E+01  0.45511783534E+02  0.47000000000E+01 0. -1.
         -5    1    3    3    0  503  0.35627492440E+02 -0.66135316351E+02  0.68033086608E+02  0.10145831242E+03  0.47000000000E+01 0. -1.
<mgrwt>
<rscale>  0 0.12885673E+03</rscale>
<asrwt>0</asrwt>
<pdfrwt beam="2">  1        5 0.12355669E-01 0.12885692E+03</pdfrwt>
<pdfrwt beam="1">  1       -5 0.31886895E-01 0.12885692E+03</pdfrwt>
<totfact> 0.37407169E+02</totfact>
</mgrwt>
</event>
<event>
 8    1  0.3542708E-007  0.1272437E+03  0.7546771E-02  0.1231607E+00
          5   -1    0    0  501    0  0.00000000000E+00  0.00000000000E+00  0.31421590856E+03  0.31425105759E+03  0.47000000000E+01 0. -1.
         -5   -1    0    0    0  501 -0.00000000000E+00 -0.00000000000E+00 -0.51735601747E+02  0.51948652418E+02  0.47000000000E+01 0. -1.
         25    2    1    2    0    0  0.11125893951E+02 -0.21007119404E+02  0.11609650016E+03  0.17224794457E+03  0.12500348987E+03 0.  0.
         25    2    1    2    0    0 -0.11125893951E+02  0.21007119404E+02  0.14638380666E+03  0.19395176543E+03  0.12499593545E+03 0.  0.
          5    1    3    3  502    0 -0.57791207918E+00 -0.45435013402E+01 -0.26933846391E+02  0.27721822959E+02  0.47000000000E+01 0.  1.
         -5    1    3    3    0  502  0.11703806030E+02 -0.16463618064E+02  0.14303034655E+03  0.14452612162E+03  0.47000000000E+01 0.  1.
          5    1    4    4  503    0  0.40582806907E+02  0.34182460604E+02  0.12571557646E+03  0.13653534705E+03  0.47000000000E+01 0.  1.
         -5    1    4    4    0  503 -0.51708700857E+02 -0.13175341200E+02  0.20668230199E+02  0.57416418381E+02  0.47000000000E+01 0.  1.
<mgrwt>
<rscale>  0 0.12724184E+03</rscale>
<asrwt>0</asrwt>
<pdfrwt beam="1">  1        5 0.48360000E-01 0.12724369E+03</pdfrwt>
<pdfrwt beam="2">  1       -5 0.79784158E-02 0.12724369E+03</pdfrwt>
<totfact> 0.34143477E+02</totfact>
</mgrwt>
</event>
<event>
 8    1  0.3542708E-007  0.1446409E+03  0.7546771E-02  0.1207224E+00
          5   -1    0    0  501    0  0.00000000000E+00  0.00000000000E+00  0.31426725011E+02  0.31776233964E+02  0.47000000000E+01 0. -1.
         -5   -1    0    0    0  501 -0.00000000000E+00 -0.00000000000E+00 -0.67456401793E+03  0.67458039127E+03  0.47000000000E+01 0. -1.
         25    2    1    2    0    0 -0.37052374221E+02  0.62592509117E+02 -0.37059764725E+03  0.39782359646E+03  0.12502118669E+03 0.  0.
         25    2    1    2    0    0  0.37052374221E+02 -0.62592509117E+02 -0.27253964568E+03  0.30853302878E+03  0.12499628294E+03 0.  0.
          5    1    3    3  502    0 -0.45633638027E+02  0.61232846331E+02 -0.37788208074E+03  0.38555005814E+03  0.47000000000E+01 0.  1.
         -5    1    3    3    0  502  0.85812638056E+01  0.13596627863E+01  0.72844334955E+01  0.12273538314E+02  0.47000000000E+01 0.  1.
          5    1    4    4  503    0  0.38538651975E+02 -0.99756808547E+02 -0.20638399400E+03  0.23249320748E+03  0.47000000000E+01 0. -1.
         -5    1    4    4    0  503 -0.14862777541E+01  0.37164299430E+02 -0.66155651679E+02  0.76039821296E+02  0.47000000000E+01 0. -1.
<mgrwt>
<rscale>  0 0.14463555E+03</rscale>
<asrwt>0</asrwt>
<pdfrwt beam="1">  1        5 0.48630261E-02 0.14464093E+03</pdfrwt>
<pdfrwt beam="2">  1       -5 0.10380721E+00 0.14464093E+03</pdfrwt>
<totfact> 0.14560645E+02</totfact>
</mgrwt>
</event>
<event>
 8    1  0.3542708E-007  0.1340634E+03  0.7546771E-02  0.1221551E+00
         -5   -1    0    0    0  501 -0.00000000000E+00  0.00000000000E+00  0.41632308711E+03  0.41634961614E+03  0.47000000000E+01 0. -1.
          5   -1    0    0  501    0  0.00000000000E+00 -0.00000000000E+00 -0.43658480952E+02  0.43910738539E+02  0.47000000000E+01 0. -1.
         25    2    1    2    0    0  0.24763308180E+01 -0.48409068859E+02  0.21424893643E+03  0.25273621070E+03  0.12499366093E+03 0.  0.
         25    2    1    2    0    0 -0.24763308180E+01  0.48409068859E+02  0.15841566973E+03  0.20752414398E+03  0.12498470210E+03 0.  0.
          5    1    3    3  502    0 -0.46420023780E+02 -0.66797966194E+02  0.12479916554E+03  0.14904264026E+03  0.47000000000E+01 0. -1.
         -5    1    3    3    0  502  0.48896354598E+02  0.18388897335E+02  0.89449770892E+02  0.10369357044E+03  0.47000000000E+01 0. -1.
          5    1    4    4  503    0  0.26998877702E+02  0.71061799501E+02  0.45880453403E+02  0.88914704914E+02  0.47000000000E+01 0. -1.
         -5    1    4    4    0  503 -0.29475208520E+02 -0.22652730642E+02  0.11253521632E+03  0.11860943907E+03  0.47000000000E+01 0. -1.
<mgrwt>
<rscale>  0 0.13406128E+03</rscale>
<asrwt>0</asrwt>
<pdfrwt beam="2">  1        5 0.67381345E-02 0.13406336E+03</pdfrwt>
<pdfrwt beam="1">  1       -5 0.64071151E-01 0.13406336E+03</pdfrwt>
<totfact> 0.25277447E+02</totfact>
</mgrwt>
</event>
<event>
 8    1  0.3542708E-007  0.1865826E+03  0.7546771E-02  0.1161591E+00
         -5   -1    0    0    0  501 -0.00000000000E+00  0.00000000000E+00  0.23610892370E+03  0.23615569832E+03  0.47000000000E+01 0.  1.
          5   -1    0    0  501    0  0.00000000000E+00 -0.00000000000E+00 -0.16095722671E+03  0.16102583281E+03  0.47000000000E+01 0.  1.
         25    2    1    2    0    0 -0.13230748047E+03 -0.41025952434E+02  0.95388494023E+02  0.20955201667E+03  0.12499873894E+03 0.  0.
         25    2    1    2    0    0  0.13230748047E+03  0.41025952434E+02 -0.20236797034E+02  0.18762951446E+03  0.12492761336E+03 0.  0.
          5    1    3    3  502    0 -0.13738209252E+03 -0.53978917413E+02  0.41072315503E+02  0.15328596795E+03  0.47000000000E+01 0.  1.
         -5    1    3    3    0  502  0.50746120516E+01  0.12952964979E+02  0.54316178520E+02  0.56266048717E+02  0.47000000000E+01 0.  1.
          5    1    4    4  503    0  0.14201385406E+03  0.75589349678E+01 -0.39317054597E+02  0.14762450009E+03  0.47000000000E+01 0. -1.
         -5    1    4    4    0  503 -0.97063735929E+01  0.33467017466E+02  0.19080257563E+02  0.40005014374E+02  0.47000000000E+01 0. -1.
<mgrwt>
<rscale>  0 0.18657073E+03</rscale>
<asrwt>0</asrwt>
<pdfrwt beam="2">  1        5 0.24771526E-01 0.18658264E+03</pdfrwt>
<pdfrwt beam="1">  1       -5 0.36333325E-01 0.18658264E+03</pdfrwt>
<totfact> 0.89888378E+01</totfact>
</mgrwt>
</event>
<event>
 8    1  0.3542708E-007  0.1460246E+03  0.7546771E-02  0.1205446E+00
          5   -1    0    0  501    0  0.00000000000E+00  0.00000000000E+00  0.44501938485E+03  0.44504420330E+03  0.47000000000E+01 0.  1.
         -5   -1    0    0    0  501 -0.00000000000E+00 -0.00000000000E+00 -0.51029819743E+02  0.51245804735E+02  0.47000000000E+01 0.  1.
         25    2    1    2    0    0 -0.45802105872E+02 -0.59997445925E+02  0.13444920922E+03  0.19849077207E+03  0.12499788126E+03 0.  0.
         25    2    1    2    0    0  0.45802105872E+02  0.59997445925E+02  0.25954035588E+03  0.29779923596E+03  0.12500264872E+03 0.  0.
          5    1    4    4  502    0 -0.37006706480E+02  0.38299737832E+02  0.58550821794E+02  0.79288429012E+02  0.47000000000E+01 0. -1.
         -5    1    4    4    0  502  0.82808812352E+02  0.21697708093E+02  0.20098953409E+03  0.21851080695E+03  0.47000000000E+01 0. -1.
          5    1    3    3  503    0 -0.30775656377E+02  0.99221887845E+01  0.12130031471E+03  0.12562423017E+03  0.47000000000E+01 0. -1.
         -5    1    3    3    0  503 -0.15026449495E+02 -0.69919634710E+02  0.13148894507E+02  0.72866541905E+02  0.47000000000E+01 0. -1.
<mgrwt>
<rscale>  0 0.14602360E+03</rscale>
<asrwt>0</asrwt>
<pdfrwt beam="1">  1        5 0.68483046E-01 0.14602462E+03</pdfrwt>
<pdfrwt beam="2">  1       -5 0.78692647E-02 0.14602462E+03</pdfrwt>
<totfact> 0.17210239E+02</totfact>
</mgrwt>
</event>
<event>
 8    1  0.3542708E-007  0.1260003E+03  0.7546771E-02  0.1233516E+00
         -5   -1    0    0    0  501 -0.00000000000E+00  0.00000000000E+00  0.18631096650E+03  0.18637023968E+03  0.47000000000E+01 0.  1.
          5   -1    0    0  501    0  0.00000000000E+00 -0.00000000000E+00 -0.94751340187E+02  0.94867836843E+02  0.47000000000E+01 0.  1.
         25    2    1    2    0    0 -0.13633720124E+02 -0.80686990178E+01  0.90681470776E+02  0.15523921196E+03  0.12500040624E+03 0.  0.
         25    2    1    2    0    0  0.13633720124E+02  0.80686990178E+01  0.87815553921E+00  0.12599886456E+03  0.12499584187E+03 0.  0.
          5    1    3    3  502    0 -0.47756026973E+02 -0.13340019405E+02 -0.81282078450E+01  0.50465354380E+02  0.47000000000E+01 0. -1.
         -5    1    3    3    0  502  0.34122306849E+02  0.52713203876E+01  0.98809678621E+02  0.10477385758E+03  0.47000000000E+01 0. -1.
          5    1    4    4  503    0 -0.22872662869E+02 -0.44988805784E+01  0.54670505549E+02  0.59618393220E+02  0.47000000000E+01 0.  1.
         -5    1    4    4    0  503  0.36506382993E+02  0.12567579596E+02 -0.53792350010E+02  0.66380471343E+02  0.47000000000E+01 0.  1.
<mgrwt>
<rscale>  0 0.12599920E+03</rscale>
<asrwt>0</asrwt>
<pdfrwt beam="2">  1        5 0.14590650E-01 0.12600033E+03</pdfrwt>
<pdfrwt beam="1">  1       -5 0.28676746E-01 0.12600033E+03</pdfrwt>
<totfact> 0.33931987E+02</totfact>
</mgrwt>
</event>
<event>
 8    1  0.3542708E-007  0.1362836E+03  0.7546771E-02  0.1218419E+00
         -5   -1    0    0    0  501 -0.00000000000E+00  0.00000000000E+00  0.14208475242E+04  0.14208552977E+04  0.47000000000E+01 0. -1.
          5   -1    0    0  501    0  0.00000000000E+00 -0.00000000000E+00 -0.13608379511E+02  0.14397152251E+02  0.47000000000E+01 0. -1.
         25    2    1    2    0    0 -0.23770741476E+02 -0.48819656448E+02  0.88938350047E+03  0.89976454668E+03  0.12499928620E+03 0.  0.
         25    2    1    2    0    0  0.23770741476E+02  0.48819656448E+02  0.51785564422E+03  0.53548790328E+03  0.12499767718E+03 0.  0.
          5    1    3    3  502    0 -0.35710049087E+02 -0.41208346830E+02  0.88090762366E+03  0.88260617881E+03  0.47000000000E+01 0.  1.
         -5    1    3    3    0  502  0.11939307611E+02 -0.76113096178E+01  0.84758768130E+01  0.17158367873E+02  0.47000000000E+01 0.  1.
          5    1    4    4  503    0 -0.45833784061E+02  0.10125095495E+01  0.26185367731E+03  0.26587816620E+03  0.47000000000E+01 0.  1.
         -5    1    4    4    0  503  0.69604525538E+02  0.47807146898E+02  0.25600196691E+03  0.26960973709E+03  0.47000000000E+01 0.  1.
<mgrwt>
<rscale>  0 0.13628326E+03</rscale>
<asrwt>0</asrwt>
<pdfrwt beam="2">  1        5 0.21548691E-02 0.13628363E+03</pdfrwt>
<pdfrwt beam="1">  1       -5 0.21865325E+00 0.13628363E+03</pdfrwt>
<totfact> 0.67581338E+01</totfact>
</mgrwt>
</event>
<event>
 8    1  0.3542708E-007  0.1256203E+03  0.7546771E-02  0.1234103E+00
          5   -1    0    0  501    0  0.00000000000E+00  0.00000000000E+00  0.51925442695E+03  0.51927569739E+03  0.47000000000E+01 0. -1.
         -5   -1    0    0    0  501 -0.00000000000E+00 -0.00000000000E+00 -0.34450804600E+02  0.34769928639E+02  0.47000000000E+01 0. -1.
         25    2    1    2    0    0 -0.11506525976E+02  0.47504680018E+01  0.14544875684E+03  0.19218629632E+03  0.12500105815E+03 0.  0.
         25    2    1    2    0    0  0.11506525976E+02 -0.47504680018E+01  0.33935486551E+03  0.36185932972E+03  0.12500193068E+03 0.  0.
          5    1    3    3  502    0  0.37027446171E+02 -0.29576333448E+02  0.11658475509E+03  0.12593604087E+03  0.47000000000E+01 0. -1.
         -5    1    3    3    0  502 -0.48533972146E+02  0.34326801449E+02  0.28864001752E+02  0.66250255450E+02  0.47000000000E+01 0. -1.
          5    1    4    4  503    0 -0.31444279384E+02 -0.17987801357E+02  0.29915479880E+03  0.30137681953E+03  0.47000000000E+01 0.  1.
         -5    1    4    4    0  503  0.42950805359E+02  0.13237333355E+02  0.40200066703E+02  0.60482510185E+02  0.47000000000E+01 0.  1.
<mgrwt>
<rscale>  0 0.12562004E+03</rscale>
<asrwt>0</asrwt>
<pdfrwt beam="1">  1        5 0.79911477E-01 0.12562026E+03</pdfrwt>
<pdfrwt beam="2">  1       -5 0.53263082E-02 0.12562026E+03</pdfrwt>
<totfact> 0.22248031E+02</totfact>
</mgrwt>
</event>
<event>
 8    1  0.3542708E-007  0.1723063E+03  0.7546771E-02  0.1175465E+00
         -5   -1    0    0    0  501 -0.00000000000E+00  0.00000000000E+00  0.20079751945E+04  0.20079806951E+04  0.47000000000E+01 0. -1.
          5   -1    0    0  501    0  0.00000000000E+00 -0.00000000000E+00 -0.14590453904E+02  0.15328775069E+02  0.47000000000E+01 0. -1.
         25    2    1    2    0    0  0.77177120561E+02 -0.90043925220E+02  0.11075265002E+04  0.11208498605E+04  0.12500097958E+03 0.  0.
         25    2    1    2    0    0 -0.77177120561E+02  0.90043925220E+02  0.88585824043E+03  0.90245960959E+03  0.12499723354E+03 0.  0.
          5    1    4    4  502    0 -0.16098804027E+02  0.24002279960E+01  0.54409754487E+03  0.54436124120E+03  0.47000000000E+01 0.  1.
         -5    1    4    4    0  502 -0.61078316534E+02  0.87643697224E+02  0.34176069556E+03  0.35809836839E+03  0.47000000000E+01 0.  1.
          5    1    3    3  503    0 -0.11407172751E+02  0.19438022090E+02  0.67437884343E+02  0.71259515418E+02  0.47000000000E+01 0. -1.
         -5    1    3    3    0  503  0.88584293313E+02 -0.10948194731E+03  0.10400886158E+04  0.10495903451E+04  0.47000000000E+01 0. -1.
<mgrwt>
<rscale>  0 0.17230562E+03</rscale>
<asrwt>0</asrwt>
<pdfrwt beam="2">  1        5 0.23019026E-02 0.17230630E+03</pdfrwt>
<pdfrwt beam="1">  1       -5 0.30897643E+00 0.17230630E+03</pdfrwt>
<totfact> 0.17132978E+01</totfact>
</mgrwt>
</event>
<event>
 8    1  0.3542708E-007  0.1266840E+03  0.7546771E-02  0.1232461E+00
          5   -1    0    0  501    0  0.00000000000E+00  0.00000000000E+00  0.18011278251E+03  0.18017409476E+03  0.47000000000E+01 0. -1.
         -5   -1    0    0    0  501 -0.00000000000E+00 -0.00000000000E+00 -0.89961120437E+02  0.90083812032E+02  0.47000000000E+01 0. -1.
         25    2    1    2    0    0 -0.18926616249E+02  0.80716088553E+01  0.30872525192E+02  0.13039063082E+03  0.12500094449E+03 0.  0.
         25    2    1    2    0    0  0.18926616249E+02 -0.80716088553E+01  0.59279136877E+02  0.13986727597E+03  0.12500188457E+03 0.  0.
          5    1    4    4  502    0 -0.33104024679E+02  0.14781982265E+02 -0.20416561972E+02  0.41872538165E+02  0.47000000000E+01 0. -1.
         -5    1    4    4    0  502  0.52030640928E+02 -0.22853591120E+02  0.79695698849E+02  0.97994737805E+02  0.47000000000E+01 0. -1.
          5    1    3    3  503    0  0.29624283487E+02 -0.43338230036E+02 -0.93033913123E+00  0.52713905999E+02  0.47000000000E+01 0.  1.
         -5    1    3    3    0  503 -0.48550899736E+02  0.51409838891E+02  0.31802864324E+02  0.77676724823E+02  0.47000000000E+01 0.  1.
<mgrwt>
<rscale>  0 0.12668378E+03</rscale>
<asrwt>0</asrwt>
<pdfrwt beam="1">  1        5 0.27723813E-01 0.12668401E+03</pdfrwt>
<pdfrwt beam="2">  1       -5 0.13854327E-01 0.12668401E+03</pdfrwt>
<totfact> 0.39850815E+02</totfact>
</mgrwt>
</event>
<event>
 8    1  0.3542708E-007  0.1327682E+03  0.7546771E-02  0.1223406E+00
          5   -1    0    0  501    0  0.00000000000E+00  0.00000000000E+00  0.61996426845E+02  0.62174327030E+02  0.47000000000E+01 0. -1.
         -5   -1    0    0    0  501 -0.00000000000E+00 -0.00000000000E+00 -0.30572823465E+03  0.30576435937E+03  0.47000000000E+01 0. -1.
         25    2    1    2    0    0 -0.40948164505E+02 -0.18040434527E+02 -0.17120634829E+03  0.21665306212E+03  0.12499890470E+03 0.  0.
         25    2    1    2    0    0  0.40948164505E+02  0.18040434527E+02 -0.72525459510E+02  0.15128562428E+03  0.12500075353E+03 0.  0.
          5    1    4    4  502    0 -0.39012274404E+02  0.32583604171E+02 -0.33049254609E+02  0.60811117776E+02  0.47000000000E+01 0.  1.
         -5    1    4    4    0  502  0.79960438910E+02 -0.14543169644E+02 -0.39476204901E+02  0.90474506505E+02  0.47000000000E+01 0.  1.
          5    1    3    3  503    0  0.71667732580E+01 -0.50006370953E+02 -0.14390742974E+03  0.15258911530E+03  0.47000000000E+01 0. -1.
         -5    1    3    3    0  503 -0.48114937763E+02  0.31965936426E+02 -0.27298918555E+02  0.64063946817E+02  0.47000000000E+01 0. -1.
<mgrwt>
<rscale>  0 0.13276778E+03</rscale>
<asrwt>0</asrwt>
<pdfrwt beam="1">  1        5 0.95543754E-02 0.13276821E+03</pdfrwt>
<pdfrwt beam="2">  1       -5 0.47051576E-01 0.13276821E+03</pdfrwt>
<totfact> 0.26917179E+02</totfact>
</mgrwt>
</event>
<event>
 8    1  0.3542708E-007  0.1515331E+03  0.7546771E-02  0.1198603E+00
          5   -1    0    0  501    0  0.00000000000E+00  0.00000000000E+00  0.26128039010E+03  0.26132265928E+03  0.47000000000E+01 0.  1.
         -5   -1    0    0    0  501 -0.00000000000E+00 -0.00000000000E+00 -0.91244741919E+02  0.91365709803E+02  0.47000000000E+01 0.  1.
         25    2    1    2    0    0  0.19333566726E+02 -0.83440245907E+02  0.50630496884E+02  0.15976774548E+03  0.12500489528E+03 0.  0.
         25    2    1    2    0    0 -0.19333566726E+02  0.83440245907E+02  0.11940515130E+03  0.19292062360E+03  0.12499886165E+03 0.  0.
          5    1    4    4  502    0 -0.65036987095E+02  0.25486496919E+02  0.28144981108E+02  0.75455955213E+02  0.47000000000E+01 0. -1.
         -5    1    4    4    0  502  0.45703420368E+02  0.57953748988E+02  0.91260170193E+02  0.11746466838E+03  0.47000000000E+01 0. -1.
          5    1    3    3  503    0 -0.14260601425E+02  0.25626099931E+02  0.32655806003E+02  0.44142421959E+02  0.47000000000E+01 0. -1.
         -5    1    3    3    0  503  0.33594168151E+02 -0.10906634584E+03  0.17974690881E+02  0.11562532353E+03  0.47000000000E+01 0. -1.
<mgrwt>
<rscale>  0 0.15153187E+03</rscale>
<asrwt>0</asrwt>
<pdfrwt beam="1">  1        5 0.40209539E-01 0.15153312E+03</pdfrwt>
<pdfrwt beam="2">  1       -5 0.14050210E-01 0.15153312E+03</pdfrwt>
<totfact> 0.19705167E+02</totfact>
</mgrwt>
</event>
<event>
 8    1  0.3542708E-007  0.1452749E+03  0.7546771E-02  0.1206408E+00
         -5   -1    0    0    0  501 -0.00000000000E+00  0.00000000000E+00  0.34753479962E+03  0.34756657916E+03  0.47000000000E+01 0.  1.
          5   -1    0    0  501    0  0.00000000000E+00 -0.00000000000E+00 -0.60972227517E+02  0.61153107267E+02  0.47000000000E+01 0.  1.
         25    2    1    2    0    0  0.72123694741E+02 -0.16682357885E+02  0.15932194178E+03  0.21560065035E+03  0.12498012198E+03 0.  0.
         25    2    1    2    0    0 -0.72123694741E+02  0.16682357885E+02  0.12724063032E+03  0.19311903608E+03  0.12499862272E+03 0.  0.
          5    1    3    3  502    0 -0.66531055519E+01  0.43017110507E+02  0.31423015622E+02  0.53890922433E+02  0.47000000000E+01 0.  1.
         -5    1    3    3    0  502  0.78776800293E+02 -0.59699468392E+02  0.12789892616E+03  0.16170972792E+03  0.47000000000E+01 0.  1.
          5    1    4    4  503    0 -0.40553661905E+02 -0.46345170754E+02  0.20422031794E+02  0.65050931805E+02  0.47000000000E+01 0.  1.
         -5    1    4    4    0  503 -0.31570032835E+02  0.63027528639E+02  0.10681859853E+03  0.12806810427E+03  0.47000000000E+01 0.  1.
<mgrwt>
<rscale>  0 0.14527088E+03</rscale>
<asrwt>0</asrwt>
<pdfrwt beam="2">  1        5 0.93967011E-02 0.14527486E+03</pdfrwt>
<pdfrwt beam="1">  1       -5 0.53483250E-01 0.14527486E+03</pdfrwt>
<totfact> 0.21763801E+02</totfact>
</mgrwt>
</event>
<event>
 8    1  0.3542708E-007  0.1432963E+03  0.7546771E-02  0.1208963E+00
         -5   -1    0    0    0  501 -0.00000000000E+00  0.00000000000E+00  0.17898106255E+04  0.17898167965E+04  0.47000000000E+01 0. -1.
          5   -1    0    0  501    0  0.00000000000E+00 -0.00000000000E+00 -0.11475620959E+02  0.12400801441E+02  0.47000000000E+01 0. -1.
         25    2    1    2    0    0 -0.41117914145E+02 -0.56709719500E+02  0.10683468694E+04  0.10779141280E+04  0.12500863447E+03 0.  0.
         25    2    1    2    0    0  0.41117914145E+02  0.56709719500E+02  0.70998813512E+03  0.72430347002E+03  0.12500275806E+03 0.  0.
          5    1    4    4  502    0 -0.17260093663E+02  0.71737511586E+02  0.51133222171E+03  0.51664969986E+03  0.47000000000E+01 0. -1.
         -5    1    4    4    0  502  0.58378007808E+02 -0.15027792086E+02  0.19865591341E+03  0.20765377016E+03  0.47000000000E+01 0. -1.
          5    1    3    3  503    0 -0.49300773533E+02 -0.92969621774E+02  0.74704733662E+03  0.75443735988E+03  0.47000000000E+01 0. -1.
         -5    1    3    3    0  503  0.81828593886E+01  0.36259902274E+02  0.32129953281E+03  0.32347676807E+03  0.47000000000E+01 0. -1.
<mgrwt>
<rscale>  0 0.14329503E+03</rscale>
<asrwt>0</asrwt>
<pdfrwt beam="2">  1        5 0.18371238E-02 0.14329631E+03</pdfrwt>
<pdfrwt beam="1">  1       -5 0.27542693E+00 0.14329631E+03</pdfrwt>
<totfact> 0.38376654E+01</totfact>
</mgrwt>
</event>
<event>
 8    1  0.3542708E-007  0.1673416E+03  0.7546771E-02  0.1180652E+00
         -5   -1    0    0    0  501 -0.00000000000E+00  0.00000000000E+00  0.36400541093E+03  0.36403575262E+03  0.47000000000E+01 0.  1.
          5   -1    0    0  501    0  0.00000000000E+00 -0.00000000000E+00 -0.10765604496E+03  0.10775859138E+03  0.47000000000E+01 0.  1.
         25    2    1    2    0    0 -0.51143781806E+02 -0.98784304022E+02  0.25433900805E+03  0.30445283556E+03  0.12501669059E+03 0.  0.
         25    2    1    2    0    0  0.51143781806E+02  0.98784304022E+02  0.20103579224E+01  0.16734150845E+03  0.12500045509E+03 0.  0.
          5    1    3    3  502    0 -0.34164819860E+02 -0.91737790502E+02  0.26510229166E+03  0.28263823550E+03  0.47000000000E+01 0.  1.
         -5    1    3    3    0  502 -0.16978961946E+02 -0.70465135201E+01 -0.10763283614E+02  0.21814600058E+02  0.47000000000E+01 0.  1.
          5    1    4    4  503    0  0.60580839819E+02  0.78428924300E+02  0.52241611966E+02  0.11212676015E+03  0.47000000000E+01 0.  1.
         -5    1    4    4    0  503 -0.94370580136E+01  0.20355379722E+02 -0.50231254044E+02  0.55214748305E+02  0.47000000000E+01 0.  1.
<mgrwt>
<rscale>  0 0.16733853E+03</rscale>
<asrwt>0</asrwt>
<pdfrwt beam="2">  1        5 0.16572690E-01 0.16734156E+03</pdfrwt>
<pdfrwt beam="1">  1       -5 0.56011055E-01 0.16734156E+03</pdfrwt>
<totfact> 0.74829805E+01</totfact>
</mgrwt>
</event>
<event>
 8    1  0.3542708E-007  0.1442134E+03  0.7546771E-02  0.1207783E+00
          5   -1    0    0  501    0  0.00000000000E+00  0.00000000000E+00  0.54316629562E+03  0.54318662971E+03  0.47000000000E+01 0. -1.
         -5   -1    0    0    0  501 -0.00000000000E+00 -0.00000000000E+00 -0.38158191755E+02  0.38446555086E+02  0.47000000000E+01 0. -1.
         25    2    1    2    0    0 -0.36510734580E+02 -0.61879108639E+02  0.24243886028E+03  0.28206665324E+03  0.12499175201E+03 0.  0.
         25    2    1    2    0    0  0.36510734580E+02  0.61879108639E+02  0.26256924359E+03  0.29956653156E+03  0.12504175834E+03 0.  0.
          5    1    4    4  502    0 -0.39277831012E+02  0.37680602005E+02  0.16369980739E+03  0.17257546962E+03  0.47000000000E+01 0. -1.
         -5    1    4    4    0  502  0.75788565592E+02  0.24198506633E+02  0.98869436199E+02  0.12699106194E+03  0.47000000000E+01 0. -1.
          5    1    3    3  503    0 -0.67259404362E+02 -0.69711406711E+02  0.11394596186E+03  0.14963047792E+03  0.47000000000E+01 0.  1.
         -5    1    3    3    0  503  0.30748669781E+02  0.78322980723E+01  0.12849289842E+03  0.13243617531E+03  0.47000000000E+01 0.  1.
<mgrwt>
<rscale>  0 0.14420254E+03</rscale>
<asrwt>0</asrwt>
<pdfrwt beam="1">  1        5 0.83587792E-01 0.14421338E+03</pdfrwt>
<pdfrwt beam="2">  1       -5 0.58942369E-02 0.14421338E+03</pdfrwt>
<totfact> 0.17730065E+02</totfact>
</mgrwt>
</event>
<event>
 8    1  0.3542708E-007  0.1486949E+03  0.7546771E-02  0.1202087E+00
         -5   -1    0    0    0  501 -0.00000000000E+00  0.00000000000E+00  0.42176417342E+02  0.42437485550E+02  0.47000000000E+01 0.  1.
          5   -1    0    0  501    0  0.00000000000E+00 -0.00000000000E+00 -0.52795478027E+03  0.52797570021E+03  0.47000000000E+01 0.  1.
         25    2    1    2    0    0  0.65060767423E+02  0.47457415986E+02 -0.21345343424E+03  0.26013745937E+03  0.12499607750E+03 0.  0.
         25    2    1    2    0    0 -0.65060767423E+02 -0.47457415986E+02 -0.27232492869E+03  0.31027572638E+03  0.12500019924E+03 0.  0.
          5    1    3    3  502    0  0.61702545002E+01  0.44497359729E+02 -0.74109748512E+01  0.45772258101E+02  0.47000000000E+01 0.  1.
         -5    1    3    3    0  502  0.58890512922E+02  0.29600562575E+01 -0.20604245939E+03  0.21436520127E+03  0.47000000000E+01 0.  1.
          5    1    4    4  503    0 -0.78971875212E+02 -0.77542855977E+02 -0.23697832481E+03  0.26159179654E+03  0.47000000000E+01 0.  1.
         -5    1    4    4    0  503  0.13911107789E+02  0.30085439991E+02 -0.35346603872E+02  0.48683929840E+02  0.47000000000E+01 0.  1.
<mgrwt>
<rscale>  0 0.14869399E+03</rscale>
<asrwt>0</asrwt>
<pdfrwt beam="2">  1        5 0.81245499E-01 0.14869485E+03</pdfrwt>
<pdfrwt beam="1">  1       -5 0.65103714E-02 0.14869485E+03</pdfrwt>
<totfact> 0.16180808E+02</totfact>
</mgrwt>
</event>
<event>
 8    1  0.3542708E-007  0.1331370E+03  0.7546771E-02  0.1222874E+00
          5   -1    0    0  501    0  0.00000000000E+00  0.00000000000E+00  0.25245212344E+03  0.25249587052E+03  0.47000000000E+01 0.  1.
         -5   -1    0    0    0  501 -0.00000000000E+00 -0.00000000000E+00 -0.74344232299E+02  0.74492649812E+02  0.47000000000E+01 0.  1.
         25    2    1    2    0    0  0.15550328274E+02  0.43111822422E+02  0.49967887132E+02  0.14220396881E+03  0.12499894823E+03 0.  0.
         25    2    1    2    0    0 -0.15550328274E+02 -0.43111822422E+02  0.12814000401E+03  0.18478455153E+03  0.12500011165E+03 0.  0.
          5    1    3    3  502    0  0.62395217144E+02  0.40624522574E+02  0.57849088173E+02  0.94404035715E+02  0.47000000000E+01 0. -1.
         -5    1    3    3    0  502 -0.46844888871E+02  0.24872998480E+01 -0.78812010408E+01  0.47799933093E+02  0.47000000000E+01 0. -1.
          5    1    4    4  503    0  0.26080531181E+02 -0.24588787009E+02 -0.11409857876E+02  0.37908803859E+02  0.47000000000E+01 0. -1.
         -5    1    4    4    0  503 -0.41630859455E+02 -0.18523035413E+02  0.13954986189E+03  0.14687574767E+03  0.47000000000E+01 0. -1.
<mgrwt>
<rscale>  0 0.13313676E+03</rscale>
<asrwt>0</asrwt>
<pdfrwt beam="1">  1        5 0.38853570E-01 0.13313703E+03</pdfrwt>
<pdfrwt beam="2">  1       -5 0.11452356E-01 0.13313703E+03</pdfrwt>
<totfact> 0.29133967E+02</totfact>
</mgrwt>
</event>
<event>
 8    1  0.3542708E-007  0.1277072E+03  0.7546771E-02  0.1230909E+00
          5   -1    0    0  501    0  0.00000000000E+00  0.00000000000E+00  0.79538758343E+02  0.79677500454E+02  0.47000000000E+01 0.  1.
         -5   -1    0    0    0  501 -0.00000000000E+00 -0.00000000000E+00 -0.21169583008E+03  0.21174799757E+03  0.47000000000E+01 0.  1.
         25    2    1    2    0    0  0.13920976215E+02 -0.21988587679E+02 -0.92650485809E+02  0.15777594071E+03  0.12502737052E+03 0.  0.
         25    2    1    2    0    0 -0.13920976215E+02  0.21988587679E+02 -0.39506585929E+02  0.13364955731E+03  0.12499656903E+03 0.  0.
          5    1    4    4  502    0 -0.14483807979E+02  0.67465853311E+02  0.56416310681E+01  0.69392651323E+02  0.47000000000E+01 0. -1.
         -5    1    4    4    0  502  0.56283176379E+00 -0.45477265632E+02 -0.45148216997E+02  0.64256905986E+02  0.47000000000E+01 0. -1.
          5    1    3    3  503    0 -0.12030549698E+02 -0.42762830642E+02 -0.11090342942E+03  0.11956192733E+03  0.47000000000E+01 0.  1.
         -5    1    3    3    0  503  0.25951525913E+02  0.20774242963E+02  0.18252943611E+02  0.38214013377E+02  0.47000000000E+01 0.  1.
<mgrwt>
<rscale>  0 0.12769968E+03</rscale>
<asrwt>0</asrwt>
<pdfrwt beam="1">  1        5 0.12251417E-01 0.12770722E+03</pdfrwt>
<pdfrwt beam="2">  1       -5 0.32583274E-01 0.12770722E+03</pdfrwt>
<totfact> 0.36264325E+02</totfact>
</mgrwt>
</event>
<event>
 8    1  0.3542708E-007  0.1380949E+03  0.7546771E-02  0.1215924E+00
         -5   -1    0    0    0  501 -0.00000000000E+00  0.00000000000E+00  0.24892884990E+02  0.25332700668E+02  0.47000000000E+01 0.  1.
          5   -1    0    0  501    0  0.00000000000E+00 -0.00000000000E+00 -0.77895124939E+03  0.77896542858E+03  0.47000000000E+01 0.  1.
         25    2    1    2    0    0  0.30005898426E+00 -0.58664448819E+02 -0.31239293624E+03  0.34155461676E+03  0.12501440728E+03 0.  0.
         25    2    1    2    0    0 -0.30005898426E+00  0.58664448819E+02 -0.44166542817E+03  0.46274351249E+03  0.12498640057E+03 0.  0.
          5    1    3    3  502    0  0.83034561757E+01 -0.96173303030E+02 -0.18936829346E+03  0.21260454409E+03  0.47000000000E+01 0.  1.
         -5    1    3    3    0  502 -0.80033971914E+01  0.37508854211E+02 -0.12302464277E+03  0.12895007266E+03  0.47000000000E+01 0.  1.
          5    1    4    4  503    0  0.39063709355E+02 -0.31191384818E+01 -0.30560558688E+03  0.30814374429E+03  0.47000000000E+01 0.  1.
         -5    1    4    4    0  503 -0.39363768339E+02  0.61783587301E+02 -0.13605984128E+03  0.15459976820E+03  0.47000000000E+01 0.  1.
<mgrwt>
<rscale>  0 0.13808859E+03</rscale>
<asrwt>0</asrwt>
<pdfrwt beam="2">  1        5 0.11987356E+00 0.13809493E+03</pdfrwt>
<pdfrwt beam="1">  1       -5 0.38645979E-02 0.13809493E+03</pdfrwt>
<totfact> 0.14626126E+02</totfact>
</mgrwt>
</event>
<event>
 8    1  0.3542708E-007  0.1387984E+03  0.7546771E-02  0.1214955E+00
          5   -1    0    0  501    0  0.00000000000E+00  0.00000000000E+00  0.10562741177E+03  0.10573192572E+03  0.47000000000E+01 0. -1.
         -5   -1    0    0    0  501 -0.00000000000E+00 -0.00000000000E+00 -0.19125505867E+03  0.19131280006E+03  0.47000000000E+01 0. -1.
         25    2    1    2    0    0 -0.59877290464E+02  0.73230608374E+01 -0.75187715150E+02  0.15785494299E+03  0.12500429346E+03 0.  0.
         25    2    1    2    0    0  0.59877290464E+02 -0.73230608374E+01 -0.10439931747E+02  0.13918978279E+03  0.12500354525E+03 0.  0.
          5    1    3    3  502    0 -0.75263763547E+02  0.49574190469E+02 -0.65782227004E+02  0.11167643374E+03  0.47000000000E+01 0.  1.
         -5    1    3    3    0  502  0.15386473084E+02 -0.42251129631E+02 -0.94054881453E+01  0.46178509248E+02  0.47000000000E+01 0.  1.
          5    1    4    4  503    0  0.52880646369E+02 -0.53117323591E+02 -0.38942194767E+02  0.84595492546E+02  0.47000000000E+01 0.  1.
         -5    1    4    4    0  503  0.69966440952E+01  0.45794262753E+02  0.28502263020E+02  0.54594290241E+02  0.47000000000E+01 0.  1.
<mgrwt>
<rscale>  0 0.13879821E+03</rscale>
<asrwt>0</asrwt>
<pdfrwt beam="1">  1        5 0.16262852E-01 0.13879838E+03</pdfrwt>
<pdfrwt beam="2">  1       -5 0.29436336E-01 0.13879838E+03</pdfrwt>
<totfact> 0.27408284E+02</totfact>
</mgrwt>
</event>
<event>
 8    1  0.3542708E-007  0.1295770E+03  0.7546771E-02  0.1228085E+00
         -5   -1    0    0    0  501 -0.00000000000E+00  0.00000000000E+00  0.32625112765E+02  0.32961917161E+02  0.47000000000E+01 0.  1.
          5   -1    0    0  501    0  0.00000000000E+00 -0.00000000000E+00 -0.62835211152E+03  0.62836968899E+03  0.47000000000E+01 0.  1.
         25    2    1    2    0    0  0.17321415850E+02  0.29434952638E+02 -0.15539668927E+03  0.20233161396E+03  0.12499401222E+03 0.  0.
         25    2    1    2    0    0 -0.17321415850E+02 -0.29434952638E+02 -0.44033030948E+03  0.45899999219E+03  0.12499505388E+03 0.  0.
          5    1    3    3  502    0 -0.38879322339E+02  0.51402712323E+02 -0.10628550439E+03  0.12438866099E+03  0.47000000000E+01 0.  1.
         -5    1    3    3    0  502  0.56200738189E+02 -0.21967759685E+02 -0.49111184881E+02  0.77942952978E+02  0.47000000000E+01 0.  1.
          5    1    4    4  503    0  0.26889843686E+01 -0.77297530497E+02 -0.26389797598E+03  0.27503885287E+03  0.47000000000E+01 0. -1.
         -5    1    4    4    0  503 -0.20010400219E+02  0.47862577859E+02 -0.17643233350E+03  0.18396113932E+03  0.47000000000E+01 0. -1.
<mgrwt>
<rscale>  0 0.12957680E+03</rscale>
<asrwt>0</asrwt>
<pdfrwt beam="2">  1        5 0.96696807E-01 0.12957705E+03</pdfrwt>
<pdfrwt beam="1">  1       -5 0.50465087E-02 0.12957705E+03</pdfrwt>
<totfact> 0.15699519E+02</totfact>
</mgrwt>
</event>
<event>
 8    1  0.3542708E-007  0.1503848E+03  0.7546771E-02  0.1200006E+00
          5   -1    0    0  501    0  0.00000000000E+00  0.00000000000E+00  0.14460410308E+03  0.14468046388E+03  0.47000000000E+01 0.  1.
         -5   -1    0    0    0  501 -0.00000000000E+00 -0.00000000000E+00 -0.16516381463E+03  0.16523067410E+03  0.47000000000E+01 0.  1.
         25    2    1    2    0    0  0.16103512632E+02 -0.82051108011E+02 -0.46306840303E+02  0.15733817458E+03  0.12497707901E+03 0.  0.
         25    2    1    2    0    0 -0.16103512632E+02  0.82051108011E+02  0.25747128753E+02  0.15257296339E+03  0.12499554822E+03 0.  0.
          5    1    4    4  502    0 -0.30320074762E+02 -0.85771471612E+01  0.48418577173E+02  0.57959667032E+02  0.47000000000E+01 0.  1.
         -5    1    4    4    0  502  0.14216562130E+02  0.90628255172E+02 -0.22671448421E+02  0.94613296358E+02  0.47000000000E+01 0.  1.
          5    1    3    3  503    0  0.46767627809E+02  0.88898504776E+01 -0.37624784455E+02  0.60860125350E+02  0.47000000000E+01 0. -1.
         -5    1    3    3    0  503 -0.30664115176E+02 -0.90940958488E+02 -0.86820558486E+01  0.96478049234E+02  0.47000000000E+01 0. -1.
<mgrwt>
<rscale>  0 0.15038098E+03</rscale>
<asrwt>0</asrwt>
<pdfrwt beam="1">  1        5 0.22257802E-01 0.15038482E+03</pdfrwt>
<pdfrwt beam="2">  1       -5 0.25420835E-01 0.15038482E+03</pdfrwt>
<totfact> 0.20889490E+02</totfact>
</mgrwt>
</event>
<event>
 8    1  0.3542708E-007  0.1707885E+03  0.7546771E-02  0.1177032E+00
         -5   -1    0    0    0  501 -0.00000000000E+00  0.00000000000E+00  0.23282138959E+03  0.23286882456E+03  0.47000000000E+01 0. -1.
          5   -1    0    0  501    0  0.00000000000E+00 -0.00000000000E+00 -0.12529237781E+03  0.12538050063E+03  0.47000000000E+01 0. -1.
         25    2    1    2    0    0 -0.11024043954E+03  0.37236128966E+02  0.48150398951E+02  0.17743305551E+03  0.12499817783E+03 0.  0.
         25    2    1    2    0    0  0.11024043954E+03 -0.37236128966E+02  0.59378612832E+02  0.18081626967E+03  0.12501687849E+03 0.  0.
          5    1    4    4  502    0  0.10715760529E+03 -0.53629106905E+02  0.10051635462E+01  0.11992470068E+03  0.47000000000E+01 0. -1.
         -5    1    4    4    0  502  0.30828342406E+01  0.16392977939E+02  0.58373449286E+02  0.60891568991E+02  0.47000000000E+01 0. -1.
          5    1    3    3  503    0  0.31329748250E+01 -0.26853165037E+02  0.37791034768E+02  0.46702894049E+02  0.47000000000E+01 0. -1.
         -5    1    3    3    0  503 -0.11337341436E+03  0.64089294003E+02  0.10359364183E+02  0.13073016146E+03  0.47000000000E+01 0. -1.
<mgrwt>
<rscale>  0 0.17078505E+03</rscale>
<asrwt>0</asrwt>
<pdfrwt beam="2">  1        5 0.19286178E-01 0.17078848E+03</pdfrwt>
<pdfrwt beam="1">  1       -5 0.35829102E-01 0.17078848E+03</pdfrwt>
<totfact> 0.14476191E+02</totfact>
</mgrwt>
</event>
<event>
 8    1  0.3542708E-007  0.1277770E+03  0.7546771E-02  0.1230801E+00
         -5   -1    0    0    0  501 -0.00000000000E+00  0.00000000000E+00  0.11047373240E+04  0.11047473218E+04  0.47000000000E+01 0.  1.
          5   -1    0    0  501    0  0.00000000000E+00 -0.00000000000E+00 -0.14576740207E+02  0.15315722479E+02  0.47000000000E+01 0.  1.
         25    2    1    2    0    0  0.25473692633E+02 -0.71255625864E+01  0.48360249182E+03  0.50019234962E+03  0.12498533462E+03 0.  0.
         25    2    1    2    0    0 -0.25473692633E+02  0.71255625864E+01  0.60655809196E+03  0.61987069465E+03  0.12500910568E+03 0.  0.
          5    1    3    3  502    0 -0.36425812381E+02  0.24126869039E+02  0.31153101689E+03  0.31461501887E+03  0.47000000000E+01 0.  1.
         -5    1    3    3    0  502  0.61899505014E+02 -0.31252431625E+02  0.17207147493E+03  0.18557733075E+03  0.47000000000E+01 0.  1.
          5    1    4    4  503    0  0.22218653784E+01  0.53930769235E+02  0.13980996420E+03  0.14994125732E+03  0.47000000000E+01 0.  1.
         -5    1    4    4    0  503 -0.27695558012E+02 -0.46805206649E+02  0.46674812776E+03  0.46992943733E+03  0.47000000000E+01 0.  1.
<mgrwt>
<rscale>  0 0.12777118E+03</rscale>
<asrwt>0</asrwt>
<pdfrwt beam="2">  1        5 0.23001892E-02 0.12777699E+03</pdfrwt>
<pdfrwt beam="1">  1       -5 0.17001720E+00 0.12777699E+03</pdfrwt>
<totfact> 0.12876973E+02</totfact>
</mgrwt>
</event>
<event>
 8    1  0.3542708E-007  0.1623645E+03  0.7546771E-02  0.1186055E+00
          5   -1    0    0  501    0  0.00000000000E+00  0.00000000000E+00  0.85196504993E+03  0.85197801398E+03  0.47000000000E+01 0.  1.
         -5   -1    0    0    0  501 -0.00000000000E+00 -0.00000000000E+00 -0.31292850137E+02  0.31643837784E+02  0.47000000000E+01 0.  1.
         25    2    1    2    0    0 -0.98237734309E+00 -0.10360350107E+03  0.35246522268E+03  0.38806155617E+03  0.12500155070E+03 0.  0.
         25    2    1    2    0    0  0.98237734309E+00  0.10360350107E+03  0.46820697711E+03  0.49556029559E+03  0.12501033018E+03 0.  0.
          5    1    4    4  502    0 -0.46579429984E+02  0.10146014737E+03  0.28266498937E+03  0.30394965211E+03  0.47000000000E+01 0.  1.
         -5    1    4    4    0  502  0.47561807327E+02  0.21433537044E+01  0.18554198773E+03  0.19161064348E+03  0.47000000000E+01 0.  1.
          5    1    3    3  503    0 -0.29271632982E+02  0.14049294940E+02  0.33529641065E+02  0.46909892514E+02  0.47000000000E+01 0.  1.
         -5    1    3    3    0  503  0.28289255639E+02 -0.11765279601E+03  0.31893558162E+03  0.34115166366E+03  0.47000000000E+01 0.  1.
<mgrwt>
<rscale>  0 0.16236282E+03</rscale>
<asrwt>0</asrwt>
<pdfrwt beam="1">  1        5 0.13109955E+00 0.16236451E+03</pdfrwt>
<pdfrwt beam="2">  1       -5 0.48422808E-02 0.16236451E+03</pdfrwt>
<totfact> 0.84077526E+01</totfact>
</mgrwt>
</event>
<event>
 8    1  0.3542708E-007  0.1821025E+03  0.7546771E-02  0.1165784E+00
         -5   -1    0    0    0  501 -0.00000000000E+00  0.00000000000E+00  0.18736456376E+03  0.18742350374E+03  0.47000000000E+01 0.  1.
          5   -1    0    0  501    0  0.00000000000E+00 -0.00000000000E+00 -0.22303833314E+03  0.22308784828E+03  0.47000000000E+01 0.  1.
         25    2    1    2    0    0  0.13132459437E+03 -0.17031433974E+02  0.75525304100E+02  0.19714186384E+03  0.12499849635E+03 0.  0.
         25    2    1    2    0    0 -0.13132459437E+03  0.17031433974E+02 -0.11119907347E+03  0.21336948818E+03  0.12500034286E+03 0.  0.
          5    1    4    4  502    0  0.20794669443E+02 -0.89620069129E+01 -0.33008401800E+02  0.40303603245E+02  0.47000000000E+01 0.  1.
         -5    1    4    4    0  502 -0.15211926381E+03  0.25993440887E+02 -0.78190671673E+02  0.17306588493E+03  0.47000000000E+01 0.  1.
          5    1    3    3  503    0  0.18083274412E+02  0.45474030146E+02  0.38717008714E+02  0.62577863457E+02  0.47000000000E+01 0. -1.
         -5    1    3    3    0  503  0.11324131995E+03 -0.62505464120E+02  0.36808295386E+02  0.13456400038E+03  0.47000000000E+01 0. -1.
<mgrwt>
<rscale>  0 0.18210214E+03</rscale>
<asrwt>0</asrwt>
<pdfrwt beam="2">  1        5 0.34321932E-01 0.18210246E+03</pdfrwt>
<pdfrwt beam="1">  1       -5 0.28833660E-01 0.18210246E+03</pdfrwt>
<totfact> 0.74555073E+01</totfact>
</mgrwt>
</event>
<event>
 8    1  0.3542708E-007  0.1318282E+03  0.7546771E-02  0.1224774E+00
          5   -1    0    0  501    0  0.00000000000E+00  0.00000000000E+00  0.97022454770E+02  0.97136227689E+02  0.47000000000E+01 0.  1.
         -5   -1    0    0    0  501 -0.00000000000E+00 -0.00000000000E+00 -0.20133601021E+03  0.20139086128E+03  0.47000000000E+01 0.  1.
         25    2    1    2    0    0  0.38586848922E+02 -0.16277219301E+02 -0.10202351264E+03  0.16669574227E+03  0.12499912233E+03 0.  0.
         25    2    1    2    0    0 -0.38586848922E+02  0.16277219301E+02 -0.22900428023E+01  0.13183134670E+03  0.12498146622E+03 0.  0.
          5    1    4    4  502    0 -0.73426933881E+02 -0.77968137109E+01 -0.31244697686E+02  0.80315789585E+02  0.47000000000E+01 0. -1.
         -5    1    4    4    0  502  0.34840084959E+02  0.24074033011E+02  0.28954654884E+02  0.51515557114E+02  0.47000000000E+01 0. -1.
          5    1    3    3  503    0  0.19143468659E+02 -0.33131378009E+02  0.18928196784E+02  0.42947959609E+02  0.47000000000E+01 0.  1.
         -5    1    3    3    0  503  0.19443380263E+02  0.16854158708E+02 -0.12095170942E+03  0.12374778267E+03  0.47000000000E+01 0.  1.
<mgrwt>
<rscale>  0 0.13182401E+03</rscale>
<asrwt>0</asrwt>
<pdfrwt beam="1">  1        5 0.14939503E-01 0.13182820E+03</pdfrwt>
<pdfrwt beam="2">  1       -5 0.30987742E-01 0.13182820E+03</pdfrwt>
<totfact> 0.28401681E+02</totfact>
</mgrwt>
</event>
<event>
 8    1  0.3542708E-007  0.1513124E+03  0.7546771E-02  0.1198872E+00
         -5   -1    0    0    0  501 -0.00000000000E+00  0.00000000000E+00  0.83258022854E+03  0.83259349442E+03  0.47000000000E+01 0. -1.
          5   -1    0    0  501    0  0.00000000000E+00 -0.00000000000E+00 -0.27361392072E+02  0.27762128451E+02  0.47000000000E+01 0. -1.
         25    2    1    2    0    0 -0.70785085488E+02  0.47500012311E+02  0.42542992407E+03  0.45153743582E+03  0.12501462375E+03 0.  0.
         25    2    1    2    0    0  0.70785085488E+02 -0.47500012311E+02  0.37978891239E+03  0.40881818705E+03  0.12500365031E+03 0.  0.
          5    1    3    3  502    0  0.92090877652E+01  0.65643886423E+02  0.23324750806E+03  0.24252920883E+03  0.47000000000E+01 0. -1.
         -5    1    3    3    0  502 -0.79994173253E+02 -0.18143874112E+02  0.19218241602E+03  0.20900822699E+03  0.47000000000E+01 0. -1.
          5    1    4    4  503    0 -0.56086705901E+01  0.35485788662E+02  0.12486272181E+03  0.13001341347E+03  0.47000000000E+01 0. -1.
         -5    1    4    4    0  503  0.76393756078E+02 -0.82985800974E+02  0.25492619058E+03  0.27880477359E+03  0.47000000000E+01 0. -1.
<mgrwt>
<rscale>  0 0.15131011E+03</rscale>
<asrwt>0</asrwt>
<pdfrwt beam="2">  1        5 0.42412911E-02 0.15131238E+03</pdfrwt>
<pdfrwt beam="1">  1       -5 0.12812112E+00 0.15131238E+03</pdfrwt>
<totfact> 0.10884378E+02</totfact>
</mgrwt>
</event>
<event>
 8    1  0.3542708E-007  0.1565364E+03  0.7546771E-02  0.1192664E+00
         -5   -1    0    0    0  501 -0.00000000000E+00  0.00000000000E+00  0.12282960106E+03  0.12291948949E+03  0.47000000000E+01 0.  1.
          5   -1    0    0  501    0  0.00000000000E+00 -0.00000000000E+00 -0.20701045630E+03  0.20706380422E+03  0.47000000000E+01 0.  1.
         25    2    1    2    0    0  0.69064671860E+01  0.93974503482E+02 -0.10257469121E+02  0.15686973660E+03  0.12499596792E+03 0.  0.
         25    2    1    2    0    0 -0.69064671860E+01 -0.93974503482E+02 -0.73923386122E+02  0.17311355711E+03  0.12499892017E+03 0.  0.
          5    1    4    4  502    0 -0.50711562843E+00  0.30698977481E+02 -0.90768859970E+01  0.32359917244E+02  0.47000000000E+01 0.  1.
         -5    1    4    4    0  502 -0.63993515576E+01 -0.12467348096E+03 -0.64846500125E+02  0.14075363986E+03  0.47000000000E+01 0.  1.
          5    1    3    3  503    0  0.11197888389E+02  0.39573451248E+02 -0.66520682589E+02  0.78348847854E+02  0.47000000000E+01 0.  1.
         -5    1    3    3    0  503 -0.42914212025E+01  0.54401052235E+02  0.56263213468E+02  0.78520888749E+02  0.47000000000E+01 0.  1.
<mgrwt>
<rscale>  0 0.15653579E+03</rscale>
<asrwt>0</asrwt>
<pdfrwt beam="2">  1        5 0.31858781E-01 0.15653637E+03</pdfrwt>
<pdfrwt beam="1">  1       -5 0.18907880E-01 0.15653637E+03</pdfrwt>
<totfact> 0.18495675E+02</totfact>
</mgrwt>
</event>
<event>
 8    1  0.3542708E-007  0.1606720E+03  0.7546771E-02  0.1187948E+00
          5   -1    0    0  501    0  0.00000000000E+00  0.00000000000E+00  0.86689510184E+02  0.86816825420E+02  0.47000000000E+01 0. -1.
         -5   -1    0    0    0  501 -0.00000000000E+00 -0.00000000000E+00 -0.54155382439E+03  0.54157421902E+03  0.47000000000E+01 0. -1.
         25    2    1    2    0    0  0.64516372203E+02  0.77579515806E+02 -0.43836666454E+03  0.46687426906E+03  0.12500122790E+03 0.  0.
         25    2    1    2    0    0 -0.64516372203E+02 -0.77579515806E+02 -0.16497649666E+02  0.16151677538E+03  0.12503820508E+03 0.  0.
          5    1    3    3  502    0  0.37494558915E+02  0.10087012751E+03 -0.21336106247E+03  0.23900974363E+03  0.47000000000E+01 0.  1.
         -5    1    3    3    0  502  0.27021813287E+02 -0.23290611704E+02 -0.22500560207E+03  0.22786452543E+03  0.47000000000E+01 0.  1.
          5    1    4    4  503    0 -0.55513431410E+02  0.19824536401E+02 -0.22811327207E+02  0.63381384959E+02  0.47000000000E+01 0.  1.
         -5    1    4    4    0  503 -0.90029407931E+01 -0.97404052207E+02  0.63136775411E+01  0.98135390423E+02  0.47000000000E+01 0.  1.
<mgrwt>
<rscale>  0 0.16066482E+03</rscale>
<asrwt>0</asrwt>
<pdfrwt beam="1">  1        5 0.13348210E-01 0.16067201E+03</pdfrwt>
<pdfrwt beam="2">  1       -5 0.83327333E-01 0.16067201E+03</pdfrwt>
<totfact> 0.44782895E+01</totfact>
</mgrwt>
</event>
<event>
 8    1  0.3542708E-007  0.1314811E+03  0.7546771E-02  0.1225277E+00
         -5   -1    0    0    0  501 -0.00000000000E+00  0.00000000000E+00  0.40174963628E+02  0.40448951810E+02  0.47000000000E+01 0.  1.
          5   -1    0    0  501    0  0.00000000000E+00 -0.00000000000E+00 -0.43984132089E+03  0.43986643151E+03  0.47000000000E+01 0.  1.
         25    2    1    2    0    0 -0.17786701363E+02 -0.36673489583E+02 -0.16133185161E+03  0.20812313195E+03  0.12500384045E+03 0.  0.
         25    2    1    2    0    0  0.17786701363E+02  0.36673489583E+02 -0.23833450565E+03  0.27219225136E+03  0.12499589407E+03 0.  0.
          5    1    3    3  502    0 -0.50279658325E+02  0.20686016275E+02 -0.11535830356E+03  0.12761498153E+03  0.47000000000E+01 0. -1.
         -5    1    3    3    0  502  0.32492956962E+02 -0.57359505858E+02 -0.45973548057E+02  0.80508150428E+02  0.47000000000E+01 0. -1.
          5    1    4    4  503    0  0.26048502210E+02  0.65687664630E+02 -0.64799774139E+02  0.95992158432E+02  0.47000000000E+01 0. -1.
         -5    1    4    4    0  503 -0.82618008476E+01 -0.29014175047E+02 -0.17353473151E+03  0.17620009293E+03  0.47000000000E+01 0. -1.
<mgrwt>
<rscale>  0 0.13147918E+03</rscale>
<asrwt>0</asrwt>
<pdfrwt beam="2">  1        5 0.67690900E-01 0.13148107E+03</pdfrwt>
<pdfrwt beam="1">  1       -5 0.62037715E-02 0.13148107E+03</pdfrwt>
<totfact> 0.25542808E+02</totfact>
</mgrwt>
</event>
<event>
 8    1  0.3542708E-007  0.1368468E+03  0.7546771E-02  0.1217636E+00
         -5   -1    0    0    0  501 -0.00000000000E+00  0.00000000000E+00  0.80466560762E+02  0.80603705876E+02  0.47000000000E+01 0.  1.
          5   -1    0    0  501    0  0.00000000000E+00 -0.00000000000E+00 -0.25609236803E+03  0.25613549337E+03  0.47000000000E+01 0.  1.
         25    2    1    2    0    0 -0.33798821639E+02  0.44266591016E+02 -0.36587747930E+02  0.14165352610E+03  0.12500066694E+03 0.  0.
         25    2    1    2    0    0  0.33798821639E+02 -0.44266591016E+02 -0.13903805934E+03  0.19508567314E+03  0.12499978598E+03 0.  0.
          5    1    4    4  502    0 -0.10226020038E+02  0.81398419773E+01 -0.12409729169E+03  0.12487215990E+03  0.47000000000E+01 0.  1.
         -5    1    4    4    0  502  0.44024841678E+02 -0.52406432994E+02 -0.14940767651E+02  0.70213513243E+02  0.47000000000E+01 0.  1.
          5    1    3    3  503    0  0.80726733365E+01  0.80179487957E+02 -0.29000463917E+02  0.85773161602E+02  0.47000000000E+01 0. -1.
         -5    1    3    3    0  503 -0.41871494976E+02 -0.35912896941E+02 -0.75872840123E+01  0.55880364502E+02  0.47000000000E+01 0. -1.
<mgrwt>
<rscale>  0 0.13684664E+03</rscale>
<asrwt>0</asrwt>
<pdfrwt beam="2">  1        5 0.39412693E-01 0.13684684E+03</pdfrwt>
<pdfrwt beam="1">  1       -5 0.12393338E-01 0.13684684E+03</pdfrwt>
<totfact> 0.24837823E+02</totfact>
</mgrwt>
</event>
<event>
 8    1  0.3542708E-007  0.1439154E+03  0.7546771E-02  0.1208158E+00
         -5   -1    0    0    0  501 -0.00000000000E+00  0.00000000000E+00  0.20792915712E+03  0.20798226939E+03  0.47000000000E+01 0.  1.
          5   -1    0    0  501    0  0.00000000000E+00 -0.00000000000E+00 -0.13396734398E+03  0.13404976409E+03  0.47000000000E+01 0.  1.
         25    2    1    2    0    0  0.31863504722E+01  0.71235505650E+02  0.12370008116E+03  0.18977184764E+03  0.12500797569E+03 0.  0.
         25    2    1    2    0    0 -0.31863504722E+01 -0.71235505650E+02 -0.49738268010E+02  0.15226018584E+03  0.12499847516E+03 0.  0.
          5    1    4    4  502    0 -0.19297182036E+02 -0.26590134049E+01  0.35996324070E+02  0.41198020988E+02  0.47000000000E+01 0.  1.
         -5    1    4    4    0  502  0.16110831564E+02 -0.68576492245E+02 -0.85734592080E+02  0.11106216485E+03  0.47000000000E+01 0.  1.
          5    1    3    3  503    0  0.34287774300E+02 -0.21705942923E+02  0.60703369956E+02  0.73169587594E+02  0.47000000000E+01 0. -1.
         -5    1    3    3    0  503 -0.31101423828E+02  0.92941448573E+02  0.62996711199E+02  0.11660226005E+03  0.47000000000E+01 0. -1.
<mgrwt>
<rscale>  0 0.14391334E+03</rscale>
<asrwt>0</asrwt>
<pdfrwt beam="2">  1        5 0.20620786E-01 0.14391541E+03</pdfrwt>
<pdfrwt beam="1">  1       -5 0.31999527E-01 0.14391541E+03</pdfrwt>
<totfact> 0.15172367E+02</totfact>
</mgrwt>
</event>
<event>
 8    1  0.3542708E-007  0.1260188E+03  0.7546771E-02  0.1233511E+00
          5   -1    0    0  501    0  0.00000000000E+00  0.00000000000E+00  0.14582914212E+02  0.15321598706E+02  0.47000000000E+01 0.  1.
         -5   -1    0    0    0  501 -0.00000000000E+00 -0.00000000000E+00 -0.13271521349E+04  0.13271604572E+04  0.47000000000E+01 0.  1.
         25    2    1    2    0    0  0.14524084389E+02  0.54836426804E+01 -0.95677340346E+03  0.96502821809E+03  0.12499238693E+03 0.  0.
         25    2    1    2    0    0 -0.14524084389E+02 -0.54836426804E+01 -0.35579581720E+03  0.37745383779E+03  0.12505885318E+03 0.  0.
          5    1    4    4  502    0 -0.23333410846E+02 -0.62750076547E+02 -0.21135549445E+03  0.22175494404E+03  0.47000000000E+01 0.  1.
         -5    1    4    4    0  502  0.88093264570E+01  0.57266433867E+02 -0.14444032275E+03  0.15569889375E+03  0.47000000000E+01 0.  1.
          5    1    3    3  503    0  0.31440738432E+02 -0.49729515416E+02 -0.30316737874E+03  0.30885934383E+03  0.47000000000E+01 0.  1.
         -5    1    3    3    0  503 -0.16916654043E+02  0.55213158096E+02 -0.65360602472E+03  0.65616887427E+03  0.47000000000E+01 0.  1.
<mgrwt>
<rscale>  0 0.12600230E+03</rscale>
<asrwt>0</asrwt>
<pdfrwt beam="1">  1        5 0.23009884E-02 0.12601879E+03</pdfrwt>
<pdfrwt beam="2">  1       -5 0.20423462E+00 0.12601879E+03</pdfrwt>
<totfact> 0.74036396E+01</totfact>
</mgrwt>
</event>
<event>
 8    1  0.3542708E-007  0.1278082E+03  0.7546771E-02  0.1230747E+00
         -5   -1    0    0    0  501 -0.00000000000E+00  0.00000000000E+00  0.67197951546E+02  0.67362116148E+02  0.47000000000E+01 0.  1.
          5   -1    0    0  501    0  0.00000000000E+00 -0.00000000000E+00 -0.31493743959E+03  0.31497250809E+03  0.47000000000E+01 0.  1.
         25    2    1    2    0    0 -0.60743471838E+01  0.25876726339E+02 -0.32277964272E+02  0.13182105999E+03  0.12501368813E+03 0.  0.
         25    2    1    2    0    0  0.60743471838E+01 -0.25876726339E+02 -0.21546152377E+03  0.25051356425E+03  0.12500749972E+03 0.  0.
          5    1    3    3  502    0 -0.29631972354E+02 -0.44190054390E+02 -0.18174779095E+02  0.56420096488E+02  0.47000000000E+01 0. -1.
         -5    1    3    3    0  502  0.23557625170E+02  0.70066780729E+02 -0.14103185177E+02  0.75400963505E+02  0.47000000000E+01 0. -1.
          5    1    4    4  503    0  0.47301108360E+02 -0.58070185666E+02 -0.11913448417E+03  0.14080005907E+03  0.47000000000E+01 0. -1.
         -5    1    4    4    0  503 -0.41226761176E+02  0.32193459326E+02 -0.96327039601E+02  0.10971350518E+03  0.47000000000E+01 0. -1.
<mgrwt>
<rscale>  0 0.12780664E+03</rscale>
<asrwt>0</asrwt>
<pdfrwt beam="2">  1        5 0.48467238E-01 0.12780816E+03</pdfrwt>
<pdfrwt beam="1">  1       -5 0.10353472E-01 0.12780816E+03</pdfrwt>
<totfact> 0.21690018E+02</totfact>
</mgrwt>
</event>
<event>
 8    1  0.3542708E-007  0.1901964E+03  0.7546771E-02  0.1158286E+00
         -5   -1    0    0    0  501 -0.00000000000E+00  0.00000000000E+00  0.50439543189E+02  0.50658044939E+02  0.47000000000E+01 0.  1.
          5   -1    0    0  501    0  0.00000000000E+00 -0.00000000000E+00 -0.75043173690E+03  0.75044645495E+03  0.47000000000E+01 0.  1.
         25    2    1    2    0    0 -0.38171181730E+02  0.13817729640E+03 -0.26344454141E+03  0.32492332804E+03  0.12498855287E+03 0.  0.
         25    2    1    2    0    0  0.38171181730E+02 -0.13817729640E+03 -0.43654765229E+03  0.47618117185E+03  0.12499860536E+03 0.  0.
          5    1    3    3  502    0 -0.31282751480E+02  0.37078927511E+02 -0.71216386657E+01  0.49257132912E+02  0.47000000000E+01 0. -1.
         -5    1    3    3    0  502 -0.68884302505E+01  0.10109836889E+03 -0.25632290275E+03  0.27566619513E+03  0.47000000000E+01 0. -1.
          5    1    4    4  503    0  0.86171943820E+01 -0.14318907298E+03 -0.25944535955E+03  0.29649848440E+03  0.47000000000E+01 0.  1.
         -5    1    4    4    0  503  0.29553987348E+02  0.50117765821E+01 -0.17710229274E+03  0.17968268744E+03  0.47000000000E+01 0.  1.
<mgrwt>
<rscale>  0 0.19019471E+03</rscale>
<asrwt>0</asrwt>
<pdfrwt beam="2">  1        5 0.11546897E+00 0.19019636E+03</pdfrwt>
<pdfrwt beam="1">  1       -5 0.77778703E-02 0.19019636E+03</pdfrwt>
<totfact> 0.54704605E+01</totfact>
</mgrwt>
</event>
<event>
 8    1  0.3542708E-007  0.1319746E+03  0.7546771E-02  0.1224559E+00
          5   -1    0    0  501    0  0.00000000000E+00  0.00000000000E+00  0.39647794210E+03  0.39650579892E+03  0.47000000000E+01 0.  1.
         -5   -1    0    0    0  501 -0.00000000000E+00 -0.00000000000E+00 -0.46511715515E+02  0.46748579446E+02  0.47000000000E+01 0.  1.
         25    2    1    2    0    0  0.21635297813E+02 -0.36400567511E+02  0.12133079606E+03  0.17926298407E+03  0.12498387079E+03 0.  0.
         25    2    1    2    0    0 -0.21635297813E+02  0.36400567511E+02  0.22863543053E+03  0.26399139430E+03  0.12499683494E+03 0.  0.
          5    1    3    3  502    0  0.38047223648E+02  0.29463321085E+02  0.94447560955E+02  0.10610424255E+03  0.47000000000E+01 0. -1.
         -5    1    3    3    0  502 -0.16411925835E+02 -0.65863888596E+02  0.26883235108E+02  0.73158741518E+02  0.47000000000E+01 0. -1.
          5    1    4    4  503    0 -0.17916397536E+02 -0.30389612915E+02  0.17368621521E+03  0.17729500058E+03  0.47000000000E+01 0.  1.
         -5    1    4    4    0  503 -0.37189002762E+01  0.66790180426E+02  0.54949215312E+02  0.86696393720E+02  0.47000000000E+01 0.  1.
<mgrwt>
<rscale>  0 0.13197153E+03</rscale>
<asrwt>0</asrwt>
<pdfrwt beam="1">  1        5 0.61016970E-01 0.13197460E+03</pdfrwt>
<pdfrwt beam="2">  1       -5 0.71760116E-02 0.13197460E+03</pdfrwt>
<totfact> 0.25161459E+02</totfact>
</mgrwt>
</event>
<event>
 8    1  0.3542708E-007  0.1336270E+03  0.7546771E-02  0.1222177E+00
         -5   -1    0    0    0  501 -0.00000000000E+00  0.00000000000E+00  0.16215143325E+03  0.16221953429E+03  0.47000000000E+01 0.  1.
          5   -1    0    0  501    0  0.00000000000E+00 -0.00000000000E+00 -0.13604853860E+03  0.13612969865E+03  0.47000000000E+01 0.  1.
         25    2    1    2    0    0 -0.33333436265E+02 -0.33417314283E+02  0.78330174836E+02  0.15489280078E+03  0.12501331359E+03 0.  0.
         25    2    1    2    0    0  0.33333436265E+02  0.33417314283E+02 -0.52227280183E+02  0.14345643216E+03  0.12499689703E+03 0.  0.
          5    1    4    4  502    0  0.69421947783E+01  0.58999465278E+02  0.19518229542E+02  0.62707114874E+02  0.47000000000E+01 0. -1.
         -5    1    4    4    0  502  0.26391241486E+02 -0.25582150995E+02 -0.71745509725E+02  0.80749317288E+02  0.47000000000E+01 0. -1.
          5    1    3    3  503    0 -0.16818720519E+02  0.43494829421E+02  0.55916788796E+02  0.72961954575E+02  0.47000000000E+01 0.  1.
         -5    1    3    3    0  503 -0.16514715746E+02 -0.76912143704E+02  0.22413386041E+02  0.81930846201E+02  0.47000000000E+01 0.  1.
<mgrwt>
<rscale>  0 0.13362312E+03</rscale>
<asrwt>0</asrwt>
<pdfrwt beam="2">  1        5 0.20942026E-01 0.13362696E+03</pdfrwt>
<pdfrwt beam="1">  1       -5 0.24957856E-01 0.13362696E+03</pdfrwt>
<totfact> 0.23329487E+02</totfact>
</mgrwt>
</event>
<event>
 8    1  0.3542708E-007  0.1461404E+03  0.7546771E-02  0.1205299E+00
          5   -1    0    0  501    0  0.00000000000E+00  0.00000000000E+00  0.13295454682E+03  0.13303759438E+03  0.47000000000E+01 0. -1.
         -5   -1    0    0    0  501 -0.00000000000E+00 -0.00000000000E+00 -0.16424515145E+03  0.16431238473E+03  0.47000000000E+01 0. -1.
         25    2    1    2    0    0 -0.75247491290E+02 -0.83609685180E+01 -0.38197917792E+02  0.15105001908E+03  0.12499974640E+03 0.  0.
         25    2    1    2    0    0  0.75247491290E+02  0.83609685180E+01  0.69073131533E+01  0.14629996004E+03  0.12499550629E+03 0.  0.
          5    1    4    4  502    0  0.33565381339E+02 -0.50393434565E+02 -0.27096305205E+02  0.66501374628E+02  0.47000000000E+01 0. -1.
         -5    1    4    4    0  502  0.41682109951E+02  0.58754403083E+02  0.34003618359E+02  0.79798585407E+02  0.47000000000E+01 0. -1.
          5    1    3    3  503    0 -0.56653907447E+02  0.38164415596E+02  0.22621087134E+02  0.72110966086E+02  0.47000000000E+01 0. -1.
         -5    1    3    3    0  503 -0.18593583843E+02 -0.46525384114E+02 -0.60819004926E+02  0.78939052992E+02  0.47000000000E+01 0. -1.
<mgrwt>
<rscale>  0 0.14613953E+03</rscale>
<asrwt>0</asrwt>
<pdfrwt beam="1">  1        5 0.20466106E-01 0.14614044E+03</pdfrwt>
<pdfrwt beam="2">  1       -5 0.25280045E-01 0.14614044E+03</pdfrwt>
<totfact> 0.24493482E+02</totfact>
</mgrwt>
</event>
<event>
 8    1  0.3542708E-007  0.1578145E+03  0.7546771E-02  0.1191187E+00
         -5   -1    0    0    0  501 -0.00000000000E+00  0.00000000000E+00  0.26960679213E+03  0.26964775608E+03  0.47000000000E+01 0.  1.
          5   -1    0    0  501    0  0.00000000000E+00 -0.00000000000E+00 -0.92329987351E+02  0.92449535230E+02  0.47000000000E+01 0.  1.
         25    2    1    2    0    0 -0.36005997870E+02  0.89356064002E+02  0.93292802447E+02  0.18332726784E+03  0.12499760833E+03 0.  0.
         25    2    1    2    0    0  0.36005997870E+02 -0.89356064002E+02  0.83984002330E+02  0.17877002348E+03  0.12499788234E+03 0.  0.
          5    1    3    3  502    0  0.25193273018E+02 -0.18427980393E+02  0.73014472243E+01  0.32398959834E+02  0.47000000000E+01 0. -1.
         -5    1    3    3    0  502 -0.61199270888E+02  0.10778404439E+03  0.85991355223E+02  0.15092830800E+03  0.47000000000E+01 0. -1.
          5    1    4    4  503    0  0.15373906515E+02 -0.10616125708E+03  0.19870616853E+02  0.10919478431E+03  0.47000000000E+01 0.  1.
         -5    1    4    4    0  503  0.20632091355E+02  0.16805193078E+02  0.64113385477E+02  0.69575239169E+02  0.47000000000E+01 0.  1.
<mgrwt>
<rscale>  0 0.15781442E+03</rscale>
<asrwt>0</asrwt>
<pdfrwt beam="2">  1        5 0.14216961E-01 0.15781448E+03</pdfrwt>
<pdfrwt beam="1">  1       -5 0.41490315E-01 0.15781448E+03</pdfrwt>
<totfact> 0.18327160E+02</totfact>
</mgrwt>
</event>
<event>
 8    1  0.3542708E-007  0.1336058E+03  0.7546771E-02  0.1222204E+00
          5   -1    0    0  501    0  0.00000000000E+00  0.00000000000E+00  0.30225357085E+02  0.30588596092E+02  0.47000000000E+01 0.  1.
         -5   -1    0    0    0  501 -0.00000000000E+00 -0.00000000000E+00 -0.60319762449E+03  0.60321593496E+03  0.47000000000E+01 0.  1.
         25    2    1    2    0    0 -0.23174167325E+02  0.41089107633E+02 -0.33895568287E+03  0.36433416793E+03  0.12499229645E+03 0.  0.
         25    2    1    2    0    0  0.23174167325E+02 -0.41089107633E+02 -0.23401658453E+03  0.26947036312E+03  0.12500063187E+03 0.  0.
          5    1    3    3  502    0 -0.70278490789E+02  0.70650531494E+01 -0.13805167560E+03  0.15514295466E+03  0.47000000000E+01 0. -1.
         -5    1    3    3    0  502  0.47104323464E+02  0.34024054484E+02 -0.20090400727E+03  0.20919121327E+03  0.47000000000E+01 0. -1.
          5    1    4    4  503    0  0.17497411963E+02  0.35482593430E+02 -0.15153190113E+03  0.15668178235E+03  0.47000000000E+01 0.  1.
         -5    1    4    4    0  503  0.56767553622E+01 -0.76571701064E+02 -0.82484683397E+02  0.11278858076E+03  0.47000000000E+01 0.  1.
<mgrwt>
<rscale>  0 0.13360387E+03</rscale>
<asrwt>0</asrwt>
<pdfrwt beam="1">  1        5 0.46794054E-02 0.13360582E+03</pdfrwt>
<pdfrwt beam="2">  1       -5 0.92828975E-01 0.13360582E+03</pdfrwt>
<totfact> 0.19828888E+02</totfact>
</mgrwt>
</event>
<event>
 8    1  0.3542708E-007  0.1429361E+03  0.7546771E-02  0.1209433E+00
         -5   -1    0    0    0  501 -0.00000000000E+00  0.00000000000E+00  0.42071937371E+02  0.42333649903E+02  0.47000000000E+01 0. -1.
          5   -1    0    0  501    0  0.00000000000E+00 -0.00000000000E+00 -0.51284433955E+03  0.51286587585E+03  0.47000000000E+01 0. -1.
         25    2    1    2    0    0 -0.53971688378E+02 -0.43493262230E+02 -0.16937036255E+03  0.22162364387E+03  0.12500445115E+03 0.  0.
         25    2    1    2    0    0  0.53971688378E+02  0.43493262230E+02 -0.30140203963E+03  0.33357588188E+03  0.12500028989E+03 0.  0.
          5    1    3    3  502    0  0.13362806372E+02  0.17793925322E+02 -0.11114075677E+03  0.11344402227E+03  0.47000000000E+01 0. -1.
         -5    1    3    3    0  502 -0.67334494750E+02 -0.61287187551E+02 -0.58229605781E+02  0.10817962161E+03  0.47000000000E+01 0. -1.
          5    1    4    4  503    0  0.18193456117E+02 -0.16710334504E+02 -0.10893214549E+01  0.25169698964E+02  0.47000000000E+01 0. -1.
         -5    1    4    4    0  503  0.35778232261E+02  0.60203596734E+02 -0.30031271817E+03  0.30840618291E+03  0.47000000000E+01 0. -1.
<mgrwt>
<rscale>  0 0.14293516E+03</rscale>
<asrwt>0</asrwt>
<pdfrwt beam="2">  1        5 0.78920913E-01 0.14293607E+03</pdfrwt>
<pdfrwt beam="1">  1       -5 0.64943945E-02 0.14293607E+03</pdfrwt>
<totfact> 0.17157074E+02</totfact>
</mgrwt>
</event>
<event>
 8    1  0.3542708E-007  0.1282638E+03  0.7546771E-02  0.1230060E+00
         -5   -1    0    0    0  501 -0.00000000000E+00  0.00000000000E+00  0.12069181156E+03  0.12078329097E+03  0.47000000000E+01 0.  1.
          5   -1    0    0  501    0  0.00000000000E+00 -0.00000000000E+00 -0.13837843618E+03  0.13845823052E+03  0.47000000000E+01 0.  1.
         25    2    1    2    0    0  0.26696096630E+02  0.10530627810E+02  0.77276653470E+01  0.12849635404E+03  0.12501208139E+03 0.  0.
         25    2    1    2    0    0 -0.26696096630E+02 -0.10530627810E+02 -0.25414289963E+02  0.13074516745E+03  0.12499934791E+03 0.  0.
          5    1    4    4  502    0  0.40979100091E+01 -0.63301709061E+02 -0.27803859992E+02  0.69419333524E+02  0.47000000000E+01 0.  1.
         -5    1    4    4    0  502 -0.30794006639E+02  0.52771081251E+02  0.23895700286E+01  0.61325833922E+02  0.47000000000E+01 0.  1.
          5    1    3    3  503    0 -0.19906511196E+02  0.57975141252E+02  0.64422775215E+01  0.61814069036E+02  0.47000000000E+01 0.  1.
         -5    1    3    3    0  503  0.46602607827E+02 -0.47444513442E+02  0.12853878256E+01  0.66682285008E+02  0.47000000000E+01 0.  1.
<mgrwt>
<rscale>  0 0.12826067E+03</rscale>
<asrwt>0</asrwt>
<pdfrwt beam="2">  1        5 0.21302165E-01 0.12826378E+03</pdfrwt>
<pdfrwt beam="1">  1       -5 0.18581146E-01 0.12826378E+03</pdfrwt>
<totfact> 0.38779181E+02</totfact>
</mgrwt>
</event>
<event>
 8    1  0.3542708E-007  0.1602599E+03  0.7546771E-02  0.1188409E+00
         -5   -1    0    0    0  501 -0.00000000000E+00  0.00000000000E+00  0.79058866828E+03  0.79060263876E+03  0.47000000000E+01 0.  1.
          5   -1    0    0  501    0  0.00000000000E+00 -0.00000000000E+00 -0.43300516168E+02  0.43554847037E+02  0.47000000000E+01 0.  1.
         25    2    1    2    0    0 -0.10019223733E+03 -0.41915367046E+01  0.58314846446E+03  0.60476886017E+03  0.12500875656E+03 0.  0.
         25    2    1    2    0    0  0.10019223733E+03  0.41915367046E+01  0.16413968765E+03  0.22938862563E+03  0.12498500353E+03 0.  0.
          5    1    4    4  502    0  0.14088615876E+02  0.57074734131E+02  0.64577476107E+02  0.87454872898E+02  0.47000000000E+01 0. -1.
         -5    1    4    4    0  502  0.86103621458E+02 -0.52883197426E+02  0.99562211542E+02  0.14193375273E+03  0.47000000000E+01 0. -1.
          5    1    3    3  503    0 -0.46574132200E+02 -0.82509199406E+01  0.51795075155E+03  0.52012719454E+03  0.47000000000E+01 0. -1.
         -5    1    3    3    0  503 -0.53618105133E+02  0.40593832360E+01  0.65197712915E+02  0.84641665624E+02  0.47000000000E+01 0. -1.
<mgrwt>
<rscale>  0 0.16025529E+03</rscale>
<asrwt>0</asrwt>
<pdfrwt beam="2">  1        5 0.66822569E-02 0.16025992E+03</pdfrwt>
<pdfrwt beam="1">  1       -5 0.12164966E+00 0.16025992E+03</pdfrwt>
<totfact> 0.59226305E+01</totfact>
</mgrwt>
</event>
<event>
 8    1  0.3542708E-007  0.1408581E+03  0.7546771E-02  0.1212180E+00
         -5   -1    0    0    0  501 -0.00000000000E+00  0.00000000000E+00  0.64170322532E+02  0.64342212379E+02  0.47000000000E+01 0.  1.
          5   -1    0    0  501    0  0.00000000000E+00 -0.00000000000E+00 -0.31906059115E+03  0.31909520652E+03  0.47000000000E+01 0.  1.
         25    2    1    2    0    0 -0.35763108904E+02  0.54193426974E+02 -0.92706150433E+02  0.16862425102E+03  0.12499512077E+03 0.  0.
         25    2    1    2    0    0  0.35763108904E+02 -0.54193426974E+02 -0.16218411818E+03  0.21481316788E+03  0.12500032568E+03 0.  0.
          5    1    4    4  502    0 -0.25144952764E+02  0.17473926285E+01  0.68804447679E+01  0.26547175946E+02  0.47000000000E+01 0.  1.
         -5    1    4    4    0  502  0.60908061668E+02 -0.55940819602E+02 -0.16906456295E+03  0.18826599194E+03  0.47000000000E+01 0.  1.
          5    1    3    3  503    0 -0.43445675626E+02  0.22140404976E+02 -0.11737444023E+03  0.12718715927E+03  0.47000000000E+01 0.  1.
         -5    1    3    3    0  503  0.76825667221E+01  0.32053021997E+02  0.24668289801E+02  0.41437091746E+02  0.47000000000E+01 0.  1.
<mgrwt>
<rscale>  0 0.14085696E+03</rscale>
<asrwt>0</asrwt>
<pdfrwt beam="2">  1        5 0.49102129E-01 0.14085812E+03</pdfrwt>
<pdfrwt beam="1">  1       -5 0.98882425E-02 0.14085812E+03</pdfrwt>
<totfact> 0.23646129E+02</totfact>
</mgrwt>
</event>
<event>
 8    1  0.3542708E-007  0.1577682E+03  0.7546771E-02  0.1191241E+00
          5   -1    0    0  501    0  0.00000000000E+00  0.00000000000E+00  0.54839572966E+03  0.54841586985E+03  0.47000000000E+01 0. -1.
         -5   -1    0    0    0  501 -0.00000000000E+00 -0.00000000000E+00 -0.45863312974E+02  0.46103508294E+02  0.47000000000E+01 0. -1.
         25    2    1    2    0    0 -0.84952795497E+02  0.45262777235E+02  0.21682687790E+03  0.26815052934E+03  0.12500045975E+03 0.  0.
         25    2    1    2    0    0  0.84952795497E+02 -0.45262777235E+02  0.28570553879E+03  0.32636884881E+03  0.12499309627E+03 0.  0.
          5    1    3    3  502    0 -0.10701916283E+03  0.23749727831E+02  0.10430274873E+03  0.15138792613E+03  0.47000000000E+01 0. -1.
         -5    1    3    3    0  502  0.22066367337E+02  0.21513049403E+02  0.11252412917E+03  0.11676260321E+03  0.47000000000E+01 0. -1.
          5    1    4    4  503    0  0.33784593639E+02 -0.79569756969E+02  0.10914682775E+03  0.13931211361E+03  0.47000000000E+01 0. -1.
         -5    1    4    4    0  503  0.51168201857E+02  0.34306979734E+02  0.17655871104E+03  0.18705673520E+03  0.47000000000E+01 0. -1.
<mgrwt>
<rscale>  0 0.15776676E+03</rscale>
<asrwt>0</asrwt>
<pdfrwt beam="1">  1        5 0.84388603E-01 0.15776822E+03</pdfrwt>
<pdfrwt beam="2">  1       -5 0.70759198E-02 0.15776822E+03</pdfrwt>
<totfact> 0.13100499E+02</totfact>
</mgrwt>
</event>
<event>
 8    1  0.3542708E-007  0.1406296E+03  0.7546771E-02  0.1212485E+00
         -5   -1    0    0    0  501 -0.00000000000E+00  0.00000000000E+00  0.10110973080E+04  0.10111082318E+04  0.47000000000E+01 0.  1.
          5   -1    0    0  501    0  0.00000000000E+00 -0.00000000000E+00 -0.20826892454E+02  0.21350631122E+02  0.47000000000E+01 0.  1.
         25    2    1    2    0    0 -0.40036467893E+02 -0.50486906966E+02  0.63461713295E+03  0.65001155759E+03  0.12499709209E+03 0.  0.
         25    2    1    2    0    0  0.40036467893E+02  0.50486906966E+02  0.35565328265E+03  0.38244730530E+03  0.12499934934E+03 0.  0.
          5    1    3    3  502    0 -0.34519618503E+02 -0.33553565756E+02  0.62885467234E+03  0.63071208547E+03  0.47000000000E+01 0.  1.
         -5    1    3    3    0  502 -0.55168493900E+01 -0.16933341211E+02  0.57624606085E+01  0.19299472118E+02  0.47000000000E+01 0.  1.
          5    1    4    4  503    0  0.48124175847E+01  0.84925314715E+02  0.16782290547E+03  0.18820756107E+03  0.47000000000E+01 0. -1.
         -5    1    4    4    0  503  0.35224050308E+02 -0.34438407749E+02  0.18783037718E+03  0.19423974423E+03  0.47000000000E+01 0. -1.
<mgrwt>
<rscale>  0 0.14062910E+03</rscale>
<asrwt>0</asrwt>
<pdfrwt beam="2">  1        5 0.32452658E-02 0.14062960E+03</pdfrwt>
<pdfrwt beam="1">  1       -5 0.15559453E+00 0.14062960E+03</pdfrwt>
<totfact> 0.97971021E+01</totfact>
</mgrwt>
</event>
<event>
 8    1  0.3542708E-007  0.1572292E+03  0.7546771E-02  0.1191861E+00
         -5   -1    0    0    0  501 -0.00000000000E+00  0.00000000000E+00  0.11921324482E+03  0.11930585795E+03  0.47000000000E+01 0. -1.
          5   -1    0    0  501    0  0.00000000000E+00 -0.00000000000E+00 -0.23162232906E+03  0.23167000954E+03  0.47000000000E+01 0. -1.
         25    2    1    2    0    0 -0.25193565275E+02  0.91985881531E+02  0.79911879896E+00  0.15723125438E+03  0.12499964252E+03 0.  0.
         25    2    1    2    0    0  0.25193565275E+02 -0.91985881531E+02 -0.11320820304E+03  0.19374461311E+03  0.12499903896E+03 0.  0.
          5    1    4    4  502    0  0.23910310111E+02 -0.42717904891E+02  0.18883206034E+02  0.52680051234E+02  0.47000000000E+01 0. -1.
         -5    1    4    4    0  502  0.12832551632E+01 -0.49267976640E+02 -0.13209140907E+03  0.14106456188E+03  0.47000000000E+01 0. -1.
          5    1    3    3  503    0  0.41806128647E+02  0.16385575708E+02  0.27209814056E+02  0.52713408775E+02  0.47000000000E+01 0. -1.
         -5    1    3    3    0  503 -0.66999693922E+02  0.75600305822E+02 -0.26410695257E+02  0.10451784561E+03  0.47000000000E+01 0. -1.
<mgrwt>
<rscale>  0 0.15722910E+03</rscale>
<asrwt>0</asrwt>
<pdfrwt beam="2">  1        5 0.35644996E-01 0.15722922E+03</pdfrwt>
<pdfrwt beam="1">  1       -5 0.18351291E-01 0.15722922E+03</pdfrwt>
<totfact> 0.15641789E+02</totfact>
</mgrwt>
</event>
<event>
 8    1  0.3542708E-007  0.1252199E+03  0.7546771E-02  0.1234736E+00
         -5   -1    0    0    0  501 -0.00000000000E+00  0.00000000000E+00  0.36583986464E+03  0.36587005420E+03  0.47000000000E+01 0.  1.
          5   -1    0    0  501    0  0.00000000000E+00 -0.00000000000E+00 -0.43878164742E+02  0.44129166558E+02  0.47000000000E+01 0.  1.
         25    2    1    2    0    0  0.35536913337E+01  0.63852397086E+01  0.12734972866E+03  0.17858217855E+03  0.12498096294E+03 0.  0.
         25    2    1    2    0    0 -0.35536913337E+01 -0.63852397086E+01  0.19461197125E+03  0.23141704221E+03  0.12500651210E+03 0.  0.
          5    1    3    3  502    0  0.27202474965E+02 -0.24563106268E+02  0.13381305850E+03  0.13882127163E+03  0.47000000000E+01 0.  1.
         -5    1    3    3    0  502 -0.23648783632E+02  0.30948345976E+02 -0.64633298424E+01  0.39760906913E+02  0.47000000000E+01 0.  1.
          5    1    4    4  503    0 -0.62908728893E+02  0.77556046400E+01  0.10908357855E+03  0.12624965221E+03  0.47000000000E+01 0.  1.
         -5    1    4    4    0  503  0.59355037560E+02 -0.14140844349E+02  0.85528392695E+02  0.10516739000E+03  0.47000000000E+01 0.  1.
<mgrwt>
<rscale>  0 0.12521354E+03</rscale>
<asrwt>0</asrwt>
<pdfrwt beam="2">  1        5 0.67721168E-02 0.12521992E+03</pdfrwt>
<pdfrwt beam="1">  1       -5 0.56304688E-01 0.12521992E+03</pdfrwt>
<totfact> 0.32440871E+02</totfact>
</mgrwt>
</event>
<event>
 8    1  0.3542708E-007  0.1775650E+03  0.7546771E-02  0.1170182E+00
          5   -1    0    0  501    0  0.00000000000E+00  0.00000000000E+00  0.25358116273E+03  0.25362471507E+03  0.47000000000E+01 0.  1.
         -5   -1    0    0    0  501 -0.00000000000E+00 -0.00000000000E+00 -0.12439024070E+03  0.12447900217E+03  0.47000000000E+01 0.  1.
         25    2    1    2    0    0 -0.12604322937E+03 -0.42179307098E+01  0.71280724252E+02  0.19133811515E+03  0.12499858420E+03 0.  0.
         25    2    1    2    0    0  0.12604322937E+03  0.42179307098E+01  0.57910197778E+02  0.18676560208E+03  0.12499244980E+03 0.  0.
          5    1    4    4  502    0 -0.77696507399E+01 -0.20623015524E+02 -0.19779415744E+02  0.29983187441E+02  0.47000000000E+01 0. -1.
         -5    1    4    4    0  502  0.13381288011E+03  0.24840946234E+02  0.77689613523E+02  0.15678241464E+03  0.47000000000E+01 0. -1.
          5    1    3    3  503    0  0.17494592988E+02  0.21126839364E+02 -0.24274395726E+01  0.27935400270E+02  0.47000000000E+01 0. -1.
         -5    1    3    3    0  503 -0.14353782235E+03 -0.25344770074E+02  0.73708163825E+02  0.16340271488E+03  0.47000000000E+01 0. -1.
<mgrwt>
<rscale>  0 0.17756393E+03</rscale>
<asrwt>0</asrwt>
<pdfrwt beam="1">  1        5 0.39022665E-01 0.17756501E+03</pdfrwt>
<pdfrwt beam="2">  1       -5 0.19147138E-01 0.17756501E+03</pdfrwt>
<totfact> 0.12478575E+02</totfact>
</mgrwt>
</event>
<event>
 8    1  0.3542708E-007  0.1267171E+03  0.7546771E-02  0.1232413E+00
         -5   -1    0    0    0  501 -0.00000000000E+00  0.00000000000E+00  0.38953719985E+03  0.38956555298E+03  0.47000000000E+01 0. -1.
          5   -1    0    0  501    0  0.00000000000E+00 -0.00000000000E+00 -0.44541924854E+02  0.44789207067E+02  0.47000000000E+01 0. -1.
         25    2    1    2    0    0 -0.70115472276E+00 -0.20743758311E+02  0.23307306825E+03  0.26529283235E+03  0.12500574636E+03 0.  0.
         25    2    1    2    0    0  0.70115472276E+00  0.20743758311E+02  0.11192220674E+03  0.16906192770E+03  0.12499823962E+03 0.  0.
          5    1    3    3  502    0 -0.12902591553E+02  0.50848934715E+02  0.11672432581E+03  0.12805760136E+03  0.47000000000E+01 0. -1.
         -5    1    3    3    0  502  0.12201436831E+02 -0.71592693026E+02  0.11634874244E+03  0.13723523099E+03  0.47000000000E+01 0. -1.
          5    1    4    4  503    0  0.18675291535E+02  0.22787568285E+02  0.13562993684E+03  0.13887263788E+03  0.47000000000E+01 0.  1.
         -5    1    4    4    0  503 -0.17974136812E+02 -0.20438099742E+01 -0.23707730102E+02  0.30189289822E+02  0.47000000000E+01 0.  1.
<mgrwt>
<rscale>  0 0.12671528E+03</rscale>
<asrwt>0</asrwt>
<pdfrwt beam="2">  1        5 0.68738067E-02 0.12671713E+03</pdfrwt>
<pdfrwt beam="1">  1       -5 0.59950002E-01 0.12671713E+03</pdfrwt>
<totfact> 0.27723586E+02</totfact>
</mgrwt>
</event>
